 vasp.6.3.2 27Jun22 (build Dec 22 2022 13:13:19) complex                        
  
 executed on             LinuxIFC date 2023.10.19  04:40:07
 running   48 mpi-ranks, with    1 threads/rank
 distrk:  each k-point on   48 cores,    1 groups
 distr:  one band on NCORE=   1 cores,   48 groups


--------------------------------------------------------------------------------------------------------


 INCAR:
   SYSTEM = Graphene
   ISTART = 0
   ICHARG = 2
   PREC = Accurate
   ENCUT = 450
   LCHARG = .FALSE.
   LWAVE = .FALSE.
   ALGO = Normal
   EDIFF = 1E-6
   EDIFFG = -1E-2
   SIGMA = 0.1
   ISMEAR = 0
   ISPIN = 1
   NSW = 100
   IBRION = 2
   ISIF = 2
   GGA = PE
   IVDW = 12

 POTCAR:    PAW_PBE C 08Apr2002                   
 POTCAR:    PAW_PBE C 08Apr2002                   
   SHA256 =  253f7b50bb8d59471dbedb8285d89021f4a42ed1a2c5d38a03a736e69125dd95 C/POTCAR              
   COPYR  = (c) Copyright 08Apr2002 Georg Kresse                                                    
   COPYR  = This file is part of the software VASP. Any use, copying, and all other rights are regul
   COPYR  = If you do not have a valid VASP license, you may not use, copy or distribute this file. 
   VRHFIN =C: s2p2                                                                                  
   LEXCH  = PE                                                                                      
   EATOM  =   147.1560 eV,   10.8157 Ry                                                             
                                                                                                    
   TITEL  = PAW_PBE C 08Apr2002                                                                     
   LULTRA =        F    use ultrasoft PP ?                                                          
   IUNSCR =        1    unscreen: 0-lin 1-nonlin 2-no                                               
   RPACOR =    1.200    partial core radius                                                         
   POMASS =   12.011; ZVAL   =    4.000    mass and valenz                                          
   RCORE  =    1.500    outmost cutoff radius                                                       
   RWIGS  =    1.630; RWIGS  =    0.863    wigner-seitz radius (au A)                               
   ENMAX  =  400.000; ENMIN  =  300.000 eV                                                          
   ICORE  =        2    local potential                                                             
   LCOR   =        T    correct aug charges                                                         
   LPAW   =        T    paw PP                                                                      
   EAUG   =  644.873                                                                                
   DEXC   =    0.000                                                                                
   RMAX   =    1.529    core radius for proj-oper                                                   
   RAUG   =    1.300    factor for augmentation sphere                                              
   RDEP   =    1.501    radius for radial grids                                                     
   RDEPT  =    1.300    core radius for aug-charge                                                  
                                                                                                    
   Atomic configuration                                                                             
    4 entries                                                                                       
     n  l   j            E        occ.                                                              
     1  0  0.50      -273.3789   2.0000                                                             
     2  0  0.50       -13.7508   2.0000                                                             
     2  1  0.50        -5.2854   2.0000                                                             
     3  2  1.50        -5.4423   0.0000                                                             
   Description                                                                                      
     l       E           TYP  RCUT    TYP  RCUT                                                     
     0    -13.7508458     23  1.200                                                                 
     0     -8.2022199     23  1.200                                                                 
     1     -5.2854383     23  1.500                                                                 
     1     34.0145650     23  1.500                                                                 
     2     -5.4423304      7  1.500                                                                 
  local pseudopotential read in
  partial core-charges read in
  partial kinetic energy density read in
  atomic valenz-charges read in
  non local Contribution for L=           0  read in
    real space projection operators read in
  non local Contribution for L=           0  read in
    real space projection operators read in
  non local Contribution for L=           1  read in
    real space projection operators read in
  non local Contribution for L=           1  read in
    real space projection operators read in
    PAW grid and wavefunctions read in
 
   number of l-projection  operators is LMAX  =           4
   number of lm-projection operators is LMMAX =           8
 
  PAW_PBE C 08Apr2002                   :
 energy of atom  1       EATOM= -147.1560
 kinetic energy error for atom=    0.0116 (will be added to EATOM!!)
 
 
 POSCAR: Graphene with lattice parameter 2.410
  positions in direct lattice
  No initial velocities read in
 exchange correlation table for  LEXCH =        8
   RHO(1)=    0.500       N(1)  =     2000
   RHO(2)=  100.500       N(2)  =     4000

 VTST: version 4.2, (08/11/21)

 CHAIN: initializing optimizer
 
 OPT: Using VASP Conjugate-Gradient optimizer
 CHAIN: Read ICHAIN            0
 
 POSCAR: Graphene with lattice parameter 2.410
  positions in direct lattice
  No initial velocities read in
 


--------------------------------------------------------------------------------------------------------


 ion  position               nearest neighbor table
   1  0.167  0.333  0.100-   4 1.39   6 1.39   2 1.39
   2  0.333  0.167  0.100-   3 1.39   5 1.39   1 1.39
   3  0.167  0.833  0.100-   2 1.39   8 1.39   4 1.39
   4  0.333  0.667  0.100-   1 1.39   7 1.39   3 1.39
   5  0.667  0.333  0.100-   2 1.39   8 1.39   6 1.39
   6  0.833  0.167  0.100-   1 1.39   7 1.39   5 1.39
   7  0.667  0.833  0.100-   4 1.39   6 1.39   8 1.39
   8  0.833  0.667  0.100-   3 1.39   5 1.39   7 1.39
 
  LATTYP: Found a hexagonal cell.
 ALAT       =     4.8199996135
 C/A-ratio  =     3.1120334445
  
  Lattice vectors:
  
 A1 = (   4.1742420000,   2.4100000000,   0.0000000000)
 A2 = (  -4.1742420000,   2.4100000000,   0.0000000000)
 A3 = (   0.0000000000,   0.0000000000,  15.0000000000)


Analysis of symmetry for initial positions (statically):
=====================================================================
 Subroutine PRICEL returns following result:
 
  LATTYP: Found a hexagonal cell.
 ALAT       =     2.4099998068
 C/A-ratio  =     6.2240668891
  
  Lattice vectors:
  
 A1 = (   2.0871210000,   1.2050000000,   0.0000000000)
 A2 = (  -2.0871210000,   1.2050000000,   0.0000000000)
 A3 = (   0.0000000000,   0.0000000000,  15.0000000000)
 
   4 primitive cells build up your supercell.
 

 Routine SETGRP: Setting up the symmetry group for a 
 hexagonal supercell.


 Subroutine GETGRP returns: Found 24 space group operations
 (whereof 12 operations were pure point group operations)
 out of a pool of 24 trial point group operations.


The static configuration has the point symmetry C_6v.
 The point group associated with its full space group is D_6h.


Analysis of symmetry for dynamics (positions and initial velocities):
=====================================================================
 Subroutine PRICEL returns following result:
 
  LATTYP: Found a hexagonal cell.
 ALAT       =     2.4099998068
 C/A-ratio  =     6.2240668891
  
  Lattice vectors:
  
 A1 = (   2.0871210000,   1.2050000000,   0.0000000000)
 A2 = (  -2.0871210000,   1.2050000000,   0.0000000000)
 A3 = (   0.0000000000,   0.0000000000,  15.0000000000)
 
   4 primitive cells build up your supercell.
 

 Routine SETGRP: Setting up the symmetry group for a 
 hexagonal supercell.


 Subroutine GETGRP returns: Found 24 space group operations
 (whereof 12 operations were pure point group operations)
 out of a pool of 24 trial point group operations.


The dynamic configuration has the point symmetry C_6v.
 The point group associated with its full space group is D_6h.


 Subroutine INISYM returns: Found 24 space group operations
 (whereof 12 operations are pure point group operations),
 and found     4 'primitive' translations


----------------------------------------------------------------------------------------

                                     Primitive cell                                     

  volume of cell :      75.4494

  direct lattice vectors                    reciprocal lattice vectors
     2.087121000  1.205000000  0.000000000     0.239564453  0.414937759  0.000000000
    -2.087121000  1.205000000  0.000000000    -0.239564453  0.414937759  0.000000000
     0.000000000  0.000000000 15.000000000     0.000000000  0.000000000  0.066666667

  length of vectors
     2.409999807  2.409999807 15.000000000     0.479128867  0.479128867  0.066666667

  position of ions in fractional coordinates (direct lattice)
     0.333332000  0.666666000  0.100000000
     0.666666000  0.333332000  0.100000000

  ion indices of the primitive-cell ions
   primitive index   ion index
                 1           1
                 2           2

----------------------------------------------------------------------------------------

 
 
 KPOINTS: k-points                                

Automatic generation of k-mesh.
 Grid dimensions read from file:
 generate k-points for:   12   12    1

 Generating k-lattice:

  Cartesian coordinates                     Fractional coordinates (reciprocal lattice)
     0.009981852  0.017289073  0.000000000     0.083333333 -0.000000000  0.000000000
    -0.009981852  0.017289073  0.000000000    -0.000000000  0.083333333  0.000000000
     0.000000000  0.000000000  0.066666667     0.000000000  0.000000000  1.000000000

  Length of vectors
     0.019963703  0.019963703  0.066666667

  Shift w.r.t. Gamma in fractional coordinates (k-lattice)
     0.000000000  0.000000000  0.000000000

 
 Subroutine IBZKPT returns following result:
 ===========================================
 
 Found     19 irreducible k-points:
 
 Following reciprocal coordinates:
            Coordinates               Weight
  0.000000  0.000000  0.000000      1.000000
  0.083333 -0.000000  0.000000      6.000000
  0.166667 -0.000000  0.000000      6.000000
  0.250000 -0.000000  0.000000      6.000000
  0.333333  0.000000  0.000000      6.000000
  0.416667 -0.000000  0.000000      6.000000
  0.500000 -0.000000  0.000000      3.000000
  0.083333  0.083333  0.000000      6.000000
  0.166667  0.083333  0.000000     12.000000
  0.250000  0.083333  0.000000     12.000000
  0.333333  0.083333  0.000000     12.000000
  0.416667  0.083333  0.000000     12.000000
  0.166667  0.166667  0.000000      6.000000
  0.250000  0.166667  0.000000     12.000000
  0.333333  0.166667  0.000000     12.000000
  0.416667  0.166667  0.000000      6.000000
  0.250000  0.250000  0.000000      6.000000
  0.333333  0.250000  0.000000     12.000000
  0.333333  0.333333  0.000000      2.000000
 
 Following cartesian coordinates:
            Coordinates               Weight
  0.000000  0.000000  0.000000      1.000000
  0.009982  0.017289  0.000000      6.000000
  0.019964  0.034578  0.000000      6.000000
  0.029946  0.051867  0.000000      6.000000
  0.039927  0.069156  0.000000      6.000000
  0.049909  0.086445  0.000000      6.000000
  0.059891  0.103734  0.000000      3.000000
 -0.000000  0.034578  0.000000      6.000000
  0.009982  0.051867  0.000000     12.000000
  0.019964  0.069156  0.000000     12.000000
  0.029946  0.086445  0.000000     12.000000
  0.039927  0.103734  0.000000     12.000000
  0.000000  0.069156  0.000000      6.000000
  0.009982  0.086445  0.000000     12.000000
  0.019964  0.103734  0.000000     12.000000
  0.029946  0.121024  0.000000      6.000000
 -0.000000  0.103734  0.000000      6.000000
  0.009982  0.121024  0.000000     12.000000
 -0.000000  0.138313  0.000000      2.000000
 


--------------------------------------------------------------------------------------------------------




 Dimension of arrays:
   k-points           NKPTS =     19   k-points in BZ     NKDIM =     19   number of bands    NBANDS=     48
   number of dos      NEDOS =    301   number of ions     NIONS =      8
   non local maximal  LDIM  =      4   non local SUM 2l+1 LMDIM =      8
   total plane-waves  NPLWV = 139968
   max r-space proj   IRMAX =      1   max aug-charges    IRDMAX=   5672
   dimension x,y,z NGX =    36 NGY =   36 NGZ =  108
   dimension x,y,z NGXF=    72 NGYF=   72 NGZF=  216
   support grid    NGXF=    72 NGYF=   72 NGZF=  216
   ions per type =               8
   NGX,Y,Z   is equivalent  to a cutoff of  12.42, 12.42, 11.97 a.u.
   NGXF,Y,Z  is equivalent  to a cutoff of  24.83, 24.83, 23.94 a.u.

 SYSTEM =  Graphene                                
 POSCAR =  Graphene with lattice parameter 2.410   

 Startparameter for this run:
   NWRITE =      2    write-flag & timer
   PREC   = accura    normal or accurate (medium, high low for compatibility)
   ISTART =      0    job   : 0-new  1-cont  2-samecut
   ICHARG =      2    charge: 1-file 2-atom 10-const
   ISPIN  =      1    spin polarized calculation?
   LNONCOLLINEAR =      F non collinear calculations
   LSORBIT =      F    spin-orbit coupling
   INIWAV =      1    electr: 0-lowe 1-rand  2-diag
   LASPH  =      F    aspherical Exc in radial PAW
 Electronic Relaxation 1
   ENCUT  =  450.0 eV  33.07 Ry    5.75 a.u.   8.34  8.34 25.95*2*pi/ulx,y,z
   ENINI  =  450.0     initial cutoff
   ENAUG  =  644.9 eV  augmentation charge cutoff
   NELM   =     60;   NELMIN=  2; NELMDL= -5     # of ELM steps 
   EDIFF  = 0.1E-05   stopping-criterion for ELM
   LREAL  =      F    real-space projection
   NLSPLINE    = F    spline interpolate recip. space projectors
   LCOMPAT=      F    compatible to vasp.4.4
   GGA_COMPAT  = T    GGA compatible to vasp.4.4-vasp.4.6
   LMAXPAW     = -100 max onsite density
   LMAXMIX     =    2 max onsite mixed and CHGCAR
   VOSKOWN=      0    Vosko Wilk Nusair interpolation
   ROPT   =    0.00000
 Ionic relaxation
   EDIFFG = -.1E-01   stopping-criterion for IOM
   NSW    =    100    number of steps for IOM
   NBLOCK =      1;   KBLOCK =    100    inner block; outer block 
   IBRION =      2    ionic relax: 0-MD 1-quasi-New 2-CG
   NFREE  =      1    steps in history (QN), initial steepest desc. (CG)
   ISIF   =      2    stress and relaxation
   IWAVPR =     11    prediction:  0-non 1-charg 2-wave 3-comb
   ISYM   =      2    0-nonsym 1-usesym 2-fastsym
   LCORR  =      T    Harris-Foulkes like correction to forces

   POTIM  = 0.5000    time-step for ionic-motion
   TEIN   =    0.0    initial temperature
   TEBEG  =    0.0;   TEEND  =   0.0 temperature during run
   SMASS  =  -3.00    Nose mass-parameter (am)
   estimated Nose-frequenzy (Omega)   =  0.10E-29 period in steps = 0.13E+47 mass=  -0.531E-27a.u.
   SCALEE = 1.0000    scale energy and forces
   NPACO  =    256;   APACO  = 10.0  distance and # of slots for P.C.
   PSTRESS=    0.0 pullay stress

  Mass of Ions in am
   POMASS =  12.01
  Ionic Valenz
   ZVAL   =   4.00
  Atomic Wigner-Seitz radii
   RWIGS  =  -1.00
  virtual crystal weights 
   VCA    =   1.00
   NELECT =      32.0000    total number of electrons
   NUPDOWN=      -1.0000    fix difference up-down

 DOS related values:
   EMIN   =  10.00;   EMAX   =-10.00  energy-range for DOS
   EFERMI =   0.00
   ISMEAR =     0;   SIGMA  =   0.10  broadening in eV -4-tet -1-fermi 0-gaus

 Electronic relaxation 2 (details)
   IALGO  =     38    algorithm
   LDIAG  =      T    sub-space diagonalisation (order eigenvalues)
   LSUBROT=      F    optimize rotation matrix (better conditioning)
   TURBO    =      0    0=normal 1=particle mesh
   IRESTART =      0    0=no restart 2=restart with 2 vectors
   NREBOOT  =      0    no. of reboots
   NMIN     =      0    reboot dimension
   EREF     =   0.00    reference energy to select bands
   IMIX   =      4    mixing-type and parameters
     AMIX     =   0.40;   BMIX     =  1.00
     AMIX_MAG =   1.60;   BMIX_MAG =  1.00
     AMIN     =   0.10
     WC   =   100.;   INIMIX=   1;  MIXPRE=   1;  MAXMIX= -45

 Intra band minimization:
   WEIMIN = 0.0010     energy-eigenvalue tresh-hold
   EBREAK =  0.52E-08  absolut break condition
   DEPER  =   0.30     relativ break condition  

   TIME   =   0.40     timestep for ELM

  volume/ion in A,a.u.               =      37.72       254.58
  Fermi-wavevector in a.u.,A,eV,Ry     =   0.774853  1.464261  8.168907  0.600398
  Thomas-Fermi vector in A             =   1.876997
 
 Write flags
   LWAVE        =      F    write WAVECAR
   LDOWNSAMPLE  =      F    k-point downsampling of WAVECAR
   LCHARG       =      F    write CHGCAR
   LVTOT        =      F    write LOCPOT, total local potential
   LVHAR        =      F    write LOCPOT, Hartree potential only
   LELF         =      F    write electronic localiz. function (ELF)
   LORBIT       =      0    0 simple, 1 ext, 2 COOP (PROOUT), +10 PAW based schemes


 Dipole corrections
   LMONO  =      F    monopole corrections only (constant potential shift)
   LDIPOL =      F    correct potential (dipole corrections)
   IDIPOL =      0    1-x, 2-y, 3-z, 4-all directions 
   EPSILON=  1.0000000 bulk dielectric constant

 Exchange correlation treatment:
   GGA     =    PE    GGA type
   LEXCH   =     8    internal setting for exchange type
   LIBXC   =     F    Libxc                    
   VOSKOWN =     0    Vosko Wilk Nusair interpolation
   LHFCALC =     F    Hartree Fock is set to
   LHFONE  =     F    Hartree Fock one center treatment
   AEXX    =    0.0000 exact exchange contribution

 Linear response parameters
   LEPSILON=     F    determine dielectric tensor
   LRPA    =     F    only Hartree local field effects (RPA)
   LNABLA  =     F    use nabla operator in PAW spheres
   LVEL    =     F    velocity operator in full k-point grid
   CSHIFT  =0.1000    complex shift for real part using Kramers Kronig
   OMEGAMAX=  -1.0    maximum frequency
   DEG_THRESHOLD= 0.2000000E-02 threshold for treating states as degnerate
   RTIME   =   -0.100 relaxation time in fs
  (WPLASMAI=    0.000 imaginary part of plasma frequency in eV, 0.658/RTIME)
   DFIELD  = 0.0000000 0.0000000 0.0000000 field for delta impulse in time
 
  Optional k-point grid parameters
   LKPOINTS_OPT  =     F    use optional k-point grid
   KPOINTS_OPT_MODE=     1    mode for optional k-point grid
 
 Orbital magnetization related:
   ORBITALMAG=     F  switch on orbital magnetization
   LCHIMAG   =     F  perturbation theory with respect to B field
   DQ        =  0.001000  dq finite difference perturbation B field
   LLRAUG    =     F  two centre corrections for induced B field



--------------------------------------------------------------------------------------------------------


 conjugate gradient relaxation of ions
 charge density and potential will be updated during run
 non-spin polarized calculation
 Variant of blocked Davidson
 Davidson routine will perform the subspace rotation
 perform sub-space diagonalisation
    after iterative eigenvector-optimisation
 modified Broyden-mixing scheme, WC =      100.0
 initial mixing is a Kerker type mixing with AMIX =  0.4000 and BMIX =      1.0000
 Hartree-type preconditioning will be used
 using additional bands           32
 reciprocal scheme for non local part
 use partial core corrections
 calculate Harris-corrections to forces 
   (improved forces if not selfconsistent)
 use gradient corrections 
 use of overlap-Matrix (Vanderbilt PP)
 Gauss-broadening in eV      SIGMA  =   0.10


--------------------------------------------------------------------------------------------------------


  energy-cutoff  :      450.00
  volume of cell :      301.80
      direct lattice vectors                 reciprocal lattice vectors
     4.174242000  2.410000000  0.000000000     0.119782226  0.207468880  0.000000000
    -4.174242000  2.410000000  0.000000000    -0.119782226  0.207468880  0.000000000
     0.000000000  0.000000000 15.000000000     0.000000000  0.000000000  0.066666667

  length of vectors
     4.819999614  4.819999614 15.000000000     0.239564433  0.239564433  0.066666667


 
 k-points in units of 2pi/SCALE and weight: k-points                                
   0.00000000  0.00000000  0.00000000       0.007
   0.00998185  0.01728907  0.00000000       0.042
   0.01996370  0.03457815  0.00000000       0.042
   0.02994556  0.05186722  0.00000000       0.042
   0.03992741  0.06915629  0.00000000       0.042
   0.04990926  0.08644537  0.00000000       0.042
   0.05989111  0.10373444  0.00000000       0.021
  -0.00000000  0.03457815  0.00000000       0.042
   0.00998185  0.05186722  0.00000000       0.083
   0.01996370  0.06915629  0.00000000       0.083
   0.02994556  0.08644537  0.00000000       0.083
   0.03992741  0.10373444  0.00000000       0.083
   0.00000000  0.06915629  0.00000000       0.042
   0.00998185  0.08644537  0.00000000       0.083
   0.01996370  0.10373444  0.00000000       0.083
   0.02994556  0.12102351  0.00000000       0.042
  -0.00000000  0.10373444  0.00000000       0.042
   0.00998185  0.12102351  0.00000000       0.083
  -0.00000000  0.13831259  0.00000000       0.014
 
 k-points in reciprocal lattice and weights: k-points                                
   0.00000000  0.00000000  0.00000000       0.007
   0.08333333 -0.00000000  0.00000000       0.042
   0.16666667 -0.00000000  0.00000000       0.042
   0.25000000 -0.00000000  0.00000000       0.042
   0.33333333  0.00000000  0.00000000       0.042
   0.41666667 -0.00000000  0.00000000       0.042
   0.50000000 -0.00000000  0.00000000       0.021
   0.08333333  0.08333333  0.00000000       0.042
   0.16666667  0.08333333  0.00000000       0.083
   0.25000000  0.08333333  0.00000000       0.083
   0.33333333  0.08333333  0.00000000       0.083
   0.41666667  0.08333333  0.00000000       0.083
   0.16666667  0.16666667  0.00000000       0.042
   0.25000000  0.16666667  0.00000000       0.083
   0.33333333  0.16666667  0.00000000       0.083
   0.41666667  0.16666667  0.00000000       0.042
   0.25000000  0.25000000  0.00000000       0.042
   0.33333333  0.25000000  0.00000000       0.083
   0.33333333  0.33333333  0.00000000       0.014
 
 position of ions in fractional coordinates (direct lattice) 
   0.16666600  0.33333300  0.10000000
   0.33333300  0.16666600  0.10000000
   0.16666600  0.83333300  0.10000000
   0.33333300  0.66666600  0.10000000
   0.66666600  0.33333300  0.10000000
   0.83333300  0.16666600  0.10000000
   0.66666600  0.83333300  0.10000000
   0.83333300  0.66666600  0.10000000
 
 position of ions in cartesian coordinates  (Angst):
  -0.69570839  1.20499759  1.50000000
   0.69570839  1.20499759  1.50000000
  -2.78282939  2.40999759  1.50000000
  -1.39141261  2.40999759  1.50000000
   1.39141261  2.40999759  1.50000000
   2.78282939  2.40999759  1.50000000
  -0.69570839  3.61499759  1.50000000
   0.69570839  3.61499759  1.50000000
 


--------------------------------------------------------------------------------------------------------


 k-point   1 :   0.0000 0.0000 0.0000  plane waves:    6573
 k-point   2 :   0.0833-0.0000 0.0000  plane waves:    6571
 k-point   3 :   0.1667-0.0000 0.0000  plane waves:    6577
 k-point   4 :   0.2500-0.0000 0.0000  plane waves:    6542
 k-point   5 :   0.3333 0.0000 0.0000  plane waves:    6522
 k-point   6 :   0.4167-0.0000 0.0000  plane waves:    6524
 k-point   7 :   0.5000-0.0000 0.0000  plane waves:    6538
 k-point   8 :   0.0833 0.0833 0.0000  plane waves:    6573
 k-point   9 :   0.1667 0.0833 0.0000  plane waves:    6558
 k-point  10 :   0.2500 0.0833 0.0000  plane waves:    6523
 k-point  11 :   0.3333 0.0833 0.0000  plane waves:    6535
 k-point  12 :   0.4167 0.0833 0.0000  plane waves:    6535
 k-point  13 :   0.1667 0.1667 0.0000  plane waves:    6533
 k-point  14 :   0.2500 0.1667 0.0000  plane waves:    6522
 k-point  15 :   0.3333 0.1667 0.0000  plane waves:    6524
 k-point  16 :   0.4167 0.1667 0.0000  plane waves:    6530
 k-point  17 :   0.2500 0.2500 0.0000  plane waves:    6542
 k-point  18 :   0.3333 0.2500 0.0000  plane waves:    6536
 k-point  19 :   0.3333 0.3333 0.0000  plane waves:    6534

 maximum and minimum number of plane-waves per node :      6577     6522

 maximum number of plane-waves:      6577
 maximum index in each direction: 
   IXMAX=    8   IYMAX=    8   IZMAX=   25
   IXMIN=   -8   IYMIN=   -8   IZMIN=  -25


 serial   3D FFT for wavefunctions
 parallel 3D FFT for charge:
    minimum data exchange during FFTs selected (reduces bandwidth)


 total amount of memory used by VASP MPI-rank0    49649. kBytes
=======================================================================

   base      :      30000. kBytes
   nonl-proj :       8902. kBytes
   fftplans  :       1560. kBytes
   grid      :       7121. kBytes
   one-center:         24. kBytes
   wavefun   :       2042. kBytes
 
     INWAV:  cpu time      0.0000: real time      0.0000
 Broyden mixing: mesh for mixing (old mesh)
   NGX = 17   NGY = 17   NGZ = 51
  (NGX  = 72   NGY  = 72   NGZ  =216)
  gives a total of  14739 points

 initial charge density was supplied:
 charge density of overlapping atoms calculated
 number of electron      32.0000000 magnetization 
 keeping initial charge density in first step


--------------------------------------------------------------------------------------------------------


 Maximum index for augmentation-charges          332 (set IRDMAX)


--------------------------------------------------------------------------------------------------------


 First call to EWALD:  gamma=   0.264
 Maximum number of real-space cells 4x 4x 1
 Maximum number of reciprocal cells 2x 2x 6

    FEWALD:  cpu time      0.0015: real time      0.0015


--------------------------------------- Iteration      1(   1)  ---------------------------------------


    POTLOK:  cpu time      0.0194: real time      0.0208
    SETDIJ:  cpu time      0.0016: real time      0.0016
     EDDAV:  cpu time      0.6664: real time      0.6875
       DOS:  cpu time      0.0016: real time      0.0015
    --------------------------------------------
      LOOP:  cpu time      0.6890: real time      0.7115

 eigenvalue-minimisations  :  1824
 total energy-change (2. order) : 0.1101118E+03  (-0.1417002E+04)
 number of electron      32.0000000 magnetization 
 augmentation part       32.0000000 magnetization 

 Free energy of the ion-electron system (eV)
  ---------------------------------------------------
  alpha Z        PSCENC =        17.42024503
  Ewald energy   TEWEN  =      3555.04266541
  -Hartree energ DENC   =     -4415.51192851
  -exchange      EXHF   =         0.00000000
  -V(xc)+E(xc)   XCENC  =       106.69634932
  PAW double counting   =       868.17637104     -872.73161751
  entropy T*S    EENTRO =        -0.02018267
  eigenvalues    EBANDS =      -326.11512398
  atomic energy  EATOM  =      1177.15502788
  Solvation  Ediel_sol  =         0.00000000
  ---------------------------------------------------
  free energy    TOTEN  =       110.11180600 eV

  energy without entropy =      110.13198867  energy(sigma->0) =      110.12189733


--------------------------------------------------------------------------------------------------------




--------------------------------------- Iteration      1(   2)  ---------------------------------------


     EDDAV:  cpu time      0.7972: real time      0.8112
       DOS:  cpu time      0.0004: real time      0.0004
    --------------------------------------------
      LOOP:  cpu time      0.7976: real time      0.8116

 eigenvalue-minimisations  :  2208
 total energy-change (2. order) :-0.1836982E+03  (-0.1818465E+03)
 number of electron      32.0000000 magnetization 
 augmentation part       32.0000000 magnetization 

 Free energy of the ion-electron system (eV)
  ---------------------------------------------------
  alpha Z        PSCENC =        17.42024503
  Ewald energy   TEWEN  =      3555.04266541
  -Hartree energ DENC   =     -4415.51192851
  -exchange      EXHF   =         0.00000000
  -V(xc)+E(xc)   XCENC  =       106.69634932
  PAW double counting   =       868.17637104     -872.73161751
  entropy T*S    EENTRO =        -0.00001623
  eigenvalues    EBANDS =      -509.83344236
  atomic energy  EATOM  =      1177.15502788
  Solvation  Ediel_sol  =         0.00000000
  ---------------------------------------------------
  free energy    TOTEN  =       -73.58634594 eV

  energy without entropy =      -73.58632971  energy(sigma->0) =      -73.58633783


--------------------------------------------------------------------------------------------------------




--------------------------------------- Iteration      1(   3)  ---------------------------------------


     EDDAV:  cpu time      1.2408: real time      1.2565
       DOS:  cpu time      0.0005: real time      0.0005
    --------------------------------------------
      LOOP:  cpu time      1.2413: real time      1.2570

 eigenvalue-minimisations  :  3168
 total energy-change (2. order) :-0.6155006E+01  (-0.6153458E+01)
 number of electron      32.0000000 magnetization 
 augmentation part       32.0000000 magnetization 

 Free energy of the ion-electron system (eV)
  ---------------------------------------------------
  alpha Z        PSCENC =        17.42024503
  Ewald energy   TEWEN  =      3555.04266541
  -Hartree energ DENC   =     -4415.51192851
  -exchange      EXHF   =         0.00000000
  -V(xc)+E(xc)   XCENC  =       106.69634932
  PAW double counting   =       868.17637104     -872.73161751
  entropy T*S    EENTRO =        -0.00156719
  eigenvalues    EBANDS =      -515.98689705
  atomic energy  EATOM  =      1177.15502788
  Solvation  Ediel_sol  =         0.00000000
  ---------------------------------------------------
  free energy    TOTEN  =       -79.74135160 eV

  energy without entropy =      -79.73978440  energy(sigma->0) =      -79.74056800


--------------------------------------------------------------------------------------------------------




--------------------------------------- Iteration      1(   4)  ---------------------------------------


     EDDAV:  cpu time      0.7830: real time      0.7994
       DOS:  cpu time      0.0004: real time      0.0004
    --------------------------------------------
      LOOP:  cpu time      0.7834: real time      0.7998

 eigenvalue-minimisations  :  2112
 total energy-change (2. order) :-0.4842034E-02  (-0.4842032E-02)
 number of electron      32.0000000 magnetization 
 augmentation part       32.0000000 magnetization 

 Free energy of the ion-electron system (eV)
  ---------------------------------------------------
  alpha Z        PSCENC =        17.42024503
  Ewald energy   TEWEN  =      3555.04266541
  -Hartree energ DENC   =     -4415.51192851
  -exchange      EXHF   =         0.00000000
  -V(xc)+E(xc)   XCENC  =       106.69634932
  PAW double counting   =       868.17637104     -872.73161751
  entropy T*S    EENTRO =        -0.00156719
  eigenvalues    EBANDS =      -515.99173909
  atomic energy  EATOM  =      1177.15502788
  Solvation  Ediel_sol  =         0.00000000
  ---------------------------------------------------
  free energy    TOTEN  =       -79.74619363 eV

  energy without entropy =      -79.74462644  energy(sigma->0) =      -79.74541003


--------------------------------------------------------------------------------------------------------




--------------------------------------- Iteration      1(   5)  ---------------------------------------


     EDDAV:  cpu time      1.2321: real time      1.2482
       DOS:  cpu time      0.0004: real time      0.0004
    CHARGE:  cpu time      0.0582: real time      0.0637
    MIXING:  cpu time      0.0018: real time      0.0024
    --------------------------------------------
      LOOP:  cpu time      1.2925: real time      1.3147

 eigenvalue-minimisations  :  3168
 total energy-change (2. order) :-0.1600035E-04  (-0.1600074E-04)
 number of electron      32.0000005 magnetization 
 augmentation part        0.9060101 magnetization 

 Broyden mixing:
  rms(total) = 0.13844E+01    rms(broyden)= 0.13843E+01
  rms(prec ) = 0.15508E+01
  weight for this iteration     100.00

 Free energy of the ion-electron system (eV)
  ---------------------------------------------------
  alpha Z        PSCENC =        17.42024503
  Ewald energy   TEWEN  =      3555.04266541
  -Hartree energ DENC   =     -4415.51192851
  -exchange      EXHF   =         0.00000000
  -V(xc)+E(xc)   XCENC  =       106.69634932
  PAW double counting   =       868.17637104     -872.73161751
  entropy T*S    EENTRO =        -0.00156719
  eigenvalues    EBANDS =      -515.99175509
  atomic energy  EATOM  =      1177.15502788
  Solvation  Ediel_sol  =         0.00000000
  ---------------------------------------------------
  free energy    TOTEN  =       -79.74620963 eV

  energy without entropy =      -79.74464244  energy(sigma->0) =      -79.74542603


--------------------------------------------------------------------------------------------------------




--------------------------------------- Iteration      1(   6)  ---------------------------------------


    POTLOK:  cpu time      0.0154: real time      0.0162
    SETDIJ:  cpu time      0.0011: real time      0.0012
     EDDAV:  cpu time      1.0830: real time      1.0949
       DOS:  cpu time      0.0011: real time      0.0011
    CHARGE:  cpu time      0.0579: real time      0.0628
    MIXING:  cpu time      0.0010: real time      0.0020
    --------------------------------------------
      LOOP:  cpu time      1.1594: real time      1.1782

 eigenvalue-minimisations  :  2832
 total energy-change (2. order) : 0.4485326E+01  (-0.4362871E+00)
 number of electron      32.0000005 magnetization 
 augmentation part        0.8615233 magnetization 

 Broyden mixing:
  rms(total) = 0.82128E+00    rms(broyden)= 0.82125E+00
  rms(prec ) = 0.90362E+00
  weight for this iteration     100.00

 eigenvalues of (default mixing * dielectric matrix)
  average eigenvalue GAMMA=   2.1861
  2.1861

 Free energy of the ion-electron system (eV)
  ---------------------------------------------------
  alpha Z        PSCENC =        17.42024503
  Ewald energy   TEWEN  =      3555.04266541
  -Hartree energ DENC   =     -4464.97162167
  -exchange      EXHF   =         0.00000000
  -V(xc)+E(xc)   XCENC  =       108.78537033
  PAW double counting   =      1692.42255348    -1697.66432579
  entropy T*S    EENTRO =        -0.00156719
  eigenvalues    EBANDS =      -463.44923102
  atomic energy  EATOM  =      1177.15502788
  Solvation  Ediel_sol  =         0.00000000
  ---------------------------------------------------
  free energy    TOTEN  =       -75.26088355 eV

  energy without entropy =      -75.25931636  energy(sigma->0) =      -75.26009995


--------------------------------------------------------------------------------------------------------




--------------------------------------- Iteration      1(   7)  ---------------------------------------


    POTLOK:  cpu time      0.0182: real time      0.0191
    SETDIJ:  cpu time      0.0010: real time      0.0010
     EDDAV:  cpu time      1.1342: real time      1.1602
       DOS:  cpu time      0.0006: real time      0.0006
    CHARGE:  cpu time      0.0569: real time      0.0653
    MIXING:  cpu time      0.0008: real time      0.0010
    --------------------------------------------
      LOOP:  cpu time      1.2117: real time      1.2473

 eigenvalue-minimisations  :  2976
 total energy-change (2. order) : 0.1722694E+01  (-0.5654086E+00)
 number of electron      32.0000005 magnetization 
 augmentation part        0.8113427 magnetization 

 Broyden mixing:
  rms(total) = 0.21920E+00    rms(broyden)= 0.21904E+00
  rms(prec ) = 0.23250E+00
  weight for this iteration     100.00

 eigenvalues of (default mixing * dielectric matrix)
  average eigenvalue GAMMA=   2.1654
  2.1654  2.1654

 Free energy of the ion-electron system (eV)
  ---------------------------------------------------
  alpha Z        PSCENC =        17.42024503
  Ewald energy   TEWEN  =      3555.04266541
  -Hartree energ DENC   =     -4530.90481775
  -exchange      EXHF   =         0.00000000
  -V(xc)+E(xc)   XCENC  =       111.55976007
  PAW double counting   =      3348.94108267    -3354.79212639
  entropy T*S    EENTRO =        -0.00156719
  eigenvalues    EBANDS =      -397.95845949
  atomic energy  EATOM  =      1177.15502788
  Solvation  Ediel_sol  =         0.00000000
  ---------------------------------------------------
  free energy    TOTEN  =       -73.53818976 eV

  energy without entropy =      -73.53662256  energy(sigma->0) =      -73.53740616


--------------------------------------------------------------------------------------------------------




--------------------------------------- Iteration      1(   8)  ---------------------------------------


    POTLOK:  cpu time      0.0142: real time      0.0150
    SETDIJ:  cpu time      0.0010: real time      0.0010
     EDDAV:  cpu time      1.1635: real time      1.1798
       DOS:  cpu time      0.0005: real time      0.0005
    CHARGE:  cpu time      0.0569: real time      0.0666
    MIXING:  cpu time      0.0009: real time      0.0012
    --------------------------------------------
      LOOP:  cpu time      1.2370: real time      1.2641

 eigenvalue-minimisations  :  2976
 total energy-change (2. order) : 0.3689186E-01  (-0.3747278E-02)
 number of electron      32.0000005 magnetization 
 augmentation part        0.8124544 magnetization 

 Broyden mixing:
  rms(total) = 0.21352E-01    rms(broyden)= 0.21307E-01
  rms(prec ) = 0.49681E-01
  weight for this iteration     100.00

 eigenvalues of (default mixing * dielectric matrix)
  average eigenvalue GAMMA=   1.9812
  1.5030  2.4263  2.0143

 Free energy of the ion-electron system (eV)
  ---------------------------------------------------
  alpha Z        PSCENC =        17.42024503
  Ewald energy   TEWEN  =      3555.04266541
  -Hartree energ DENC   =     -4539.86090552
  -exchange      EXHF   =         0.00000000
  -V(xc)+E(xc)   XCENC  =       111.61226685
  PAW double counting   =      3769.23250431    -3774.85911042
  entropy T*S    EENTRO =        -0.00156719
  eigenvalues    EBANDS =      -389.24242424
  atomic energy  EATOM  =      1177.15502788
  Solvation  Ediel_sol  =         0.00000000
  ---------------------------------------------------
  free energy    TOTEN  =       -73.50129790 eV

  energy without entropy =      -73.49973070  energy(sigma->0) =      -73.50051430


--------------------------------------------------------------------------------------------------------




--------------------------------------- Iteration      1(   9)  ---------------------------------------


    POTLOK:  cpu time      0.0137: real time      0.0145
    SETDIJ:  cpu time      0.0010: real time      0.0010
     EDDAV:  cpu time      1.0946: real time      1.1039
       DOS:  cpu time      0.0005: real time      0.0004
    CHARGE:  cpu time      0.0650: real time      0.0734
    MIXING:  cpu time      0.0008: real time      0.0009
    --------------------------------------------
      LOOP:  cpu time      1.1757: real time      1.1942

 eigenvalue-minimisations  :  2880
 total energy-change (2. order) : 0.1014987E-01  (-0.6576627E-03)
 number of electron      32.0000005 magnetization 
 augmentation part        0.8112990 magnetization 

 Broyden mixing:
  rms(total) = 0.16304E-01    rms(broyden)= 0.16297E-01
  rms(prec ) = 0.37125E-01
  weight for this iteration     100.00

 eigenvalues of (default mixing * dielectric matrix)
  average eigenvalue GAMMA=   2.2175
  3.4860  0.9522  2.4297  2.0021

 Free energy of the ion-electron system (eV)
  ---------------------------------------------------
  alpha Z        PSCENC =        17.42024503
  Ewald energy   TEWEN  =      3555.04266541
  -Hartree energ DENC   =     -4546.02508612
  -exchange      EXHF   =         0.00000000
  -V(xc)+E(xc)   XCENC  =       111.72253783
  PAW double counting   =      3803.86069894    -3809.48065023
  entropy T*S    EENTRO =        -0.00156719
  eigenvalues    EBANDS =      -383.18501957
  atomic energy  EATOM  =      1177.15502788
  Solvation  Ediel_sol  =         0.00000000
  ---------------------------------------------------
  free energy    TOTEN  =       -73.49114803 eV

  energy without entropy =      -73.48958084  energy(sigma->0) =      -73.49036443


--------------------------------------------------------------------------------------------------------




--------------------------------------- Iteration      1(  10)  ---------------------------------------


    POTLOK:  cpu time      0.0147: real time      0.0149
    SETDIJ:  cpu time      0.0011: real time      0.0011
     EDDAV:  cpu time      0.8186: real time      0.8268
       DOS:  cpu time      0.0004: real time      0.0004
    CHARGE:  cpu time      0.0566: real time      0.0578
    MIXING:  cpu time      0.0007: real time      0.0007
    --------------------------------------------
      LOOP:  cpu time      0.8922: real time      0.9017

 eigenvalue-minimisations  :  2256
 total energy-change (2. order) : 0.8548488E-02  (-0.1209962E-02)
 number of electron      32.0000005 magnetization 
 augmentation part        0.8100683 magnetization 

 Broyden mixing:
  rms(total) = 0.78434E-02    rms(broyden)= 0.78349E-02
  rms(prec ) = 0.15578E-01
  weight for this iteration     100.00

 eigenvalues of (default mixing * dielectric matrix)
  average eigenvalue GAMMA=   2.4669
  3.8926  0.9932  2.7008  2.7008  2.0472

 Free energy of the ion-electron system (eV)
  ---------------------------------------------------
  alpha Z        PSCENC =        17.42024503
  Ewald energy   TEWEN  =      3555.04266541
  -Hartree energ DENC   =     -4558.32150950
  -exchange      EXHF   =         0.00000000
  -V(xc)+E(xc)   XCENC  =       111.86670251
  PAW double counting   =      3761.45595130    -3767.06152282
  entropy T*S    EENTRO =        -0.00156719
  eigenvalues    EBANDS =      -371.03859215
  atomic energy  EATOM  =      1177.15502788
  Solvation  Ediel_sol  =         0.00000000
  ---------------------------------------------------
  free energy    TOTEN  =       -73.48259954 eV

  energy without entropy =      -73.48103235  energy(sigma->0) =      -73.48181595


--------------------------------------------------------------------------------------------------------




--------------------------------------- Iteration      1(  11)  ---------------------------------------


    POTLOK:  cpu time      0.0126: real time      0.0127
    SETDIJ:  cpu time      0.0013: real time      0.0013
     EDDAV:  cpu time      0.7340: real time      0.7438
       DOS:  cpu time      0.0004: real time      0.0004
    CHARGE:  cpu time      0.0581: real time      0.0599
    MIXING:  cpu time      0.0009: real time      0.0008
    --------------------------------------------
      LOOP:  cpu time      0.8072: real time      0.8190

 eigenvalue-minimisations  :  2016
 total energy-change (2. order) :-0.8756579E-03  (-0.9685377E-04)
 number of electron      32.0000005 magnetization 
 augmentation part        0.8100052 magnetization 

 Broyden mixing:
  rms(total) = 0.10565E-01    rms(broyden)= 0.10564E-01
  rms(prec ) = 0.12185E-01
  weight for this iteration     100.00

 eigenvalues of (default mixing * dielectric matrix)
  average eigenvalue GAMMA=   2.4478
  5.4436  2.8735  2.4227  1.9874  0.9916  0.9678

 Free energy of the ion-electron system (eV)
  ---------------------------------------------------
  alpha Z        PSCENC =        17.42024503
  Ewald energy   TEWEN  =      3555.04266541
  -Hartree energ DENC   =     -4562.49858139
  -exchange      EXHF   =         0.00000000
  -V(xc)+E(xc)   XCENC  =       111.86264018
  PAW double counting   =      3789.87378060    -3795.47552384
  entropy T*S    EENTRO =        -0.00156719
  eigenvalues    EBANDS =      -366.86216188
  atomic energy  EATOM  =      1177.15502788
  Solvation  Ediel_sol  =         0.00000000
  ---------------------------------------------------
  free energy    TOTEN  =       -73.48347520 eV

  energy without entropy =      -73.48190801  energy(sigma->0) =      -73.48269160


--------------------------------------------------------------------------------------------------------




--------------------------------------- Iteration      1(  12)  ---------------------------------------


    POTLOK:  cpu time      0.0134: real time      0.0135
    SETDIJ:  cpu time      0.0011: real time      0.0011
     EDDAV:  cpu time      0.9974: real time      1.0057
       DOS:  cpu time      0.0004: real time      0.0004
    CHARGE:  cpu time      0.0568: real time      0.0578
    MIXING:  cpu time      0.0008: real time      0.0007
    --------------------------------------------
      LOOP:  cpu time      1.0698: real time      1.0793

 eigenvalue-minimisations  :  2688
 total energy-change (2. order) :-0.1051481E-02  (-0.1459514E-04)
 number of electron      32.0000005 magnetization 
 augmentation part        0.8098252 magnetization 

 Broyden mixing:
  rms(total) = 0.23484E-02    rms(broyden)= 0.23478E-02
  rms(prec ) = 0.51071E-02
  weight for this iteration     100.00

 eigenvalues of (default mixing * dielectric matrix)
  average eigenvalue GAMMA=   2.8452
  6.6631  4.0586  2.7824  2.4312  1.9749  1.0031  1.0031

 Free energy of the ion-electron system (eV)
  ---------------------------------------------------
  alpha Z        PSCENC =        17.42024503
  Ewald energy   TEWEN  =      3555.04266541
  -Hartree energ DENC   =     -4563.35849981
  -exchange      EXHF   =         0.00000000
  -V(xc)+E(xc)   XCENC  =       111.86626652
  PAW double counting   =      3764.47124326    -3770.08197217
  entropy T*S    EENTRO =        -0.00156719
  eigenvalues    EBANDS =      -365.99793560
  atomic energy  EATOM  =      1177.15502788
  Solvation  Ediel_sol  =         0.00000000
  ---------------------------------------------------
  free energy    TOTEN  =       -73.48452668 eV

  energy without entropy =      -73.48295949  energy(sigma->0) =      -73.48374308


--------------------------------------------------------------------------------------------------------




--------------------------------------- Iteration      1(  13)  ---------------------------------------


    POTLOK:  cpu time      0.0198: real time      0.0200
    SETDIJ:  cpu time      0.0010: real time      0.0010
     EDDAV:  cpu time      0.9942: real time      0.9999
       DOS:  cpu time      0.0004: real time      0.0004
    CHARGE:  cpu time      0.0568: real time      0.0571
    MIXING:  cpu time      0.0008: real time      0.0009
    --------------------------------------------
      LOOP:  cpu time      1.0730: real time      1.0794

 eigenvalue-minimisations  :  2688
 total energy-change (2. order) :-0.3180432E-02  (-0.8981056E-04)
 number of electron      32.0000005 magnetization 
 augmentation part        0.8098260 magnetization 

 Broyden mixing:
  rms(total) = 0.10141E-02    rms(broyden)= 0.10140E-02
  rms(prec ) = 0.16150E-02
  weight for this iteration     100.00

 eigenvalues of (default mixing * dielectric matrix)
  average eigenvalue GAMMA=   2.6766
  6.6691  4.2455  2.6805  2.3188  1.9710  1.0116  0.9724  1.5443

 Free energy of the ion-electron system (eV)
  ---------------------------------------------------
  alpha Z        PSCENC =        17.42024503
  Ewald energy   TEWEN  =      3555.04266541
  -Hartree energ DENC   =     -4564.45121709
  -exchange      EXHF   =         0.00000000
  -V(xc)+E(xc)   XCENC  =       111.86346553
  PAW double counting   =      3766.98594307    -3772.59238506
  entropy T*S    EENTRO =        -0.00156719
  eigenvalues    EBANDS =      -364.90988469
  atomic energy  EATOM  =      1177.15502788
  Solvation  Ediel_sol  =         0.00000000
  ---------------------------------------------------
  free energy    TOTEN  =       -73.48770711 eV

  energy without entropy =      -73.48613992  energy(sigma->0) =      -73.48692352


--------------------------------------------------------------------------------------------------------




--------------------------------------- Iteration      1(  14)  ---------------------------------------


    POTLOK:  cpu time      0.0126: real time      0.0127
    SETDIJ:  cpu time      0.0010: real time      0.0010
     EDDAV:  cpu time      1.1408: real time      1.1478
       DOS:  cpu time      0.0004: real time      0.0004
    CHARGE:  cpu time      0.0570: real time      0.0576
    MIXING:  cpu time      0.0008: real time      0.0008
    --------------------------------------------
      LOOP:  cpu time      1.2127: real time      1.2203

 eigenvalue-minimisations  :  3024
 total energy-change (2. order) :-0.2785328E-03  (-0.4783851E-06)
 number of electron      32.0000005 magnetization 
 augmentation part        0.8098051 magnetization 

 Broyden mixing:
  rms(total) = 0.56098E-03    rms(broyden)= 0.56095E-03
  rms(prec ) = 0.99577E-03
  weight for this iteration     100.00

 eigenvalues of (default mixing * dielectric matrix)
  average eigenvalue GAMMA=   3.0520
  8.6097  5.4932  3.3207  2.6613  2.4500  1.9832  1.0040  0.9728  0.9728

 Free energy of the ion-electron system (eV)
  ---------------------------------------------------
  alpha Z        PSCENC =        17.42024503
  Ewald energy   TEWEN  =      3555.04266541
  -Hartree energ DENC   =     -4564.58030245
  -exchange      EXHF   =         0.00000000
  -V(xc)+E(xc)   XCENC  =       111.86399658
  PAW double counting   =      3768.30707078    -3773.91441795
  entropy T*S    EENTRO =        -0.00156719
  eigenvalues    EBANDS =      -364.78070373
  atomic energy  EATOM  =      1177.15502788
  Solvation  Ediel_sol  =         0.00000000
  ---------------------------------------------------
  free energy    TOTEN  =       -73.48798565 eV

  energy without entropy =      -73.48641845  energy(sigma->0) =      -73.48720205


--------------------------------------------------------------------------------------------------------




--------------------------------------- Iteration      1(  15)  ---------------------------------------


    POTLOK:  cpu time      0.0125: real time      0.0130
    SETDIJ:  cpu time      0.0010: real time      0.0010
     EDDAV:  cpu time      0.8094: real time      0.8146
       DOS:  cpu time      0.0006: real time      0.0006
    CHARGE:  cpu time      0.0574: real time      0.0580
    MIXING:  cpu time      0.0008: real time      0.0008
    --------------------------------------------
      LOOP:  cpu time      0.8818: real time      0.8881

 eigenvalue-minimisations  :  2208
 total energy-change (2. order) :-0.4097675E-03  (-0.3373983E-05)
 number of electron      32.0000005 magnetization 
 augmentation part        0.8098018 magnetization 

 Broyden mixing:
  rms(total) = 0.15655E-03    rms(broyden)= 0.15653E-03
  rms(prec ) = 0.19941E-03
  weight for this iteration     100.00

 eigenvalues of (default mixing * dielectric matrix)
  average eigenvalue GAMMA=   3.2302
  9.5886  5.8885  3.8073  2.9343  2.6116  2.4934  1.9836  1.0089  0.9927  0.9927

 Free energy of the ion-electron system (eV)
  ---------------------------------------------------
  alpha Z        PSCENC =        17.42024503
  Ewald energy   TEWEN  =      3555.04266541
  -Hartree energ DENC   =     -4564.69484684
  -exchange      EXHF   =         0.00000000
  -V(xc)+E(xc)   XCENC  =       111.86378634
  PAW double counting   =      3767.14285642    -3772.75076479
  entropy T*S    EENTRO =        -0.00156719
  eigenvalues    EBANDS =      -364.66579767
  atomic energy  EATOM  =      1177.15502788
  Solvation  Ediel_sol  =         0.00000000
  ---------------------------------------------------
  free energy    TOTEN  =       -73.48839541 eV

  energy without entropy =      -73.48682822  energy(sigma->0) =      -73.48761182


--------------------------------------------------------------------------------------------------------




--------------------------------------- Iteration      1(  16)  ---------------------------------------


    POTLOK:  cpu time      0.0206: real time      0.0209
    SETDIJ:  cpu time      0.0012: real time      0.0012
     EDDAV:  cpu time      0.7785: real time      0.7844
       DOS:  cpu time      0.0004: real time      0.0004
    CHARGE:  cpu time      0.0573: real time      0.0582
    MIXING:  cpu time      0.0010: real time      0.0010
    --------------------------------------------
      LOOP:  cpu time      0.8591: real time      0.8662

 eigenvalue-minimisations  :  2160
 total energy-change (2. order) :-0.3559878E-04  (-0.8982539E-07)
 number of electron      32.0000005 magnetization 
 augmentation part        0.8098043 magnetization 

 Broyden mixing:
  rms(total) = 0.52972E-04    rms(broyden)= 0.52972E-04
  rms(prec ) = 0.55227E-04
  weight for this iteration     100.00

 eigenvalues of (default mixing * dielectric matrix)
  average eigenvalue GAMMA=   3.0347
  9.6223  5.8646  3.8397  2.9086  2.5362  2.4396  1.9854  0.9974  0.9974  1.0125
  1.1780

 Free energy of the ion-electron system (eV)
  ---------------------------------------------------
  alpha Z        PSCENC =        17.42024503
  Ewald energy   TEWEN  =      3555.04266541
  -Hartree energ DENC   =     -4564.70012672
  -exchange      EXHF   =         0.00000000
  -V(xc)+E(xc)   XCENC  =       111.86361029
  PAW double counting   =      3767.12428453    -3772.73193795
  entropy T*S    EENTRO =        -0.00156719
  eigenvalues    EBANDS =      -364.66063229
  atomic energy  EATOM  =      1177.15502788
  Solvation  Ediel_sol  =         0.00000000
  ---------------------------------------------------
  free energy    TOTEN  =       -73.48843101 eV

  energy without entropy =      -73.48686382  energy(sigma->0) =      -73.48764741


--------------------------------------------------------------------------------------------------------




--------------------------------------- Iteration      1(  17)  ---------------------------------------


    POTLOK:  cpu time      0.0128: real time      0.0130
    SETDIJ:  cpu time      0.0010: real time      0.0010
     EDDAV:  cpu time      0.9586: real time      0.9680
       DOS:  cpu time      0.0004: real time      0.0004
    CHARGE:  cpu time      0.0569: real time      0.0573
    MIXING:  cpu time      0.0009: real time      0.0009
    --------------------------------------------
      LOOP:  cpu time      1.0307: real time      1.0407

 eigenvalue-minimisations  :  2592
 total energy-change (2. order) :-0.1415925E-05  (-0.1296948E-08)
 number of electron      32.0000005 magnetization 
 augmentation part        0.8098042 magnetization 

 Broyden mixing:
  rms(total) = 0.15285E-04    rms(broyden)= 0.15285E-04
  rms(prec ) = 0.17057E-04
  weight for this iteration     100.00

 eigenvalues of (default mixing * dielectric matrix)
  average eigenvalue GAMMA=   3.0221
  9.6360  5.8716  3.9592  3.0978  2.7579  2.5130  2.4306  1.9850  0.9942  0.9972
  0.9972  1.0262

 Free energy of the ion-electron system (eV)
  ---------------------------------------------------
  alpha Z        PSCENC =        17.42024503
  Ewald energy   TEWEN  =      3555.04266541
  -Hartree energ DENC   =     -4564.70289435
  -exchange      EXHF   =         0.00000000
  -V(xc)+E(xc)   XCENC  =       111.86362330
  PAW double counting   =      3767.21375062    -3772.82142397
  entropy T*S    EENTRO =        -0.00156719
  eigenvalues    EBANDS =      -364.65785916
  atomic energy  EATOM  =      1177.15502788
  Solvation  Ediel_sol  =         0.00000000
  ---------------------------------------------------
  free energy    TOTEN  =       -73.48843243 eV

  energy without entropy =      -73.48686523  energy(sigma->0) =      -73.48764883


--------------------------------------------------------------------------------------------------------




--------------------------------------- Iteration      1(  18)  ---------------------------------------


    POTLOK:  cpu time      0.0132: real time      0.0133
    SETDIJ:  cpu time      0.0010: real time      0.0011
     EDDAV:  cpu time      0.6876: real time      0.6930
       DOS:  cpu time      0.0004: real time      0.0004
    --------------------------------------------
      LOOP:  cpu time      0.7022: real time      0.7078

 eigenvalue-minimisations  :  1920
 total energy-change (2. order) :-0.9058081E-06  (-0.2065257E-08)
 number of electron      32.0000005 magnetization 
 augmentation part        0.8098042 magnetization 

 Free energy of the ion-electron system (eV)
  ---------------------------------------------------
  alpha Z        PSCENC =        17.42024503
  Ewald energy   TEWEN  =      3555.04266541
  -Hartree energ DENC   =     -4564.70406844
  -exchange      EXHF   =         0.00000000
  -V(xc)+E(xc)   XCENC  =       111.86364741
  PAW double counting   =      3767.22857780    -3772.83626255
  entropy T*S    EENTRO =        -0.00156719
  eigenvalues    EBANDS =      -364.65669867
  atomic energy  EATOM  =      1177.15502788
  Solvation  Ediel_sol  =         0.00000000
  ---------------------------------------------------
  free energy    TOTEN  =       -73.48843333 eV

  energy without entropy =      -73.48686614  energy(sigma->0) =      -73.48764974


--------------------------------------------------------------------------------------------------------




 average (electrostatic) potential at core
  the test charge radii are     0.6991
  (the norm of the test charge is              1.0000)
       1 -57.3283       2 -57.3283       3 -57.3283       4 -57.3283       5 -57.3283
       6 -57.3283       7 -57.3283       8 -57.3283
 
 
 
 E-fermi :  -1.9965     XC(G=0):  -2.8941     alpha+bet : -2.6567

 Fermi energy:        -1.9965160816

 k-point     1 :       0.0000    0.0000    0.0000
  band No.  band energies     occupation 
      1     -22.0690      2.00000
      2     -16.5041      2.00000
      3     -16.5040      2.00000
      4     -16.5040      2.00000
      5     -15.6720      2.00000
      6     -15.6720      2.00000
      7     -15.6720      2.00000
      8     -10.0877      2.00000
      9      -8.5918      2.00000
     10      -8.5917      2.00000
     11      -8.5917      2.00000
     12      -4.9884      2.00000
     13      -4.9883      2.00000
     14      -4.4949      2.00000
     15      -4.4949      2.00000
     16      -4.4949      2.00000
     17      -0.2890      0.00000
     18      -0.2890      0.00000
     19      -0.2890      0.00000
     20       1.0437      0.00000
     21       1.9572      0.00000
     22       2.5090      0.00000
     23       4.3695      0.00000
     24       5.1507      0.00000
     25       6.0699      0.00000
     26       6.0700      0.00000
     27       6.0700      0.00000
     28       6.7931      0.00000
     29       6.7932      0.00000
     30       8.2897      0.00000
     31       9.2844      0.00000
     32       9.2844      0.00000
     33       9.2844      0.00000
     34       9.3820      0.00000
     35       9.4312      0.00000
     36       9.4312      0.00000
     37       9.4312      0.00000
     38      10.2279      0.00000
     39      10.2279      0.00000
     40      10.2279      0.00000
     41      10.2956      0.00000
     42      10.4200      0.00000
     43      10.4200      0.00000
     44      10.4200      0.00000
     45      11.0446      0.00000
     46      11.0446      0.00000
     47      11.0447      0.00000
     48      11.0679      0.00000

 k-point     2 :       0.0833   -0.0000    0.0000
  band No.  band energies     occupation 
      1     -22.0263      2.00000
      2     -17.0971      2.00000
      3     -16.6856      2.00000
      4     -16.6856      2.00000
      5     -15.4194      2.00000
      6     -15.4193      2.00000
      7     -15.0157      2.00000
      8     -10.0359      2.00000
      9      -8.7225      2.00000
     10      -8.7225      2.00000
     11      -8.5485      2.00000
     12      -5.1628      2.00000
     13      -5.0845      2.00000
     14      -4.7671      2.00000
     15      -4.5280      2.00000
     16      -4.5279      2.00000
     17      -0.2061      0.00000
     18      -0.2060      0.00000
     19       0.0533      0.00000
     20       1.1020      0.00000
     21       2.0162      0.00000
     22       2.5684      0.00000
     23       4.4281      0.00000
     24       5.2080      0.00000
     25       6.0869      0.00000
     26       6.2660      0.00000
     27       6.2660      0.00000
     28       6.8209      0.00000
     29       6.9847      0.00000
     30       8.0602      0.00000
     31       8.3468      0.00000
     32       8.7345      0.00000
     33       8.7346      0.00000
     34       9.0257      0.00000
     35       9.4419      0.00000
     36       9.6855      0.00000
     37       9.6855      0.00000
     38       9.6963      0.00000
     39      10.0795      0.00000
     40      10.0795      0.00000
     41      10.1359      0.00000
     42      10.4084      0.00000
     43      10.4084      0.00000
     44      10.7425      0.00000
     45      11.0087      0.00000
     46      11.0087      0.00000
     47      11.2819      0.00000
     48      11.8208      0.00000

 k-point     3 :       0.1667   -0.0000    0.0000
  band No.  band energies     occupation 
      1     -21.8982      2.00000
      2     -17.9092      2.00000
      3     -16.9833      2.00000
      4     -16.9833      2.00000
      5     -14.9105      2.00000
      6     -14.9104      2.00000
      7     -14.0152      2.00000
      8      -9.8808      2.00000
      9      -9.0914      2.00000
     10      -9.0913      2.00000
     11      -8.4197      2.00000
     12      -5.6595      2.00000
     13      -5.4026      2.00000
     14      -5.3530      2.00000
     15      -4.6136      2.00000
     16      -4.6136      2.00000
     17       0.0201      0.00000
     18       0.0202      0.00000
     19       0.8956      0.00000
     20       1.2768      0.00000
     21       2.1928      0.00000
     22       2.7466      0.00000
     23       4.6037      0.00000
     24       5.3799      0.00000
     25       6.1267      0.00000
     26       6.8268      0.00000
     27       6.8268      0.00000
     28       6.8782      0.00000
     29       6.8791      0.00000
     30       7.5385      0.00000
     31       7.8234      0.00000
     32       8.2275      0.00000
     33       8.2275      0.00000
     34       8.4542      0.00000
     35       8.5176      0.00000
     36       9.1433      0.00000
     37       9.1433      0.00000
     38       9.6206      0.00000
     39       9.6719      0.00000
     40       9.8723      0.00000
     41       9.8723      0.00000
     42      10.1629      0.00000
     43      10.8810      0.00000
     44      10.8810      0.00000
     45      10.9791      0.00000
     46      11.2570      0.00000
     47      11.2570      0.00000
     48      11.9005      0.00000

 k-point     4 :       0.2500   -0.0000    0.0000
  band No.  band energies     occupation 
      1     -21.6851      2.00000
      2     -18.6760      2.00000
      3     -17.2444      2.00000
      4     -17.2444      2.00000
      5     -14.3057      2.00000
      6     -14.3057      2.00000
      7     -12.9394      2.00000
      8      -9.6389      2.00000
      9      -9.6388      2.00000
     10      -9.6233      2.00000
     11      -8.2080      2.00000
     12      -6.4139      2.00000
     13      -6.1589      2.00000
     14      -5.7440      2.00000
     15      -4.7215      2.00000
     16      -4.7215      2.00000
     17       0.3333      0.00000
     18       0.3333      0.00000
     19       1.5683      0.00000
     20       1.9866      0.00000
     21       2.4871      0.00000
     22       3.0436      0.00000
     23       4.8961      0.00000
     24       5.6659      0.00000
     25       5.7175      0.00000
     26       6.2820      0.00000
     27       6.7255      0.00000
     28       6.9195      0.00000
     29       7.3311      0.00000
     30       7.6341      0.00000
     31       7.6341      0.00000
     32       7.8856      0.00000
     33       7.8856      0.00000
     34       8.4011      0.00000
     35       8.6938      0.00000
     36       8.6938      0.00000
     37       8.7923      0.00000
     38       8.9594      0.00000
     39       9.0856      0.00000
     40       9.4586      0.00000
     41       9.4586      0.00000
     42       9.8859      0.00000
     43       9.9152      0.00000
     44      10.8340      0.00000
     45      10.8340      0.00000
     46      11.6925      0.00000
     47      11.6926      0.00000
     48      11.9557      0.00000

 k-point     5 :       0.3333    0.0000    0.0000
  band No.  band energies     occupation 
      1     -21.3875      2.00000
      2     -19.3745      2.00000
      3     -17.4385      2.00000
      4     -17.4385      2.00000
      5     -13.6541      2.00000
      6     -13.6541      2.00000
      7     -11.8196      2.00000
      8     -10.2886      2.00000
      9     -10.2886      2.00000
     10      -9.2652      2.00000
     11      -7.9184      2.00000
     12      -7.3521      2.00000
     13      -6.9167      2.00000
     14      -6.2020      2.00000
     15      -4.8207      2.00000
     16      -4.8207      2.00000
     17       0.6557      0.00000
     18       0.6558      0.00000
     19       1.9763      0.00000
     20       2.8982      0.00000
     21       3.1888      0.00000
     22       3.4594      0.00000
     23       4.7600      0.00000
     24       5.3038      0.00000
     25       5.7420      0.00000
     26       6.0607      0.00000
     27       6.2535      0.00000
     28       6.4429      0.00000
     29       6.9114      0.00000
     30       7.5203      0.00000
     31       7.5203      0.00000
     32       8.0145      0.00000
     33       8.1096      0.00000
     34       8.3464      0.00000
     35       8.3464      0.00000
     36       8.7847      0.00000
     37       8.7847      0.00000
     38       8.9042      0.00000
     39       9.1710      0.00000
     40       9.1710      0.00000
     41       9.2032      0.00000
     42       9.5101      0.00000
     43      10.3229      0.00000
     44      10.4403      0.00000
     45      10.4403      0.00000
     46      11.6466      0.00000
     47      11.6466      0.00000
     48      11.8442      0.00000

 k-point     6 :       0.4167   -0.0000    0.0000
  band No.  band energies     occupation 
      1     -21.0062      2.00000
      2     -19.9978      2.00000
      3     -17.5570      2.00000
      4     -17.5570      2.00000
      5     -13.0220      2.00000
      6     -13.0219      2.00000
      7     -10.9366      2.00000
      8     -10.9365      2.00000
      9     -10.6752      2.00000
     10      -8.8093      2.00000
     11      -8.4077      2.00000
     12      -7.6251      2.00000
     13      -7.5584      2.00000
     14      -6.6791      2.00000
     15      -4.8888      2.00000
     16      -4.8888      2.00000
     17       0.9010      0.00000
     18       0.9010      0.00000
     19       2.5005      0.00000
     20       3.4247      0.00000
     21       3.8944      0.00000
     22       3.9939      0.00000
     23       4.3697      0.00000
     24       4.9352      0.00000
     25       5.4161      0.00000
     26       5.8195      0.00000
     27       6.5147      0.00000
     28       6.5158      0.00000
     29       6.9016      0.00000
     30       6.9382      0.00000
     31       7.2442      0.00000
     32       7.3522      0.00000
     33       7.3522      0.00000
     34       8.0401      0.00000
     35       8.1187      0.00000
     36       8.1187      0.00000
     37       8.9766      0.00000
     38       8.9766      0.00000
     39       9.7104      0.00000
     40       9.9799      0.00000
     41       9.9799      0.00000
     42      10.1680      0.00000
     43      10.1680      0.00000
     44      10.8064      0.00000
     45      10.8426      0.00000
     46      11.0410      0.00000
     47      11.4788      0.00000
     48      11.4788      0.00000

 k-point     7 :       0.5000   -0.0000    0.0000
  band No.  band energies     occupation 
      1     -20.5425      2.00000
      2     -20.5425      2.00000
      3     -17.5968      2.00000
      4     -17.5968      2.00000
      5     -12.6740      2.00000
      6     -12.6740      2.00000
      7     -11.2926      2.00000
      8     -11.2926      2.00000
      9      -9.5283      2.00000
     10      -9.5283      2.00000
     11      -8.2601      2.00000
     12      -8.2601      2.00000
     13      -7.1395      2.00000
     14      -7.1395      2.00000
     15      -4.9129      2.00000
     16      -4.9129      2.00000
     17       0.9933      0.00000
     18       0.9933      0.00000
     19       3.1402      0.00000
     20       3.1402      0.00000
     21       4.0584      0.00000
     22       4.0584      0.00000
     23       4.6467      0.00000
     24       4.6467      0.00000
     25       5.7129      0.00000
     26       5.7129      0.00000
     27       6.5069      0.00000
     28       6.5069      0.00000
     29       6.6253      0.00000
     30       6.6253      0.00000
     31       7.2954      0.00000
     32       7.2954      0.00000
     33       7.3101      0.00000
     34       7.3101      0.00000
     35       8.0378      0.00000
     36       8.0378      0.00000
     37       8.9190      0.00000
     38       8.9190      0.00000
     39      10.0698      0.00000
     40      10.0698      0.00000
     41      10.3253      0.00000
     42      10.3253      0.00000
     43      10.8466      0.00000
     44      10.8466      0.00000
     45      11.4740      0.00000
     46      11.4740      0.00000
     47      11.4844      0.00000
     48      11.4844      0.00000

 k-point     8 :       0.0833    0.0833    0.0000
  band No.  band energies     occupation 
      1     -21.9409      2.00000
      2     -17.4763      2.00000
      3     -17.4763      2.00000
      4     -16.3964      2.00000
      5     -15.5588      2.00000
      6     -14.5033      2.00000
      7     -14.5033      2.00000
      8      -9.9325      2.00000
      9      -9.1351      2.00000
     10      -8.6361      2.00000
     11      -8.6361      2.00000
     12      -5.4884      2.00000
     13      -5.2770      2.00000
     14      -5.0200      2.00000
     15      -5.0200      2.00000
     16      -4.3366      2.00000
     17      -0.3220      0.00000
     18       0.4228      0.00000
     19       0.4228      0.00000
     20       1.2185      0.00000
     21       2.1340      0.00000
     22       2.6872      0.00000
     23       4.5452      0.00000
     24       5.3227      0.00000
     25       6.2972      0.00000
     26       6.2972      0.00000
     27       6.8112      0.00000
     28       6.8866      0.00000
     29       7.3325      0.00000
     30       7.4955      0.00000
     31       7.4955      0.00000
     32       8.4464      0.00000
     33       8.4464      0.00000
     34       8.4608      0.00000
     35       9.1050      0.00000
     36       9.1050      0.00000
     37       9.4376      0.00000
     38       9.5613      0.00000
     39       9.5936      0.00000
     40       9.8238      0.00000
     41      10.2125      0.00000
     42      10.5974      0.00000
     43      10.7543      0.00000
     44      10.7543      0.00000
     45      11.2176      0.00000
     46      11.2429      0.00000
     47      11.4726      0.00000
     48      11.4726      0.00000

 k-point     9 :       0.1667    0.0833    0.0000
  band No.  band energies     occupation 
      1     -21.7703      2.00000
      2     -18.2705      2.00000
      3     -17.7911      2.00000
      4     -16.4648      2.00000
      5     -15.2020      2.00000
      6     -13.9204      2.00000
      7     -13.4618      2.00000
      8      -9.7282      2.00000
      9      -9.7261      2.00000
     10      -8.9609      2.00000
     11      -8.4650      2.00000
     12      -6.0911      2.00000
     13      -5.7387      2.00000
     14      -5.6295      2.00000
     15      -5.2548      2.00000
     16      -4.2149      2.00000
     17      -0.2902      0.00000
     18       0.8539      0.00000
     19       1.4092      0.00000
     20       1.4517      0.00000
     21       2.3694      0.00000
     22       2.9248      0.00000
     23       4.7793      0.00000
     24       5.5522      0.00000
     25       6.2183      0.00000
     26       6.5014      0.00000
     27       6.8152      0.00000
     28       6.9861      0.00000
     29       7.1003      0.00000
     30       7.2983      0.00000
     31       7.6563      0.00000
     32       7.9219      0.00000
     33       7.9659      0.00000
     34       7.9792      0.00000
     35       8.6318      0.00000
     36       8.6877      0.00000
     37       9.0587      0.00000
     38       9.2344      0.00000
     39       9.6452      0.00000
     40       9.7938      0.00000
     41       9.7981      0.00000
     42      10.2713      0.00000
     43      10.3767      0.00000
     44      10.4617      0.00000
     45      10.7590      0.00000
     46      11.0403      0.00000
     47      11.1475      0.00000
     48      12.1633      0.00000

 k-point    10 :       0.2500    0.0833    0.0000
  band No.  band energies     occupation 
      1     -21.5149      2.00000
      2     -19.0038      2.00000
      3     -18.0315      2.00000
      4     -16.6439      2.00000
      5     -14.6066      2.00000
      6     -13.2899      2.00000
      7     -12.3654      2.00000
      8     -10.4310      2.00000
      9      -9.4606      2.00000
     10      -9.4183      2.00000
     11      -8.2126      2.00000
     12      -6.9150      2.00000
     13      -6.5051      2.00000
     14      -6.0767      2.00000
     15      -5.4479      2.00000
     16      -4.1590      2.00000
     17      -0.1501      0.00000
     18       1.2877      0.00000
     19       1.8015      0.00000
     20       2.5616      0.00000
     21       2.7222      0.00000
     22       3.2813      0.00000
     23       5.1296      0.00000
     24       5.2778      0.00000
     25       5.8952      0.00000
     26       6.2575      0.00000
     27       6.4929      0.00000
     28       6.6628      0.00000
     29       6.8698      0.00000
     30       7.0455      0.00000
     31       7.5905      0.00000
     32       7.7816      0.00000
     33       8.2832      0.00000
     34       8.4095      0.00000
     35       8.6211      0.00000
     36       8.6226      0.00000
     37       8.8159      0.00000
     38       8.8904      0.00000
     39       9.0313      0.00000
     40       9.3278      0.00000
     41       9.4242      0.00000
     42       9.8811      0.00000
     43      10.1498      0.00000
     44      10.3995      0.00000
     45      10.8026      0.00000
     46      10.9645      0.00000
     47      11.2622      0.00000
     48      12.2785      0.00000

 k-point    11 :       0.3333    0.0833    0.0000
  band No.  band energies     occupation 
      1     -21.1755      2.00000
      2     -19.6648      2.00000
      3     -18.1934      2.00000
      4     -16.7849      2.00000
      5     -13.9510      2.00000
      6     -12.6495      2.00000
      7     -11.2366      2.00000
      8     -11.1641      2.00000
      9     -10.0474      2.00000
     10      -9.0112      2.00000
     11      -7.8945      2.00000
     12      -7.8847      2.00000
     13      -7.2420      2.00000
     14      -6.5618      2.00000
     15      -5.5843      2.00000
     16      -4.1446      2.00000
     17       0.0209      0.00000
     18       1.6498      0.00000
     19       2.2678      0.00000
     20       3.1913      0.00000
     21       3.7565      0.00000
     22       3.7760      0.00000
     23       4.3581      0.00000
     24       5.3378      0.00000
     25       5.5936      0.00000
     26       5.8884      0.00000
     27       6.3417      0.00000
     28       6.4394      0.00000
     29       6.6413      0.00000
     30       7.0433      0.00000
     31       7.3273      0.00000
     32       7.4118      0.00000
     33       7.7014      0.00000
     34       8.0286      0.00000
     35       8.4752      0.00000
     36       8.5014      0.00000
     37       8.8742      0.00000
     38       8.9550      0.00000
     39       9.4822      0.00000
     40       9.5994      0.00000
     41       9.9031      0.00000
     42      10.0121      0.00000
     43      10.1753      0.00000
     44      10.5762      0.00000
     45      10.6148      0.00000
     46      10.6668      0.00000
     47      11.4595      0.00000
     48      11.9611      0.00000

 k-point    12 :       0.4167    0.0833    0.0000
  band No.  band energies     occupation 
      1     -20.7530      2.00000
      2     -20.2488      2.00000
      3     -18.2748      2.00000
      4     -16.8588      2.00000
      5     -13.3839      2.00000
      6     -12.1216      2.00000
      7     -11.7744      2.00000
      8     -10.5590      2.00000
      9     -10.0962      2.00000
     10      -8.9705      2.00000
     11      -8.5083      2.00000
     12      -7.9154      2.00000
     13      -7.4904      2.00000
     14      -7.0428      2.00000
     15      -5.6545      2.00000
     16      -4.1451      2.00000
     17       0.1361      0.00000
     18       1.8599      0.00000
     19       2.8500      0.00000
     20       3.5473      0.00000
     21       3.7737      0.00000
     22       4.3504      0.00000
     23       4.4326      0.00000
     24       5.0622      0.00000
     25       5.1007      0.00000
     26       6.0950      0.00000
     27       6.3256      0.00000
     28       6.3680      0.00000
     29       6.7547      0.00000
     30       6.7641      0.00000
     31       6.8946      0.00000
     32       7.1180      0.00000
     33       7.1893      0.00000
     34       7.7034      0.00000
     35       7.9132      0.00000
     36       8.3630      0.00000
     37       8.7407      0.00000
     38       9.4483      0.00000
     39       9.9482      0.00000
     40      10.0374      0.00000
     41      10.0421      0.00000
     42      10.4878      0.00000
     43      10.5055      0.00000
     44      10.7048      0.00000
     45      11.0637      0.00000
     46      11.1712      0.00000
     47      11.3049      0.00000
     48      11.8710      0.00000

 k-point    13 :       0.1667    0.1667    0.0000
  band No.  band energies     occupation 
      1     -21.5574      2.00000
      2     -18.5550      2.00000
      3     -18.5550      2.00000
      4     -16.0735      2.00000
      5     -15.2309      2.00000
      6     -12.8586      2.00000
      7     -12.8586      2.00000
      8     -10.4782      2.00000
      9      -9.4694      2.00000
     10      -8.7458      2.00000
     11      -8.7458      2.00000
     12      -6.7212      2.00000
     13      -6.0805      2.00000
[...]
     38       9.2242      0.00000
     39       9.2242      0.00000
     40       9.8399      0.00000
     41       9.8858      0.00000
     42      10.0582      0.00000
     43      10.0582      0.00000
     44      10.0738      0.00000
     45      10.0923      0.00000
     46      11.1293      0.00000
     47      11.7331      0.00000
     48      11.7659      0.00000

 k-point    14 :       0.2500    0.1667    0.0000
  band No.  band energies     occupation 
      1     -21.2602      2.00000
      2     -19.2514      2.00000
      3     -18.7598      2.00000
      4     -16.0264      2.00000
      5     -14.7965      2.00000
      6     -12.2312      2.00000
      7     -11.7590      2.00000
      8     -11.2723      2.00000
      9      -9.1941      2.00000
     10      -9.1124      2.00000
     11      -8.4495      2.00000
     12      -7.5313      2.00000
     13      -6.7702      2.00000
     14      -6.6105      2.00000
     15      -6.2151      2.00000
     16      -3.5962      2.00000
     17      -0.5976      0.00000
     18       2.1516      0.00000
     19       2.3811      0.00000
     20       3.0745      0.00000
     21       3.0937      0.00000
     22       3.6379      0.00000
     23       4.9384      0.00000
     24       5.4791      0.00000
     25       5.6332      0.00000
     26       5.8977      0.00000
     27       6.2419      0.00000
     28       6.4816      0.00000
     29       6.5683      0.00000
     30       7.1190      0.00000
     31       7.1961      0.00000
     32       7.3811      0.00000
     33       7.6722      0.00000
     34       7.8893      0.00000
     35       8.2613      0.00000
     36       8.9095      0.00000
     37       9.0799      0.00000
     38       9.3048      0.00000
     39       9.3643      0.00000
     40       9.3968      0.00000
     41       9.6502      0.00000
     42       9.7728      0.00000
     43       9.8963      0.00000
     44      10.5005      0.00000
     45      10.9302      0.00000
     46      11.2976      0.00000
     47      11.4571      0.00000
     48      11.9162      0.00000

 k-point    15 :       0.3333    0.1667    0.0000
  band No.  band energies     occupation 
      1     -20.8796      2.00000
      2     -19.8732      2.00000
      3     -18.8833      2.00000
      4     -16.0877      2.00000
      5     -14.1907      2.00000
      6     -12.0184      2.00000
      7     -11.6428      2.00000
      8     -10.6444      2.00000
      9      -9.6982      2.00000
     10      -8.6579      2.00000
     11      -8.4885      2.00000
     12      -8.0775      2.00000
     13      -7.4771      2.00000
     14      -7.1424      2.00000
     15      -6.3387      2.00000
     16      -3.4360      2.00000
     17      -0.6273      0.00000
     18       2.6761      0.00000
     19       2.7080      0.00000
     20       3.6010      0.00000
     21       4.0709      0.00000
     22       4.1727      0.00000
     23       4.2762      0.00000
     24       5.0473      0.00000
     25       5.4623      0.00000
     26       5.5972      0.00000
     27       5.9956      0.00000
     28       6.3744      0.00000
     29       6.6539      0.00000
     30       6.7470      0.00000
     31       7.0236      0.00000
     32       7.2185      0.00000
     33       7.4012      0.00000
     34       7.4531      0.00000
     35       8.2243      0.00000
     36       8.7117      0.00000
     37       8.9124      0.00000
     38       9.0268      0.00000
     39       9.5072      0.00000
     40       9.6255      0.00000
     41       9.8658      0.00000
     42      10.2599      0.00000
     43      10.9891      0.00000
     44      11.0228      0.00000
     45      11.1624      0.00000
     46      11.2025      0.00000
     47      11.2780      0.00000
     48      11.7191      0.00000

 k-point    16 :       0.4167    0.1667    0.0000
  band No.  band energies     occupation 
      1     -20.4167      2.00000
      2     -20.4167      2.00000
      3     -18.9246      2.00000
      4     -16.1152      2.00000
      5     -13.8304      2.00000
      6     -12.4205      2.00000
      7     -11.3343      2.00000
      8      -9.9828      2.00000
      9      -9.5421      2.00000
     10      -9.5421      2.00000
     11      -8.1103      2.00000
     12      -8.1103      2.00000
     13      -7.6378      2.00000
     14      -7.6378      2.00000
     15      -6.3803      2.00000
     16      -3.3837      2.00000
     17      -0.6297      0.00000
     18       2.8278      0.00000
     19       3.3162      0.00000
     20       3.3162      0.00000
     21       4.2355      0.00000
     22       4.2355      0.00000
     23       4.8261      0.00000
     24       4.8261      0.00000
     25       5.4051      0.00000
     26       5.5145      0.00000
     27       5.5145      0.00000
     28       6.3075      0.00000
     29       6.6536      0.00000
     30       6.6536      0.00000
     31       6.9649      0.00000
     32       7.2145      0.00000
     33       7.2145      0.00000
     34       7.5763      0.00000
     35       7.5763      0.00000
     36       8.6435      0.00000
     37       8.8892      0.00000
     38       9.4072      0.00000
     39       9.4517      0.00000
     40       9.8184      0.00000
     41      10.4692      0.00000
     42      10.4692      0.00000
     43      11.1513      0.00000
     44      11.1519      0.00000
     45      11.2012      0.00000
     46      11.3506      0.00000
     47      11.3506      0.00000
     48      11.6691      0.00000

 k-point    17 :       0.2500    0.2500    0.0000
  band No.  band energies     occupation 
      1     -20.9219      2.00000
      2     -19.4172      2.00000
      3     -19.4172      2.00000
      4     -15.5364      2.00000
      5     -14.7628      2.00000
      6     -12.0919      2.00000
      7     -11.1595      2.00000
      8     -11.1595      2.00000
      9      -8.8399      2.00000
     10      -8.8399      2.00000
     11      -8.7079      2.00000
     12      -8.2613      2.00000
     13      -7.2455      2.00000
     14      -6.9494      2.00000
     15      -6.9494      2.00000
     16      -3.0801      2.00000
     17      -1.0018      0.00000
     18       2.6182      0.00000
     19       3.5225      0.00000
     20       3.5225      0.00000
     21       3.5432      0.00000
     22       4.1135      0.00000
     23       4.7099      0.00000
     24       4.7099      0.00000
     25       5.6484      0.00000
     26       5.6484      0.00000
     27       5.9439      0.00000
     28       6.2512      0.00000
     29       6.2512      0.00000
     30       6.7044      0.00000
     31       6.7755      0.00000
     32       7.7842      0.00000
     33       7.9655      0.00000
     34       7.9655      0.00000
     35       8.0129      0.00000
     36       8.0129      0.00000
     37       8.8653      0.00000
     38       8.8653      0.00000
     39       9.0624      0.00000
     40       9.7260      0.00000
     41       9.8054      0.00000
     42      10.5779      0.00000
     43      10.7382      0.00000
     44      10.9644      0.00000
     45      11.0460      0.00000
     46      11.6464      0.00000
     47      11.6464      0.00000
     48      12.2159      0.00000

 k-point    18 :       0.3333    0.2500    0.0000
  band No.  band energies     occupation 
      1     -20.5008      2.00000
      2     -19.9986      2.00000
      3     -19.5004      2.00000
      4     -15.3871      2.00000
      5     -14.4207      2.00000
      6     -12.7369      2.00000
      7     -10.6865      2.00000
      8     -10.1090      2.00000
      9      -9.2213      2.00000
     10      -9.1261      2.00000
     11      -8.3968      2.00000
     12      -8.2083      2.00000
     13      -7.8620      2.00000
     14      -7.6191      2.00000
     15      -7.0396      2.00000
     16      -2.7139      2.00000
     17      -1.2988      0.00000
     18       3.2007      0.00000
     19       3.7699      0.00000
     20       3.8983      0.00000
     21       4.1263      0.00000
     22       4.5952      0.00000
     23       4.6256      0.00000
     24       4.7079      0.00000
     25       4.8706      0.00000
     26       5.4207      0.00000
     27       5.5168      0.00000
     28       5.7633      0.00000
     29       6.1338      0.00000
     30       6.5242      0.00000
     31       7.2147      0.00000
     32       7.2737      0.00000
     33       7.8609      0.00000
     34       7.8845      0.00000
     35       8.0537      0.00000
     36       8.2181      0.00000
     37       8.6100      0.00000
     38       8.8218      0.00000
     39       9.0251      0.00000
     40      10.3466      0.00000
     41      10.3581      0.00000
     42      10.5557      0.00000
     43      10.9729      0.00000
     44      11.1050      0.00000
     45      11.2420      0.00000
     46      11.4840      0.00000
     47      11.4998      0.00000
     48      11.5409      0.00000

 k-point    19 :       0.3333    0.3333    0.0000
  band No.  band energies     occupation 
      1     -20.0404      2.00000
      2     -20.0404      2.00000
      3     -20.0404      2.00000
      4     -14.7873      2.00000
      5     -14.7872      2.00000
      6     -13.0544      2.00000
      7      -9.8425      2.00000
      8      -9.8424      2.00000
      9      -9.8424      2.00000
     10      -8.5958      2.00000
     11      -8.5958      2.00000
     12      -8.5957      2.00000
     13      -7.6666      2.00000
     14      -7.6666      2.00000
     15      -7.6666      2.00000
     16      -1.9965      1.00029
     17      -1.9965      0.99971
     18       3.8407      0.00000
     19       3.8407      0.00000
     20       3.8407      0.00000
     21       4.7657      0.00000
     22       4.7657      0.00000
     23       4.7657      0.00000
     24       4.7986      0.00000
     25       4.7986      0.00000
     26       4.7986      0.00000
     27       5.3617      0.00000
     28       5.3617      0.00000
     29       5.3617      0.00000
     30       7.1505      0.00000
     31       7.1505      0.00000
     32       7.1505      0.00000
     33       7.9098      0.00000
     34       7.9098      0.00000
     35       7.9098      0.00000
     36       8.6556      0.00000
     37       8.6556      0.00000
     38       8.6557      0.00000
     39       8.7245      0.00000
     40      10.5520      0.00000
     41      10.5520      0.00000
     42      10.5520      0.00000
     43      10.9071      0.00000
     44      10.9071      0.00000
     45      10.9072      0.00000
     46      11.3427      0.00000
     47      11.3428      0.00000
     48      11.8104      0.00000


--------------------------------------------------------------------------------------------------------


 soft charge-density along one line, spin component           1
         0         1         2         3         4         5         6         7         8         9
 total charge-density along one line
 
 pseudopotential strength for first ion, spin component:           1
 10.172  13.526  -0.000  -0.000  -0.000   0.000   0.000   0.000
 13.526  17.984  -0.000  -0.000  -0.000   0.000   0.000   0.000
 -0.000  -0.000  -4.300  -0.000   0.000   8.406   0.000  -0.000
 -0.000  -0.000  -0.000  -4.291   0.000   0.000   8.394  -0.000
 -0.000  -0.000   0.000   0.000  -4.300  -0.000  -0.000   8.406
  0.000   0.000   8.406   0.000  -0.000 -18.566  -0.000   0.000
  0.000   0.000   0.000   8.394  -0.000  -0.000 -18.553   0.000
  0.000   0.000  -0.000  -0.000   8.406   0.000   0.000 -18.566
 total augmentation occupancy for first ion, spin component:           1
  8.916  -4.063   0.000   0.000   0.000  -0.000   0.000   0.000
 -4.063   1.909  -0.000  -0.000   0.000  -0.000  -0.000  -0.000
  0.000   0.000   1.913  -0.000   0.000   0.180  -0.000  -0.000
  0.000  -0.000  -0.000   1.225  -0.000  -0.000   0.078   0.000
  0.000  -0.000   0.000   0.000   1.913  -0.000  -0.000   0.180
  0.000  -0.000   0.180   0.000  -0.000   0.018   0.000  -0.000
  0.000  -0.000   0.000   0.078   0.000   0.000   0.005  -0.000
 -0.000   0.000  -0.000  -0.000   0.180   0.000  -0.000   0.018


------------------------ aborting loop because EDIFF is reached ----------------------------------------


    CHARGE:  cpu time      0.0548: real time      0.0563
    FORLOC:  cpu time      0.0010: real time      0.0010
    FORNL :  cpu time      0.0635: real time      0.0637
    STRESS:  cpu time      0.4391: real time      0.4454
    FORCOR:  cpu time      0.0116: real time      0.0117
    FORHAR:  cpu time      0.0034: real time      0.0034
    MIXING:  cpu time      0.0008: real time      0.0008
    OFIELD:  cpu time      0.0000: real time      0.0000

 ---------------------------------------------------------------------------------------------

         DFTD3 V3.0 Rev 1        
 IVDW         = 12
 DF pbe       
 parameters
 VDW_S6       =    1.0000
 VDW_S8       =    0.7875
 VDW_A1       =    0.4289
 VDW_A2       =    4.4407
 k1-k3        =   16.0000    1.3333   -4.0000
 VDW_RADIUS   =   50.2022 A
 VDW_CNRADIUS =   21.1671 A
 Edisp (eV)   -0.70637

 E6    (eV) :    -0.4858
 E8    (eV) :    -0.2206
 % E8        : 31.23
    FORVDW:  cpu time      0.0176: real time      0.0176

  FORCE on cell =-STRESS in cart. coord.  units (eV):
  Direction    XX          YY          ZZ          XY          YZ          ZX
  --------------------------------------------------------------------------------------
  Alpha Z    17.42025    17.42025    17.42025
  Ewald    4655.52165  4655.52671 -5756.00727    -0.00000     0.00000     0.00000
  Hartree  4521.37989  4521.37993 -4478.05571     0.00000     0.00000     0.00000
  E(xc)    -120.53919  -120.53919  -125.04748     0.00000    -0.00000    -0.00000
  Local   -9519.50640 -9519.50886  9814.82502    -0.00000    -0.00000     0.00000
  n-local   -30.91824   -30.96034   -27.33456     0.08739    -0.00000     0.00000
  augment    -3.42117    -3.42114    -3.07219    -0.00000    -0.00000     0.00000
  Kinetic   504.41345   482.91833   557.01508    -9.53978     0.00000     0.00000
  Fock        0.00000     0.00000     0.00000     0.00000     0.00000     0.00000
  vdW         0.36485     0.36485    -0.00572     0.00000     0.00000     0.00000
  -------------------------------------------------------------------------------------
  Total      13.94781    13.94781    -0.26258     0.00000    -0.00000     0.00000
  in kB      74.04585    74.04586    -1.39400     0.00000    -0.00000     0.00000
  external pressure =       48.90 kB  Pullay stress =        0.00 kB


 VOLUME and BASIS-vectors are now :
 -----------------------------------------------------------------------------
  energy-cutoff  :      450.00
  volume of cell :      301.80
      direct lattice vectors                 reciprocal lattice vectors
     4.174242000  2.410000000  0.000000000     0.119782226  0.207468880  0.000000000
    -4.174242000  2.410000000  0.000000000    -0.119782226  0.207468880  0.000000000
     0.000000000  0.000000000 15.000000000     0.000000000  0.000000000  0.066666667

  length of vectors
     4.819999614  4.819999614 15.000000000     0.239564433  0.239564433  0.066666667


 FORCES acting on ions
    electron-ion (+dipol)            ewald-force                    non-local-force                 convergence-correction
 -----------------------------------------------------------------------------------------------
   0.258E-03 0.452E-03 -.399E-05   0.506E-03 -.394E-13 0.763E-15   -.134E-16 -.331E-17 0.336E-20   0.107E-09 0.233E-10 0.113E-09
   -.258E-03 0.452E-03 -.399E-05   -.506E-03 0.247E-13 0.572E-15   0.981E-17 -.301E-17 0.416E-20   -.107E-09 0.233E-10 0.113E-09
   0.258E-03 0.452E-03 -.399E-05   0.506E-03 -.568E-13 0.381E-15   -.104E-17 0.538E-17 -.461E-20   0.107E-09 0.233E-10 0.113E-09
   -.258E-03 0.452E-03 -.399E-05   -.506E-03 0.149E-13 0.191E-15   -.611E-17 -.243E-19 -.238E-20   -.107E-09 0.233E-10 0.113E-09
   0.258E-03 0.452E-03 -.399E-05   0.506E-03 -.142E-13 -.136E-19   0.154E-17 -.645E-18 0.344E-20   0.107E-09 0.233E-10 0.113E-09
   -.258E-03 0.452E-03 -.399E-05   -.506E-03 0.584E-13 -.191E-15   0.123E-17 -.345E-17 -.268E-20   -.107E-09 0.233E-10 0.113E-09
   0.258E-03 0.452E-03 -.399E-05   0.506E-03 -.276E-13 -.381E-15   -.439E-17 0.146E-17 0.196E-20   0.107E-09 0.233E-10 0.113E-09
   -.258E-03 0.452E-03 -.399E-05   -.506E-03 0.408E-13 -.572E-15   0.149E-16 0.362E-17 0.453E-20   -.107E-09 0.233E-10 0.113E-09
 -----------------------------------------------------------------------------------------------
   0.712E-12 0.362E-02 -.319E-04   -.487E-14 0.680E-15 0.763E-15   0.251E-17 0.249E-19 0.777E-20   -.297E-14 0.187E-09 0.906E-09
 
 
 POSITION                                       TOTAL-FORCE (eV/Angst)
 -----------------------------------------------------------------------------------
     -0.69571      1.20500      1.50000         0.000000      0.000000      0.000000
      0.69571      1.20500      1.50000         0.000000     -0.000000     -0.000000
     -2.78283      2.41000      1.50000         0.000000      0.000000     -0.000000
     -1.39141      2.41000      1.50000        -0.000000      0.000000     -0.000000
      1.39141      2.41000      1.50000         0.000000     -0.000000     -0.000000
      2.78283      2.41000      1.50000        -0.000000     -0.000000     -0.000000
     -0.69571      3.61500      1.50000        -0.000000      0.000000      0.000000
      0.69571      3.61500      1.50000        -0.000000     -0.000000      0.000000
 -----------------------------------------------------------------------------------
    total drift:                                0.000000      0.003619     -0.000032


--------------------------------------------------------------------------------------------------------



  FREE ENERGIE OF THE ION-ELECTRON SYSTEM (eV)
  ---------------------------------------------------
  free  energy   TOTEN  =       -74.19480423 eV

  energy  without entropy=      -74.19323703  energy(sigma->0) =      -74.19402063
 


--------------------------------------------------------------------------------------------------------


    POTLOK:  cpu time      0.0173: real time      0.0185


--------------------------------------------------------------------------------------------------------


 stress matrix after NEB project (eV)
     13.94781      0.00000      0.00000
      0.00000     13.94781      0.00000
      0.00000     -0.00000     -0.26258
  FORCES: max atom, RMS     0.000000    0.000000
  FORCE total and by dimension    0.000000    0.000000
  Stress total and by dimension   19.726933   13.947813


--------------------------------------------------------------------------------------------------------


  
 reached required accuracy - stopping structural energy minimisation
     LOOP+:  cpu time     18.7317: real time     19.0302
    4ORBIT:  cpu time      0.0000: real time      0.0000

 total amount of memory used by VASP MPI-rank0    49649. kBytes
=======================================================================

   base      :      30000. kBytes
   nonl-proj :       8902. kBytes
   fftplans  :       1560. kBytes
   grid      :       7121. kBytes
   one-center:         24. kBytes
   wavefun   :       2042. kBytes
 
  
  
 General timing and accounting informations for this job:
 ========================================================
  
                  Total CPU time used (sec):       22.165
                            User time (sec):       19.590
                          System time (sec):        2.575
                         Elapsed time (sec):       24.564
  
                   Maximum memory used (kb):      557948.
                   Average memory used (kb):          N/A
  
                          Minor page faults:        95952
                          Major page faults:         2400
                 Voluntary context switches:         6172
