   8   8   0  16
  0.4025466E+02  0.4979000E-09  0.4979000E-09  0.1500000E-08  0.5000000E-15
  1.000000000000000E-004
  CAR 
 SC                                      
     77.69109709    -26.36593177  301     -2.35032991      1.00000000
    -26.366  0.0000E+00  0.0000E+00
    -26.019  0.0000E+00  0.0000E+00
    -25.672  0.0000E+00  0.0000E+00
    -25.325  0.0000E+00  0.0000E+00
    -24.979  0.0000E+00  0.0000E+00
    -24.632  0.0000E+00  0.0000E+00
    -24.285  0.0000E+00  0.0000E+00
    -23.938  0.0000E+00  0.0000E+00
    -23.591  0.0000E+00  0.0000E+00
    -23.244  0.0000E+00  0.0000E+00
    -22.897  0.0000E+00  0.0000E+00
    -22.551  0.0000E+00  0.0000E+00
    -22.204  0.1661E-16  0.5762E-17
    -21.857  0.6293E-04  0.2183E-04
    -21.510  0.4580E+00  0.1589E+00
    -21.163  0.1247E+01  0.5914E+00
    -20.816  0.1270E+01  0.1032E+01
    -20.469  0.1229E+01  0.1459E+01
    -20.123  0.1282E+01  0.1903E+01
    -19.776  0.1305E+01  0.2356E+01
    -19.429  0.1288E+01  0.2802E+01
    -19.082  0.1270E+01  0.3243E+01
    -18.735  0.1266E+01  0.3682E+01
    -18.388  0.1275E+01  0.4124E+01
    -18.041  0.1403E+01  0.4611E+01
    -17.695  0.1445E+01  0.5112E+01
    -17.348  0.1321E+01  0.5570E+01
    -17.001  0.1309E+01  0.6024E+01
    -16.654  0.1683E+01  0.6608E+01
    -16.307  0.1853E+01  0.7250E+01
    -15.960  0.9183E+00  0.7569E+01
    -15.613  0.5700E+00  0.7767E+01
    -15.267  0.8515E+00  0.8062E+01
    -14.920  0.1373E+01  0.8538E+01
    -14.573  0.1627E+01  0.9102E+01
    -14.226  0.1706E+01  0.9694E+01
    -13.879  0.1448E+01  0.1020E+02
    -13.532  0.1278E+01  0.1064E+02
    -13.185  0.1204E+01  0.1106E+02
    -12.839  0.1125E+01  0.1145E+02
    -12.492  0.1278E+01  0.1189E+02
    -12.145  0.1472E+01  0.1240E+02
    -11.798  0.1542E+01  0.1294E+02
    -11.451  0.1648E+01  0.1351E+02
    -11.104  0.1479E+01  0.1402E+02
    -10.757  0.1595E+01  0.1457E+02
    -10.411  0.1829E+01  0.1521E+02
    -10.064  0.1630E+01  0.1577E+02
     -9.717  0.2025E+01  0.1648E+02
     -9.370  0.3093E+01  0.1755E+02
     -9.023  0.3223E+01  0.1867E+02
     -8.676  0.4098E+01  0.2009E+02
     -8.329  0.4087E+01  0.2151E+02
     -7.983  0.3168E+01  0.2260E+02
     -7.636  0.2948E+01  0.2363E+02
     -7.289  0.2570E+01  0.2452E+02
     -6.942  0.2507E+01  0.2539E+02
     -6.595  0.2546E+01  0.2627E+02
     -6.248  0.2467E+01  0.2713E+02
     -5.901  0.2289E+01  0.2792E+02
     -5.555  0.2091E+01  0.2865E+02
     -5.208  0.1967E+01  0.2933E+02
     -4.861  0.1730E+01  0.2993E+02
     -4.514  0.1982E+01  0.3062E+02
     -4.167  0.1324E+01  0.3107E+02
     -3.820  0.1092E+01  0.3145E+02
     -3.473  0.7688E+00  0.3172E+02
     -3.127  0.3873E+00  0.3185E+02
     -2.780  0.2840E+00  0.3195E+02
     -2.433  0.1358E+00  0.3200E+02
     -2.086  0.5361E-01  0.3202E+02
     -1.739  0.1928E+00  0.3209E+02
     -1.392  0.4692E+00  0.3225E+02
     -1.045  0.8311E+00  0.3254E+02
     -0.699  0.1515E+01  0.3306E+02
     -0.352  0.2026E+01  0.3376E+02
     -0.005  0.1552E+01  0.3430E+02
      0.342  0.1160E+01  0.3471E+02
      0.689  0.1037E+01  0.3506E+02
      1.036  0.1287E+01  0.3551E+02
      1.383  0.1684E+01  0.3610E+02
      1.729  0.1908E+01  0.3676E+02
      2.076  0.2242E+01  0.3754E+02
      2.423  0.2720E+01  0.3848E+02
      2.770  0.3490E+01  0.3969E+02
      3.117  0.3305E+01  0.4084E+02
      3.464  0.3452E+01  0.4203E+02
      3.811  0.3337E+01  0.4319E+02
      4.157  0.3681E+01  0.4447E+02
      4.504  0.3438E+01  0.4566E+02
      4.851  0.4972E+01  0.4738E+02
      5.198  0.6744E+01  0.4972E+02
      5.545  0.7388E+01  0.5229E+02
      5.892  0.8756E+01  0.5532E+02
      6.239  0.8887E+01  0.5841E+02
      6.585  0.7416E+01  0.6098E+02
      6.932  0.7007E+01  0.6341E+02
      7.279  0.6970E+01  0.6583E+02
      7.626  0.6244E+01  0.6799E+02
      7.973  0.7071E+01  0.7044E+02
      8.320  0.7185E+01  0.7294E+02
      8.667  0.9195E+01  0.7613E+02
      9.013  0.7302E+01  0.7866E+02
      9.360  0.7980E+01  0.8143E+02
      9.707  0.7692E+01  0.8410E+02
     10.054  0.8920E+01  0.8719E+02
     10.401  0.9693E+01  0.9055E+02
     10.748  0.9582E+01  0.9387E+02
     11.095  0.7682E+01  0.9654E+02
     11.441  0.9122E+01  0.9970E+02
     11.788  0.1039E+02  0.1033E+03
     12.135  0.7785E+01  0.1060E+03
     12.482  0.6589E+01  0.1083E+03
     12.829  0.5930E+01  0.1104E+03
     13.176  0.6453E+01  0.1126E+03
     13.523  0.7744E+01  0.1153E+03
     13.869  0.9252E+01  0.1185E+03
     14.216  0.9921E+01  0.1219E+03
     14.563  0.1177E+02  0.1260E+03
     14.910  0.9454E+01  0.1293E+03
     15.257  0.9337E+01  0.1325E+03
     15.604  0.7619E+01  0.1352E+03
     15.951  0.8007E+01  0.1379E+03
     16.297  0.1065E+02  0.1416E+03
     16.644  0.8748E+01  0.1447E+03
     16.991  0.1051E+02  0.1483E+03
     17.338  0.8995E+01  0.1514E+03
     17.685  0.9467E+01  0.1547E+03
     18.032  0.9231E+01  0.1579E+03
     18.379  0.9220E+01  0.1611E+03
     18.725  0.1008E+02  0.1646E+03
     19.072  0.1024E+02  0.1682E+03
     19.419  0.1077E+02  0.1719E+03
     19.766  0.1236E+02  0.1762E+03
     20.113  0.1262E+02  0.1806E+03
     20.460  0.1086E+02  0.1843E+03
     20.807  0.8732E+01  0.1874E+03
     21.153  0.1086E+02  0.1911E+03
     21.500  0.1330E+02  0.1957E+03
     21.847  0.1252E+02  0.2001E+03
     22.194  0.9371E+01  0.2033E+03
     22.541  0.9566E+01  0.2067E+03
     22.888  0.1229E+02  0.2109E+03
     23.235  0.1078E+02  0.2147E+03
     23.581  0.1294E+02  0.2192E+03
     23.928  0.1345E+02  0.2238E+03
     24.275  0.1230E+02  0.2281E+03
     24.622  0.1029E+02  0.2317E+03
     24.969  0.1016E+02  0.2352E+03
     25.316  0.1348E+02  0.2399E+03
     25.663  0.9978E+01  0.2433E+03
     26.009  0.1074E+02  0.2470E+03
     26.356  0.8246E+01  0.2499E+03
     26.703  0.1283E+02  0.2544E+03
     27.050  0.1270E+02  0.2588E+03
     27.397  0.1141E+02  0.2627E+03
     27.744  0.9002E+01  0.2658E+03
     28.091  0.1215E+02  0.2701E+03
     28.437  0.1069E+02  0.2738E+03
     28.784  0.1088E+02  0.2775E+03
     29.131  0.1209E+02  0.2817E+03
     29.478  0.1207E+02  0.2859E+03
     29.825  0.1045E+02  0.2895E+03
     30.172  0.1167E+02  0.2936E+03
     30.519  0.1305E+02  0.2981E+03
     30.865  0.1177E+02  0.3022E+03
     31.212  0.1186E+02  0.3063E+03
     31.559  0.1125E+02  0.3102E+03
     31.906  0.1217E+02  0.3144E+03
     32.253  0.1597E+02  0.3200E+03
     32.600  0.1499E+02  0.3252E+03
     32.947  0.1136E+02  0.3291E+03
     33.293  0.1160E+02  0.3331E+03
     33.640  0.1212E+02  0.3373E+03
     33.987  0.9413E+01  0.3406E+03
     34.334  0.1328E+02  0.3452E+03
     34.681  0.1371E+02  0.3500E+03
     35.028  0.1322E+02  0.3545E+03
     35.375  0.1387E+02  0.3594E+03
     35.721  0.1561E+02  0.3648E+03
     36.068  0.1323E+02  0.3694E+03
     36.415  0.1440E+02  0.3744E+03
     36.762  0.1229E+02  0.3786E+03
     37.109  0.1246E+02  0.3829E+03
     37.456  0.1357E+02  0.3876E+03
     37.803  0.1328E+02  0.3923E+03
     38.149  0.1298E+02  0.3968E+03
     38.496  0.1257E+02  0.4011E+03
     38.843  0.1313E+02  0.4057E+03
     39.190  0.1455E+02  0.4107E+03
     39.537  0.1574E+02  0.4162E+03
     39.884  0.1542E+02  0.4215E+03
     40.231  0.1611E+02  0.4271E+03
     40.577  0.1471E+02  0.4322E+03
     40.924  0.1579E+02  0.4377E+03
     41.271  0.1850E+02  0.4441E+03
     41.618  0.1358E+02  0.4488E+03
     41.965  0.1472E+02  0.4539E+03
     42.312  0.1458E+02  0.4590E+03
     42.659  0.1467E+02  0.4641E+03
     43.005  0.1561E+02  0.4695E+03
     43.352  0.1529E+02  0.4748E+03
     43.699  0.1744E+02  0.4808E+03
     44.046  0.1451E+02  0.4859E+03
     44.393  0.1469E+02  0.4910E+03
     44.740  0.1597E+02  0.4965E+03
     45.087  0.1377E+02  0.5013E+03
     45.433  0.1439E+02  0.5063E+03
     45.780  0.1363E+02  0.5110E+03
     46.127  0.1592E+02  0.5165E+03
     46.474  0.1637E+02  0.5222E+03
     46.821  0.1495E+02  0.5274E+03
     47.168  0.1401E+02  0.5323E+03
     47.515  0.1467E+02  0.5373E+03
     47.861  0.1831E+02  0.5437E+03
     48.208  0.1529E+02  0.5490E+03
     48.555  0.1432E+02  0.5540E+03
     48.902  0.1488E+02  0.5591E+03
     49.249  0.1413E+02  0.5640E+03
     49.596  0.1500E+02  0.5692E+03
     49.943  0.1436E+02  0.5742E+03
     50.289  0.1547E+02  0.5796E+03
     50.636  0.1558E+02  0.5850E+03
     50.983  0.1599E+02  0.5905E+03
     51.330  0.1577E+02  0.5960E+03
     51.677  0.1592E+02  0.6015E+03
     52.024  0.1483E+02  0.6067E+03
     52.371  0.1528E+02  0.6120E+03
     52.717  0.1625E+02  0.6176E+03
     53.064  0.1673E+02  0.6234E+03
     53.411  0.1683E+02  0.6292E+03
     53.758  0.1687E+02  0.6351E+03
     54.105  0.1705E+02  0.6410E+03
     54.452  0.1696E+02  0.6469E+03
     54.799  0.1922E+02  0.6536E+03
     55.145  0.1609E+02  0.6591E+03
     55.492  0.1735E+02  0.6652E+03
     55.839  0.1689E+02  0.6710E+03
     56.186  0.1681E+02  0.6768E+03
     56.533  0.1890E+02  0.6834E+03
     56.880  0.1602E+02  0.6889E+03
     57.227  0.1720E+02  0.6949E+03
     57.573  0.1681E+02  0.7007E+03
     57.920  0.1746E+02  0.7068E+03
     58.267  0.1778E+02  0.7130E+03
     58.614  0.1752E+02  0.7191E+03
     58.961  0.1642E+02  0.7247E+03
     59.308  0.1711E+02  0.7307E+03
     59.655  0.1977E+02  0.7375E+03
     60.001  0.1576E+02  0.7430E+03
     60.348  0.1682E+02  0.7488E+03
     60.695  0.1575E+02  0.7543E+03
     61.042  0.1700E+02  0.7602E+03
     61.389  0.1967E+02  0.7670E+03
     61.736  0.1725E+02  0.7730E+03
     62.083  0.1586E+02  0.7785E+03
     62.429  0.2022E+02  0.7855E+03
     62.776  0.1822E+02  0.7918E+03
     63.123  0.1488E+02  0.7970E+03
     63.470  0.1953E+02  0.8038E+03
     63.817  0.1733E+02  0.8098E+03
     64.164  0.1565E+02  0.8152E+03
     64.511  0.1880E+02  0.8217E+03
     64.857  0.1788E+02  0.8279E+03
     65.204  0.1667E+02  0.8337E+03
     65.551  0.1710E+02  0.8397E+03
     65.898  0.1660E+02  0.8454E+03
     66.245  0.2109E+02  0.8527E+03
     66.592  0.1840E+02  0.8591E+03
     66.939  0.1915E+02  0.8657E+03
     67.285  0.1822E+02  0.8721E+03
     67.632  0.1752E+02  0.8781E+03
     67.979  0.1895E+02  0.8847E+03
     68.326  0.2016E+02  0.8917E+03
     68.673  0.1757E+02  0.8978E+03
     69.020  0.1976E+02  0.9047E+03
     69.367  0.1749E+02  0.9107E+03
     69.713  0.1842E+02  0.9171E+03
     70.060  0.2012E+02  0.9241E+03
     70.407  0.1696E+02  0.9300E+03
     70.754  0.1887E+02  0.9365E+03
     71.101  0.1979E+02  0.9434E+03
     71.448  0.1351E+02  0.9481E+03
     71.795  0.1389E+02  0.9529E+03
     72.141  0.1071E+02  0.9566E+03
     72.488  0.6038E+01  0.9587E+03
     72.835  0.3139E+01  0.9598E+03
     73.182  0.6256E+00  0.9600E+03
     73.529  0.2250E-03  0.9600E+03
     73.876  0.0000E+00  0.9600E+03
     74.223  0.0000E+00  0.9600E+03
     74.569  0.0000E+00  0.9600E+03
     74.916  0.0000E+00  0.9600E+03
     75.263  0.0000E+00  0.9600E+03
     75.610  0.0000E+00  0.9600E+03
     75.957  0.0000E+00  0.9600E+03
     76.304  0.0000E+00  0.9600E+03
     76.651  0.0000E+00  0.9600E+03
     76.997  0.0000E+00  0.9600E+03
     77.344  0.0000E+00  0.9600E+03
     77.691  0.0000E+00  0.9600E+03
