       N       E                     dE             d eps       ncg     rms          rms(c)
DAV:   1     0.259567764927E+03    0.25957E+03   -0.28685E+04 14208   0.964E+02
DAV:   2    -0.130359042617E+03   -0.38993E+03   -0.38948E+03 21744   0.181E+02
DAV:   3    -0.146038929275E+03   -0.15680E+02   -0.15653E+02 25632   0.500E+01
DAV:   4    -0.146082382990E+03   -0.43454E-01   -0.43432E-01 21792   0.243E+00
DAV:   5    -0.146082459602E+03   -0.76611E-04   -0.76612E-04 23568   0.106E-01    0.252E+01
DAV:   6    -0.107291435774E+03    0.38791E+02   -0.67388E+01 23520   0.266E+01    0.147E+01
DAV:   7    -0.114407664848E+03   -0.71162E+01   -0.10351E+01 22608   0.111E+01    0.860E+00
DAV:   8    -0.123592732440E+03   -0.91851E+01   -0.82651E+00 25440   0.909E+00    0.459E+00
DAV:   9    -0.131603857007E+03   -0.80111E+01   -0.45047E+00 17904   0.733E+00    0.301E+00
DAV:  10    -0.138565178317E+03   -0.69613E+01   -0.95746E+00 21072   0.772E+00    0.173E+00
DAV:  11    -0.140002116966E+03   -0.14369E+01   -0.17033E+00 20976   0.350E+00    0.117E+00
DAV:  12    -0.140263498588E+03   -0.26138E+00   -0.32016E-01 19872   0.161E+00    0.466E-01
DAV:  13    -0.140317626327E+03   -0.54128E-01   -0.46069E-02 17232   0.850E-01    0.198E-01
DAV:  14    -0.140341854625E+03   -0.24228E-01   -0.78481E-03 18912   0.324E-01    0.984E-02
DAV:  15    -0.140351254876E+03   -0.94003E-02   -0.59369E-03 19008   0.187E-01    0.482E-02
DAV:  16    -0.140352632018E+03   -0.13771E-02   -0.53989E-04 14832   0.941E-02    0.276E-02
DAV:  17    -0.140354422098E+03   -0.17901E-02   -0.25122E-04 14640   0.644E-02    0.180E-02
DAV:  18    -0.140355476746E+03   -0.10546E-02   -0.11429E-04 16464   0.472E-02    0.130E-02
DAV:  19    -0.140356005040E+03   -0.52829E-03   -0.69611E-05 18720   0.382E-02    0.818E-03
DAV:  20    -0.140356154214E+03   -0.14917E-03   -0.24013E-05 16944   0.241E-02    0.459E-03
DAV:  21    -0.140356198679E+03   -0.44466E-04   -0.10260E-05 18720   0.150E-02    0.279E-03
DAV:  22    -0.140356206205E+03   -0.75256E-05   -0.37182E-06 23808   0.862E-03    0.201E-03
DAV:  23    -0.140356215738E+03   -0.95328E-05   -0.16418E-06 21024   0.481E-03    0.937E-04
DAV:  24    -0.140356219567E+03   -0.38289E-05   -0.44132E-07 22176   0.235E-03    0.503E-04
DAV:  25    -0.140356221351E+03   -0.17843E-05   -0.10619E-07 19872   0.112E-03    0.273E-04
DAV:  26    -0.140356222403E+03   -0.10522E-05   -0.78266E-08 18672   0.902E-04    0.123E-04
DAV:  27    -0.140356222734E+03   -0.33041E-06   -0.21456E-08 18384   0.520E-04    0.573E-05
DAV:  28    -0.140356222972E+03   -0.23882E-06   -0.73535E-09 16944   0.261E-04    0.345E-05
DAV:  29    -0.140356223080E+03   -0.10788E-06   -0.41522E-09 20304   0.149E-04    0.243E-05
DAV:  30    -0.140356223107E+03   -0.26830E-07   -0.14907E-09 20208   0.805E-05    0.134E-05
DAV:  31    -0.140356223120E+03   -0.12638E-07   -0.28996E-10 20352   0.383E-05    0.921E-06
DAV:  32    -0.140356223130E+03   -0.99253E-08   -0.11607E-10 18384   0.245E-05
   1 F= -.14225168E+03 E0= -.14225053E+03  d E =-.142252E+03  mag=    -0.0000
       N       E                     dE             d eps       ncg     rms          rms(c)
DAV:   1    -0.140292397146E+03    0.63826E-01   -0.21529E+01 14208   0.156E+01    0.133E+00
DAV:   2    -0.140238273747E+03    0.54123E-01   -0.37352E-01 23952   0.213E+00    0.642E-01
DAV:   3    -0.140233112724E+03    0.51610E-02   -0.51551E-02 24624   0.709E-01    0.280E-01
DAV:   4    -0.140232978596E+03    0.13413E-03   -0.52509E-03 20256   0.224E-01    0.108E-01
DAV:   5    -0.140232978720E+03   -0.12336E-06   -0.41670E-04 18384   0.764E-02    0.209E-02
DAV:   6    -0.140232982327E+03   -0.36073E-05   -0.74475E-05 22944   0.308E-02    0.108E-02
DAV:   7    -0.140232996527E+03   -0.14200E-04   -0.87856E-06 19728   0.101E-02    0.300E-03
DAV:   8    -0.140233006608E+03   -0.10081E-04   -0.10225E-06 22128   0.309E-03    0.185E-03
DAV:   9    -0.140233026701E+03   -0.20093E-04   -0.24300E-06 17232   0.346E-03    0.128E-03
DAV:  10    -0.140233035963E+03   -0.92624E-05   -0.80281E-07 20688   0.181E-03    0.112E-03
DAV:  11    -0.140233044786E+03   -0.88231E-05   -0.12406E-06 16800   0.174E-03    0.379E-04
DAV:  12    -0.140233045610E+03   -0.82417E-06   -0.44513E-08 22320   0.458E-04    0.238E-04
DAV:  13    -0.140233046137E+03   -0.52660E-06   -0.31451E-08 15696   0.326E-04    0.932E-05
DAV:  14    -0.140233046504E+03   -0.36690E-06   -0.27732E-08 15888   0.270E-04    0.550E-05
DAV:  15    -0.140233046715E+03   -0.21116E-06   -0.95954E-09 18240   0.159E-04    0.352E-05
DAV:  16    -0.140233046862E+03   -0.14701E-06   -0.29038E-09 18336   0.114E-04    0.396E-05
DAV:  17    -0.140233046980E+03   -0.11845E-06   -0.28831E-09 16944   0.108E-04    0.195E-05
DAV:  18    -0.140233047001E+03   -0.20105E-07   -0.46067E-10 22752   0.408E-05    0.109E-05
DAV:  19    -0.140233047006E+03   -0.52387E-08   -0.13699E-10 18960   0.225E-05
   2 F= -.14213428E+03 E0= -.14213279E+03  d E =0.117396E+00  mag=    -0.0000
       N       E                     dE             d eps       ncg     rms          rms(c)
DAV:   1    -0.140403284133E+03   -0.17024E+00   -0.11616E+01 14208   0.113E+01    0.980E-01
DAV:   2    -0.140374918395E+03    0.28366E-01   -0.19616E-01 23520   0.159E+00    0.473E-01
DAV:   3    -0.140371834763E+03    0.30836E-02   -0.33174E-02 24000   0.552E-01    0.195E-01
DAV:   4    -0.140371702736E+03    0.13203E-03   -0.35166E-03 17904   0.181E-01    0.875E-02
DAV:   5    -0.140371691889E+03    0.10847E-04   -0.29997E-04 20016   0.649E-02    0.153E-02
DAV:   6    -0.140371687951E+03    0.39380E-05   -0.59825E-05 19536   0.265E-02    0.760E-03
DAV:   7    -0.140371694320E+03   -0.63691E-05   -0.54177E-06 23616   0.804E-03    0.168E-03
DAV:   8    -0.140371703718E+03   -0.93975E-05   -0.81566E-07 23712   0.275E-03    0.907E-04
DAV:   9    -0.140371710799E+03   -0.70812E-05   -0.38466E-07 21984   0.133E-03    0.919E-04
DAV:  10    -0.140371715798E+03   -0.49991E-05   -0.19365E-07 16992   0.844E-04    0.645E-04
DAV:  11    -0.140371721833E+03   -0.60347E-05   -0.53098E-07 14784   0.118E-03    0.308E-04
DAV:  12    -0.140371722443E+03   -0.61067E-06   -0.13768E-08 23136   0.263E-04    0.156E-04
DAV:  13    -0.140371722929E+03   -0.48583E-06   -0.13428E-08 16608   0.216E-04    0.416E-05
DAV:  14    -0.140371723084E+03   -0.15459E-06   -0.32345E-09 21552   0.100E-04    0.323E-05
DAV:  15    -0.140371723166E+03   -0.82616E-07   -0.10532E-09 16992   0.578E-05    0.199E-05
DAV:  16    -0.140371723209E+03   -0.42386E-07   -0.62378E-10 19872   0.482E-05    0.177E-05
DAV:  17    -0.140371723225E+03   -0.16057E-07   -0.23496E-10 18432   0.310E-05    0.996E-06
DAV:  18    -0.140371723233E+03   -0.84492E-08   -0.27157E-10 20880   0.295E-05
   3 F= -.14226914E+03 E0= -.14226785E+03  d E =-.174581E-01  mag=     0.0000
       N       E                     dE             d eps       ncg     rms          rms(c)
DAV:   1    -0.140371724666E+03   -0.14409E-05   -0.94195E-07 20544   0.325E-03    0.289E-04
DAV:   2    -0.140371724665E+03    0.11687E-08   -0.17102E-08 22416   0.439E-04
   4 F= -.14226914E+03 E0= -.14226786E+03  d E =-.174581E-01  mag=     0.0000
       N       E                     dE             d eps       ncg     rms          rms(c)
DAV:   1    -0.140371869363E+03   -0.14470E-03   -0.15359E-02 14208   0.537E-01    0.241E-02
DAV:   2    -0.140371870961E+03   -0.15980E-05   -0.10703E-04 16320   0.462E-02    0.156E-02
DAV:   3    -0.140371874052E+03   -0.30916E-05   -0.16371E-05 14976   0.166E-02    0.342E-03
DAV:   4    -0.140371873918E+03    0.13417E-06   -0.30780E-06 24768   0.692E-03    0.208E-03
DAV:   5    -0.140371874099E+03   -0.18086E-06   -0.12510E-07 16416   0.160E-03    0.910E-04
DAV:   6    -0.140371874095E+03    0.38335E-08   -0.21769E-08 17712   0.560E-04
   5 F= -.14226927E+03 E0= -.14226800E+03  d E =-.134155E-03  mag=     0.0000
       N       E                     dE             d eps       ncg     rms          rms(c)
DAV:   1    -0.140371889313E+03   -0.15214E-04   -0.20498E-03 14784   0.196E-01    0.878E-03
DAV:   2    -0.140371889298E+03    0.15039E-07   -0.14450E-05 14208   0.170E-02    0.571E-03
DAV:   3    -0.140371889952E+03   -0.65325E-06   -0.22390E-06 14208   0.616E-03    0.125E-03
DAV:   4    -0.140371889930E+03    0.21188E-07   -0.42342E-07 25344   0.256E-03    0.762E-04
DAV:   5    -0.140371889972E+03   -0.41181E-07   -0.16542E-08 15024   0.581E-04    0.325E-04
DAV:   6    -0.140371889995E+03   -0.23932E-07   -0.31498E-09 19584   0.203E-04    0.892E-05
DAV:   7    -0.140371890021E+03   -0.25598E-07   -0.10615E-09 16896   0.105E-04    0.370E-05
DAV:   8    -0.140371890054E+03   -0.32559E-07   -0.55068E-10 16848   0.534E-05    0.331E-05
DAV:   9    -0.140371890107E+03   -0.53338E-07   -0.14223E-09 16416   0.624E-05    0.159E-05
DAV:  10    -0.140371890139E+03   -0.32374E-07   -0.65557E-10 17568   0.462E-05    0.106E-05
DAV:  11    -0.140371890154E+03   -0.14654E-07   -0.23662E-10 17904   0.280E-05    0.499E-06
DAV:  12    -0.140371890159E+03   -0.46630E-08   -0.44157E-11 20976   0.146E-05
   6 F= -.14226928E+03 E0= -.14226801E+03  d E =-.144676E-03  mag=    -0.0000
       N       E                     dE             d eps       ncg     rms          rms(c)
DAV:   1    -0.140371848587E+03    0.41567E-04   -0.20154E-02 14208   0.635E-01    0.323E-02
DAV:   2    -0.140371849279E+03   -0.69224E-06   -0.26198E-04 15168   0.741E-02    0.202E-02
DAV:   3    -0.140371848232E+03    0.10473E-05   -0.41758E-05 17280   0.272E-02    0.725E-03
DAV:   4    -0.140371848239E+03   -0.75979E-08   -0.85453E-06 24240   0.112E-02    0.441E-03
DAV:   5    -0.140371848707E+03   -0.46736E-06   -0.48562E-07 15024   0.329E-03    0.147E-03
DAV:   6    -0.140371848641E+03    0.66136E-07   -0.10907E-07 18336   0.143E-03    0.556E-04
DAV:   7    -0.140371848626E+03    0.15129E-07   -0.19988E-08 22848   0.566E-04    0.111E-04
DAV:   8    -0.140371848645E+03   -0.19525E-07   -0.21024E-09 16032   0.169E-04    0.592E-05
DAV:   9    -0.140371848674E+03   -0.29279E-07   -0.11570E-09 17952   0.750E-05    0.430E-05
DAV:  10    -0.140371848706E+03   -0.32076E-07   -0.59975E-10 16224   0.459E-05    0.298E-05
DAV:  11    -0.140371848768E+03   -0.62028E-07   -0.16557E-09 16416   0.710E-05    0.232E-05
DAV:  12    -0.140371848796E+03   -0.27778E-07   -0.47504E-10 18720   0.404E-05    0.115E-05
DAV:  13    -0.140371848809E+03   -0.12615E-07   -0.15444E-10 17568   0.261E-05    0.404E-06
DAV:  14    -0.140371848812E+03   -0.35816E-08   -0.24670E-11 22656   0.142E-05
   7 F= -.14226922E+03 E0= -.14226795E+03  d E =0.595830E-04  mag=    -0.0000
       N       E                     dE             d eps       ncg     rms          rms(c)
DAV:   1    -0.140371920421E+03   -0.71612E-04   -0.85104E-03 14208   0.413E-01    0.209E-02
DAV:   2    -0.140371920707E+03   -0.28573E-06   -0.11181E-04 15840   0.483E-02    0.132E-02
DAV:   3    -0.140371920337E+03    0.36973E-06   -0.17487E-05 14592   0.177E-02    0.467E-03
DAV:   4    -0.140371920414E+03   -0.76545E-07   -0.36553E-06 23472   0.730E-03    0.282E-03
DAV:   5    -0.140371920680E+03   -0.26634E-06   -0.20206E-07 16896   0.211E-03    0.951E-04
DAV:   6    -0.140371920667E+03    0.12959E-07   -0.47102E-08 24240   0.924E-04    0.357E-04
DAV:   7    -0.140371920669E+03   -0.23192E-08   -0.68743E-09 18384   0.338E-04
   8 F= -.14226930E+03 E0= -.14226803E+03  d E =-.242042E-04  mag=    -0.0000
       N       E                     dE             d eps       ncg     rms          rms(c)
DAV:   1    -0.140371934130E+03   -0.13463E-04   -0.26706E-03 14208   0.230E-01    0.120E-02
DAV:   2    -0.140371934043E+03    0.86731E-07   -0.36572E-05 17280   0.270E-02    0.752E-03
DAV:   3    -0.140371934246E+03   -0.20288E-06   -0.44300E-06 14688   0.879E-03    0.261E-03
DAV:   4    -0.140371934330E+03   -0.84280E-07   -0.93491E-07 24192   0.360E-03    0.125E-03
DAV:   5    -0.140371934414E+03   -0.84201E-07   -0.43796E-08 14304   0.996E-04    0.408E-04
DAV:   6    -0.140371934416E+03   -0.10778E-08   -0.96776E-09 17376   0.414E-04
   9 F= -.14226931E+03 E0= -.14226804E+03  d E =-.272183E-05  mag=     0.0000
       N       E                     dE             d eps       ncg     rms          rms(c)
DAV:   1    -0.140371934136E+03    0.27850E-06   -0.52080E-04 14400   0.102E-01    0.531E-03
DAV:   2    -0.140371934025E+03    0.11053E-06   -0.71724E-06 16704   0.119E-02    0.332E-03
DAV:   3    -0.140371934132E+03   -0.10659E-06   -0.86209E-07 14496   0.389E-03    0.117E-03
DAV:   4    -0.140371934167E+03   -0.34923E-07   -0.17763E-07 17568   0.158E-03    0.555E-04
DAV:   5    -0.140371934190E+03   -0.23095E-07   -0.99874E-09 16800   0.475E-04    0.176E-04
DAV:   6    -0.140371934190E+03    0.31832E-09   -0.18552E-09 24432   0.181E-04
  10 F= -.14226931E+03 E0= -.14226804E+03  d E =-.737428E-05  mag=     0.0000
       N       E                     dE             d eps       ncg     rms          rms(c)
DAV:   1    -0.140371959523E+03   -0.25333E-04   -0.18596E-03 14208   0.193E-01    0.901E-03
DAV:   2    -0.140371959403E+03    0.12000E-06   -0.15833E-05 14784   0.178E-02    0.581E-03
DAV:   3    -0.140371959883E+03   -0.48014E-06   -0.17409E-06 14784   0.524E-03    0.116E-03
DAV:   4    -0.140371959930E+03   -0.47015E-07   -0.22041E-07 18816   0.179E-03    0.565E-04
DAV:   5    -0.140371959949E+03   -0.18877E-07   -0.14935E-08 17088   0.486E-04    0.187E-04
DAV:   6    -0.140371959951E+03   -0.12606E-08   -0.24644E-09 22656   0.187E-04
  11 F= -.14226932E+03 E0= -.14226805E+03  d E =-.974027E-05  mag=     0.0000
       N       E                     dE             d eps       ncg     rms          rms(c)
DAV:   1    -0.140371966616E+03   -0.66662E-05   -0.26872E-04 14208   0.734E-02    0.342E-03
DAV:   2    -0.140371966538E+03    0.77691E-07   -0.23334E-06 16128   0.682E-03    0.221E-03
DAV:   3    -0.140371966668E+03   -0.13052E-06   -0.25200E-07 15456   0.198E-03    0.441E-04
DAV:   4    -0.140371966677E+03   -0.82737E-08   -0.30989E-08 18144   0.677E-04
  12 F= -.14226932E+03 E0= -.14226805E+03  d E =-.103817E-04  mag=    -0.0000
       N       E                     dE             d eps       ncg     rms          rms(c)
DAV:   1    -0.140371990003E+03   -0.23335E-04   -0.13692E-03 14208   0.165E-01    0.761E-03
DAV:   2    -0.140371989965E+03    0.38279E-07   -0.12144E-05 14976   0.159E-02    0.489E-03
DAV:   3    -0.140371990122E+03   -0.15705E-06   -0.12847E-06 14784   0.463E-03    0.119E-03
DAV:   4    -0.140371990169E+03   -0.47185E-07   -0.16363E-07 17376   0.152E-03    0.533E-04
DAV:   5    -0.140371990183E+03   -0.14125E-07   -0.84211E-09 15504   0.389E-04    0.176E-04
DAV:   6    -0.140371990185E+03   -0.14379E-08   -0.17409E-09 21408   0.180E-04
  13 F= -.14226933E+03 E0= -.14226806E+03  d E =-.669762E-05  mag=    -0.0000
       N       E                     dE             d eps       ncg     rms          rms(c)
DAV:   1    -0.140371999468E+03   -0.92846E-05   -0.34872E-04 14208   0.834E-02    0.383E-03
DAV:   2    -0.140371999423E+03    0.44967E-07   -0.31031E-06 14592   0.803E-03    0.246E-03
DAV:   3    -0.140371999497E+03   -0.73741E-07   -0.32903E-07 14640   0.235E-03    0.605E-04
DAV:   4    -0.140371999511E+03   -0.14697E-07   -0.41441E-08 16896   0.766E-04    0.271E-04
DAV:   5    -0.140371999516E+03   -0.47266E-08   -0.21828E-09 16992   0.199E-04
  14 F= -.14226933E+03 E0= -.14226806E+03  d E =-.754479E-05  mag=    -0.0000
       N       E                     dE             d eps       ncg     rms          rms(c)
DAV:   1    -0.140372026502E+03   -0.26991E-04   -0.12441E-03 14208   0.159E-01    0.707E-03
DAV:   2    -0.140372026556E+03   -0.54121E-07   -0.10006E-05 14208   0.140E-02    0.470E-03
DAV:   3    -0.140372026732E+03   -0.17558E-06   -0.88935E-07 14256   0.370E-03    0.965E-04
DAV:   4    -0.140372026760E+03   -0.28282E-07   -0.92051E-08 17952   0.113E-03    0.435E-04
DAV:   5    -0.140372026768E+03   -0.76971E-08   -0.88810E-09 15696   0.359E-04
  15 F= -.14226934E+03 E0= -.14226807E+03  d E =-.851240E-05  mag=     0.0000
       N       E                     dE             d eps       ncg     rms          rms(c)
DAV:   1    -0.140372098485E+03   -0.71725E-04   -0.11194E-02 14208   0.476E-01    0.212E-02
DAV:   2    -0.140372100305E+03   -0.18204E-05   -0.89557E-05 14208   0.418E-02    0.141E-02
DAV:   3    -0.140372100622E+03   -0.31611E-06   -0.79323E-06 14208   0.111E-02    0.289E-03
DAV:   4    -0.140372100771E+03   -0.14964E-06   -0.82945E-07 19584   0.340E-03    0.130E-03
DAV:   5    -0.140372100815E+03   -0.43437E-07   -0.77565E-08 15504   0.103E-03    0.344E-04
DAV:   6    -0.140372100818E+03   -0.33288E-08   -0.10008E-08 15840   0.458E-04
  16 F= -.14226936E+03 E0= -.14226809E+03  d E =-.263718E-04  mag=     0.0000
       N       E                     dE             d eps       ncg     rms          rms(c)
DAV:   1    -0.140372202672E+03   -0.10186E-03   -0.44779E-02 14208   0.953E-01    0.424E-02
DAV:   2    -0.140372212567E+03   -0.98950E-05   -0.35813E-04 14592   0.835E-02    0.282E-02
DAV:   3    -0.140372211394E+03    0.11733E-05   -0.31708E-05 14208   0.221E-02    0.576E-03
DAV:   4    -0.140372211857E+03   -0.46298E-06   -0.33488E-06 24768   0.679E-03    0.261E-03
DAV:   5    -0.140372211962E+03   -0.10518E-06   -0.27477E-07 15360   0.187E-03    0.672E-04
DAV:   6    -0.140372211975E+03   -0.12728E-07   -0.30410E-08 18480   0.724E-04    0.211E-04
DAV:   7    -0.140372211978E+03   -0.35134E-08   -0.22958E-09 17568   0.242E-04
  17 F= -.14226935E+03 E0= -.14226808E+03  d E =-.252259E-04  mag=    -0.0000
       N       E                     dE             d eps       ncg     rms          rms(c)
DAV:   1    -0.140372157456E+03    0.54519E-04   -0.12252E-02 14208   0.498E-01    0.222E-02
DAV:   2    -0.140372159471E+03   -0.20150E-05   -0.98322E-05 17760   0.436E-02    0.148E-02
DAV:   3    -0.140372159789E+03   -0.31771E-06   -0.85002E-06 14208   0.112E-02    0.285E-03
DAV:   4    -0.140372159927E+03   -0.13850E-06   -0.93024E-07 17760   0.360E-03    0.130E-03
DAV:   5    -0.140372159976E+03   -0.49293E-07   -0.77108E-08 16416   0.104E-03    0.358E-04
DAV:   6    -0.140372159981E+03   -0.46402E-08   -0.94717E-09 17280   0.393E-04
  18 F= -.14226936E+03 E0= -.14226809E+03  d E =-.319328E-04  mag=     0.0000
       N       E                     dE             d eps       ncg     rms          rms(c)
DAV:   1    -0.140372175069E+03   -0.15093E-04   -0.36269E-04 14208   0.852E-02    0.386E-03
DAV:   2    -0.140372175052E+03    0.17408E-07   -0.29505E-06 15264   0.753E-03    0.258E-03
DAV:   3    -0.140372175132E+03   -0.79713E-07   -0.25228E-07 14880   0.194E-03    0.515E-04
DAV:   4    -0.140372175141E+03   -0.94815E-08   -0.23791E-08 16032   0.570E-04
  19 F= -.14226937E+03 E0= -.14226810E+03  d E =-.472427E-05  mag=    -0.0000
       N       E                     dE             d eps       ncg     rms          rms(c)
DAV:   1    -0.140372219478E+03   -0.44346E-04   -0.32677E-03 14208   0.256E-01    0.116E-02
DAV:   2    -0.140372219822E+03   -0.34442E-06   -0.26242E-05 14208   0.225E-02    0.773E-03
DAV:   3    -0.140372220056E+03   -0.23371E-06   -0.22645E-06 14208   0.586E-03    0.157E-03
DAV:   4    -0.140372220118E+03   -0.62601E-07   -0.21922E-07 16128   0.171E-03    0.659E-04
DAV:   5    -0.140372220129E+03   -0.10290E-07   -0.24291E-08 15360   0.565E-04    0.171E-04
DAV:   6    -0.140372220131E+03   -0.27667E-08   -0.27278E-09 15360   0.250E-04
  20 F= -.14226938E+03 E0= -.14226811E+03  d E =-.184145E-04  mag=     0.0000
       N       E                     dE             d eps       ncg     rms          rms(c)
DAV:   1    -0.140372305373E+03   -0.85244E-04   -0.13064E-02 14208   0.511E-01    0.232E-02
DAV:   2    -0.140372307596E+03   -0.22228E-05   -0.10413E-04 14208   0.447E-02    0.154E-02
DAV:   3    -0.140372307671E+03   -0.75244E-07   -0.89804E-06 14208   0.117E-02    0.314E-03
DAV:   4    -0.140372307850E+03   -0.17919E-06   -0.86665E-07 17664   0.340E-03    0.131E-03
DAV:   5    -0.140372307883E+03   -0.32765E-07   -0.97568E-08 16704   0.107E-03    0.260E-04
DAV:   6    -0.140372307885E+03   -0.23974E-08   -0.81957E-09 23808   0.350E-04
  21 F= -.14226941E+03 E0= -.14226813E+03  d E =-.436056E-04  mag=    -0.0000
       N       E                     dE             d eps       ncg     rms          rms(c)
DAV:   1    -0.140372464906E+03   -0.15702E-03   -0.52260E-02 14208   0.102E+00    0.464E-02
DAV:   2    -0.140372476022E+03   -0.11116E-04   -0.41447E-04 14208   0.892E-02    0.308E-02
DAV:   3    -0.140372474067E+03    0.19545E-05   -0.35756E-05 14208   0.233E-02    0.627E-03
DAV:   4    -0.140372474641E+03   -0.57379E-06   -0.34548E-06 18528   0.680E-03    0.260E-03
DAV:   5    -0.140372474711E+03   -0.70313E-07   -0.38718E-07 15552   0.211E-03    0.521E-04
DAV:   6    -0.140372474720E+03   -0.87739E-08   -0.32806E-08 24912   0.696E-04
  22 F= -.14226945E+03 E0= -.14226817E+03  d E =-.854501E-04  mag=     0.0000
       N       E                     dE             d eps       ncg     rms          rms(c)
DAV:   1    -0.140372733239E+03   -0.25853E-03   -0.20903E-01 14208   0.205E+00    0.928E-02
DAV:   2    -0.140372783721E+03   -0.50482E-04   -0.16564E-03 14688   0.178E-01    0.616E-02
DAV:   3    -0.140372770315E+03    0.13407E-04   -0.14260E-04 14496   0.463E-02    0.125E-02
DAV:   4    -0.140372772133E+03   -0.18189E-05   -0.13762E-05 21024   0.136E-02    0.519E-03
DAV:   5    -0.140372772266E+03   -0.13281E-06   -0.14899E-06 16704   0.408E-03    0.102E-03
DAV:   6    -0.140372772293E+03   -0.26525E-07   -0.11334E-07 21312   0.134E-03    0.349E-04
DAV:   7    -0.140372772299E+03   -0.62500E-08   -0.47000E-09 17568   0.326E-04
  23 F= -.14226950E+03 E0= -.14226821E+03  d E =-.133712E-03  mag=    -0.0000
       N       E                     dE             d eps       ncg     rms          rms(c)
DAV:   1    -0.140373068875E+03   -0.29658E-03   -0.83607E-01 14208   0.409E+00    0.186E-01
DAV:   2    -0.140373291419E+03   -0.22254E-03   -0.66321E-03 16320   0.356E-01    0.124E-01
DAV:   3    -0.140373218420E+03    0.72998E-04   -0.56886E-04 15072   0.915E-02    0.243E-02
DAV:   4    -0.140373223864E+03   -0.54440E-05   -0.54291E-05 23232   0.270E-02    0.102E-02
DAV:   5    -0.140373224067E+03   -0.20283E-06   -0.55030E-06 16128   0.779E-03    0.195E-03
DAV:   6    -0.140373224153E+03   -0.85575E-07   -0.41367E-07 22224   0.258E-03    0.647E-04
DAV:   7    -0.140373224170E+03   -0.16971E-07   -0.20019E-08 17808   0.615E-04    0.239E-04
DAV:   8    -0.140373224196E+03   -0.26108E-07   -0.42252E-09 21600   0.306E-04    0.117E-04
DAV:   9    -0.140373224224E+03   -0.28195E-07   -0.10284E-09 20640   0.135E-04    0.593E-05
DAV:  10    -0.140373224296E+03   -0.71916E-07   -0.29788E-09 17664   0.120E-04    0.452E-05
DAV:  11    -0.140373224340E+03   -0.44388E-07   -0.72992E-10 19872   0.717E-05    0.285E-05
DAV:  12    -0.140373224390E+03   -0.49596E-07   -0.11542E-09 17280   0.923E-05    0.171E-05
DAV:  13    -0.140373224408E+03   -0.18502E-07   -0.30992E-10 20736   0.665E-05    0.838E-06
DAV:  14    -0.140373224419E+03   -0.10698E-07   -0.97326E-11 18144   0.291E-05    0.520E-06
DAV:  15    -0.140373224424E+03   -0.48003E-08   -0.39663E-11 21312   0.205E-05
  24 F= -.14226945E+03 E0= -.14226816E+03  d E =-.896926E-04  mag=    -0.0000
       N       E                     dE             d eps       ncg     rms          rms(c)
DAV:   1    -0.140372825027E+03    0.39939E-03   -0.45238E-01 14208   0.301E+00    0.137E-01
DAV:   2    -0.140372942691E+03   -0.11766E-03   -0.35901E-03 14784   0.262E-01    0.907E-02
DAV:   3    -0.140372906973E+03    0.35717E-04   -0.31044E-04 16128   0.682E-02    0.184E-02
DAV:   4    -0.140372910281E+03   -0.33078E-05   -0.28350E-05 21408   0.196E-02    0.763E-03
DAV:   5    -0.140372910359E+03   -0.78330E-07   -0.32031E-06 18144   0.595E-03    0.143E-03
DAV:   6    -0.140372910372E+03   -0.13036E-07   -0.23157E-07 19728   0.191E-03    0.484E-04
DAV:   7    -0.140372910353E+03    0.19339E-07   -0.12760E-08 21120   0.462E-04    0.151E-04
DAV:   8    -0.140372910355E+03   -0.23529E-08   -0.18130E-09 20592   0.164E-04
  25 F= -.14226950E+03 E0= -.14226822E+03  d E =-.140244E-03  mag=    -0.0000
       N       E                     dE             d eps       ncg     rms          rms(c)
DAV:   1    -0.140372936157E+03   -0.25804E-04   -0.11070E-03 14208   0.149E-01    0.667E-03
DAV:   2    -0.140372936299E+03   -0.14207E-06   -0.88965E-06 15456   0.130E-02    0.449E-03
DAV:   3    -0.140372936437E+03   -0.13751E-06   -0.76382E-07 14496   0.333E-03    0.859E-04
DAV:   4    -0.140372936471E+03   -0.34122E-07   -0.71872E-08 23424   0.970E-04    0.379E-04
DAV:   5    -0.140372936503E+03   -0.32399E-07   -0.80125E-09 16560   0.291E-04    0.799E-05
DAV:   6    -0.140372936522E+03   -0.18618E-07   -0.70404E-10 19632   0.111E-04    0.354E-05
DAV:   7    -0.140372936532E+03   -0.10061E-07   -0.64252E-11 17376   0.345E-05    0.172E-05
DAV:   8    -0.140372936546E+03   -0.13813E-07   -0.84160E-11 17568   0.229E-05    0.599E-06
DAV:   9    -0.140372936555E+03   -0.90959E-08   -0.57602E-11 18240   0.160E-05
  26 F= -.14226951E+03 E0= -.14226823E+03  d E =-.830273E-05  mag=    -0.0000
       N       E                     dE             d eps       ncg     rms          rms(c)
DAV:   1    -0.140373012024E+03   -0.75479E-04   -0.99636E-03 14208   0.447E-01    0.200E-02
DAV:   2    -0.140373013775E+03   -0.17507E-05   -0.79089E-05 14208   0.388E-02    0.134E-02
DAV:   3    -0.140373013901E+03   -0.12584E-06   -0.67963E-06 15360   0.101E-02    0.266E-03
DAV:   4    -0.140373014033E+03   -0.13197E-06   -0.63240E-07 20880   0.288E-03    0.114E-03
DAV:   5    -0.140373014058E+03   -0.25238E-07   -0.78566E-08 17136   0.918E-04    0.222E-04
DAV:   6    -0.140373014060E+03   -0.16407E-08   -0.62182E-09 23856   0.304E-04
  27 F= -.14226953E+03 E0= -.14226825E+03  d E =-.323047E-04  mag=     0.0000
       N       E                     dE             d eps       ncg     rms          rms(c)
DAV:   1    -0.140373158976E+03   -0.14492E-03   -0.39862E-02 14208   0.894E-01    0.402E-02
DAV:   2    -0.140373167423E+03   -0.84474E-05   -0.31035E-04 14208   0.772E-02    0.268E-02
DAV:   3    -0.140373165964E+03    0.14589E-05   -0.26750E-05 14208   0.200E-02    0.533E-03
DAV:   4    -0.140373166400E+03   -0.43530E-06   -0.25568E-06 18624   0.581E-03    0.227E-03
DAV:   5    -0.140373166449E+03   -0.49687E-07   -0.31754E-07 16704   0.187E-03    0.475E-04
DAV:   6    -0.140373166456E+03   -0.66866E-08   -0.27106E-08 22944   0.623E-04
  28 F= -.14226958E+03 E0= -.14226829E+03  d E =-.777558E-04  mag=     0.0000
       N       E                     dE             d eps       ncg     rms          rms(c)
DAV:   1    -0.140373431139E+03   -0.26469E-03   -0.15945E-01 14208   0.179E+00    0.805E-02
DAV:   2    -0.140373469724E+03   -0.38585E-04   -0.12393E-03 14496   0.154E-01    0.536E-02
DAV:   3    -0.140373459296E+03    0.10429E-04   -0.10684E-04 14880   0.398E-02    0.106E-02
DAV:   4    -0.140373460653E+03   -0.13570E-05   -0.10156E-05 20448   0.116E-02    0.451E-03
DAV:   5    -0.140373460730E+03   -0.77690E-07   -0.12259E-06 17616   0.363E-03    0.936E-04
DAV:   6    -0.140373460753E+03   -0.22403E-07   -0.97059E-08 19968   0.122E-03    0.309E-04
DAV:   7    -0.140373460755E+03   -0.26976E-08   -0.56388E-09 19488   0.330E-04
  29 F= -.14226966E+03 E0= -.14226837E+03  d E =-.158714E-03  mag=    -0.0000
       N       E                     dE             d eps       ncg     rms          rms(c)
DAV:   1    -0.140373889532E+03   -0.42878E-03   -0.63775E-01 14208   0.358E+00    0.161E-01
DAV:   2    -0.140374057147E+03   -0.16762E-03   -0.49635E-03 16032   0.308E-01    0.107E-01
DAV:   3    -0.140374002794E+03    0.54353E-04   -0.42614E-04 15024   0.787E-02    0.206E-02
DAV:   4    -0.140374006917E+03   -0.41227E-05   -0.40324E-05 22464   0.231E-02    0.888E-03
DAV:   5    -0.140374007001E+03   -0.84707E-07   -0.44983E-06 15888   0.693E-03    0.183E-03
DAV:   6    -0.140374007078E+03   -0.76751E-07   -0.36159E-07 19200   0.238E-03    0.599E-04
DAV:   7    -0.140374007087E+03   -0.92705E-08   -0.22829E-08 19680   0.666E-04
  30 F= -.14226978E+03 E0= -.14226849E+03  d E =-.280437E-03  mag=     0.0000
       N       E                     dE             d eps       ncg     rms          rms(c)
DAV:   1    -0.140374463429E+03   -0.45635E-03   -0.25505E+00 14208   0.715E+00    0.322E-01
DAV:   2    -0.140375171803E+03   -0.70837E-03   -0.19889E-02 17568   0.617E-01    0.215E-01
DAV:   3    -0.140374917974E+03    0.25383E-03   -0.17060E-03 16128   0.156E-01    0.403E-02
DAV:   4    -0.140374930883E+03   -0.12909E-04   -0.15653E-04 22992   0.460E-02    0.175E-02
DAV:   5    -0.140374930598E+03    0.28512E-06   -0.16832E-05 16032   0.135E-02    0.361E-03
DAV:   6    -0.140374930855E+03   -0.25721E-06   -0.13971E-06 20112   0.472E-03    0.119E-03
DAV:   7    -0.140374930884E+03   -0.29204E-07   -0.88134E-08 17952   0.140E-03    0.515E-04
DAV:   8    -0.140374930931E+03   -0.46897E-07   -0.23461E-08 18432   0.853E-04    0.244E-04
DAV:   9    -0.140374930993E+03   -0.61854E-07   -0.68682E-09 19200   0.434E-04    0.102E-04
DAV:  10    -0.140374931103E+03   -0.10946E-06   -0.46147E-09 19056   0.211E-04    0.687E-05
DAV:  11    -0.140374931199E+03   -0.96567E-07   -0.27336E-09 19104   0.179E-04    0.473E-05
DAV:  12    -0.140374931303E+03   -0.10396E-06   -0.36315E-09 18048   0.235E-04    0.383E-05
DAV:  13    -0.140374931359E+03   -0.55747E-07   -0.17705E-09 19344   0.179E-04    0.176E-05
DAV:  14    -0.140374931392E+03   -0.32751E-07   -0.40796E-10 17664   0.530E-05    0.106E-05
DAV:  15    -0.140374931402E+03   -0.10920E-07   -0.72650E-11 22368   0.253E-05    0.672E-06
DAV:  16    -0.140374931409E+03   -0.66866E-08   -0.53775E-11 18768   0.191E-05
  31 F= -.14226987E+03 E0= -.14226856E+03  d E =-.364383E-03  mag=     0.0000
       N       E                     dE             d eps       ncg     rms          rms(c)
DAV:   1    -0.140375194378E+03   -0.26298E-03   -0.19050E-01 14208   0.196E+00    0.873E-02
DAV:   2    -0.140375243383E+03   -0.49005E-04   -0.14834E-03 14592   0.169E-01    0.583E-02
DAV:   3    -0.140375230087E+03    0.13296E-04   -0.12534E-04 14400   0.435E-02    0.116E-02
DAV:   4    -0.140375231614E+03   -0.15271E-05   -0.12332E-05 20448   0.128E-02    0.496E-03
DAV:   5    -0.140375231685E+03   -0.71098E-07   -0.14319E-06 14736   0.401E-03    0.112E-03
DAV:   6    -0.140375231717E+03   -0.32129E-07   -0.13864E-07 19680   0.143E-03    0.340E-04
DAV:   7    -0.140375231718E+03   -0.19736E-09   -0.83401E-09 22560   0.366E-04
  32 F= -.14226995E+03 E0= -.14226864E+03  d E =-.794608E-04  mag=    -0.0000
       N       E                     dE             d eps       ncg     rms          rms(c)
DAV:   1    -0.140375543740E+03   -0.31202E-03   -0.55157E-01 14208   0.333E+00    0.149E-01
DAV:   2    -0.140375692437E+03   -0.14870E-03   -0.42787E-03 15408   0.287E-01    0.993E-02
DAV:   3    -0.140375646146E+03    0.46291E-04   -0.36329E-04 15696   0.733E-02    0.194E-02
DAV:   4    -0.140375649701E+03   -0.35553E-05   -0.35096E-05 20832   0.218E-02    0.834E-03
DAV:   5    -0.140375649779E+03   -0.77948E-07   -0.39146E-06 15744   0.666E-03    0.192E-03
DAV:   6    -0.140375649859E+03   -0.80054E-07   -0.37328E-07 19392   0.237E-03    0.589E-04
DAV:   7    -0.140375649862E+03   -0.27485E-08   -0.22530E-08 23664   0.605E-04
  33 F= -.14226999E+03 E0= -.14226867E+03  d E =-.123568E-03  mag=     0.0000
       N       E                     dE             d eps       ncg     rms          rms(c)
DAV:   1    -0.140375604896E+03    0.44963E-04   -0.77509E-03 14208   0.395E-01    0.176E-02
DAV:   2    -0.140375606261E+03   -0.13646E-05   -0.61131E-05 19392   0.341E-02    0.119E-02
DAV:   3    -0.140375606395E+03   -0.13401E-06   -0.50011E-06 14880   0.830E-03    0.210E-03
DAV:   4    -0.140375606468E+03   -0.73470E-07   -0.51964E-07 20736   0.263E-03    0.953E-04
DAV:   5    -0.140375606495E+03   -0.26598E-07   -0.45000E-08 14784   0.735E-04    0.263E-04
DAV:   6    -0.140375606504E+03   -0.96816E-08   -0.49133E-09 20112   0.276E-04
  34 F= -.14226999E+03 E0= -.14226868E+03  d E =-.124474E-03  mag=    -0.0000
       N       E                     dE             d eps       ncg     rms          rms(c)
DAV:   1    -0.140375663638E+03   -0.57144E-04   -0.59543E-03 14208   0.347E-01    0.151E-02
DAV:   2    -0.140375664972E+03   -0.13335E-05   -0.46105E-05 19584   0.301E-02    0.103E-02
DAV:   3    -0.140375665074E+03   -0.10218E-06   -0.32929E-06 14784   0.708E-03    0.184E-03
DAV:   4    -0.140375665150E+03   -0.75739E-07   -0.32765E-07 17472   0.216E-03    0.760E-04
DAV:   5    -0.140375665164E+03   -0.13898E-07   -0.35634E-08 20736   0.681E-04    0.186E-04
DAV:   6    -0.140375665166E+03   -0.24274E-08   -0.35271E-09 21744   0.231E-04
  35 F= -.14227002E+03 E0= -.14226870E+03  d E =-.288662E-04  mag=     0.0000
       N       E                     dE             d eps       ncg     rms          rms(c)
DAV:   1    -0.140375794523E+03   -0.12936E-03   -0.53596E-02 14208   0.104E+00    0.454E-02
DAV:   2    -0.140375810052E+03   -0.15528E-04   -0.40779E-04 14208   0.900E-02    0.306E-02
DAV:   3    -0.140375807476E+03    0.25756E-05   -0.30588E-05 14208   0.225E-02    0.617E-03
DAV:   4    -0.140375808047E+03   -0.57045E-06   -0.29372E-06 24576   0.647E-03    0.243E-03
DAV:   5    -0.140375808053E+03   -0.62282E-08   -0.35357E-07 17472   0.203E-03    0.567E-04
DAV:   6    -0.140375808064E+03   -0.11047E-07   -0.30847E-08 22848   0.695E-04    0.172E-04
DAV:   7    -0.140375808067E+03   -0.35016E-08   -0.18896E-09 17952   0.169E-04
  36 F= -.14227007E+03 E0= -.14226875E+03  d E =-.826418E-04  mag=    -0.0000
       N       E                     dE             d eps       ncg     rms          rms(c)
DAV:   1    -0.140375891586E+03   -0.83522E-04   -0.21441E-01 14208   0.208E+00    0.908E-02
DAV:   2    -0.140375957810E+03   -0.66224E-04   -0.16296E-03 14784   0.180E-01    0.613E-02
DAV:   3    -0.140375943464E+03    0.14346E-04   -0.12302E-04 14880   0.448E-02    0.121E-02
DAV:   4    -0.140375945298E+03   -0.18345E-05   -0.11527E-05 22272   0.129E-02    0.481E-03
DAV:   5    -0.140375945225E+03    0.73293E-07   -0.13944E-06 17280   0.407E-03    0.111E-03
DAV:   6    -0.140375945264E+03   -0.39364E-07   -0.12738E-07 22992   0.141E-03    0.348E-04
DAV:   7    -0.140375945283E+03   -0.18609E-07   -0.75322E-09 16560   0.347E-04    0.156E-04
DAV:   8    -0.140375945304E+03   -0.20991E-07   -0.12616E-09 17952   0.159E-04    0.759E-05
DAV:   9    -0.140375945327E+03   -0.23382E-07   -0.48527E-10 16320   0.781E-05    0.316E-05
DAV:  10    -0.140375945356E+03   -0.28717E-07   -0.60842E-10 16416   0.503E-05    0.184E-05
DAV:  11    -0.140375945378E+03   -0.22166E-07   -0.48820E-10 17568   0.426E-05    0.127E-05
DAV:  12    -0.140375945391E+03   -0.12776E-07   -0.32278E-10 17712   0.412E-05    0.977E-06
DAV:  13    -0.140375945397E+03   -0.60718E-08   -0.16290E-10 19632   0.311E-05
  37 F= -.14227003E+03 E0= -.14226871E+03  d E =-.423871E-04  mag=     0.0000
       N       E                     dE             d eps       ncg     rms          rms(c)
DAV:   1    -0.140375842372E+03    0.10302E-03   -0.10629E-01 14208   0.147E+00    0.639E-02
DAV:   2    -0.140375874577E+03   -0.32205E-04   -0.80918E-04 14592   0.127E-01    0.432E-02
DAV:   3    -0.140375868412E+03    0.61650E-05   -0.60698E-05 14784   0.316E-02    0.865E-03
DAV:   4    -0.140375869302E+03   -0.89048E-06   -0.56268E-06 17760   0.903E-03    0.338E-03
DAV:   5    -0.140375869307E+03   -0.46002E-08   -0.72909E-07 18528   0.302E-03    0.797E-04
DAV:   6    -0.140375869327E+03   -0.20083E-07   -0.69055E-08 22080   0.101E-03    0.249E-04
DAV:   7    -0.140375869333E+03   -0.61136E-08   -0.40270E-09 20544   0.243E-04
  38 F= -.14227008E+03 E0= -.14226876E+03  d E =-.912395E-04  mag=    -0.0000
       N       E                     dE             d eps       ncg     rms          rms(c)
DAV:   1    -0.140375928942E+03   -0.59615E-04   -0.76088E-03 14208   0.393E-01    0.169E-02
DAV:   2    -0.140375931041E+03   -0.20984E-05   -0.57592E-05 15936   0.336E-02    0.116E-02
DAV:   3    -0.140375931192E+03   -0.15092E-06   -0.39440E-06 15168   0.811E-03    0.225E-03
DAV:   4    -0.140375931299E+03   -0.10736E-06   -0.35203E-07 16608   0.228E-03    0.834E-04
DAV:   5    -0.140375931303E+03   -0.41664E-08   -0.48309E-08 20496   0.792E-04
  39 F= -.14227011E+03 E0= -.14226879E+03  d E =-.322066E-04  mag=     0.0000
       N       E                     dE             d eps       ncg     rms          rms(c)
DAV:   1    -0.140376059937E+03   -0.12864E-03   -0.68479E-02 14208   0.118E+00    0.506E-02
DAV:   2    -0.140376083509E+03   -0.23571E-04   -0.51501E-04 14304   0.101E-01    0.346E-02
DAV:   3    -0.140376080271E+03    0.32381E-05   -0.34996E-05 14208   0.245E-02    0.702E-03
DAV:   4    -0.140376080988E+03   -0.71755E-06   -0.32550E-06 24576   0.691E-03    0.255E-03
DAV:   5    -0.140376080953E+03    0.35609E-07   -0.42846E-07 17472   0.226E-03    0.612E-04
DAV:   6    -0.140376080962E+03   -0.94406E-08   -0.37310E-08 23568   0.769E-04
  40 F= -.14227017E+03 E0= -.14226886E+03  d E =-.925444E-04  mag=     0.0000
       N       E                     dE             d eps       ncg     rms          rms(c)
DAV:   1    -0.140376133539E+03   -0.52587E-04   -0.27389E-01 14208   0.236E+00    0.101E-01
DAV:   2    -0.140376231246E+03   -0.97707E-04   -0.20586E-03 14784   0.202E-01    0.693E-02
DAV:   3    -0.140376215244E+03    0.16003E-04   -0.14027E-04 14496   0.487E-02    0.139E-02
DAV:   4    -0.140376217521E+03   -0.22771E-05   -0.12796E-05 20448   0.138E-02    0.505E-03
DAV:   5    -0.140376217290E+03    0.23055E-06   -0.16880E-06 18048   0.457E-03    0.122E-03
DAV:   6    -0.140376217351E+03   -0.60293E-07   -0.15371E-07 22464   0.155E-03    0.413E-04
DAV:   7    -0.140376217394E+03   -0.43313E-07   -0.79442E-09 17232   0.356E-04    0.222E-04
DAV:   8    -0.140376217439E+03   -0.44960E-07   -0.21706E-09 18240   0.166E-04    0.908E-05
DAV:   9    -0.140376217489E+03   -0.49836E-07   -0.14481E-09 16080   0.982E-05    0.410E-05
DAV:  10    -0.140376217566E+03   -0.77147E-07   -0.27224E-09 16464   0.921E-05    0.325E-05
DAV:  11    -0.140376217625E+03   -0.59194E-07   -0.11913E-09 16416   0.698E-05    0.223E-05
DAV:  12    -0.140376217675E+03   -0.49959E-07   -0.94168E-10 17472   0.652E-05    0.122E-05
DAV:  13    -0.140376217696E+03   -0.21394E-07   -0.37129E-10 18960   0.448E-05    0.579E-06
DAV:  14    -0.140376217702E+03   -0.56407E-08   -0.47754E-11 21792   0.228E-05
  41 F= -.14227013E+03 E0= -.14226882E+03  d E =-.513559E-04  mag=    -0.0000
       N       E                     dE             d eps       ncg     rms          rms(c)
DAV:   1    -0.140376106203E+03    0.11149E-03   -0.13075E-01 14208   0.163E+00    0.699E-02
DAV:   2    -0.140376152031E+03   -0.45828E-04   -0.98130E-04 14208   0.139E-01    0.479E-02
DAV:   3    -0.140376145287E+03    0.67440E-05   -0.66842E-05 14208   0.338E-02    0.966E-03
DAV:   4    -0.140376146417E+03   -0.11296E-05   -0.60906E-06 17376   0.951E-03    0.350E-03
DAV:   5    -0.140376146351E+03    0.65540E-07   -0.85264E-07 20304   0.330E-03    0.824E-04
DAV:   6    -0.140376146371E+03   -0.19706E-07   -0.73981E-08 22128   0.107E-03    0.265E-04
DAV:   7    -0.140376146381E+03   -0.99617E-08   -0.43225E-09 20832   0.242E-04
  42 F= -.14227018E+03 E0= -.14226887E+03  d E =-.102873E-03  mag=    -0.0000
       N       E                     dE             d eps       ncg     rms          rms(c)
DAV:   1    -0.140376158624E+03   -0.12253E-04   -0.10843E-03 14208   0.150E-01    0.631E-03
DAV:   2    -0.140376158895E+03   -0.27144E-06   -0.84000E-06 16416   0.129E-02    0.434E-03
DAV:   3    -0.140376158970E+03   -0.75307E-07   -0.47300E-07 15360   0.290E-03    0.114E-03
DAV:   4    -0.140376159000E+03   -0.29732E-07   -0.51562E-08 17664   0.900E-04    0.311E-04
DAV:   5    -0.140376159006E+03   -0.59699E-08   -0.37329E-09 20976   0.258E-04
  43 F= -.14227020E+03 E0= -.14226888E+03  d E =-.106530E-04  mag=     0.0000
       N       E                     dE             d eps       ncg     rms          rms(c)
DAV:   1    -0.140376177404E+03   -0.18404E-04   -0.97623E-03 14208   0.449E-01    0.189E-02
DAV:   2    -0.140376180515E+03   -0.31104E-05   -0.75568E-05 20928   0.384E-02    0.131E-02
DAV:   3    -0.140376180376E+03    0.13897E-06   -0.37939E-06 14736   0.798E-03    0.308E-03
DAV:   4    -0.140376180518E+03   -0.14246E-06   -0.47691E-07 17664   0.269E-03    0.888E-04
DAV:   5    -0.140376180530E+03   -0.11441E-07   -0.29745E-08 18192   0.730E-04    0.341E-04
DAV:   6    -0.140376180531E+03   -0.12033E-08   -0.66114E-09 19392   0.316E-04
  44 F= -.14227021E+03 E0= -.14226890E+03  d E =-.262484E-04  mag=     0.0000
       N       E                     dE             d eps       ncg     rms          rms(c)
DAV:   1    -0.140376186528E+03   -0.59983E-05   -0.97561E-04 14208   0.142E-01    0.597E-03
DAV:   2    -0.140376186754E+03   -0.22559E-06   -0.74740E-06 16608   0.121E-02    0.412E-03
DAV:   3    -0.140376186822E+03   -0.68390E-07   -0.41225E-07 15504   0.268E-03    0.100E-03
DAV:   4    -0.140376186850E+03   -0.27936E-07   -0.40313E-08 17664   0.800E-04    0.280E-04
DAV:   5    -0.140376186850E+03    0.19372E-09   -0.40506E-09 16896   0.257E-04
  45 F= -.14227022E+03 E0= -.14226891E+03  d E =-.109256E-04  mag=    -0.0000
       N       E                     dE             d eps       ncg     rms          rms(c)
DAV:   1    -0.140376191396E+03   -0.45462E-05   -0.87807E-03 14208   0.425E-01    0.180E-02
DAV:   2    -0.140376194161E+03   -0.27649E-05   -0.66319E-05 16320   0.362E-02    0.123E-02
DAV:   3    -0.140376194016E+03    0.14513E-06   -0.37321E-06 14400   0.808E-03    0.295E-03
DAV:   4    -0.140376194170E+03   -0.15434E-06   -0.36927E-07 16944   0.239E-03    0.841E-04
DAV:   5    -0.140376194169E+03    0.13133E-08   -0.38416E-08 20592   0.762E-04
  46 F= -.14227024E+03 E0= -.14226893E+03  d E =-.320349E-04  mag=     0.0000
       N       E                     dE             d eps       ncg     rms          rms(c)
DAV:   1    -0.140376145105E+03    0.49065E-04   -0.35123E-02 14208   0.850E-01    0.359E-02
DAV:   2    -0.140376157333E+03   -0.12228E-04   -0.26461E-04 14784   0.723E-02    0.246E-02
DAV:   3    -0.140376155765E+03    0.15679E-05   -0.15064E-05 14208   0.164E-02    0.607E-03
DAV:   4    -0.140376156205E+03   -0.44015E-06   -0.14800E-06 15936   0.482E-03    0.172E-03
DAV:   5    -0.140376156190E+03    0.14790E-07   -0.16434E-07 22848   0.158E-03    0.572E-04
DAV:   6    -0.140376156195E+03   -0.49404E-08   -0.20266E-08 14976   0.617E-04
  47 F= -.14227023E+03 E0= -.14226891E+03  d E =-.217218E-04  mag=     0.0000
       N       E                     dE             d eps       ncg     rms          rms(c)
DAV:   1    -0.140376183897E+03   -0.27706E-04   -0.14584E-02 14208   0.548E-01    0.231E-02
DAV:   2    -0.140376188685E+03   -0.47882E-05   -0.11049E-04 14208   0.468E-02    0.159E-02
DAV:   3    -0.140376188309E+03    0.37557E-06   -0.62855E-06 14208   0.106E-02    0.397E-03
DAV:   4    -0.140376188531E+03   -0.22163E-06   -0.61931E-07 15648   0.312E-03    0.112E-03
DAV:   5    -0.140376188524E+03    0.67294E-08   -0.66710E-08 17904   0.102E-03
  48 F= -.14227025E+03 E0= -.14226893E+03  d E =-.361945E-04  mag=     0.0000
       N       E                     dE             d eps       ncg     rms          rms(c)
DAV:   1    -0.140376189202E+03   -0.67141E-06   -0.17313E-03 14208   0.188E-01    0.792E-03
DAV:   2    -0.140376189640E+03   -0.43767E-06   -0.13038E-05 15936   0.159E-02    0.551E-03
DAV:   3    -0.140376189713E+03   -0.72935E-07   -0.77214E-07 15648   0.361E-03    0.122E-03
DAV:   4    -0.140376189754E+03   -0.40875E-07   -0.70032E-08 16608   0.108E-03    0.395E-04
DAV:   5    -0.140376189752E+03    0.15725E-08   -0.85300E-09 15072   0.415E-04
  49 F= -.14227026E+03 E0= -.14226894E+03  d E =-.120511E-04  mag=     0.0000
       N       E                     dE             d eps       ncg     rms          rms(c)
DAV:   1    -0.140376183819E+03    0.59345E-05   -0.15590E-02 14208   0.564E-01    0.238E-02
DAV:   2    -0.140376188827E+03   -0.50079E-05   -0.11604E-04 15888   0.475E-02    0.165E-02
DAV:   3    -0.140376188480E+03    0.34688E-06   -0.69484E-06 14208   0.108E-02    0.359E-03
DAV:   4    -0.140376188691E+03   -0.21100E-06   -0.64444E-07 16416   0.313E-03    0.114E-03
DAV:   5    -0.140376188684E+03    0.71886E-08   -0.94895E-08 22080   0.113E-03
  50 F= -.14227029E+03 E0= -.14226897E+03  d E =-.434631E-04  mag=    -0.0000
       N       E                     dE             d eps       ncg     rms          rms(c)
DAV:   1    -0.140376145816E+03    0.42875E-04   -0.62358E-02 14208   0.113E+00    0.477E-02
DAV:   2    -0.140376167779E+03   -0.21963E-04   -0.46000E-04 14208   0.948E-02    0.329E-02
DAV:   3    -0.140376164367E+03    0.34125E-05   -0.27897E-05 14784   0.220E-02    0.744E-03
DAV:   4    -0.140376164995E+03   -0.62803E-06   -0.25274E-06 15072   0.626E-03    0.233E-03
DAV:   5    -0.140376164950E+03    0.44655E-07   -0.39850E-07 21312   0.231E-03    0.705E-04
DAV:   6    -0.140376164965E+03   -0.14673E-07   -0.33729E-08 15744   0.767E-04    0.278E-04
DAV:   7    -0.140376164968E+03   -0.35907E-08   -0.32375E-09 19728   0.248E-04
  51 F= -.14227033E+03 E0= -.14226901E+03  d E =-.847696E-04  mag=    -0.0000
       N       E                     dE             d eps       ncg     rms          rms(c)
DAV:   1    -0.140375957329E+03    0.20764E-03   -0.24946E-01 14208   0.225E+00    0.954E-02
DAV:   2    -0.140376048729E+03   -0.91399E-04   -0.18321E-03 14208   0.189E-01    0.657E-02
DAV:   3    -0.140376030849E+03    0.17880E-04   -0.11137E-04 14784   0.439E-02    0.148E-02
DAV:   4    -0.140376032837E+03   -0.19889E-05   -0.10090E-05 15168   0.125E-02    0.463E-03
DAV:   5    -0.140376032645E+03    0.19290E-06   -0.16531E-06 19632   0.467E-03    0.119E-03
DAV:   6    -0.140376032673E+03   -0.28575E-07   -0.14798E-07 19680   0.152E-03    0.366E-04
DAV:   7    -0.140376032677E+03   -0.38108E-08   -0.93836E-09 21312   0.397E-04
  52 F= -.14227033E+03 E0= -.14226901E+03  d E =-.826983E-04  mag=     0.0000
       N       E                     dE             d eps       ncg     rms          rms(c)
DAV:   1    -0.140376095278E+03   -0.62605E-04   -0.67360E-02 14208   0.117E+00    0.496E-02
DAV:   2    -0.140376118646E+03   -0.23368E-04   -0.49565E-04 14208   0.983E-02    0.342E-02
DAV:   3    -0.140376114964E+03    0.36820E-05   -0.30077E-05 14208   0.228E-02    0.770E-03
DAV:   4    -0.140376115644E+03   -0.68007E-06   -0.27784E-06 15264   0.653E-03    0.241E-03
DAV:   5    -0.140376115597E+03    0.47064E-07   -0.44864E-07 21504   0.244E-03    0.638E-04
DAV:   6    -0.140376115604E+03   -0.70722E-08   -0.39292E-08 16560   0.792E-04
  53 F= -.14227035E+03 E0= -.14226902E+03  d E =-.979567E-04  mag=    -0.0000
       N       E                     dE             d eps       ncg     rms          rms(c)
DAV:   1    -0.140376117741E+03   -0.21440E-05   -0.24611E-03 14208   0.224E-01    0.953E-03
DAV:   2    -0.140376118341E+03   -0.60034E-06   -0.18352E-05 16608   0.189E-02    0.661E-03
DAV:   3    -0.140376118441E+03   -0.99201E-07   -0.11811E-06 15744   0.437E-03    0.129E-03
DAV:   4    -0.140376118480E+03   -0.39376E-07   -0.10257E-07 17664   0.123E-03    0.467E-04
DAV:   5    -0.140376118480E+03   -0.61846E-10   -0.12448E-08 15168   0.409E-04
  54 F= -.14227036E+03 E0= -.14226904E+03  d E =-.158025E-04  mag=    -0.0000
       N       E                     dE             d eps       ncg     rms          rms(c)
DAV:   1    -0.140376118514E+03   -0.34025E-07   -0.22155E-02 14208   0.671E-01    0.286E-02
DAV:   2    -0.140376125397E+03   -0.68832E-05   -0.16299E-04 14784   0.564E-02    0.197E-02
DAV:   3    -0.140376124782E+03    0.61491E-06   -0.10606E-05 14208   0.133E-02    0.406E-03
DAV:   4    -0.140376125041E+03   -0.25902E-06   -0.95986E-07 15072   0.376E-03    0.142E-03
DAV:   5    -0.140376125035E+03    0.62864E-08   -0.14251E-07 20640   0.134E-03    0.390E-04
DAV:   6    -0.140376125041E+03   -0.54515E-08   -0.12092E-08 15264   0.447E-04
  55 F= -.14227041E+03 E0= -.14226909E+03  d E =-.612950E-04  mag=     0.0000
       N       E                     dE             d eps       ncg     rms          rms(c)
DAV:   1    -0.140376102863E+03    0.22173E-04   -0.88619E-02 14208   0.134E+00    0.572E-02
DAV:   2    -0.140376132815E+03   -0.29952E-04   -0.64849E-04 14208   0.113E-01    0.394E-02
DAV:   3    -0.140376127913E+03    0.49023E-05   -0.42269E-05 14304   0.266E-02    0.821E-03
DAV:   4    -0.140376128665E+03   -0.75230E-06   -0.38116E-06 14640   0.749E-03    0.286E-03
DAV:   5    -0.140376128619E+03    0.45718E-07   -0.58737E-07 21408   0.271E-03    0.738E-04
DAV:   6    -0.140376128635E+03   -0.16020E-07   -0.48467E-08 16416   0.868E-04    0.239E-04
DAV:   7    -0.140376128638E+03   -0.27003E-08   -0.32990E-09 19920   0.236E-04
  56 F= -.14227049E+03 E0= -.14226917E+03  d E =-.142809E-03  mag=     0.0000
       N       E                     dE             d eps       ncg     rms          rms(c)
DAV:   1    -0.140375996848E+03    0.13179E-03   -0.35446E-01 14208   0.268E+00    0.114E-01
DAV:   2    -0.140376123976E+03   -0.12713E-03   -0.25907E-03 14592   0.225E-01    0.787E-02
DAV:   3    -0.140376097088E+03    0.26888E-04   -0.16895E-04 14784   0.532E-02    0.163E-02
DAV:   4    -0.140376099446E+03   -0.23575E-05   -0.15042E-05 14592   0.149E-02    0.569E-03
DAV:   5    -0.140376099201E+03    0.24464E-06   -0.23050E-06 18240   0.538E-03    0.144E-03
DAV:   6    -0.140376099252E+03   -0.51152E-07   -0.20609E-07 20832   0.175E-03    0.423E-04
DAV:   7    -0.140376099260E+03   -0.82755E-08   -0.11812E-08 19824   0.426E-04
  57 F= -.14227062E+03 E0= -.14226929E+03  d E =-.269944E-03  mag=    -0.0000
       N       E                     dE             d eps       ncg     rms          rms(c)
DAV:   1    -0.140375480741E+03    0.61851E-03   -0.14176E+00 14208   0.537E+00    0.229E-01
DAV:   2    -0.140376011629E+03   -0.53089E-03   -0.10439E-02 17472   0.449E-01    0.158E-01
DAV:   3    -0.140375886369E+03    0.12526E-03   -0.67021E-04 16128   0.103E-01    0.304E-02
DAV:   4    -0.140375893261E+03   -0.68917E-05   -0.58525E-05 17136   0.293E-02    0.109E-02
DAV:   5    -0.140375892395E+03    0.86608E-06   -0.79249E-06 18240   0.991E-03    0.270E-03
DAV:   6    -0.140375892562E+03   -0.16695E-06   -0.72553E-07 21696   0.329E-03    0.790E-04
DAV:   7    -0.140375892587E+03   -0.25680E-07   -0.39143E-08 17712   0.798E-04    0.367E-04
DAV:   8    -0.140375892605E+03   -0.17390E-07   -0.38969E-09 18384   0.270E-04    0.176E-04
DAV:   9    -0.140375892618E+03   -0.12841E-07   -0.11078E-09 18240   0.130E-04    0.627E-05
DAV:  10    -0.140375892627E+03   -0.96725E-08   -0.32121E-10 15984   0.565E-05
  58 F= -.14227072E+03 E0= -.14226941E+03  d E =-.378690E-03  mag=     0.0000
       N       E                     dE             d eps       ncg     rms          rms(c)
DAV:   1    -0.140375883433E+03    0.91845E-05   -0.50177E-02 14208   0.101E+00    0.431E-02
DAV:   2    -0.140375899502E+03   -0.16069E-04   -0.36797E-04 14208   0.845E-02    0.296E-02
DAV:   3    -0.140375897254E+03    0.22485E-05   -0.24140E-05 14400   0.201E-02    0.621E-03
DAV:   4    -0.140375897769E+03   -0.51524E-06   -0.21625E-06 14688   0.562E-03    0.215E-03
DAV:   5    -0.140375897751E+03    0.18053E-07   -0.33567E-07 20784   0.204E-03    0.521E-04
DAV:   6    -0.140375897760E+03   -0.94824E-08   -0.26535E-08 17568   0.633E-04
  59 F= -.14227080E+03 E0= -.14226947E+03  d E =-.718441E-04  mag=     0.0000
       N       E                     dE             d eps       ncg     rms          rms(c)
DAV:   1    -0.140375752199E+03    0.14555E-03   -0.45163E-01 14208   0.303E+00    0.129E-01
DAV:   2    -0.140375912598E+03   -0.16040E-03   -0.32995E-03 15264   0.253E-01    0.889E-02
DAV:   3    -0.140375876096E+03    0.36502E-04   -0.21594E-04 15168   0.596E-02    0.182E-02
DAV:   4    -0.140375879011E+03   -0.29155E-05   -0.19160E-05 15216   0.167E-02    0.636E-03
DAV:   5    -0.140375878716E+03    0.29544E-06   -0.28391E-06 16368   0.594E-03    0.151E-03
DAV:   6    -0.140375878775E+03   -0.59219E-07   -0.25256E-07 22224   0.191E-03    0.454E-04
DAV:   7    -0.140375878783E+03   -0.82691E-08   -0.12486E-08 17472   0.442E-04
  60 F= -.14227098E+03 E0= -.14226965E+03  d E =-.253599E-03  mag=     0.0000
       N       E                     dE             d eps       ncg     rms          rms(c)
DAV:   1    -0.140375180543E+03    0.69823E-03   -0.18065E+00 14208   0.605E+00    0.259E-01
DAV:   2    -0.140375846571E+03   -0.66603E-03   -0.13306E-02 18240   0.507E-01    0.179E-01
DAV:   3    -0.140375681278E+03    0.16529E-03   -0.85813E-04 16512   0.116E-01    0.339E-02
DAV:   4    -0.140375689790E+03   -0.85119E-05   -0.74321E-05 19440   0.329E-02    0.123E-02
DAV:   5    -0.140375688688E+03    0.11020E-05   -0.97641E-06 18528   0.108E-02    0.283E-03
DAV:   6    -0.140375688870E+03   -0.18169E-06   -0.81537E-07 16608   0.354E-03    0.880E-04
DAV:   7    -0.140375688902E+03   -0.32372E-07   -0.51987E-08 18240   0.948E-04    0.444E-04
DAV:   8    -0.140375688931E+03   -0.28303E-07   -0.57626E-09 17088   0.359E-04    0.185E-04
DAV:   9    -0.140375688944E+03   -0.13819E-07   -0.16134E-09 20544   0.168E-04    0.658E-05
DAV:  10    -0.140375688953E+03   -0.83610E-08   -0.37539E-10 19344   0.739E-05
  61 F= -.14227119E+03 E0= -.14226985E+03  d E =-.467962E-03  mag=    -0.0000
       N       E                     dE             d eps       ncg     rms          rms(c)
DAV:   1    -0.140372654904E+03    0.30340E-02   -0.72249E+00 14208   0.121E+01    0.518E-01
DAV:   2    -0.140375421643E+03   -0.27667E-02   -0.53669E-02 19296   0.102E+00    0.358E-01
DAV:   3    -0.140374682753E+03    0.73889E-03   -0.33916E-03 17088   0.228E-01    0.670E-02
DAV:   4    -0.140374710189E+03   -0.27436E-04   -0.29401E-04 24576   0.654E-02    0.244E-02
DAV:   5    -0.140374705541E+03    0.46484E-05   -0.34775E-05 15456   0.200E-02    0.567E-03
DAV:   6    -0.140374706125E+03   -0.58371E-06   -0.30739E-06 20544   0.686E-03    0.156E-03
DAV:   7    -0.140374706172E+03   -0.47762E-07   -0.17958E-07 20352   0.163E-03    0.595E-04
DAV:   8    -0.140374706214E+03   -0.41084E-07   -0.21981E-08 18528   0.627E-04    0.245E-04
DAV:   9    -0.140374706246E+03   -0.31947E-07   -0.27108E-09 19680   0.226E-04    0.110E-04
DAV:  10    -0.140374706275E+03   -0.29017E-07   -0.93289E-10 18624   0.110E-04    0.434E-05
DAV:  11    -0.140374706303E+03   -0.28622E-07   -0.48049E-10 19200   0.642E-05    0.188E-05
DAV:  12    -0.140374706339E+03   -0.35932E-07   -0.51391E-10 17520   0.502E-05    0.170E-05
DAV:  13    -0.140374706381E+03   -0.42219E-07   -0.76170E-10 17280   0.601E-05    0.103E-05
DAV:  14    -0.140374706394E+03   -0.12948E-07   -0.19295E-10 20640   0.405E-05    0.701E-06
DAV:  15    -0.140374706399E+03   -0.52023E-08   -0.50556E-11 19680   0.228E-05
  62 F= -.14227103E+03 E0= -.14226967E+03  d E =-.306119E-03  mag=     0.0000
       N       E                     dE             d eps       ncg     rms          rms(c)
DAV:   1    -0.140374456129E+03    0.25027E-03   -0.35985E+00 14208   0.854E+00    0.365E-01
DAV:   2    -0.140375811051E+03   -0.13549E-02   -0.26668E-02 17184   0.718E-01    0.252E-01
DAV:   3    -0.140375468586E+03    0.34246E-03   -0.16989E-03 16032   0.164E-01    0.503E-02
DAV:   4    -0.140375485737E+03   -0.17151E-04   -0.14862E-04 22944   0.467E-02    0.175E-02
DAV:   5    -0.140375483081E+03    0.26561E-05   -0.19510E-05 17472   0.150E-02    0.420E-03
DAV:   6    -0.140375483398E+03   -0.31620E-06   -0.15558E-06 19776   0.494E-03    0.116E-03
DAV:   7    -0.140375483426E+03   -0.28483E-07   -0.96879E-08 19248   0.118E-03    0.451E-04
DAV:   8    -0.140375483438E+03   -0.11676E-07   -0.11865E-08 23424   0.447E-04    0.176E-04
DAV:   9    -0.140375483445E+03   -0.76961E-08   -0.11180E-09 18768   0.135E-04
  63 F= -.14227123E+03 E0= -.14226988E+03  d E =-.502422E-03  mag=     0.0000
       N       E                     dE             d eps       ncg     rms          rms(c)
DAV:   1    -0.140375428589E+03    0.54848E-04   -0.16705E-01 14208   0.184E+00    0.786E-02
DAV:   2    -0.140375486305E+03   -0.57716E-04   -0.12275E-03 14688   0.154E-01    0.541E-02
DAV:   3    -0.140375475230E+03    0.11075E-04   -0.80095E-05 15936   0.364E-02    0.112E-02
DAV:   4    -0.140375476446E+03   -0.12156E-05   -0.68950E-06 15840   0.101E-02    0.386E-03
DAV:   5    -0.140375476336E+03    0.10918E-06   -0.10927E-06 20208   0.365E-03    0.949E-04
DAV:   6    -0.140375476358E+03   -0.22058E-07   -0.90872E-08 17088   0.117E-03    0.282E-04
DAV:   7    -0.140375476361E+03   -0.24875E-08   -0.60938E-09 23040   0.303E-04
  64 F= -.14227135E+03 E0= -.14227000E+03  d E =-.120648E-03  mag=     0.0000
       N       E                     dE             d eps       ncg     rms          rms(c)
DAV:   1    -0.140374981014E+03    0.49534E-03   -0.15032E+00 14208   0.552E+00    0.236E-01
DAV:   2    -0.140375538170E+03   -0.55716E-03   -0.11093E-02 16512   0.463E-01    0.163E-01
DAV:   3    -0.140375405596E+03    0.13257E-03   -0.71601E-04 15840   0.107E-01    0.324E-02
DAV:   4    -0.140375413335E+03   -0.77382E-05   -0.62034E-05 19296   0.302E-02    0.114E-02
DAV:   5    -0.140375412141E+03    0.11935E-05   -0.89274E-06 17760   0.103E-02    0.274E-03
DAV:   6    -0.140375412281E+03   -0.14038E-06   -0.74893E-07 17376   0.337E-03    0.785E-04
DAV:   7    -0.140375412296E+03   -0.14784E-07   -0.51575E-08 23088   0.884E-04    0.305E-04
DAV:   8    -0.140375412299E+03   -0.30923E-08   -0.53031E-09 17184   0.316E-04
  65 F= -.14227167E+03 E0= -.14227031E+03  d E =-.441931E-03  mag=     0.0000
       N       E                     dE             d eps       ncg     rms          rms(c)
DAV:   1    -0.140373344387E+03    0.20679E-02   -0.60103E+00 14208   0.110E+01    0.472E-01
DAV:   2    -0.140375672987E+03   -0.23286E-02   -0.44814E-02 19296   0.928E-01    0.327E-01
DAV:   3    -0.140375066873E+03    0.60611E-03   -0.27965E-03 16992   0.207E-01    0.610E-02
DAV:   4    -0.140375089416E+03   -0.22543E-04   -0.24217E-04 22896   0.595E-02    0.220E-02
DAV:   5    -0.140375085404E+03    0.40123E-05   -0.29254E-05 16368   0.183E-02    0.543E-03
DAV:   6    -0.140375085875E+03   -0.47069E-06   -0.26255E-06 20496   0.635E-03    0.145E-03
DAV:   7    -0.140375085890E+03   -0.15327E-07   -0.15293E-07 19056   0.152E-03    0.611E-04
DAV:   8    -0.140375085924E+03   -0.34061E-07   -0.16646E-08 19392   0.559E-04    0.309E-04
DAV:   9    -0.140375085970E+03   -0.46023E-07   -0.29787E-09 19056   0.228E-04    0.121E-04
DAV:  10    -0.140375086011E+03   -0.40568E-07   -0.10827E-09 21168   0.108E-04    0.432E-05
DAV:  11    -0.140375086053E+03   -0.41880E-07   -0.64966E-10 17232   0.694E-05    0.219E-05
DAV:  12    -0.140375086114E+03   -0.61231E-07   -0.92392E-10 17472   0.683E-05    0.231E-05
DAV:  13    -0.140375086182E+03   -0.68043E-07   -0.10367E-09 17232   0.708E-05    0.151E-05
DAV:  14    -0.140375086218E+03   -0.36408E-07   -0.44781E-10 17952   0.503E-05    0.708E-06
DAV:  15    -0.140375086226E+03   -0.78444E-08   -0.48064E-11 22656   0.195E-05
  66 F= -.14227212E+03 E0= -.14227076E+03  d E =-.896362E-03  mag=    -0.0000
       N       E                     dE             d eps       ncg     rms          rms(c)
DAV:   1    -0.140366396695E+03    0.86895E-02   -0.24005E+01 14208   0.221E+01    0.944E-01
DAV:   2    -0.140376101175E+03   -0.97045E-02   -0.18228E-01 19632   0.188E+00    0.653E-01
DAV:   3    -0.140373580623E+03    0.25206E-02   -0.10905E-02 18816   0.407E-01    0.131E-01
DAV:   4    -0.140373661463E+03   -0.80840E-04   -0.90997E-04 22896   0.117E-01    0.435E-02
DAV:   5    -0.140373642356E+03    0.19107E-04   -0.12034E-04 20880   0.370E-02    0.110E-02
DAV:   6    -0.140373643874E+03   -0.15175E-05   -0.93380E-06 18912   0.122E-02    0.287E-03
DAV:   7    -0.140373643920E+03   -0.46702E-07   -0.63757E-07 23136   0.308E-03    0.117E-03
DAV:   8    -0.140373643985E+03   -0.64440E-07   -0.70125E-08 22560   0.107E-03    0.525E-04
DAV:   9    -0.140373644043E+03   -0.57836E-07   -0.88892E-09 21696   0.367E-04    0.231E-04
DAV:  10    -0.140373644123E+03   -0.80765E-07   -0.35112E-09 23232   0.188E-04    0.922E-05
DAV:  11    -0.140373644239E+03   -0.11576E-06   -0.30085E-09 22032   0.144E-04    0.483E-05
DAV:  12    -0.140373644462E+03   -0.22324E-06   -0.62981E-09 18816   0.152E-04    0.456E-05
DAV:  13    -0.140373644623E+03   -0.16019E-06   -0.45024E-09 18336   0.121E-04    0.265E-05
DAV:  14    -0.140373644703E+03   -0.80562E-07   -0.11107E-09 18960   0.676E-05    0.147E-05
DAV:  15    -0.140373644758E+03   -0.54789E-07   -0.45912E-10 16896   0.511E-05    0.736E-06
DAV:  16    -0.140373644786E+03   -0.27691E-07   -0.30880E-10 20064   0.405E-05    0.416E-06
DAV:  17    -0.140373644790E+03   -0.39136E-08   -0.32441E-11 22464   0.140E-05
  67 F= -.14227228E+03 E0= -.14227092E+03  d E =-.105577E-02  mag=    -0.0000
       N       E                     dE             d eps       ncg     rms          rms(c)
DAV:   1    -0.140373463008E+03    0.18178E-03   -0.27713E+00 14208   0.750E+00    0.320E-01
DAV:   2    -0.140374498972E+03   -0.10360E-02   -0.20389E-02 17376   0.628E-01    0.221E-01
DAV:   3    -0.140374240686E+03    0.25829E-03   -0.13124E-03 16032   0.144E-01    0.428E-02
DAV:   4    -0.140374253247E+03   -0.12562E-04   -0.11271E-04 18624   0.409E-02    0.152E-02
DAV:   5    -0.140374251251E+03    0.19962E-05   -0.16154E-05 21984   0.138E-02    0.365E-03
DAV:   6    -0.140374251470E+03   -0.21859E-06   -0.12751E-06 17472   0.448E-03    0.109E-03
DAV:   7    -0.140374251484E+03   -0.14638E-07   -0.88986E-08 25344   0.118E-03    0.418E-04
DAV:   8    -0.140374251495E+03   -0.10933E-07   -0.89165E-09 20496   0.381E-04    0.180E-04
DAV:   9    -0.140374251505E+03   -0.10052E-07   -0.11349E-09 22320   0.131E-04    0.804E-05
DAV:  10    -0.140374251520E+03   -0.14065E-07   -0.39257E-10 17856   0.647E-05    0.348E-05
DAV:  11    -0.140374251539E+03   -0.19361E-07   -0.34627E-10 17376   0.513E-05    0.176E-05
DAV:  12    -0.140374251563E+03   -0.24428E-07   -0.35239E-10 16512   0.384E-05    0.182E-05
DAV:  13    -0.140374251585E+03   -0.22139E-07   -0.38000E-10 16800   0.348E-05    0.109E-05
DAV:  14    -0.140374251593E+03   -0.77807E-08   -0.82138E-11 18624   0.182E-05
  68 F= -.14227234E+03 E0= -.14227098E+03  d E =-.111317E-02  mag=     0.0000
       N       E                     dE             d eps       ncg     rms          rms(c)
DAV:   1    -0.140373261132E+03    0.99045E-03   -0.28636E+00 14208   0.762E+00    0.326E-01
DAV:   2    -0.140374353010E+03   -0.10919E-02   -0.21294E-02 17952   0.641E-01    0.225E-01
DAV:   3    -0.140374077668E+03    0.27534E-03   -0.13448E-03 16800   0.145E-01    0.438E-02
DAV:   4    -0.140374089752E+03   -0.12084E-04   -0.11712E-04 23424   0.413E-02    0.155E-02
DAV:   5    -0.140374087702E+03    0.20497E-05   -0.14014E-05 16032   0.127E-02    0.387E-03
DAV:   6    -0.140374087909E+03   -0.20664E-06   -0.13063E-06 20160   0.446E-03    0.102E-03
DAV:   7    -0.140374087903E+03    0.59572E-08   -0.78541E-08 20832   0.107E-03
  69 F= -.14227271E+03 E0= -.14227135E+03  d E =-.371307E-03  mag=    -0.0000
       N       E                     dE             d eps       ncg     rms          rms(c)
DAV:   1    -0.140373635449E+03    0.45246E-03   -0.77906E-01 14208   0.398E+00    0.170E-01
DAV:   2    -0.140373923994E+03   -0.28855E-03   -0.57796E-03 18048   0.334E-01    0.117E-01
DAV:   3    -0.140373854728E+03    0.69266E-04   -0.36704E-04 16416   0.755E-02    0.224E-02
DAV:   4    -0.140373858415E+03   -0.36869E-05   -0.32002E-05 19968   0.216E-02    0.804E-03
DAV:   5    -0.140373857994E+03    0.42117E-06   -0.39057E-06 16416   0.688E-03    0.201E-03
DAV:   6    -0.140373858072E+03   -0.78126E-07   -0.38313E-07 22032   0.238E-03    0.550E-04
DAV:   7    -0.140373858097E+03   -0.25322E-07   -0.21066E-08 20880   0.563E-04    0.216E-04
DAV:   8    -0.140373858131E+03   -0.33797E-07   -0.26227E-09 21744   0.203E-04    0.108E-04
DAV:   9    -0.140373858159E+03   -0.28183E-07   -0.49558E-10 19392   0.815E-05    0.480E-05
DAV:  10    -0.140373858205E+03   -0.45751E-07   -0.63809E-10 18432   0.604E-05    0.251E-05
DAV:  11    -0.140373858263E+03   -0.58201E-07   -0.76948E-10 16752   0.572E-05    0.181E-05
DAV:  12    -0.140373858362E+03   -0.98755E-07   -0.19256E-09 17184   0.868E-05    0.157E-05
DAV:  13    -0.140373858384E+03   -0.22756E-07   -0.22586E-10 20640   0.372E-05    0.746E-06
DAV:  14    -0.140373858392E+03   -0.74851E-08   -0.60758E-11 19200   0.194E-05
  70 F= -.14227276E+03 E0= -.14227140E+03  d E =-.422990E-03  mag=     0.0000
       N       E                     dE             d eps       ncg     rms          rms(c)
DAV:   1    -0.140373290725E+03    0.56766E-03   -0.13865E+00 14208   0.530E+00    0.226E-01
DAV:   2    -0.140373824673E+03   -0.53395E-03   -0.10209E-02 16512   0.445E-01    0.156E-01
DAV:   3    -0.140373702545E+03    0.12213E-03   -0.63592E-04 15744   0.101E-01    0.311E-02
DAV:   4    -0.140373709252E+03   -0.67074E-05   -0.56033E-05 20256   0.288E-02    0.106E-02
DAV:   5    -0.140373708090E+03    0.11621E-05   -0.78475E-06 21360   0.970E-03    0.274E-03
DAV:   6    -0.140373708175E+03   -0.84603E-07   -0.66092E-07 18144   0.323E-03    0.769E-04
DAV:   7    -0.140373708179E+03   -0.43274E-08   -0.47619E-08 22992   0.848E-04
  71 F= -.14227301E+03 E0= -.14227165E+03  d E =-.249306E-03  mag=     0.0000
       N       E                     dE             d eps       ncg     rms          rms(c)
DAV:   1    -0.140373501095E+03    0.20708E-03   -0.22459E-01 14208   0.214E+00    0.908E-02
DAV:   2    -0.140373584036E+03   -0.82941E-04   -0.16510E-03 16416   0.179E-01    0.628E-02
DAV:   3    -0.140373567602E+03    0.16434E-04   -0.10391E-04 15840   0.411E-02    0.125E-02
DAV:   4    -0.140373568881E+03   -0.12792E-05   -0.89778E-06 19008   0.116E-02    0.430E-03
DAV:   5    -0.140373568745E+03    0.13601E-06   -0.12785E-06 17856   0.395E-03    0.111E-03
DAV:   6    -0.140373568785E+03   -0.40270E-07   -0.11919E-07 20064   0.135E-03    0.331E-04
DAV:   7    -0.140373568807E+03   -0.21985E-07   -0.72048E-09 23424   0.323E-04    0.166E-04
DAV:   8    -0.140373568831E+03   -0.23941E-07   -0.77259E-10 19968   0.100E-04    0.782E-05
DAV:   9    -0.140373568865E+03   -0.33299E-07   -0.59093E-10 18576   0.695E-05    0.311E-05
DAV:  10    -0.140373568921E+03   -0.56057E-07   -0.94559E-10 17376   0.613E-05    0.242E-05
DAV:  11    -0.140373568990E+03   -0.69484E-07   -0.10040E-09 17184   0.616E-05    0.166E-05
DAV:  12    -0.140373569045E+03   -0.55275E-07   -0.81058E-10 16800   0.591E-05    0.121E-05
DAV:  13    -0.140373569059E+03   -0.13533E-07   -0.14857E-10 22176   0.256E-05    0.540E-06
DAV:  14    -0.140373569063E+03   -0.44120E-08   -0.30037E-11 17952   0.134E-05
  72 F= -.14227303E+03 E0= -.14227167E+03  d E =-.271771E-03  mag=     0.0000
       N       E                     dE             d eps       ncg     rms          rms(c)
DAV:   1    -0.140373415211E+03    0.15385E-03   -0.21158E-01 14208   0.208E+00    0.878E-02
DAV:   2    -0.140373496017E+03   -0.80807E-04   -0.15475E-03 14208   0.174E-01    0.608E-02
DAV:   3    -0.140373481479E+03    0.14538E-04   -0.92853E-05 16128   0.402E-02    0.134E-02
DAV:   4    -0.140373482863E+03   -0.13835E-05   -0.82373E-06 18144   0.114E-02    0.419E-03
DAV:   5    -0.140373482654E+03    0.20886E-06   -0.13629E-06 23424   0.420E-03    0.119E-03
DAV:   6    -0.140373482645E+03    0.86347E-08   -0.13277E-07 16848   0.145E-03    0.354E-04
DAV:   7    -0.140373482641E+03    0.37971E-08   -0.10630E-08 22944   0.415E-04
  73 F= -.14227314E+03 E0= -.14227178E+03  d E =-.105231E-03  mag=    -0.0000
       N       E                     dE             d eps       ncg     rms          rms(c)
DAV:   1    -0.140373210325E+03    0.27232E-03   -0.28096E-01 14208   0.239E+00    0.101E-01
DAV:   2    -0.140373318933E+03   -0.10861E-03   -0.20603E-03 15456   0.201E-01    0.702E-02
DAV:   3    -0.140373298484E+03    0.20449E-04   -0.12304E-04 15456   0.457E-02    0.149E-02
DAV:   4    -0.140373300065E+03   -0.15802E-05   -0.11050E-05 18816   0.131E-02    0.474E-03
DAV:   5    -0.140373299823E+03    0.24182E-06   -0.16749E-06 21984   0.467E-03    0.134E-03
DAV:   6    -0.140373299846E+03   -0.22874E-07   -0.17389E-07 18192   0.165E-03    0.396E-04
DAV:   7    -0.140373299875E+03   -0.28810E-07   -0.13239E-08 20352   0.462E-04    0.161E-04
DAV:   8    -0.140373299917E+03   -0.42656E-07   -0.22056E-09 18048   0.158E-04    0.761E-05
DAV:   9    -0.140373299965E+03   -0.47743E-07   -0.10977E-09 18000   0.820E-05    0.431E-05
DAV:  10    -0.140373300022E+03   -0.57041E-07   -0.12431E-09 16992   0.658E-05    0.363E-05
DAV:  11    -0.140373300100E+03   -0.77915E-07   -0.19094E-09 16992   0.730E-05    0.217E-05
DAV:  12    -0.140373300186E+03   -0.86070E-07   -0.17036E-09 17568   0.787E-05    0.120E-05
DAV:  13    -0.140373300211E+03   -0.24983E-07   -0.25860E-10 20400   0.381E-05    0.588E-06
DAV:  14    -0.140373300219E+03   -0.76107E-08   -0.55626E-11 19200   0.208E-05
  74 F= -.14227318E+03 E0= -.14227182E+03  d E =-.143689E-03  mag=     0.0000
       N       E                     dE             d eps       ncg     rms          rms(c)
DAV:   1    -0.140373156556E+03    0.14366E-03   -0.23222E-01 14208   0.218E+00    0.913E-02
DAV:   2    -0.140373248580E+03   -0.92025E-04   -0.16711E-03 14208   0.181E-01    0.634E-02
DAV:   3    -0.140373232702E+03    0.15878E-04   -0.92859E-05 16128   0.407E-02    0.143E-02
DAV:   4    -0.140373234190E+03   -0.14882E-05   -0.81376E-06 16320   0.114E-02    0.409E-03
DAV:   5    -0.140373233957E+03    0.23293E-06   -0.12891E-06 25152   0.419E-03    0.125E-03
DAV:   6    -0.140373233951E+03    0.60436E-08   -0.10773E-07 16704   0.135E-03    0.341E-04
DAV:   7    -0.140373233943E+03    0.82782E-08   -0.85167E-09 22992   0.363E-04
  75 F= -.14227327E+03 E0= -.14227192E+03  d E =-.936628E-04  mag=     0.0000
       N       E                     dE             d eps       ncg     rms          rms(c)
DAV:   1    -0.140373135532E+03    0.98419E-04   -0.70843E-02 14208   0.120E+00    0.504E-02
DAV:   2    -0.140373162978E+03   -0.27446E-04   -0.51085E-04 14880   0.100E-01    0.351E-02
DAV:   3    -0.140373158748E+03    0.42305E-05   -0.28223E-05 14880   0.223E-02    0.775E-03
DAV:   4    -0.140373159253E+03   -0.50536E-06   -0.25323E-06 17568   0.634E-03    0.224E-03
DAV:   5    -0.140373159203E+03    0.50002E-07   -0.37428E-07 21792   0.226E-03    0.693E-04
DAV:   6    -0.140373159216E+03   -0.13205E-07   -0.35082E-08 17568   0.761E-04    0.189E-04
DAV:   7    -0.140373159228E+03   -0.12100E-07   -0.26320E-09 20688   0.203E-04    0.876E-05
DAV:   8    -0.140373159245E+03   -0.16714E-07   -0.37325E-10 19248   0.721E-05    0.497E-05
DAV:   9    -0.140373159272E+03   -0.26766E-07   -0.36057E-10 16896   0.502E-05    0.224E-05
DAV:  10    -0.140373159322E+03   -0.49869E-07   -0.77171E-10 16656   0.546E-05    0.213E-05
DAV:  11    -0.140373159368E+03   -0.46533E-07   -0.71560E-10 17376   0.529E-05    0.124E-05
DAV:  12    -0.140373159389E+03   -0.21167E-07   -0.28364E-10 17856   0.384E-05    0.788E-06
DAV:  13    -0.140373159396E+03   -0.65202E-08   -0.64133E-11 22272   0.217E-05
  76 F= -.14227329E+03 E0= -.14227193E+03  d E =-.107606E-03  mag=    -0.0000
       N       E                     dE             d eps       ncg     rms          rms(c)
DAV:   1    -0.140373091056E+03    0.68334E-04   -0.42953E-02 14208   0.937E-01    0.393E-02
DAV:   2    -0.140373108073E+03   -0.17017E-04   -0.32718E-04 15936   0.803E-02    0.272E-02
DAV:   3    -0.140373105457E+03    0.26163E-05   -0.16656E-05 15552   0.176E-02    0.723E-03
DAV:   4    -0.140373105824E+03   -0.36774E-06   -0.17566E-06 17280   0.537E-03    0.178E-03
DAV:   5    -0.140373105816E+03    0.86120E-08   -0.14803E-07 23472   0.159E-03    0.673E-04
DAV:   6    -0.140373105814E+03    0.18063E-08   -0.23877E-08 16176   0.615E-04
  77 F= -.14227332E+03 E0= -.14227196E+03  d E =-.323869E-04  mag=    -0.0000
       N       E                     dE             d eps       ncg     rms          rms(c)
DAV:   1    -0.140373110340E+03   -0.45237E-05   -0.11651E-04 14400   0.488E-02    0.204E-03
DAV:   2    -0.140373110361E+03   -0.21955E-07   -0.88416E-07 14592   0.417E-03    0.142E-03
DAV:   3    -0.140373110379E+03   -0.17762E-07   -0.46220E-08 15168   0.932E-04    0.390E-04
DAV:   4    -0.140373110384E+03   -0.43383E-08   -0.47312E-09 20832   0.280E-04
  78 F= -.14227332E+03 E0= -.14227196E+03  d E =-.324844E-04  mag=    -0.0000
       N       E                     dE             d eps       ncg     rms          rms(c)
DAV:   1    -0.140373065311E+03    0.45068E-04   -0.25575E-02 14208   0.723E-01    0.301E-02
DAV:   2    -0.140373075084E+03   -0.97730E-05   -0.19017E-04 14784   0.608E-02    0.210E-02
DAV:   3    -0.140373073894E+03    0.11895E-05   -0.97204E-06 14208   0.133E-02    0.533E-03
DAV:   4    -0.140373074187E+03   -0.29267E-06   -0.98529E-07 14784   0.397E-03    0.135E-03
DAV:   5    -0.140373074173E+03    0.14320E-07   -0.12681E-07 21696   0.137E-03    0.470E-04
DAV:   6    -0.140373074176E+03   -0.31660E-08   -0.12887E-08 18768   0.456E-04
  79 F= -.14227336E+03 E0= -.14227200E+03  d E =-.418747E-04  mag=    -0.0000
       N       E                     dE             d eps       ncg     rms          rms(c)
DAV:   1    -0.140372924639E+03    0.14953E-03   -0.93264E-02 14208   0.138E+00    0.575E-02
DAV:   2    -0.140372962127E+03   -0.37487E-04   -0.69226E-04 14400   0.116E-01    0.401E-02
DAV:   3    -0.140372956287E+03    0.58401E-05   -0.35577E-05 15936   0.256E-02    0.103E-02
DAV:   4    -0.140372956981E+03   -0.69418E-06   -0.34802E-06 15072   0.752E-03    0.257E-03
DAV:   5    -0.140372956921E+03    0.59457E-07   -0.45267E-07 18384   0.260E-03    0.903E-04
DAV:   6    -0.140372956931E+03   -0.93014E-08   -0.48020E-08 18912   0.875E-04
  80 F= -.14227339E+03 E0= -.14227203E+03  d E =-.739105E-04  mag=    -0.0000
       N       E                     dE             d eps       ncg     rms          rms(c)
DAV:   1    -0.140372948797E+03    0.81239E-05   -0.36153E-03 14208   0.272E-01    0.113E-02
DAV:   2    -0.140372950032E+03   -0.12344E-05   -0.26734E-05 15504   0.228E-02    0.790E-03
DAV:   3    -0.140372949992E+03    0.39510E-07   -0.14315E-06 14640   0.504E-03    0.182E-03
DAV:   4    -0.140372950057E+03   -0.65097E-07   -0.13723E-07 16272   0.148E-03    0.512E-04
DAV:   5    -0.140372950055E+03    0.23319E-08   -0.21280E-08 22080   0.556E-04
  81 F= -.14227341E+03 E0= -.14227205E+03  d E =-.182686E-04  mag=    -0.0000
       N       E                     dE             d eps       ncg     rms          rms(c)
DAV:   1    -0.140372913075E+03    0.36982E-04   -0.32535E-02 14208   0.815E-01    0.339E-02
DAV:   2    -0.140372925513E+03   -0.12438E-04   -0.23831E-04 14784   0.683E-02    0.237E-02
DAV:   3    -0.140372923757E+03    0.17559E-05   -0.12848E-05 14208   0.152E-02    0.550E-03
DAV:   4    -0.140372924086E+03   -0.32958E-06   -0.12360E-06 14688   0.444E-03    0.154E-03
DAV:   5    -0.140372924058E+03    0.28776E-07   -0.20250E-07 19584   0.170E-03    0.494E-04
DAV:   6    -0.140372924066E+03   -0.84574E-08   -0.19374E-08 15168   0.586E-04
  82 F= -.14227346E+03 E0= -.14227210E+03  d E =-.677208E-04  mag=     0.0000
       N       E                     dE             d eps       ncg     rms          rms(c)
DAV:   1    -0.140372804628E+03    0.11943E-03   -0.13014E-01 14208   0.163E+00    0.678E-02
DAV:   2    -0.140372856522E+03   -0.51894E-04   -0.94982E-04 14208   0.136E-01    0.473E-02
DAV:   3    -0.140372847429E+03    0.90934E-05   -0.51428E-05 15456   0.306E-02    0.111E-02
DAV:   4    -0.140372848323E+03   -0.89440E-06   -0.48083E-06 15168   0.880E-03    0.309E-03
DAV:   5    -0.140372848205E+03    0.11837E-06   -0.81098E-07 16512   0.338E-03    0.971E-04
DAV:   6    -0.140372848227E+03   -0.21772E-07   -0.80074E-08 16944   0.114E-03    0.314E-04
DAV:   7    -0.140372848235E+03   -0.87657E-08   -0.64506E-09 18000   0.344E-04
  83 F= -.14227353E+03 E0= -.14227217E+03  d E =-.142940E-03  mag=     0.0000
       N       E                     dE             d eps       ncg     rms          rms(c)
DAV:   1    -0.140372426446E+03    0.42178E-03   -0.52057E-01 14208   0.326E+00    0.136E-01
DAV:   2    -0.140372639435E+03   -0.21299E-03   -0.37940E-03 14400   0.272E-01    0.946E-02
DAV:   3    -0.140372597434E+03    0.42001E-04   -0.20549E-04 14880   0.610E-02    0.221E-02
DAV:   4    -0.140372600191E+03   -0.27575E-05   -0.19373E-05 14592   0.176E-02    0.618E-03
DAV:   5    -0.140372599715E+03    0.47643E-06   -0.32538E-06 15888   0.678E-03    0.190E-03
DAV:   6    -0.140372599775E+03   -0.60169E-07   -0.33489E-07 24336   0.226E-03    0.565E-04
DAV:   7    -0.140372599792E+03   -0.16517E-07   -0.18447E-08 16032   0.538E-04    0.248E-04
DAV:   8    -0.140372599805E+03   -0.13320E-07   -0.19282E-09 17376   0.204E-04    0.121E-04
DAV:   9    -0.140372599816E+03   -0.10697E-07   -0.43915E-10 18720   0.892E-05    0.470E-05
DAV:  10    -0.140372599823E+03   -0.72414E-08   -0.15895E-10 18864   0.374E-05
  84 F= -.14227359E+03 E0= -.14227223E+03  d E =-.197008E-03  mag=    -0.0000
       N       E                     dE             d eps       ncg     rms          rms(c)
DAV:   1    -0.140372578712E+03    0.21104E-04   -0.16276E-02 14208   0.576E-01    0.240E-02
DAV:   2    -0.140372584527E+03   -0.58150E-05   -0.11920E-04 14784   0.481E-02    0.168E-02
DAV:   3    -0.140372583870E+03    0.65654E-06   -0.66478E-06 14208   0.108E-02    0.377E-03
DAV:   4    -0.140372584065E+03   -0.19421E-06   -0.62613E-07 14784   0.312E-03    0.111E-03
DAV:   5    -0.140372584055E+03    0.90831E-08   -0.10222E-07 21552   0.117E-03    0.328E-04
DAV:   6    -0.140372584059E+03   -0.35652E-08   -0.91622E-09 18480   0.381E-04
  85 F= -.14227363E+03 E0= -.14227227E+03  d E =-.362023E-04  mag=     0.0000
       N       E                     dE             d eps       ncg     rms          rms(c)
DAV:   1    -0.140372483838E+03    0.10022E-03   -0.14650E-01 14208   0.173E+00    0.722E-02
DAV:   2    -0.140372539872E+03   -0.56035E-04   -0.10608E-03 14208   0.144E-01    0.502E-02
DAV:   3    -0.140372529782E+03    0.10090E-04   -0.59734E-05 15168   0.326E-02    0.114E-02
DAV:   4    -0.140372530759E+03   -0.97645E-06   -0.55320E-06 14880   0.931E-03    0.333E-03
DAV:   5    -0.140372530635E+03    0.12376E-06   -0.90772E-07 16560   0.351E-03    0.101E-03
DAV:   6    -0.140372530656E+03   -0.21104E-07   -0.88085E-08 22320   0.116E-03    0.286E-04
DAV:   7    -0.140372530660E+03   -0.43419E-08   -0.48777E-09 17664   0.270E-04
  86 F= -.14227373E+03 E0= -.14227237E+03  d E =-.138977E-03  mag=     0.0000
       N       E                     dE             d eps       ncg     rms          rms(c)
DAV:   1    -0.140372211875E+03    0.31878E-03   -0.58600E-01 14208   0.345E+00    0.144E-01
DAV:   2    -0.140372445615E+03   -0.23374E-03   -0.42515E-03 14496   0.288E-01    0.100E-01
DAV:   3    -0.140372396951E+03    0.48664E-04   -0.23818E-04 14976   0.649E-02    0.227E-02
DAV:   4    -0.140372399949E+03   -0.29981E-05   -0.22158E-05 14784   0.186E-02    0.663E-03
DAV:   5    -0.140372399422E+03    0.52746E-06   -0.35868E-06 14880   0.700E-03    0.199E-03
DAV:   6    -0.140372399492E+03   -0.70002E-07   -0.36334E-07 22224   0.235E-03    0.576E-04
DAV:   7    -0.140372399509E+03   -0.16733E-07   -0.20326E-08 15504   0.577E-04    0.244E-04
DAV:   8    -0.140372399521E+03   -0.12598E-07   -0.25053E-09 16656   0.257E-04    0.121E-04
[...]
DAV:   7    -0.140368228796E+03   -0.74215E-08   -0.10738E-10 21312   0.406E-05
 101 F= -.14227629E+03 E0= -.14227493E+03  d E =-.484917E-04  mag=     0.0000
       N       E                     dE             d eps       ncg     rms          rms(c)
DAV:   1    -0.140368254057E+03   -0.25268E-04   -0.94842E-03 14208   0.441E-01    0.184E-02
DAV:   2    -0.140368257505E+03   -0.34483E-05   -0.72463E-05 14784   0.379E-02    0.126E-02
DAV:   3    -0.140368257553E+03   -0.47725E-07   -0.40859E-06 14208   0.878E-03    0.296E-03
DAV:   4    -0.140368257725E+03   -0.17228E-06   -0.39442E-07 20832   0.255E-03    0.897E-04
DAV:   5    -0.140368257726E+03   -0.95770E-09   -0.33752E-08 20784   0.739E-04
 102 F= -.14227633E+03 E0= -.14227496E+03  d E =-.353048E-04  mag=     0.0000
       N       E                     dE             d eps       ncg     rms          rms(c)
DAV:   1    -0.140368257874E+03   -0.14876E-06   -0.19250E-03 14208   0.199E-01    0.828E-03
DAV:   2    -0.140368258460E+03   -0.58582E-06   -0.14658E-05 15168   0.171E-02    0.568E-03
DAV:   3    -0.140368258571E+03   -0.11147E-06   -0.83403E-07 14592   0.395E-03    0.132E-03
DAV:   4    -0.140368258619E+03   -0.47373E-07   -0.78643E-08 19584   0.114E-03    0.402E-04
DAV:   5    -0.140368258620E+03   -0.18945E-08   -0.70044E-09 21792   0.336E-04
 103 F= -.14227633E+03 E0= -.14227497E+03  d E =-.390844E-04  mag=    -0.0000
       N       E                     dE             d eps       ncg     rms          rms(c)
DAV:   1    -0.140368297969E+03   -0.39350E-04   -0.60128E-03 14208   0.353E-01    0.151E-02
DAV:   2    -0.140368299689E+03   -0.17204E-05   -0.50775E-05 16128   0.324E-02    0.991E-03
DAV:   3    -0.140368299472E+03    0.21741E-06   -0.36817E-06 14592   0.817E-03    0.291E-03
DAV:   4    -0.140368299598E+03   -0.12591E-06   -0.52009E-07 20448   0.286E-03    0.939E-04
DAV:   5    -0.140368299614E+03   -0.16534E-07   -0.37265E-08 20256   0.765E-04    0.359E-04
DAV:   6    -0.140368299617E+03   -0.25211E-08   -0.72424E-09 20832   0.330E-04
 104 F= -.14227634E+03 E0= -.14227498E+03  d E =-.118388E-04  mag=     0.0000
       N       E                     dE             d eps       ncg     rms          rms(c)
DAV:   1    -0.140368293703E+03    0.59117E-05   -0.37376E-04 14208   0.881E-02    0.376E-03
DAV:   2    -0.140368293755E+03   -0.52794E-07   -0.31678E-06 15840   0.810E-03    0.247E-03
DAV:   3    -0.140368293792E+03   -0.36008E-07   -0.22894E-07 15888   0.204E-03    0.741E-04
DAV:   4    -0.140368293807E+03   -0.15404E-07   -0.31491E-08 22416   0.708E-04    0.234E-04
DAV:   5    -0.140368293808E+03   -0.68030E-09   -0.20224E-09 19968   0.184E-04
 105 F= -.14227635E+03 E0= -.14227498E+03  d E =-.133050E-04  mag=     0.0000
       N       E                     dE             d eps       ncg     rms          rms(c)
DAV:   1    -0.140368313913E+03   -0.20106E-04   -0.32032E-04 15552   0.800E-02    0.384E-03
DAV:   2    -0.140368313833E+03    0.80729E-07   -0.30926E-06 14208   0.796E-03    0.238E-03
DAV:   3    -0.140368313891E+03   -0.58557E-07   -0.40125E-07 16128   0.257E-03    0.666E-04
DAV:   4    -0.140368313901E+03   -0.98926E-08   -0.56584E-08 18480   0.925E-04
 106 F= -.14227635E+03 E0= -.14227498E+03  d E =-.327756E-05  mag=    -0.0000
       N       E                     dE             d eps       ncg     rms          rms(c)
DAV:   1    -0.140368323135E+03   -0.92439E-05   -0.87382E-05 17136   0.418E-02    0.202E-03
DAV:   2    -0.140368323103E+03    0.31737E-07   -0.80417E-07 14208   0.405E-03    0.124E-03
DAV:   3    -0.140368323132E+03   -0.28528E-07   -0.10654E-07 16512   0.133E-03    0.349E-04
DAV:   4    -0.140368323135E+03   -0.26866E-08   -0.15359E-08 19584   0.487E-04
 107 F= -.14227635E+03 E0= -.14227498E+03  d E =-.372817E-05  mag=    -0.0000
       N       E                     dE             d eps       ncg     rms          rms(c)
DAV:   1    -0.140368348378E+03   -0.25246E-04   -0.20580E-04 14208   0.629E-02    0.322E-03
DAV:   2    -0.140368348261E+03    0.11700E-06   -0.19630E-06 14208   0.608E-03    0.201E-03
DAV:   3    -0.140368348376E+03   -0.11469E-06   -0.21007E-07 16128   0.171E-03    0.467E-04
DAV:   4    -0.140368348389E+03   -0.13723E-07   -0.23866E-08 16800   0.570E-04    0.203E-04
DAV:   5    -0.140368348393E+03   -0.33860E-08   -0.16718E-09 17520   0.174E-04
 108 F= -.14227635E+03 E0= -.14227499E+03  d E =-.302482E-05  mag=    -0.0000
       N       E                     dE             d eps       ncg     rms          rms(c)
DAV:   1    -0.140368420586E+03   -0.72196E-04   -0.18521E-03 14208   0.189E-01    0.968E-03
DAV:   2    -0.140368420079E+03    0.50682E-06   -0.17491E-05 14208   0.181E-02    0.601E-03
DAV:   3    -0.140368420537E+03   -0.45803E-06   -0.18946E-06 16128   0.511E-03    0.139E-03
DAV:   4    -0.140368420624E+03   -0.86863E-07   -0.21654E-07 17856   0.168E-03    0.577E-04
DAV:   5    -0.140368420650E+03   -0.26146E-07   -0.16188E-08 18480   0.463E-04    0.142E-04
DAV:   6    -0.140368420650E+03   -0.22828E-09   -0.13647E-09 24912   0.162E-04
 109 F= -.14227636E+03 E0= -.14227499E+03  d E =-.859033E-05  mag=     0.0000
       N       E                     dE             d eps       ncg     rms          rms(c)
DAV:   1    -0.140368550412E+03   -0.12976E-03   -0.74086E-03 14208   0.377E-01    0.194E-02
DAV:   2    -0.140368549525E+03    0.88722E-06   -0.69617E-05 14208   0.361E-02    0.120E-02
DAV:   3    -0.140368550291E+03   -0.76640E-06   -0.75328E-06 16128   0.102E-02    0.277E-03
DAV:   4    -0.140368550530E+03   -0.23859E-06   -0.85921E-07 17952   0.335E-03    0.115E-03
DAV:   5    -0.140368550609E+03   -0.78899E-07   -0.64412E-08 17904   0.915E-04    0.269E-04
DAV:   6    -0.140368550610E+03   -0.88494E-09   -0.53082E-09 25680   0.294E-04
 110 F= -.14227635E+03 E0= -.14227498E+03  d E =-.520277E-05  mag=     0.0000
       N       E                     dE             d eps       ncg     rms          rms(c)
DAV:   1    -0.140368467056E+03    0.83553E-04   -0.32220E-03 14208   0.249E-01    0.128E-02
DAV:   2    -0.140368466754E+03    0.30112E-06   -0.30781E-05 19008   0.238E-02    0.799E-03
DAV:   3    -0.140368467040E+03   -0.28566E-06   -0.30807E-06 14400   0.632E-03    0.176E-03
DAV:   4    -0.140368467162E+03   -0.12209E-06   -0.38472E-07 16080   0.224E-03    0.721E-04
DAV:   5    -0.140368467205E+03   -0.42948E-07   -0.26914E-08 16032   0.605E-04    0.190E-04
DAV:   6    -0.140368467209E+03   -0.38053E-08   -0.25380E-09 20352   0.214E-04
 111 F= -.14227636E+03 E0= -.14227499E+03  d E =-.974073E-05  mag=     0.0000
       N       E                     dE             d eps       ncg     rms          rms(c)
DAV:   1    -0.140368487465E+03   -0.20260E-04   -0.10155E-04 15552   0.439E-02    0.229E-03
DAV:   2    -0.140368487385E+03    0.79986E-07   -0.10087E-06 15744   0.431E-03    0.142E-03
DAV:   3    -0.140368487451E+03   -0.66230E-07   -0.11633E-07 14304   0.125E-03    0.341E-04
DAV:   4    -0.140368487459E+03   -0.76325E-08   -0.14346E-08 18192   0.427E-04
 112 F= -.14227636E+03 E0= -.14227499E+03  d E =-.194807E-05  mag=     0.0000
       N       E                     dE             d eps       ncg     rms          rms(c)
DAV:   1    -0.140368546498E+03   -0.59047E-04   -0.91448E-04 14208   0.132E-01    0.687E-03
DAV:   2    -0.140368546134E+03    0.36463E-06   -0.92801E-06 14208   0.131E-02    0.426E-03
DAV:   3    -0.140368546395E+03   -0.26105E-06   -0.10401E-06 16128   0.378E-03    0.107E-03
DAV:   4    -0.140368546452E+03   -0.56700E-07   -0.12090E-07 14592   0.125E-03    0.445E-04
DAV:   5    -0.140368546472E+03   -0.20017E-07   -0.92884E-09 16320   0.368E-04    0.103E-04
DAV:   6    -0.140368546471E+03    0.52751E-10   -0.95472E-10 22272   0.145E-04
 113 F= -.14227636E+03 E0= -.14227500E+03  d E =-.605784E-05  mag=     0.0000
       N       E                     dE             d eps       ncg     rms          rms(c)
DAV:   1    -0.140368656491E+03   -0.11002E-03   -0.36569E-03 14208   0.263E-01    0.138E-02
DAV:   2    -0.140368655529E+03    0.96178E-06   -0.36528E-05 14208   0.261E-02    0.848E-03
DAV:   3    -0.140368656055E+03   -0.52586E-06   -0.41308E-06 16320   0.753E-03    0.212E-03
DAV:   4    -0.140368656211E+03   -0.15596E-06   -0.48423E-07 17280   0.249E-03    0.880E-04
DAV:   5    -0.140368656273E+03   -0.62553E-07   -0.34020E-08 17472   0.686E-04    0.200E-04
DAV:   6    -0.140368656274E+03   -0.55388E-09   -0.30456E-09 24960   0.219E-04
 114 F= -.14227636E+03 E0= -.14227499E+03  d E =-.607791E-05  mag=     0.0000
       N       E                     dE             d eps       ncg     rms          rms(c)
DAV:   1    -0.140368607028E+03    0.49245E-04   -0.76993E-04 14208   0.121E-01    0.632E-03
DAV:   2    -0.140368606731E+03    0.29711E-06   -0.77762E-06 17184   0.120E-02    0.391E-03
DAV:   3    -0.140368606937E+03   -0.20681E-06   -0.83475E-07 14736   0.333E-03    0.948E-04
DAV:   4    -0.140368606987E+03   -0.49875E-07   -0.10203E-07 17280   0.114E-03    0.389E-04
DAV:   5    -0.140368607003E+03   -0.15482E-07   -0.65722E-09 16416   0.303E-04    0.890E-05
DAV:   6    -0.140368607005E+03   -0.19763E-08   -0.61955E-10 19776   0.103E-04
 115 F= -.14227637E+03 E0= -.14227500E+03  d E =-.718714E-05  mag=    -0.0000
       N       E                     dE             d eps       ncg     rms          rms(c)
DAV:   1    -0.140368647852E+03   -0.40849E-04   -0.38117E-04 14208   0.847E-02    0.437E-03
DAV:   2    -0.140368647628E+03    0.22436E-06   -0.38222E-06 14208   0.839E-03    0.268E-03
DAV:   3    -0.140368647773E+03   -0.14503E-06   -0.45575E-07 14208   0.248E-03    0.646E-04
DAV:   4    -0.140368647799E+03   -0.25877E-07   -0.62733E-08 15648   0.873E-04    0.283E-04
DAV:   5    -0.140368647811E+03   -0.12315E-07   -0.27599E-09 16800   0.211E-04    0.733E-05
DAV:   6    -0.140368647811E+03   -0.48840E-09   -0.30408E-10 23040   0.675E-05
 116 F= -.14227637E+03 E0= -.14227500E+03  d E =-.343596E-05  mag=     0.0000
       N       E                     dE             d eps       ncg     rms          rms(c)
DAV:   1    -0.140368768000E+03   -0.12019E-03   -0.34320E-03 14208   0.254E-01    0.132E-02
DAV:   2    -0.140368766738E+03    0.12613E-05   -0.33599E-05 14208   0.249E-02    0.801E-03
DAV:   3    -0.140368767294E+03   -0.55532E-06   -0.40528E-06 16128   0.738E-03    0.193E-03
DAV:   4    -0.140368767421E+03   -0.12715E-06   -0.53937E-07 14976   0.258E-03    0.835E-04
DAV:   5    -0.140368767493E+03   -0.72707E-07   -0.24940E-08 15648   0.634E-04    0.214E-04
DAV:   6    -0.140368767495E+03   -0.15934E-08   -0.28347E-09 27600   0.194E-04
 117 F= -.14227638E+03 E0= -.14227501E+03  d E =-.110229E-04  mag=    -0.0000
       N       E                     dE             d eps       ncg     rms          rms(c)
DAV:   1    -0.140368996663E+03   -0.22917E-03   -0.13729E-02 14208   0.508E-01    0.263E-02
DAV:   2    -0.140368993744E+03    0.29183E-05   -0.13432E-04 14208   0.497E-02    0.160E-02
DAV:   3    -0.140368993981E+03   -0.23635E-06   -0.16215E-05 16512   0.147E-02    0.386E-03
DAV:   4    -0.140368994410E+03   -0.42890E-06   -0.21209E-06 15984   0.514E-03    0.167E-03
DAV:   5    -0.140368994600E+03   -0.19032E-06   -0.96683E-08 17712   0.125E-03    0.420E-04
DAV:   6    -0.140368994605E+03   -0.51650E-08   -0.11024E-08 26304   0.382E-04
 118 F= -.14227638E+03 E0= -.14227501E+03  d E =-.140174E-04  mag=    -0.0000
       N       E                     dE             d eps       ncg     rms          rms(c)
DAV:   1    -0.140368925323E+03    0.69277E-04   -0.13494E-03 14208   0.159E-01    0.825E-03
DAV:   2    -0.140368924867E+03    0.45635E-06   -0.13448E-05 18240   0.157E-02    0.506E-03
DAV:   3    -0.140368925083E+03   -0.21656E-06   -0.15187E-06 14592   0.441E-03    0.117E-03
DAV:   4    -0.140368925146E+03   -0.62961E-07   -0.21262E-07 17328   0.162E-03    0.506E-04
DAV:   5    -0.140368925178E+03   -0.31526E-07   -0.83392E-09 14400   0.369E-04    0.148E-04
DAV:   6    -0.140368925183E+03   -0.53406E-08   -0.97593E-10 20784   0.117E-04
 119 F= -.14227638E+03 E0= -.14227501E+03  d E =-.148585E-04  mag=    -0.0000
       N       E                     dE             d eps       ncg     rms          rms(c)
DAV:   1    -0.140368963323E+03   -0.38145E-04   -0.39019E-04 14208   0.856E-02    0.436E-03
DAV:   2    -0.140368963104E+03    0.21859E-06   -0.38736E-06 14784   0.841E-03    0.270E-03
DAV:   3    -0.140368963254E+03   -0.14973E-06   -0.43646E-07 14400   0.241E-03    0.633E-04
DAV:   4    -0.140368963285E+03   -0.31303E-07   -0.56885E-08 17472   0.833E-04    0.281E-04
DAV:   5    -0.140368963298E+03   -0.12545E-07   -0.30634E-09 17760   0.207E-04    0.654E-05
DAV:   6    -0.140368963299E+03   -0.80854E-09   -0.25034E-10 24192   0.628E-05
 120 F= -.14227638E+03 E0= -.14227501E+03  d E =-.347831E-05  mag=    -0.0000
       N       E                     dE             d eps       ncg     rms          rms(c)
DAV:   1    -0.140369077152E+03   -0.11385E-03   -0.35134E-03 14208   0.257E-01    0.131E-02
DAV:   2    -0.140369075960E+03    0.11913E-05   -0.33867E-05 14208   0.249E-02    0.804E-03
DAV:   3    -0.140369076522E+03   -0.56217E-06   -0.38812E-06 16128   0.720E-03    0.189E-03
DAV:   4    -0.140369076667E+03   -0.14466E-06   -0.48194E-07 15360   0.245E-03    0.818E-04
DAV:   5    -0.140369076736E+03   -0.69295E-07   -0.28700E-08 14208   0.637E-04    0.187E-04
DAV:   6    -0.140369076738E+03   -0.13661E-08   -0.25749E-09 27552   0.195E-04
 121 F= -.14227639E+03 E0= -.14227502E+03  d E =-.130277E-04  mag=    -0.0000
       N       E                     dE             d eps       ncg     rms          rms(c)
DAV:   1    -0.140369300955E+03   -0.22422E-03   -0.14055E-02 14208   0.514E-01    0.263E-02
DAV:   2    -0.140369298308E+03    0.26471E-05   -0.13498E-04 14208   0.498E-02    0.161E-02
DAV:   3    -0.140369298544E+03   -0.23581E-06   -0.15510E-05 16128   0.144E-02    0.377E-03
DAV:   4    -0.140369299035E+03   -0.49173E-06   -0.18999E-06 15648   0.489E-03    0.163E-03
DAV:   5    -0.140369299216E+03   -0.18041E-06   -0.11329E-07 15648   0.126E-03    0.371E-04
DAV:   6    -0.140369299220E+03   -0.39472E-08   -0.98517E-09 27072   0.384E-04
 122 F= -.14227641E+03 E0= -.14227504E+03  d E =-.278330E-04  mag=    -0.0000
       N       E                     dE             d eps       ncg     rms          rms(c)
DAV:   1    -0.140369736350E+03   -0.43713E-03   -0.56220E-02 14208   0.103E+00    0.525E-02
DAV:   2    -0.140369728450E+03    0.79000E-05   -0.54024E-04 14400   0.995E-02    0.321E-02
DAV:   3    -0.140369727594E+03    0.85630E-06   -0.61801E-05 16320   0.287E-02    0.754E-03
DAV:   4    -0.140369728845E+03   -0.12517E-05   -0.74839E-06 16368   0.974E-03    0.325E-03
DAV:   5    -0.140369729392E+03   -0.54601E-06   -0.45347E-07 16320   0.251E-03    0.729E-04
DAV:   6    -0.140369729403E+03   -0.11037E-07   -0.38708E-08 27360   0.764E-04    0.261E-04
DAV:   7    -0.140369729409E+03   -0.64729E-08   -0.22487E-09 17616   0.190E-04
 123 F= -.14227642E+03 E0= -.14227505E+03  d E =-.430729E-04  mag=    -0.0000
       N       E                     dE             d eps       ncg     rms          rms(c)
DAV:   1    -0.140369874480E+03   -0.14508E-03   -0.51197E-03 14208   0.310E-01    0.159E-02
DAV:   2    -0.140369872946E+03    0.15341E-05   -0.49103E-05 14784   0.300E-02    0.968E-03
DAV:   3    -0.140369873479E+03   -0.53333E-06   -0.56362E-06 14784   0.871E-03    0.231E-03
DAV:   4    -0.140369873691E+03   -0.21206E-06   -0.73891E-07 16848   0.299E-03    0.977E-04
DAV:   5    -0.140369873791E+03   -0.10023E-06   -0.36723E-08 14976   0.725E-04    0.239E-04
DAV:   6    -0.140369873807E+03   -0.16038E-07   -0.33656E-09 23328   0.229E-04    0.962E-05
DAV:   7    -0.140369873816E+03   -0.86084E-08   -0.18577E-10 18912   0.603E-05
 124 F= -.14227644E+03 E0= -.14227506E+03  d E =-.137889E-04  mag=     0.0000
       N       E                     dE             d eps       ncg     rms          rms(c)
DAV:   1    -0.140370298169E+03   -0.42436E-03   -0.46072E-02 14208   0.929E-01    0.476E-02
DAV:   2    -0.140370291029E+03    0.71402E-05   -0.44197E-04 14208   0.899E-02    0.290E-02
DAV:   3    -0.140370290093E+03    0.93526E-06   -0.50496E-05 14976   0.261E-02    0.696E-03
DAV:   4    -0.140370291253E+03   -0.11592E-05   -0.63445E-06 16128   0.890E-03    0.293E-03
DAV:   5    -0.140370291731E+03   -0.47827E-06   -0.33707E-07 14784   0.220E-03    0.681E-04
DAV:   6    -0.140370291747E+03   -0.15783E-07   -0.30874E-08 27648   0.668E-04    0.230E-04
DAV:   7    -0.140370291755E+03   -0.84001E-08   -0.23494E-09 18720   0.184E-04
 125 F= -.14227646E+03 E0= -.14227508E+03  d E =-.401845E-04  mag=    -0.0000
       N       E                     dE             d eps       ncg     rms          rms(c)
DAV:   1    -0.140371085871E+03   -0.79412E-03   -0.18429E-01 14208   0.186E+00    0.953E-02
DAV:   2    -0.140371065545E+03    0.20326E-04   -0.17612E-03 14976   0.179E-01    0.580E-02
DAV:   3    -0.140371055047E+03    0.10498E-04   -0.20036E-04 16128   0.517E-02    0.138E-02
DAV:   4    -0.140371057973E+03   -0.29251E-05   -0.24721E-05 15504   0.177E-02    0.578E-03
DAV:   5    -0.140371059230E+03   -0.12574E-05   -0.13461E-06 18912   0.439E-03    0.133E-03
DAV:   6    -0.140371059264E+03   -0.34485E-07   -0.11351E-07 23808   0.129E-03    0.452E-04
DAV:   7    -0.140371059283E+03   -0.18492E-07   -0.95635E-09 21888   0.382E-04    0.163E-04
DAV:   8    -0.140371059312E+03   -0.29459E-07   -0.17620E-09 22080   0.167E-04    0.828E-05
DAV:   9    -0.140371059346E+03   -0.33532E-07   -0.76610E-10 18624   0.915E-05    0.477E-05
DAV:  10    -0.140371059418E+03   -0.72312E-07   -0.21029E-09 16944   0.976E-05    0.370E-05
DAV:  11    -0.140371059506E+03   -0.87967E-07   -0.22731E-09 17760   0.869E-05    0.205E-05
DAV:  12    -0.140371059541E+03   -0.34838E-07   -0.41158E-10 19200   0.604E-05    0.135E-05
DAV:  13    -0.140371059561E+03   -0.19670E-07   -0.19826E-10 19008   0.535E-05    0.778E-06
DAV:  14    -0.140371059571E+03   -0.10419E-07   -0.96060E-11 20208   0.312E-05    0.439E-06
DAV:  15    -0.140371059575E+03   -0.38144E-08   -0.27560E-11 20592   0.156E-05
 126 F= -.14227645E+03 E0= -.14227507E+03  d E =-.263353E-04  mag=     0.0000
       N       E                     dE             d eps       ncg     rms          rms(c)
DAV:   1    -0.140370579853E+03    0.47972E-03   -0.78383E-02 14208   0.121E+00    0.621E-02
DAV:   2    -0.140370571804E+03    0.80490E-05   -0.75121E-04 14784   0.117E-01    0.379E-02
DAV:   3    -0.140370566719E+03    0.50856E-05   -0.86542E-05 17376   0.340E-02    0.902E-03
DAV:   4    -0.140370568377E+03   -0.16586E-05   -0.10487E-05 17376   0.115E-02    0.381E-03
DAV:   5    -0.140370568869E+03   -0.49154E-06   -0.53861E-07 16320   0.280E-03    0.854E-04
DAV:   6    -0.140370568865E+03    0.39063E-08   -0.47027E-08 24864   0.837E-04
 127 F= -.14227647E+03 E0= -.14227509E+03  d E =-.452302E-04  mag=     0.0000
       N       E                     dE             d eps       ncg     rms          rms(c)
DAV:   1    -0.140370698603E+03   -0.12973E-03   -0.42479E-03 14208   0.282E-01    0.143E-02
DAV:   2    -0.140370697578E+03    0.10254E-05   -0.41894E-05 15936   0.275E-02    0.886E-03
DAV:   3    -0.140370698139E+03   -0.56080E-06   -0.46134E-06 15168   0.779E-03    0.201E-03
DAV:   4    -0.140370698269E+03   -0.13062E-06   -0.57866E-07 15264   0.270E-03    0.857E-04
DAV:   5    -0.140370698358E+03   -0.88109E-07   -0.31463E-08 15024   0.675E-04    0.208E-04
DAV:   6    -0.140370698380E+03   -0.22093E-07   -0.26330E-09 16608   0.202E-04    0.987E-05
DAV:   7    -0.140370698391E+03   -0.11394E-07   -0.17679E-10 20688   0.545E-05    0.401E-05
DAV:   8    -0.140370698404E+03   -0.12564E-07   -0.11502E-10 16608   0.334E-05    0.947E-06
DAV:   9    -0.140370698409E+03   -0.54415E-08   -0.24651E-11 22272   0.152E-05
 128 F= -.14227648E+03 E0= -.14227510E+03  d E =-.103723E-04  mag=    -0.0000
