<?xml version="1.0" encoding="ISO-8859-1"?>
<modeling>
 <generator>
  <i name="program" type="string">vasp </i>
  <i name="version" type="string">6.3.2  </i>
  <i name="subversion" type="string">27Jun22 (build Dec 22 2022 13:13:19) complex                          parallel </i>
  <i name="platform" type="string">LinuxIFC </i>
  <i name="date" type="string">2023 08 23 </i>
  <i name="time" type="string">04:33:24 </i>
 </generator>
 <incar>
  <i type="string" name="SYSTEM">Lattice</i>
  <i type="int" name="ISTART">     0</i>
  <i type="string" name="PREC">Accurate</i>
  <i type="string" name="ALGO">Normal</i>
  <i type="int" name="ISPIN">     2</i>
  <i type="int" name="ICHARG">     2</i>
  <i type="int" name="NELM">    64</i>
  <i type="int" name="IBRION">     2</i>
  <i name="EDIFF">      0.00000100</i>
  <i name="EDIFFG">     -0.00100000</i>
  <i type="int" name="NSW">   128</i>
  <i type="int" name="ISIF">     2</i>
  <i name="ENCUT">    450.00000000</i>
  <i name="POTIM">      0.50000000</i>
  <i type="int" name="ISMEAR">     0</i>
  <i name="SIGMA">      0.10000000</i>
  <i type="logical" name="LWAVE"> F  </i>
  <i type="logical" name="LCHARG"> F  </i>
  <i type="string" name="GGA">PE</i>
  <i type="int" name="IVDW">    12</i>
 </incar>
 <primitive_cell>
  <structure name="primitive_cell" >
   <crystal>
    <varray name="basis" >
     <v>       4.19416103       2.42150000       0.00000000 </v>
     <v>      -4.19416103       2.42150000       0.00000000 </v>
     <v>       0.00000000       0.00000000      15.00000000 </v>
    </varray>
    <i name="volume">    304.68482806 </i>
    <varray name="rec_basis" >
     <v>       0.11921335       0.20648358       0.00000000 </v>
     <v>      -0.11921335       0.20648358       0.00000000 </v>
     <v>       0.00000000       0.00000000       0.06666667 </v>
    </varray>
   </crystal>
   <varray name="positions" >
    <v>       0.00415361       0.00267210       0.12034134 </v>
    <v>       0.35695335       0.00285503       0.09748893 </v>
    <v>       0.00423858       0.35550699       0.09749256 </v>
    <v>       0.65142295       0.65006557       0.09747688 </v>
    <v>       0.32808646       0.32671938       0.10030508 </v>
    <v>       0.68027775       0.00278085       0.10027562 </v>
    <v>       0.00416530       0.67883808       0.10026559 </v>
    <v>       0.11111044       0.38888856       0.33726667 </v>
    <v>       0.27777744       0.22222156       0.33726667 </v>
    <v>       0.11111044       0.88888856       0.33726667 </v>
    <v>       0.27777744       0.72222156       0.33726667 </v>
    <v>       0.61111044       0.38888856       0.33726667 </v>
    <v>       0.77777744       0.22222156       0.33726667 </v>
    <v>       0.61111044       0.88888856       0.33726667 </v>
    <v>       0.77777744       0.72222156       0.33726667 </v>
   </varray>
  </structure>
  <varray name="primitive_index" >
   <v type="int" >        1 </v>
   <v type="int" >        2 </v>
   <v type="int" >        3 </v>
   <v type="int" >        4 </v>
   <v type="int" >        5 </v>
   <v type="int" >        6 </v>
   <v type="int" >        7 </v>
   <v type="int" >        8 </v>
   <v type="int" >        9 </v>
   <v type="int" >       10 </v>
   <v type="int" >       11 </v>
   <v type="int" >       12 </v>
   <v type="int" >       13 </v>
   <v type="int" >       14 </v>
   <v type="int" >       15 </v>
  </varray>
 </primitive_cell>
 <kpoints>
  <generation param="Gamma">
   <v type="int" name="divisions">      12       12        1 </v>
   <v name="usershift">      0.00000000       0.00000000       0.00000000 </v>
   <v name="genvec1">      0.08333333      -0.00000000       0.00000000 </v>
   <v name="genvec2">     -0.00000000       0.08333333       0.00000000 </v>
   <v name="genvec3">      0.00000000       0.00000000       1.00000000 </v>
   <v name="shift">      0.00000000       0.00000000       0.00000000 </v>
  </generation>
  <varray name="kpointlist" >
   <v>       0.00000000       0.00000000       0.00000000 </v>
   <v>       0.08333333       0.00000000       0.00000000 </v>
   <v>       0.00000000       0.08333333       0.00000000 </v>
   <v>      -0.08333333       0.08333333       0.00000000 </v>
   <v>       0.16666667       0.00000000       0.00000000 </v>
   <v>      -0.00000000       0.16666667       0.00000000 </v>
   <v>      -0.16666667       0.16666667       0.00000000 </v>
   <v>       0.25000000       0.00000000       0.00000000 </v>
   <v>      -0.00000000       0.25000000       0.00000000 </v>
   <v>      -0.25000000       0.25000000       0.00000000 </v>
   <v>       0.33333333       0.00000000       0.00000000 </v>
   <v>      -0.00000000       0.33333333       0.00000000 </v>
   <v>      -0.33333333       0.33333333       0.00000000 </v>
   <v>       0.41666667      -0.00000000       0.00000000 </v>
   <v>      -0.00000000       0.41666667       0.00000000 </v>
   <v>      -0.41666667       0.41666667       0.00000000 </v>
   <v>       0.50000000       0.00000000       0.00000000 </v>
   <v>      -0.00000000       0.50000000       0.00000000 </v>
   <v>       0.50000000       0.50000000       0.00000000 </v>
   <v>       0.08333333       0.08333333       0.00000000 </v>
   <v>      -0.08333333       0.16666667       0.00000000 </v>
   <v>      -0.16666667       0.08333333       0.00000000 </v>
   <v>       0.16666667       0.08333333       0.00000000 </v>
   <v>      -0.08333333       0.25000000       0.00000000 </v>
   <v>      -0.25000000       0.16666667       0.00000000 </v>
   <v>      -0.16666667       0.25000000       0.00000000 </v>
   <v>       0.08333333       0.16666667       0.00000000 </v>
   <v>       0.25000000      -0.08333333       0.00000000 </v>
   <v>       0.25000000       0.08333333       0.00000000 </v>
   <v>      -0.08333333       0.33333333       0.00000000 </v>
   <v>      -0.33333333       0.25000000       0.00000000 </v>
   <v>      -0.25000000       0.33333333       0.00000000 </v>
   <v>       0.08333333       0.25000000       0.00000000 </v>
   <v>       0.33333333      -0.08333333       0.00000000 </v>
   <v>       0.33333333       0.08333333       0.00000000 </v>
   <v>      -0.08333333       0.41666667       0.00000000 </v>
   <v>      -0.41666667       0.33333333       0.00000000 </v>
   <v>      -0.33333333       0.41666667       0.00000000 </v>
   <v>       0.08333333       0.33333333       0.00000000 </v>
   <v>       0.41666667      -0.08333333       0.00000000 </v>
   <v>       0.41666667       0.08333333       0.00000000 </v>
   <v>      -0.08333333       0.50000000       0.00000000 </v>
   <v>       0.50000000       0.41666667       0.00000000 </v>
   <v>      -0.41666667       0.50000000       0.00000000 </v>
   <v>       0.08333333       0.41666667       0.00000000 </v>
   <v>       0.50000000      -0.08333333       0.00000000 </v>
   <v>       0.16666667       0.16666667       0.00000000 </v>
   <v>      -0.16666667       0.33333333       0.00000000 </v>
   <v>      -0.33333333       0.16666667       0.00000000 </v>
   <v>       0.25000000       0.16666667       0.00000000 </v>
   <v>      -0.16666667       0.41666667       0.00000000 </v>
   <v>      -0.41666667       0.25000000       0.00000000 </v>
   <v>      -0.25000000       0.41666667       0.00000000 </v>
   <v>       0.16666667       0.25000000       0.00000000 </v>
   <v>       0.41666667      -0.16666667       0.00000000 </v>
   <v>       0.33333333       0.16666667       0.00000000 </v>
   <v>      -0.16666667       0.50000000       0.00000000 </v>
   <v>       0.50000000       0.33333333       0.00000000 </v>
   <v>      -0.33333333       0.50000000       0.00000000 </v>
   <v>       0.16666667       0.33333333       0.00000000 </v>
   <v>       0.50000000      -0.16666667       0.00000000 </v>
   <v>       0.41666667       0.16666667       0.00000000 </v>
   <v>      -0.16666667      -0.41666667       0.00000000 </v>
   <v>       0.41666667       0.41666667       0.00000000 </v>
   <v>       0.25000000       0.25000000       0.00000000 </v>
   <v>      -0.25000000       0.50000000       0.00000000 </v>
   <v>       0.50000000       0.25000000       0.00000000 </v>
   <v>       0.33333333       0.25000000       0.00000000 </v>
   <v>      -0.25000000      -0.41666667       0.00000000 </v>
   <v>       0.41666667       0.33333333       0.00000000 </v>
   <v>      -0.33333333      -0.41666667       0.00000000 </v>
   <v>       0.25000000       0.33333333       0.00000000 </v>
   <v>      -0.41666667      -0.25000000       0.00000000 </v>
   <v>       0.33333333       0.33333333       0.00000000 </v>
  </varray>
  <varray name="weights" >
   <v>       0.00694444 </v>
   <v>       0.01388889 </v>
   <v>       0.01388889 </v>
   <v>       0.01388889 </v>
   <v>       0.01388889 </v>
   <v>       0.01388889 </v>
   <v>       0.01388889 </v>
   <v>       0.01388889 </v>
   <v>       0.01388889 </v>
   <v>       0.01388889 </v>
   <v>       0.01388889 </v>
   <v>       0.01388889 </v>
   <v>       0.01388889 </v>
   <v>       0.01388889 </v>
   <v>       0.01388889 </v>
   <v>       0.01388889 </v>
   <v>       0.00694444 </v>
   <v>       0.00694444 </v>
   <v>       0.00694444 </v>
   <v>       0.01388889 </v>
   <v>       0.01388889 </v>
   <v>       0.01388889 </v>
   <v>       0.01388889 </v>
   <v>       0.01388889 </v>
   <v>       0.01388889 </v>
   <v>       0.01388889 </v>
   <v>       0.01388889 </v>
   <v>       0.01388889 </v>
   <v>       0.01388889 </v>
   <v>       0.01388889 </v>
   <v>       0.01388889 </v>
   <v>       0.01388889 </v>
   <v>       0.01388889 </v>
   <v>       0.01388889 </v>
   <v>       0.01388889 </v>
   <v>       0.01388889 </v>
   <v>       0.01388889 </v>
   <v>       0.01388889 </v>
   <v>       0.01388889 </v>
   <v>       0.01388889 </v>
   <v>       0.01388889 </v>
   <v>       0.01388889 </v>
   <v>       0.01388889 </v>
   <v>       0.01388889 </v>
   <v>       0.01388889 </v>
   <v>       0.01388889 </v>
   <v>       0.01388889 </v>
   <v>       0.01388889 </v>
   <v>       0.01388889 </v>
   <v>       0.01388889 </v>
   <v>       0.01388889 </v>
   <v>       0.01388889 </v>
   <v>       0.01388889 </v>
   <v>       0.01388889 </v>
   <v>       0.01388889 </v>
   <v>       0.01388889 </v>
   <v>       0.01388889 </v>
   <v>       0.01388889 </v>
   <v>       0.01388889 </v>
   <v>       0.01388889 </v>
   <v>       0.01388889 </v>
   <v>       0.01388889 </v>
   <v>       0.01388889 </v>
   <v>       0.01388889 </v>
   <v>       0.01388889 </v>
   <v>       0.01388889 </v>
   <v>       0.01388889 </v>
   <v>       0.01388889 </v>
   <v>       0.01388889 </v>
   <v>       0.01388889 </v>
   <v>       0.01388889 </v>
   <v>       0.01388889 </v>
   <v>       0.01388889 </v>
   <v>       0.01388889 </v>
  </varray>
 </kpoints>
 <parameters>
  <separator name="general" >
   <i type="string" name="SYSTEM">Lattice</i>
   <i type="logical" name="LCOMPAT"> F  </i>
  </separator>
  <separator name="electronic" >
   <i type="string" name="PREC">accura</i>
   <i name="ENMAX">    450.00000000</i>
   <i name="ENAUG">    644.87300000</i>
   <i name="EDIFF">      0.00000100</i>
   <i type="int" name="IALGO">    38</i>
   <i type="int" name="IWAVPR">    11</i>
   <i type="int" name="NBANDS">    48</i>
   <i type="int" name="NBANDSLOW">    -1</i>
   <i type="int" name="NBANDSHIGH">    -1</i>
   <i name="NELECT">     56.00000000</i>
   <i type="int" name="TURBO">     0</i>
   <i type="int" name="IRESTART">     0</i>
   <i type="int" name="NREBOOT">     0</i>
   <i type="int" name="NMIN">     0</i>
   <i name="EREF">      0.00000000</i>
   <separator name="electronic smearing" >
    <i type="int" name="ISMEAR">     0</i>
    <i name="SIGMA">      0.10000000</i>
    <i name="KSPACING">      0.50000000</i>
    <i type="logical" name="KGAMMA"> T  </i>
    <i type="logical" name="KBLOWUP"> T  </i>
   </separator>
   <separator name="electronic projectors" >
    <i type="logical" name="LREAL"> F  </i>
    <v name="ROPT">      0.00000000      0.00000000</v>
    <i type="int" name="LMAXPAW">  -100</i>
    <i type="int" name="LMAXMIX">     2</i>
    <i type="logical" name="NLSPLINE"> F  </i>
   </separator>
   <separator name="electronic startup" >
    <i type="int" name="ISTART">     0</i>
    <i type="int" name="ICHARG">     2</i>
    <i type="int" name="INIWAV">     1</i>
   </separator>
   <separator name="electronic spin" >
    <i type="int" name="ISPIN">     2</i>
    <i type="logical" name="LNONCOLLINEAR"> F  </i>
    <v name="MAGMOM">      1.00000000      1.00000000      1.00000000      1.00000000      1.00000000      1.00000000      1.00000000      1.00000000      1.00000000      1.00000000      1.00000000      1.00000000      1.00000000      1.00000000      1.00000000</v>
    <i name="NUPDOWN">     -1.00000000</i>
    <i type="logical" name="LSORBIT"> F  </i>
    <v name="SAXIS">      0.00000000      0.00000000      1.00000000</v>
    <i type="logical" name="LSPIRAL"> F  </i>
    <v name="QSPIRAL">      0.00000000      0.00000000      0.00000000</v>
    <i type="logical" name="LZEROZ"> F  </i>
   </separator>
   <separator name="electronic exchange-correlation" >
    <i type="logical" name="LASPH"> F  </i>
    <i type="logical" name="LMETAGGA"> F  </i>
   </separator>
   <separator name="electronic convergence" >
    <i type="int" name="NELM">    64</i>
    <i type="int" name="NELMDL">    -5</i>
    <i type="int" name="NELMIN">     2</i>
    <i name="ENINI">    450.00000000</i>
    <separator name="electronic convergence detail" >
     <i type="logical" name="LDIAG"> T  </i>
     <i type="logical" name="LSUBROT"> F  </i>
     <i name="WEIMIN">      0.00100000</i>
     <i name="EBREAK">      0.00000001</i>
     <i name="DEPER">      0.30000000</i>
     <i type="int" name="NRMM">     4</i>
     <i name="TIME">      0.40000000</i>
    </separator>
   </separator>
   <separator name="electronic mixer" >
    <i name="AMIX">      0.40000000</i>
    <i name="BMIX">      1.00000000</i>
    <i name="AMIN">      0.10000000</i>
    <i name="AMIX_MAG">      1.60000000</i>
    <i name="BMIX_MAG">      1.00000000</i>
    <separator name="electronic mixer details" >
     <i type="int" name="IMIX">     4</i>
     <i type="logical" name="MIXFIRST"> F  </i>
     <i type="int" name="MAXMIX">   -45</i>
     <i name="WC">    100.00000000</i>
     <i type="int" name="INIMIX">     1</i>
     <i type="int" name="MIXPRE">     1</i>
     <i type="int" name="MREMOVE">     5</i>
    </separator>
   </separator>
   <separator name="electronic dipolcorrection" >
    <i type="logical" name="LDIPOL"> F  </i>
    <i type="logical" name="LMONO"> F  </i>
    <i type="int" name="IDIPOL">     0</i>
    <i name="EPSILON">      1.00000000</i>
    <v name="DIPOL">   -100.00000000   -100.00000000   -100.00000000</v>
    <i name="EFIELD">      0.00000000</i>
   </separator>
  </separator>
  <separator name="grids" >
   <i type="int" name="NGX">    36</i>
   <i type="int" name="NGY">    36</i>
   <i type="int" name="NGZ">   108</i>
   <i type="int" name="NGXF">    72</i>
   <i type="int" name="NGYF">    72</i>
   <i type="int" name="NGZF">   216</i>
   <i type="logical" name="ADDGRID"> F  </i>
  </separator>
  <separator name="ionic" >
   <i type="int" name="NSW">   128</i>
   <i type="int" name="IBRION">     2</i>
   <i type="int" name="MDALGO">     0</i>
   <i type="int" name="ISIF">     2</i>
   <i name="PSTRESS">      0.00000000</i>
   <i name="EDIFFG">     -0.00100000</i>
   <i type="int" name="NFREE">     1</i>
   <i name="POTIM">      0.50000000</i>
   <i name="SMASS">     -3.00000000</i>
   <i name="SCALEE">      1.00000000</i>
  </separator>
  <separator name="ionic md" >
   <i name="TEBEG">      0.00010000</i>
   <i name="TEEND">      0.00010000</i>
   <i type="int" name="NBLOCK">     1</i>
   <i type="int" name="KBLOCK">   128</i>
   <i type="int" name="NPACO">   256</i>
   <i name="APACO">     10.00000000</i>
  </separator>
  <separator name="symmetry" >
   <i type="int" name="ISYM">     2</i>
   <i name="SYMPREC">      0.00001000</i>
  </separator>
  <separator name="dos" >
   <i type="int" name="LORBIT">     0</i>
   <v name="RWIGS">     -1.00000000     -1.00000000</v>
   <i type="int" name="NEDOS">   301</i>
   <i name="EMIN">     10.00000000</i>
   <i name="EMAX">    -10.00000000</i>
   <i name="EFERMI">      0.00000000</i>
  </separator>
  <separator name="writing" >
   <i type="int" name="NWRITE">     2</i>
   <i type="logical" name="LWAVE"> F  </i>
   <i type="logical" name="LDOWNSAMPLE"> F  </i>
   <i type="logical" name="LCHARG"> F  </i>
   <i type="logical" name="LPARD"> F  </i>
   <i type="logical" name="LVTOT"> F  </i>
   <i type="logical" name="LVHAR"> F  </i>
   <i type="logical" name="LELF"> F  </i>
   <i type="logical" name="LOPTICS"> F  </i>
   <v name="STM">      0.00000000      0.00000000      0.00000000      0.00000000      0.00000000      0.00000000      0.00000000</v>
  </separator>
  <separator name="performance" >
   <i type="int" name="NPAR">    48</i>
   <i type="int" name="NSIM">     4</i>
   <i type="int" name="NBLK">    -1</i>
   <i type="logical" name="LPLANE"> T  </i>
   <i type="logical" name="LSCALAPACK"> T  </i>
   <i type="logical" name="LSCAAWARE"> F  </i>
   <i type="logical" name="LSCALU"> F  </i>
   <i type="logical" name="LASYNC"> F  </i>
   <i type="logical" name="LORBITALREAL"> F  </i>
  </separator>
  <separator name="miscellaneous" >
   <i type="int" name="IDIOT">     3</i>
   <i type="int" name="PHON_NSTRUCT">    -1</i>
   <i type="logical" name="LMUSIC"> F  </i>
   <v name="POMASS">     10.81100000     12.01100000</v>
   <v name="DARWINR">      0.00000000      0.00000000</v>
   <v name="DARWINV">      1.00000000      1.00000000</v>
   <i type="logical" name="LCORR"> T  </i>
  </separator>
  <i type="logical" name="GGA_COMPAT"> T  </i>
  <i type="logical" name="LBERRY"> F  </i>
  <i type="int" name="ICORELEVEL">     0</i>
  <i type="logical" name="LDAU"> F  </i>
  <i type="int" name="I_CONSTRAINED_M">     0</i>
  <separator name="electronic exchange-correlation" >
   <i type="string" name="GGA">PE</i>
   <i type="int" name="VOSKOWN">     0</i>
   <i type="logical" name="LHFCALC"> F  </i>
   <i type="string" name="PRECFOCK"></i>
   <i type="logical" name="LSYMGRAD"> F  </i>
   <i type="logical" name="LHFONE"> F  </i>
   <i type="logical" name="LRHFCALC"> F  </i>
   <i type="logical" name="LTHOMAS"> F  </i>
   <i type="logical" name="LMODELHF"> F  </i>
   <i type="logical" name="LFOCKACE"> F  </i>
   <i name="ENCUT4O">     -1.00000000</i>
   <i type="int" name="EXXOEP">     0</i>
   <i type="int" name="FOURORBIT">     0</i>
   <i name="AEXX">      0.00000000</i>
   <i name="HFALPHA">      0.00000000</i>
   <i name="MCALPHA">      0.00000000</i>
   <i name="ALDAX">      1.00000000</i>
   <i name="AGGAX">      1.00000000</i>
   <i name="ALDAC">      1.00000000</i>
   <i name="AGGAC">      1.00000000</i>
   <i type="int" name="NKREDX">     1</i>
   <i type="int" name="NKREDY">     1</i>
   <i type="int" name="NKREDZ">     1</i>
   <i type="logical" name="SHIFTRED"> F  </i>
   <i type="logical" name="ODDONLY"> F  </i>
   <i type="logical" name="EVENONLY"> F  </i>
   <i type="int" name="LMAXFOCK">     0</i>
   <i type="int" name="NMAXFOCKAE">     0</i>
   <i type="logical" name="LFOCKAEDFT"> F  </i>
   <i name="HFSCREEN">      0.00000000</i>
   <i name="HFSCREENC">      0.00000000</i>
   <i type="int" name="NBANDSGWLOW">     0</i>
  </separator>
  <separator name="vdW DFT" >
   <i type="logical" name="LUSE_VDW"> F  </i>
   <i name="Zab_VDW">     -0.84910000</i>
   <i name="PARAM1">      0.12340000</i>
   <i name="PARAM2">      1.00000000</i>
   <i name="PARAM3">      0.00000000</i>
  </separator>
  <separator name="model GW" >
   <i type="int" name="MODEL_GW">     0</i>
   <i name="MODEL_EPS0">     12.18739312</i>
   <i name="MODEL_ALPHA">      1.00000000</i>
  </separator>
  <separator name="linear response parameters" >
   <i type="logical" name="LEPSILON"> F  </i>
   <i type="logical" name="LRPA"> F  </i>
   <i type="logical" name="LNABLA"> F  </i>
   <i type="logical" name="LVEL"> F  </i>
   <i name="CSHIFT">      0.10000000</i>
   <i name="OMEGAMAX">     -1.00000000</i>
   <i name="DEG_THRESHOLD">      0.00200000</i>
   <i name="RTIME">     -0.10000000</i>
   <i name="WPLASMAI">      0.00000000</i>
   <v name="DFIELD">      0.00000000      0.00000000      0.00000000</v>
   <v name="WPLASMA">      0.00000000      0.00000000      0.00000000      0.00000000      0.00000000      0.00000000      0.00000000      0.00000000      0.00000000</v>
  </separator>
  <separator name="orbital magnetization" >
   <i type="logical" name="NUCIND"> F  </i>
   <v name="MAGPOS">      0.00000000      0.00000000      0.00000000</v>
   <i type="logical" name="LNICSALL"> T  </i>
   <i type="logical" name="ORBITALMAG"> F  </i>
   <i type="logical" name="LMAGBLOCH"> F  </i>
   <i type="logical" name="LCHIMAG"> F  </i>
   <i type="logical" name="LGAUGE"> T  </i>
   <i type="int" name="MAGATOM">     0</i>
   <v name="MAGDIPOL">      0.00000000      0.00000000      0.00000000</v>
   <v name="AVECCONST">      0.00000000      0.00000000      0.00000000</v>
  </separator>
  <separator name="response functions" >
   <i type="logical" name="LFINITE_TEMPERATURE"> F  </i>
   <i type="logical" name="LADDER"> F  </i>
   <i type="logical" name="LRPAFORCE"> F  </i>
   <i type="logical" name="LFXC"> F  </i>
   <i type="logical" name="LHARTREE"> T  </i>
   <i type="int" name="IBSE">     0</i>
   <v type="int" name="KPOINT">    -1     0     0     0</v>
   <i type="logical" name="LTCTC"> F  </i>
   <i type="logical" name="LTCTE"> F  </i>
   <i type="logical" name="LTETE"> F  </i>
   <i type="logical" name="LTRIPLET"> F  </i>
   <i type="logical" name="LFXCEPS"> F  </i>
   <i type="logical" name="LFXHEG"> F  </i>
   <i type="int" name="NATURALO">     2</i>
   <i type="logical" name="LHOLEGF"> F  </i>
   <i type="logical" name="L2ORDER"> F  </i>
   <i type="logical" name="LDMP1"> F  </i>
   <i type="logical" name="LMP2LT"> F  </i>
   <i type="logical" name="LSMP2LT"> F  </i>
   <i type="logical" name="LGWLF"> F  </i>
   <i name="ENCUTGW">     -2.00000000</i>
   <i name="ENCUTGWSOFT">     -2.00000000</i>
   <i name="ENCUTLF">     -1.00000000</i>
   <i type="logical" name="LESF_SPLINES"> F  </i>
   <i type="int" name="LMAXMP2">    -1</i>
   <i name="SCISSOR">      0.00000000</i>
   <i type="int" name="NOMEGA">     0</i>
   <i type="int" name="NOMEGAR">     0</i>
   <i type="int" name="NBANDSGW">    -1</i>
   <i type="int" name="NBANDSO">    -1</i>
   <i type="int" name="NBANDSV">    -1</i>
   <i type="int" name="NELMGW">     1</i>
   <i type="int" name="NELMHF">     1</i>
   <i type="int" name="DIM">     3</i>
   <i type="int" name="IESPILON">     4</i>
   <i type="int" name="ANTIRES">     0</i>
   <i name="OMEGAMAX">    -30.00000000</i>
   <i name="OMEGAMIN">    -30.00000000</i>
   <i name="OMEGATL">   -200.00000000</i>
   <i type="int" name="OMEGAGRID">     0</i>
   <i name="CSHIFT">     -0.10000000</i>
   <i type="logical" name="LSELFENERGY"> F  </i>
   <i type="logical" name="LSPECTRAL"> F  </i>
   <i type="logical" name="LSPECTRALGW"> F  </i>
   <i type="logical" name="LSINGLES"> F  </i>
   <i type="logical" name="LFERMIGW"> F  </i>
   <i type="logical" name="ODDONLYGW"> F  </i>
   <i type="logical" name="EVENONLYGW"> F  </i>
   <i type="int" name="NKREDLFX">     1</i>
   <i type="int" name="NKREDLFY">     1</i>
   <i type="int" name="NKREDLFZ">     1</i>
   <i type="int" name="MAXMEM">  2800</i>
   <i type="int" name="TELESCOPE">     0</i>
   <i type="int" name="NTAUPAR">    -1</i>
   <i type="int" name="NOMEGAPAR">    -1</i>
   <i name="DAMP_NEWTON">      0.80000001</i>
   <i name="LAMBDA">      1.00000000</i>
  </separator>
  <separator name="External order field" >
   <i name="OFIELD_KAPPA">      0.00000000</i>
   <v name="OFIELD_K">      0.00000000      0.00000000      0.00000000</v>
   <i name="OFIELD_Q6_NEAR">      0.00000000</i>
   <i name="OFIELD_Q6_FAR">      0.00000000</i>
   <i name="OFIELD_A">      0.00000000</i>
  </separator>
  <separator name="optional k-points parameters" >
   <i type="int" name="KPOINTS_OPT_MODE">     1</i>
   <i type="logical" name="LKPOINTS_OPT"> F  </i>
  </separator>
  <separator name="solvation model" >
   <i type="logical" name="LSOL"> F  </i>
  </separator>
 </parameters>
 <atominfo>
  <atoms>      15 </atoms>
  <types>       2 </types>
  <array name="atoms" >
   <dimension dim="1">ion</dimension>
   <field type="string">element</field>
   <field type="int">atomtype</field>
   <set>
    <rc><c>B </c><c>   1</c></rc>
    <rc><c>B </c><c>   1</c></rc>
    <rc><c>B </c><c>   1</c></rc>
    <rc><c>B </c><c>   1</c></rc>
    <rc><c>C </c><c>   2</c></rc>
    <rc><c>C </c><c>   2</c></rc>
    <rc><c>C </c><c>   2</c></rc>
    <rc><c>C </c><c>   2</c></rc>
    <rc><c>C </c><c>   2</c></rc>
    <rc><c>C </c><c>   2</c></rc>
    <rc><c>C </c><c>   2</c></rc>
    <rc><c>C </c><c>   2</c></rc>
    <rc><c>C </c><c>   2</c></rc>
    <rc><c>C </c><c>   2</c></rc>
    <rc><c>C </c><c>   2</c></rc>
   </set>
  </array>
  <array name="atomtypes" >
   <dimension dim="1">type</dimension>
   <field type="int">atomspertype</field>
   <field type="string">element</field>
   <field>mass</field>
   <field>valence</field>
   <field type="string">pseudopotential</field>
   <set>
    <rc><c>   4</c><c>B </c><c>     10.81100000</c><c>      3.00000000</c><c>  PAW_PBE B 06Sep2000                   </c></rc>
    <rc><c>  11</c><c>C </c><c>     12.01100000</c><c>      4.00000000</c><c>  PAW_PBE C 08Apr2002                   </c></rc>
   </set>
  </array>
 </atominfo>
 <structure name="initialpos" >
  <crystal>
   <varray name="basis" >
    <v>       4.19416103       2.42150000       0.00000000 </v>
    <v>      -4.19416103       2.42150000       0.00000000 </v>
    <v>       0.00000000       0.00000000      15.00000000 </v>
   </varray>
   <i name="volume">    304.68482806 </i>
   <varray name="rec_basis" >
    <v>       0.11921335       0.20648358       0.00000000 </v>
    <v>      -0.11921335       0.20648358       0.00000000 </v>
    <v>       0.00000000       0.00000000       0.06666667 </v>
   </varray>
  </crystal>
  <varray name="positions" >
   <v>       0.00415361       0.00267210       0.12034134 </v>
   <v>       0.35695335       0.00285503       0.09748893 </v>
   <v>       0.00423858       0.35550699       0.09749256 </v>
   <v>       0.65142295       0.65006557       0.09747688 </v>
   <v>       0.32808646       0.32671938       0.10030508 </v>
   <v>       0.68027775       0.00278085       0.10027562 </v>
   <v>       0.00416530       0.67883808       0.10026559 </v>
   <v>       0.11111044       0.38888856       0.33726667 </v>
   <v>       0.27777744       0.22222156       0.33726667 </v>
   <v>       0.11111044       0.88888856       0.33726667 </v>
   <v>       0.27777744       0.72222156       0.33726667 </v>
   <v>       0.61111044       0.38888856       0.33726667 </v>
   <v>       0.77777744       0.22222156       0.33726667 </v>
   <v>       0.61111044       0.88888856       0.33726667 </v>
   <v>       0.77777744       0.72222156       0.33726667 </v>
  </varray>
 </structure>
 <calculation>
  <scstep>
   <time name="dav">    5.57    5.64</time>
   <time name="total">    5.61    5.69</time>
   <energy>
    <i name="alphaZ">     58.37932579 </i>
    <i name="ewald">   4693.90165688 </i>
    <i name="hartreedc">  -6249.76959533 </i>
    <i name="XCdc">    175.14584603 </i>
    <i name="pawpsdc">   1365.87943566 </i>
    <i name="pawaedc">  -1368.52100941 </i>
    <i name="eentropy">     -0.02053639 </i>
    <i name="bandstr">   -376.27295083 </i>
    <i name="atom">   1903.26342058 </i>
    <i name="e_fr_energy">    201.98559297 </i>
    <i name="e_wo_entrp">    202.00612937 </i>
    <i name="e_0_energy">    201.99586117 </i>
   </energy>
  </scstep>
  <scstep>
   <time name="dav">    7.92    8.01</time>
   <time name="total">    7.92    8.01</time>
   <energy>
    <i name="e_fr_energy">   -116.39900262 </i>
    <i name="e_wo_entrp">   -116.39660087 </i>
    <i name="e_0_energy">   -116.39780174 </i>
   </energy>
  </scstep>
  <scstep>
   <time name="dav">   11.20   11.28</time>
   <time name="total">   11.20   11.28</time>
   <energy>
    <i name="e_fr_energy">   -129.42869735 </i>
    <i name="e_wo_entrp">   -129.42557368 </i>
    <i name="e_0_energy">   -129.42713552 </i>
   </energy>
  </scstep>
  <scstep>
   <time name="dav">    8.21    8.29</time>
   <time name="total">    8.21    8.29</time>
   <energy>
    <i name="e_fr_energy">   -129.45215795 </i>
    <i name="e_wo_entrp">   -129.44905908 </i>
    <i name="e_0_energy">   -129.45060851 </i>
   </energy>
  </scstep>
  <scstep>
   <time name="dav">   10.59   10.66</time>
   <time name="total">   10.86   10.94</time>
   <energy>
    <i name="e_fr_energy">   -129.45222277 </i>
    <i name="e_wo_entrp">   -129.44912386 </i>
    <i name="e_0_energy">   -129.45067332 </i>
   </energy>
  </scstep>
  <scstep>
   <time name="dav">   10.76   10.84</time>
   <time name="total">   11.06   11.15</time>
   <energy>
    <i name="e_fr_energy">    -92.04735782 </i>
    <i name="e_wo_entrp">    -92.04103301 </i>
    <i name="e_0_energy">    -92.04419542 </i>
   </energy>
  </scstep>
  <scstep>
   <time name="dav">    9.09    9.17</time>
   <time name="total">    9.38    9.48</time>
   <energy>
    <i name="e_fr_energy">   -100.46375343 </i>
    <i name="e_wo_entrp">   -100.45812765 </i>
    <i name="e_0_energy">   -100.46094054 </i>
   </energy>
  </scstep>
  <scstep>
   <time name="dav">    9.92    9.99</time>
   <time name="total">   10.21   10.29</time>
   <energy>
    <i name="e_fr_energy">   -110.46494278 </i>
    <i name="e_wo_entrp">   -110.46491442 </i>
    <i name="e_0_energy">   -110.46492860 </i>
   </energy>
  </scstep>
  <scstep>
   <time name="dav">    7.81    7.88</time>
   <time name="total">    8.10    8.18</time>
   <energy>
    <i name="e_fr_energy">   -117.16405350 </i>
    <i name="e_wo_entrp">   -117.16404944 </i>
    <i name="e_0_energy">   -117.16405147 </i>
   </energy>
  </scstep>
  <scstep>
   <time name="dav">    9.90    9.96</time>
   <time name="total">   10.19   10.26</time>
   <energy>
    <i name="e_fr_energy">   -123.44837038 </i>
    <i name="e_wo_entrp">   -123.44777253 </i>
    <i name="e_0_energy">   -123.44807146 </i>
   </energy>
  </scstep>
  <scstep>
   <time name="dav">   10.16   10.23</time>
   <time name="total">   10.45   10.53</time>
   <energy>
    <i name="e_fr_energy">   -125.28396699 </i>
    <i name="e_wo_entrp">   -125.28277358 </i>
    <i name="e_0_energy">   -125.28337028 </i>
   </energy>
  </scstep>
  <scstep>
   <time name="dav">    7.86    7.92</time>
   <time name="total">    8.15    8.22</time>
   <energy>
    <i name="e_fr_energy">   -125.43619825 </i>
    <i name="e_wo_entrp">   -125.43471520 </i>
    <i name="e_0_energy">   -125.43545672 </i>
   </energy>
  </scstep>
  <scstep>
   <time name="dav">    6.90    6.95</time>
   <time name="total">    7.19    7.25</time>
   <energy>
    <i name="e_fr_energy">   -125.46223431 </i>
    <i name="e_wo_entrp">   -125.46067534 </i>
    <i name="e_0_energy">   -125.46145483 </i>
   </energy>
  </scstep>
  <scstep>
   <time name="dav">    8.50    8.57</time>
   <time name="total">    8.79    8.87</time>
   <energy>
    <i name="e_fr_energy">   -125.48522219 </i>
    <i name="e_wo_entrp">   -125.48365808 </i>
    <i name="e_0_energy">   -125.48444013 </i>
   </energy>
  </scstep>
  <scstep>
   <time name="dav">    7.92    7.97</time>
   <time name="total">    8.21    8.28</time>
   <energy>
    <i name="e_fr_energy">   -125.49298684 </i>
    <i name="e_wo_entrp">   -125.49142199 </i>
    <i name="e_0_energy">   -125.49220442 </i>
   </energy>
  </scstep>
  <scstep>
   <time name="dav">    6.50    6.54</time>
   <time name="total">    6.80    6.85</time>
   <energy>
    <i name="e_fr_energy">   -125.49498676 </i>
    <i name="e_wo_entrp">   -125.49342188 </i>
    <i name="e_0_energy">   -125.49420432 </i>
   </energy>
  </scstep>
  <scstep>
   <time name="dav">    5.86    5.90</time>
   <time name="total">    6.15    6.20</time>
   <energy>
    <i name="e_fr_energy">   -125.49625906 </i>
    <i name="e_wo_entrp">   -125.49469421 </i>
    <i name="e_0_energy">   -125.49547663 </i>
   </energy>
  </scstep>
  <scstep>
   <time name="dav">    6.64    6.69</time>
   <time name="total">    6.94    6.99</time>
   <energy>
    <i name="e_fr_energy">   -125.49695456 </i>
    <i name="e_wo_entrp">   -125.49538972 </i>
    <i name="e_0_energy">   -125.49617214 </i>
   </energy>
  </scstep>
  <scstep>
   <time name="dav">    7.54    7.59</time>
   <time name="total">    7.83    7.90</time>
   <energy>
    <i name="e_fr_energy">   -125.49739922 </i>
    <i name="e_wo_entrp">   -125.49583436 </i>
    <i name="e_0_energy">   -125.49661679 </i>
   </energy>
  </scstep>
  <scstep>
   <time name="dav">    9.12    9.18</time>
   <time name="total">    9.41    9.48</time>
   <energy>
    <i name="e_fr_energy">   -125.49744510 </i>
    <i name="e_wo_entrp">   -125.49588023 </i>
    <i name="e_0_energy">   -125.49666267 </i>
   </energy>
  </scstep>
  <scstep>
   <time name="dav">    7.97    8.03</time>
   <time name="total">    8.27    8.33</time>
   <energy>
    <i name="e_fr_energy">   -125.49746697 </i>
    <i name="e_wo_entrp">   -125.49590210 </i>
    <i name="e_0_energy">   -125.49668453 </i>
   </energy>
  </scstep>
  <scstep>
   <time name="dav">    8.82    8.87</time>
   <time name="total">    9.11    9.19</time>
   <energy>
    <i name="e_fr_energy">   -125.49748845 </i>
    <i name="e_wo_entrp">   -125.49592358 </i>
    <i name="e_0_energy">   -125.49670602 </i>
   </energy>
  </scstep>
  <scstep>
   <time name="dav">    8.39    8.44</time>
   <time name="total">    8.67    8.74</time>
   <energy>
    <i name="e_fr_energy">   -125.49750443 </i>
    <i name="e_wo_entrp">   -125.49593956 </i>
    <i name="e_0_energy">   -125.49672199 </i>
   </energy>
  </scstep>
  <scstep>
   <time name="dav">    9.48    9.55</time>
   <time name="total">    9.77    9.85</time>
   <energy>
    <i name="e_fr_energy">   -125.49750764 </i>
    <i name="e_wo_entrp">   -125.49594276 </i>
    <i name="e_0_energy">   -125.49672520 </i>
   </energy>
  </scstep>
  <scstep>
   <time name="dav">    9.38    9.44</time>
   <time name="total">    9.42    9.48</time>
   <energy>
    <i name="alphaZ">     58.37932579 </i>
    <i name="ewald">   4693.90165688 </i>
    <i name="hartreedc">  -6452.08364360 </i>
    <i name="XCdc">    180.55096746 </i>
    <i name="pawpsdc">   5754.03748673 </i>
    <i name="pawaedc">  -5758.45549426 </i>
    <i name="eentropy">     -0.00156487 </i>
    <i name="bandstr">   -505.08966330 </i>
    <i name="atom">   1903.26342058 </i>
    <i name="e_fr_energy">   -125.49750860 </i>
    <i name="e_wo_entrp">   -125.49594373 </i>
    <i name="e_0_energy">   -125.49672616 </i>
   </energy>
  </scstep>
  <structure>
   <crystal>
    <varray name="basis" >
     <v>       4.19416103       2.42150000       0.00000000 </v>
     <v>      -4.19416103       2.42150000       0.00000000 </v>
     <v>       0.00000000       0.00000000      15.00000000 </v>
    </varray>
    <i name="volume">    304.68482806 </i>
    <varray name="rec_basis" >
     <v>       0.11921335       0.20648358       0.00000000 </v>
     <v>      -0.11921335       0.20648358       0.00000000 </v>
     <v>       0.00000000       0.00000000       0.06666667 </v>
    </varray>
   </crystal>
   <varray name="positions" >
    <v>       0.00415361       0.00267210       0.12034134 </v>
    <v>       0.35695335       0.00285503       0.09748893 </v>
    <v>       0.00423858       0.35550699       0.09749256 </v>
    <v>       0.65142295       0.65006557       0.09747688 </v>
    <v>       0.32808646       0.32671938       0.10030508 </v>
    <v>       0.68027775       0.00278085       0.10027562 </v>
    <v>       0.00416530       0.67883808       0.10026559 </v>
    <v>       0.11111044       0.38888856       0.33726667 </v>
    <v>       0.27777744       0.22222156       0.33726667 </v>
    <v>       0.11111044       0.88888856       0.33726667 </v>
    <v>       0.27777744       0.72222156       0.33726667 </v>
    <v>       0.61111044       0.38888856       0.33726667 </v>
    <v>       0.77777744       0.22222156       0.33726667 </v>
    <v>       0.61111044       0.88888856       0.33726667 </v>
    <v>       0.77777744       0.72222156       0.33726667 </v>
   </varray>
  </structure>
  <varray name="forces" >
   <v>      -0.00089567       0.00197522      -0.39324260 </v>
   <v>      -0.09932843      -0.06371380       0.10200470 </v>
   <v>       0.08060506      -0.05152615       0.11840264 </v>
   <v>       0.00948274       0.10449259       0.11410912 </v>
   <v>       0.01406310      -0.33593376       0.00225926 </v>
   <v>       0.30585464       0.17797877       0.01570239 </v>
   <v>      -0.28048774       0.16795329       0.00479990 </v>
   <v>      -0.01513755       0.00161185       0.00401275 </v>
   <v>       0.00117032       0.01323728       0.02689343 </v>
   <v>       0.00496708       0.01589072       0.00738347 </v>
   <v>       0.01686714       0.00942869      -0.01913913 </v>
   <v>       0.00112178      -0.00458932      -0.02066084 </v>
   <v>      -0.00754756       0.00021897       0.00694035 </v>
   <v>      -0.01174229      -0.01166671       0.02350356 </v>
   <v>      -0.01899261      -0.02535764       0.00703098 </v>
  </varray>
  <varray name="stress" >
   <v>      -3.51575853       0.07603899      -0.54594553 </v>
   <v>       0.07603897      -3.64646416      -0.01991183 </v>
   <v>      -0.54594550      -0.01991183      -2.14458208 </v>
  </varray>
  <energy>
   <i name="e_fr_energy">   -127.08526146 </i>
   <i name="e_wo_entrp">   -127.08369659 </i>
   <i name="e_0_energy">   -127.08447903 </i>
  </energy>
  <time name="totalsc">  222.64  224.49</time>
 </calculation>
 <calculation>
  <scstep>
   <time name="dav">    5.50    5.54</time>
   <time name="total">    5.79    5.84</time>
   <energy>
    <i name="alphaZ">     58.37932579 </i>
    <i name="ewald">   4697.31038879 </i>
    <i name="hartreedc">  -6454.14076280 </i>
    <i name="XCdc">    180.62933717 </i>
    <i name="pawpsdc">   5754.06694701 </i>
    <i name="pawaedc">  -5758.48495280 </i>
    <i name="eentropy">     -0.00156392 </i>
    <i name="bandstr">   -506.52923313 </i>
    <i name="atom">   1903.26342058 </i>
    <i name="e_fr_energy">   -125.50709333 </i>
    <i name="e_wo_entrp">   -125.50552941 </i>
    <i name="e_0_energy">   -125.50631137 </i>
   </energy>
  </scstep>
  <scstep>
   <time name="dav">   10.74   10.82</time>
   <time name="total">   11.03   11.12</time>
   <energy>
    <i name="e_fr_energy">   -125.49916376 </i>
    <i name="e_wo_entrp">   -125.49759974 </i>
    <i name="e_0_energy">   -125.49838175 </i>
   </energy>
  </scstep>
  <scstep>
   <time name="dav">    8.47    8.54</time>
   <time name="total">    8.76    8.84</time>
   <energy>
    <i name="e_fr_energy">   -125.49828088 </i>
    <i name="e_wo_entrp">   -125.49671681 </i>
    <i name="e_0_energy">   -125.49749884 </i>
   </energy>
  </scstep>
  <scstep>
   <time name="dav">   11.22   11.30</time>
   <time name="total">   11.51   11.60</time>
   <energy>
    <i name="e_fr_energy">   -125.49824425 </i>
    <i name="e_wo_entrp">   -125.49668017 </i>
    <i name="e_0_energy">   -125.49746221 </i>
   </energy>
  </scstep>
  <scstep>
   <time name="dav">   10.26   10.34</time>
   <time name="total">   10.55   10.64</time>
   <energy>
    <i name="e_fr_energy">   -125.49824746 </i>
    <i name="e_wo_entrp">   -125.49668339 </i>
    <i name="e_0_energy">   -125.49746542 </i>
   </energy>
  </scstep>
  <scstep>
   <time name="dav">    9.23    9.29</time>
   <time name="total">    9.26    9.32</time>
   <energy>
    <i name="alphaZ">     58.37932579 </i>
    <i name="ewald">   4697.31038879 </i>
    <i name="hartreedc">  -6454.84404979 </i>
    <i name="XCdc">    180.64502256 </i>
    <i name="pawpsdc">   5779.81451417 </i>
    <i name="pawaedc">  -5784.24086368 </i>
    <i name="eentropy">     -0.00156407 </i>
    <i name="bandstr">   -505.82444180 </i>
    <i name="atom">   1903.26342058 </i>
    <i name="e_fr_energy">   -125.49824746 </i>
    <i name="e_wo_entrp">   -125.49668339 </i>
    <i name="e_0_energy">   -125.49746542 </i>
   </energy>
  </scstep>
  <structure>
   <crystal>
    <varray name="basis" >
     <v>       4.19416103       2.42150000       0.00000000 </v>
     <v>      -4.19416103       2.42150000       0.00000000 </v>
     <v>       0.00000000       0.00000000      15.00000000 </v>
    </varray>
    <i name="volume">    304.68482806 </i>
    <varray name="rec_basis" >
     <v>       0.11921335       0.20648358       0.00000000 </v>
     <v>      -0.11921335       0.20648358       0.00000000 </v>
     <v>       0.00000000       0.00000000       0.06666667 </v>
    </varray>
   </crystal>
   <varray name="positions" >
    <v>       0.00416813       0.00269693       0.11907660 </v>
    <v>       0.35574742       0.00279161       0.09781700 </v>
    <v>       0.00418888       0.35453015       0.09787337 </v>
    <v>       0.65251837       0.65105192       0.09784387 </v>
    <v>       0.32482100       0.32329215       0.10031234 </v>
    <v>       0.68380967       0.00279473       0.10032612 </v>
    <v>       0.00422520       0.68212425       0.10028102 </v>
    <v>       0.11103944       0.38899167       0.33727957 </v>
    <v>       0.27791604       0.22234669       0.33735316 </v>
    <v>       0.11129730       0.88901828       0.33729041 </v>
    <v>       0.27796837       0.72221847       0.33720511 </v>
    <v>       0.61107118       0.38883639       0.33720022 </v>
    <v>       0.77773622       0.22226714       0.33728899 </v>
    <v>       0.61092670       0.88883987       0.33734226 </v>
    <v>       0.77741562       0.72207819       0.33728928 </v>
   </varray>
  </structure>
  <varray name="forces" >
   <v>      -0.00281458       0.00224488      -0.17577543 </v>
   <v>       0.25747042       0.14383228       0.05789762 </v>
   <v>      -0.21714162       0.13257543       0.06948661 </v>
   <v>       0.01075490      -0.26764515       0.06608018 </v>
   <v>       0.00162925       0.54895818      -0.02106487 </v>
   <v>      -0.49169585      -0.28730336      -0.01325857 </v>
   <v>       0.47062749      -0.27158332      -0.01935055 </v>
   <v>       0.03930507      -0.00738390       0.00461908 </v>
   <v>      -0.02783031      -0.04365188       0.00896182 </v>
   <v>      -0.03311764      -0.06082269       0.00733516 </v>
   <v>      -0.07670259      -0.03391836      -0.00168055 </v>
   <v>      -0.01378041       0.01405800      -0.00022919 </v>
   <v>       0.01169494      -0.00473905       0.00341995 </v>
   <v>       0.02304428       0.04556422       0.00892067 </v>
   <v>       0.04855666       0.08981471       0.00463806 </v>
  </varray>
  <varray name="stress" >
   <v>      -1.00517548       0.10479580      -0.55420695 </v>
   <v>       0.10479577      -1.06775765      -0.01954641 </v>
   <v>      -0.55420694      -0.01954641      -1.75583796 </v>
  </varray>
  <energy>
   <i name="e_fr_energy">   -127.08541829 </i>
   <i name="e_wo_entrp">   -127.08385422 </i>
   <i name="e_0_energy">   -127.08463625 </i>
  </energy>
  <time name="totalsc">   61.63   62.48</time>
 </calculation>
 <calculation>
  <scstep>
   <time name="dav">    5.48    5.53</time>
   <time name="total">    5.78    5.83</time>
   <energy>
    <i name="alphaZ">     58.37932579 </i>
    <i name="ewald">   4695.58023236 </i>
    <i name="hartreedc">  -6453.79359536 </i>
    <i name="XCdc">    180.60499187 </i>
    <i name="pawpsdc">   5779.82527748 </i>
    <i name="pawaedc">  -5784.25161715 </i>
    <i name="eentropy">     -0.00156457 </i>
    <i name="bandstr">   -505.11347761 </i>
    <i name="atom">   1903.26342058 </i>
    <i name="e_fr_energy">   -125.50700661 </i>
    <i name="e_wo_entrp">   -125.50544204 </i>
    <i name="e_0_energy">   -125.50622432 </i>
   </energy>
  </scstep>
  <scstep>
   <time name="dav">   10.60   10.67</time>
   <time name="total">   10.89   10.97</time>
   <energy>
    <i name="e_fr_energy">   -125.50499483 </i>
    <i name="e_wo_entrp">   -125.50343031 </i>
    <i name="e_0_energy">   -125.50421257 </i>
   </energy>
  </scstep>
  <scstep>
   <time name="dav">    9.20    9.26</time>
   <time name="total">    9.50    9.56</time>
   <energy>
    <i name="e_fr_energy">   -125.50478358 </i>
    <i name="e_wo_entrp">   -125.50321908 </i>
    <i name="e_0_energy">   -125.50400133 </i>
   </energy>
  </scstep>
  <scstep>
   <time name="dav">    9.54    9.60</time>
   <time name="total">    9.83    9.91</time>
   <energy>
    <i name="e_fr_energy">   -125.50477497 </i>
    <i name="e_wo_entrp">   -125.50321047 </i>
    <i name="e_0_energy">   -125.50399272 </i>
   </energy>
  </scstep>
  <scstep>
   <time name="dav">    9.03    9.09</time>
   <time name="total">    9.06    9.12</time>
   <energy>
    <i name="alphaZ">     58.37932579 </i>
    <i name="ewald">   4695.58023236 </i>
    <i name="hartreedc">  -6453.46438705 </i>
    <i name="XCdc">    180.59724817 </i>
    <i name="pawpsdc">   5766.49886250 </i>
    <i name="pawaedc">  -5770.92078525 </i>
    <i name="eentropy">     -0.00156450 </i>
    <i name="bandstr">   -505.43712826 </i>
    <i name="atom">   1903.26342058 </i>
    <i name="e_fr_energy">   -125.50477567 </i>
    <i name="e_wo_entrp">   -125.50321117 </i>
    <i name="e_0_energy">   -125.50399342 </i>
   </energy>
  </scstep>
  <structure>
   <crystal>
    <varray name="basis" >
     <v>       4.19416103       2.42150000       0.00000000 </v>
     <v>      -4.19416103       2.42150000       0.00000000 </v>
     <v>       0.00000000       0.00000000      15.00000000 </v>
    </varray>
    <i name="volume">    304.68482806 </i>
    <varray name="rec_basis" >
     <v>       0.11921335       0.20648358       0.00000000 </v>
     <v>      -0.11921335       0.20648358       0.00000000 </v>
     <v>       0.00000000       0.00000000       0.06666667 </v>
    </varray>
   </crystal>
   <varray name="positions" >
    <v>       0.00416090       0.00268457       0.11970599 </v>
    <v>       0.35634755       0.00282317       0.09765374 </v>
    <v>       0.00421361       0.35501627       0.09768386 </v>
    <v>       0.65197324       0.65056107       0.09766124 </v>
    <v>       0.32644604       0.32499769       0.10030873 </v>
    <v>       0.68205203       0.00278783       0.10030099 </v>
    <v>       0.00419539       0.68048890       0.10027334 </v>
    <v>       0.11107478       0.38894036       0.33727315 </v>
    <v>       0.27784707       0.22228442       0.33731012 </v>
    <v>       0.11120431       0.88895372       0.33727860 </v>
    <v>       0.27787336       0.72222001       0.33723574 </v>
    <v>       0.61109072       0.38886235       0.33723329 </v>
    <v>       0.77775673       0.22224446       0.33727788 </v>
    <v>       0.61101814       0.88886410       0.33730464 </v>
    <v>       0.77759568       0.72214953       0.33727803 </v>
   </varray>
  </structure>
  <varray name="forces" >
   <v>      -0.00235496       0.00203958      -0.28283617 </v>
   <v>       0.08336050       0.04250389       0.07973054 </v>
   <v>      -0.07182595       0.04239909       0.09367729 </v>
   <v>       0.01015990      -0.08591077       0.08984982 </v>
   <v>       0.00811615       0.10709787      -0.00963993 </v>
   <v>      -0.09383959      -0.05510110       0.00103129 </v>
   <v>       0.09547327      -0.05185815      -0.00757569 </v>
   <v>       0.01217402      -0.00290664       0.00427544 </v>
   <v>      -0.01331936      -0.01534924       0.01790075 </v>
   <v>      -0.01422009      -0.02261683       0.00736174 </v>
   <v>      -0.03005275      -0.01223110      -0.01042077 </v>
   <v>      -0.00639642       0.00474518      -0.01044895 </v>
   <v>       0.00208023      -0.00222386       0.00513465 </v>
   <v>       0.00573670       0.01691695       0.01615559 </v>
   <v>       0.01490834       0.03249513       0.00580441 </v>
  </varray>
  <varray name="stress" >
   <v>      -2.37069876       0.08591968      -0.55043697 </v>
   <v>       0.08591967      -2.46880451      -0.01927106 </v>
   <v>      -0.55043697      -0.01927105      -1.93596412 </v>
  </varray>
  <energy>
   <i name="e_fr_energy">   -127.09223287 </i>
   <i name="e_wo_entrp">   -127.09066837 </i>
   <i name="e_0_energy">   -127.09145062 </i>
  </energy>
  <time name="totalsc">   49.74   50.12</time>
 </calculation>
 <calculation>
  <scstep>
   <time name="dav">    5.48    5.52</time>
   <time name="total">    5.77    5.82</time>
   <energy>
    <i name="alphaZ">     58.37932579 </i>
    <i name="ewald">   4695.70879075 </i>
    <i name="hartreedc">  -6453.33587771 </i>
    <i name="XCdc">    180.61579084 </i>
    <i name="pawpsdc">   5766.45781074 </i>
    <i name="pawaedc">  -5770.87973786 </i>
    <i name="eentropy">     -0.00156628 </i>
    <i name="bandstr">   -505.71920389 </i>
    <i name="atom">   1903.26342058 </i>
    <i name="e_fr_energy">   -125.51124704 </i>
    <i name="e_wo_entrp">   -125.50968077 </i>
    <i name="e_0_energy">   -125.51046390 </i>
   </energy>
  </scstep>
  <scstep>
   <time name="dav">   11.75   11.82</time>
   <time name="total">   12.04   12.13</time>
   <energy>
    <i name="e_fr_energy">   -125.51130762 </i>
    <i name="e_wo_entrp">   -125.50974140 </i>
    <i name="e_0_energy">   -125.51052451 </i>
   </energy>
  </scstep>
  <scstep>
   <time name="dav">    8.81    8.87</time>
   <time name="total">    9.10    9.17</time>
   <energy>
    <i name="e_fr_energy">   -125.51130530 </i>
    <i name="e_wo_entrp">   -125.50973915 </i>
    <i name="e_0_energy">   -125.51052222 </i>
   </energy>
  </scstep>
  <scstep>
   <time name="dav">   11.23   11.30</time>
   <time name="total">   11.52   11.61</time>
   <energy>
    <i name="e_fr_energy">   -125.51130631 </i>
    <i name="e_wo_entrp">   -125.50974016 </i>
    <i name="e_0_energy">   -125.51052324 </i>
   </energy>
  </scstep>
  <scstep>
   <time name="dav">    8.57    8.63</time>
   <time name="total">    8.61    8.67</time>
   <energy>
    <i name="alphaZ">     58.37932579 </i>
    <i name="ewald">   4695.70879075 </i>
    <i name="hartreedc">  -6453.32759738 </i>
    <i name="XCdc">    180.61499791 </i>
    <i name="pawpsdc">   5771.85504957 </i>
    <i name="pawaedc">  -5776.27883988 </i>
    <i name="eentropy">     -0.00156615 </i>
    <i name="bandstr">   -505.72488783 </i>
    <i name="atom">   1903.26342058 </i>
    <i name="e_fr_energy">   -125.51130666 </i>
    <i name="e_wo_entrp">   -125.50974051 </i>
    <i name="e_0_energy">   -125.51052359 </i>
   </energy>
  </scstep>
  <structure>
   <crystal>
    <varray name="basis" >
     <v>       4.19416103       2.42150000       0.00000000 </v>
     <v>      -4.19416103       2.42150000       0.00000000 </v>
     <v>       0.00000000       0.00000000      15.00000000 </v>
    </varray>
    <i name="volume">    304.68482806 </i>
    <varray name="rec_basis" >
     <v>       0.11921335       0.20648358       0.00000000 </v>
     <v>      -0.11921335       0.20648358       0.00000000 </v>
     <v>       0.00000000       0.00000000       0.06666667 </v>
    </varray>
   </crystal>
   <varray name="positions" >
    <v>       0.00417075       0.00272147       0.11856045 </v>
    <v>       0.35684926       0.00275635       0.09796932 </v>
    <v>       0.00420913       0.35551643       0.09805344 </v>
    <v>       0.65153798       0.64999242       0.09801617 </v>
    <v>       0.32660591       0.32503175       0.10028269 </v>
    <v>       0.68198339       0.00278313       0.10031701 </v>
    <v>       0.00424013       0.68037746       0.10025539 </v>
    <v>       0.11109342       0.38887785       0.33728886 </v>
    <v>       0.27767618       0.22224801       0.33738428 </v>
    <v>       0.11097603       0.88885798       0.33730604 </v>
    <v>       0.27765729       0.72226514       0.33718968 </v>
    <v>       0.61109002       0.38892457       0.33718587 </v>
    <v>       0.77773692       0.22222550       0.33729851 </v>
    <v>       0.61115216       0.88897357       0.33737094 </v>
    <v>       0.77787098       0.72232680       0.33730067 </v>
   </varray>
  </structure>
  <varray name="forces" >
   <v>       0.00129929       0.00086863      -0.25699848 </v>
   <v>       0.05568933       0.02935616       0.04791964 </v>
   <v>      -0.03841023       0.02739843       0.05469520 </v>
   <v>       0.00577012      -0.05324844       0.05273364 </v>
   <v>       0.00209186       0.10262794       0.02011528 </v>
   <v>      -0.08837459      -0.05567032       0.02628787 </v>
   <v>       0.08922839      -0.05026165       0.02164986 </v>
   <v>      -0.04070211       0.00706433       0.00371736 </v>
   <v>       0.02793120       0.02453671       0.00370533 </v>
   <v>       0.01315224       0.05480593       0.00575926 </v>
   <v>       0.05153230       0.02632958       0.00457781 </v>
   <v>      -0.00547730      -0.00899046       0.00558102 </v>
   <v>      -0.01399116       0.00882236       0.00280564 </v>
   <v>      -0.02008646      -0.04278337       0.00370373 </v>
   <v>      -0.03965289      -0.07085584       0.00374682 </v>
  </varray>
  <varray name="stress" >
   <v>      -1.89937091       0.08694699      -0.51363009 </v>
   <v>       0.08694696      -2.11747323      -0.02137271 </v>
   <v>      -0.51363010      -0.02137272      -1.91815645 </v>
  </varray>
  <energy>
   <i name="e_fr_energy">   -127.09860830 </i>
   <i name="e_wo_entrp">   -127.09704215 </i>
   <i name="e_0_energy">   -127.09782523 </i>
  </energy>
  <time name="totalsc">   51.75   53.09</time>
 </calculation>
 <calculation>
  <scstep>
   <time name="dav">    5.48    5.52</time>
   <time name="total">    5.77    5.82</time>
   <energy>
    <i name="alphaZ">     58.37932579 </i>
    <i name="ewald">   4695.58104610 </i>
    <i name="hartreedc">  -6452.54625008 </i>
    <i name="XCdc">    180.66206019 </i>
    <i name="pawpsdc">   5771.88590000 </i>
    <i name="pawaedc">  -5776.30970633 </i>
    <i name="eentropy">     -0.00156516 </i>
    <i name="bandstr">   -506.43444172 </i>
    <i name="atom">   1903.26342058 </i>
    <i name="e_fr_energy">   -125.52021063 </i>
    <i name="e_wo_entrp">   -125.51864547 </i>
    <i name="e_0_energy">   -125.51942805 </i>
   </energy>
  </scstep>
  <scstep>
   <time name="dav">   11.35   11.42</time>
   <time name="total">   11.64   11.72</time>
   <energy>
    <i name="e_fr_energy">   -125.52089701 </i>
    <i name="e_wo_entrp">   -125.51933162 </i>
    <i name="e_0_energy">   -125.52011432 </i>
   </energy>
  </scstep>
  <scstep>
   <time name="dav">    8.41    8.47</time>
   <time name="total">    8.71    8.78</time>
   <energy>
    <i name="e_fr_energy">   -125.52086184 </i>
    <i name="e_wo_entrp">   -125.51929623 </i>
    <i name="e_0_energy">   -125.52007904 </i>
   </energy>
  </scstep>
  <scstep>
   <time name="dav">   11.72   11.79</time>
   <time name="total">   12.01   12.10</time>
   <energy>
    <i name="e_fr_energy">   -125.52087190 </i>
    <i name="e_wo_entrp">   -125.51930625 </i>
    <i name="e_0_energy">   -125.52008908 </i>
   </energy>
  </scstep>
  <scstep>
   <time name="dav">    8.85    8.91</time>
   <time name="total">    9.14    9.21</time>
   <energy>
    <i name="e_fr_energy">   -125.52087533 </i>
    <i name="e_wo_entrp">   -125.51930968 </i>
    <i name="e_0_energy">   -125.52009251 </i>
   </energy>
  </scstep>
  <scstep>
   <time name="dav">   10.13   10.20</time>
   <time name="total">   10.16   10.23</time>
   <energy>
    <i name="alphaZ">     58.37932579 </i>
    <i name="ewald">   4695.58104610 </i>
    <i name="hartreedc">  -6452.50233146 </i>
    <i name="XCdc">    180.65931551 </i>
    <i name="pawpsdc">   5785.62154273 </i>
    <i name="pawaedc">  -5790.05023764 </i>
    <i name="eentropy">     -0.00156563 </i>
    <i name="bandstr">   -506.47139143 </i>
    <i name="atom">   1903.26342058 </i>
    <i name="e_fr_energy">   -125.52087547 </i>
    <i name="e_wo_entrp">   -125.51930984 </i>
    <i name="e_0_energy">   -125.52009265 </i>
   </energy>
  </scstep>
  <structure>
   <crystal>
    <varray name="basis" >
     <v>       4.19416103       2.42150000       0.00000000 </v>
     <v>      -4.19416103       2.42150000       0.00000000 </v>
     <v>       0.00000000       0.00000000      15.00000000 </v>
    </varray>
    <i name="volume">    304.68482806 </i>
    <varray name="rec_basis" >
     <v>       0.11921335       0.20648358       0.00000000 </v>
     <v>      -0.11921335       0.20648358       0.00000000 </v>
     <v>       0.00000000       0.00000000       0.06666667 </v>
    </varray>
   </crystal>
   <varray name="positions" >
    <v>       0.00420029       0.00283217       0.11512382 </v>
    <v>       0.35835439       0.00255590       0.09891605 </v>
    <v>       0.00419569       0.35701692       0.09916219 </v>
    <v>       0.65023218       0.64828647       0.09908097 </v>
    <v>       0.32708554       0.32513394       0.10020456 </v>
    <v>       0.68177748       0.00276905       0.10036508 </v>
    <v>       0.00437433       0.68004314       0.10020152 </v>
    <v>       0.11114937       0.38869034       0.33733600 </v>
    <v>       0.27716351       0.22213879       0.33760678 </v>
    <v>       0.11029118       0.88857074       0.33738839 </v>
    <v>       0.27700908       0.72240052       0.33705148 </v>
    <v>       0.61108794       0.38911125       0.33704364 </v>
    <v>       0.77767747       0.22216864       0.33736041 </v>
    <v>       0.61155425       0.88930197       0.33756983 </v>
    <v>       0.77869687       0.72285861       0.33736861 </v>
   </varray>
  </structure>
  <varray name="forces" >
   <v>       0.01282426      -0.00324662      -0.20709416 </v>
   <v>      -0.04549995      -0.02068072      -0.03910242 </v>
   <v>       0.07842593      -0.02872808      -0.05283164 </v>
   <v>      -0.00666947       0.06484268      -0.04947410 </v>
   <v>      -0.01433642       0.07321933       0.10945342 </v>
   <v>      -0.05723473      -0.04800747       0.10292307 </v>
   <v>       0.05533271      -0.03653425       0.10934419 </v>
   <v>      -0.20008369       0.03755760       0.00180973 </v>
   <v>       0.15158679       0.14524215      -0.03882910 </v>
   <v>       0.09852387       0.29127641       0.00074500 </v>
   <v>       0.29583761       0.14002640       0.04980806 </v>
   <v>      -0.00254664      -0.05023785       0.05386446 </v>
   <v>      -0.06261558       0.04133304      -0.00413568 </v>
   <v>      -0.09726715      -0.21969571      -0.03377439 </v>
   <v>      -0.20627755      -0.38636693      -0.00270644 </v>
  </varray>
  <varray name="stress" >
   <v>      -0.57293392       0.12282509      -0.41880300 </v>
   <v>       0.12282507      -1.13467501      -0.02606580 </v>
   <v>      -0.41880298      -0.02606577      -1.89097088 </v>
  </varray>
  <energy>
   <i name="e_fr_energy">   -127.10770067 </i>
   <i name="e_wo_entrp">   -127.10613504 </i>
   <i name="e_0_energy">   -127.10691786 </i>
  </energy>
  <time name="totalsc">   62.13   62.59</time>
 </calculation>
 <calculation>
  <scstep>
   <time name="dav">    5.55    5.59</time>
   <time name="total">    5.84    5.89</time>
   <energy>
    <i name="alphaZ">     58.37932579 </i>
    <i name="ewald">   4695.57937912 </i>
    <i name="hartreedc">  -6452.43187188 </i>
    <i name="XCdc">    180.66359877 </i>
    <i name="pawpsdc">   5785.61670134 </i>
    <i name="pawaedc">  -5790.04539436 </i>
    <i name="eentropy">     -0.00156686 </i>
    <i name="bandstr">   -506.54687759 </i>
    <i name="atom">   1903.26342058 </i>
    <i name="e_fr_energy">   -125.52328510 </i>
    <i name="e_wo_entrp">   -125.52171824 </i>
    <i name="e_0_energy">   -125.52250167 </i>
   </energy>
  </scstep>
  <scstep>
   <time name="dav">   11.23   11.30</time>
   <time name="total">   11.52   11.60</time>
   <energy>
    <i name="e_fr_energy">   -125.52328805 </i>
    <i name="e_wo_entrp">   -125.52172121 </i>
    <i name="e_0_energy">   -125.52250463 </i>
   </energy>
  </scstep>
  <scstep>
   <time name="dav">    8.52    8.58</time>
   <time name="total">    8.81    8.91</time>
   <energy>
    <i name="e_fr_energy">   -125.52328274 </i>
    <i name="e_wo_entrp">   -125.52171592 </i>
    <i name="e_0_energy">   -125.52249933 </i>
   </energy>
  </scstep>
  <scstep>
   <time name="dav">   10.73   10.81</time>
   <time name="total">   10.77   10.84</time>
   <energy>
    <i name="alphaZ">     58.37932579 </i>
    <i name="ewald">   4695.57937912 </i>
    <i name="hartreedc">  -6452.42525573 </i>
    <i name="XCdc">    180.66307936 </i>
    <i name="pawpsdc">   5786.65306576 </i>
    <i name="pawaedc">  -5791.08220036 </i>
    <i name="eentropy">     -0.00156681 </i>
    <i name="bandstr">   -506.55253090 </i>
    <i name="atom">   1903.26342058 </i>
    <i name="e_fr_energy">   -125.52328320 </i>
    <i name="e_wo_entrp">   -125.52171639 </i>
    <i name="e_0_energy">   -125.52249979 </i>
   </energy>
  </scstep>
  <structure>
   <crystal>
    <varray name="basis" >
     <v>       4.19416103       2.42150000       0.00000000 </v>
     <v>      -4.19416103       2.42150000       0.00000000 </v>
     <v>       0.00000000       0.00000000      15.00000000 </v>
    </varray>
    <i name="volume">    304.68482806 </i>
    <varray name="rec_basis" >
     <v>       0.11921335       0.20648358       0.00000000 </v>
     <v>      -0.11921335       0.20648358       0.00000000 </v>
     <v>       0.00000000       0.00000000       0.06666667 </v>
    </varray>
   </crystal>
   <varray name="positions" >
    <v>       0.00420655       0.00283639       0.11470133 </v>
    <v>       0.35848352       0.00253822       0.09900968 </v>
    <v>       0.00420636       0.35712571       0.09927017 </v>
    <v>       0.65013500       0.64815145       0.09918497 </v>
    <v>       0.32718528       0.32520481       0.10022198 </v>
    <v>       0.68169566       0.00275654       0.10039467 </v>
    <v>       0.00438554       0.67995660       0.10022156 </v>
    <v>       0.11109828       0.38878221       0.33734155 </v>
    <v>       0.27727849       0.22216925       0.33762177 </v>
    <v>       0.11047206       0.88871141       0.33739752 </v>
    <v>       0.27716658       0.72239267       0.33704825 </v>
    <v>       0.61104979       0.38909577       0.33704094 </v>
    <v>       0.77767481       0.22221928       0.33736615 </v>
    <v>       0.61139565       0.88921774       0.33758345 </v>
    <v>       0.77841596       0.72272040       0.33737535 </v>
   </varray>
  </structure>
  <varray name="forces" >
   <v>       0.01410043      -0.00350578      -0.19985343 </v>
   <v>      -0.05368242      -0.02495062      -0.04275009 </v>
   <v>       0.08430540      -0.03213547      -0.05825043 </v>
   <v>      -0.00772946       0.07250852      -0.05442959 </v>
   <v>      -0.01477086       0.06005013       0.11249592 </v>
   <v>      -0.04470700      -0.04074001       0.10470935 </v>
   <v>       0.04500827      -0.03038434       0.11199777 </v>
   <v>      -0.14600341       0.02755443       0.00165630 </v>
   <v>       0.10352723       0.11682182      -0.04084743 </v>
   <v>       0.07812890       0.21039137       0.00001401 </v>
   <v>       0.22232873       0.10693102       0.05212145 </v>
   <v>       0.00426085      -0.04043919       0.05600804 </v>
   <v>      -0.05042811       0.02703442      -0.00437010 </v>
   <v>      -0.07648473      -0.16233917      -0.03565942 </v>
   <v>      -0.15785382      -0.28679714      -0.00284234 </v>
  </varray>
  <varray name="stress" >
   <v>      -0.55533570       0.08218585      -0.40927261 </v>
   <v>       0.08218586      -0.96896375      -0.02400938 </v>
   <v>      -0.40927257      -0.02400936      -1.88138246 </v>
  </varray>
  <energy>
   <i name="e_fr_energy">   -127.11005304 </i>
   <i name="e_wo_entrp">   -127.10848623 </i>
   <i name="e_0_energy">   -127.10926963 </i>
  </energy>
  <time name="totalsc">   41.65   42.58</time>
 </calculation>
 <calculation>
  <scstep>
   <time name="dav">    5.53    5.58</time>
   <time name="total">    5.83    5.88</time>
   <energy>
    <i name="alphaZ">     58.37932579 </i>
    <i name="ewald">   4695.51777139 </i>
    <i name="hartreedc">  -6452.18479291 </i>
    <i name="XCdc">    180.67530134 </i>
    <i name="pawpsdc">   5786.80129585 </i>
    <i name="pawaedc">  -5791.23045383 </i>
    <i name="eentropy">     -0.00156268 </i>
    <i name="bandstr">   -506.74810425 </i>
    <i name="atom">   1903.26342058 </i>
    <i name="e_fr_energy">   -125.52779872 </i>
    <i name="e_wo_entrp">   -125.52623604 </i>
    <i name="e_0_energy">   -125.52701738 </i>
   </energy>
  </scstep>
  <scstep>
   <time name="dav">   11.25   11.31</time>
   <time name="total">   11.54   11.62</time>
   <energy>
    <i name="e_fr_energy">   -125.52782233 </i>
    <i name="e_wo_entrp">   -125.52625927 </i>
    <i name="e_0_energy">   -125.52704080 </i>
   </energy>
  </scstep>
  <scstep>
   <time name="dav">    8.03    8.09</time>
   <time name="total">    8.32    8.39</time>
   <energy>
    <i name="e_fr_energy">   -125.52777605 </i>
    <i name="e_wo_entrp">   -125.52621256 </i>
    <i name="e_0_energy">   -125.52699430 </i>
   </energy>
  </scstep>
  <scstep>
   <time name="dav">   11.08   11.14</time>
   <time name="total">   11.36   11.44</time>
   <energy>
    <i name="e_fr_energy">   -125.52777801 </i>
    <i name="e_wo_entrp">   -125.52621447 </i>
    <i name="e_0_energy">   -125.52699624 </i>
   </energy>
  </scstep>
  <scstep>
   <time name="dav">    7.86    7.91</time>
   <time name="total">    8.15    8.21</time>
   <energy>
    <i name="e_fr_energy">   -125.52777924 </i>
    <i name="e_wo_entrp">   -125.52621570 </i>
    <i name="e_0_energy">   -125.52699747 </i>
   </energy>
  </scstep>
  <scstep>
   <time name="dav">   10.49   10.55</time>
   <time name="total">   10.52   10.59</time>
   <energy>
    <i name="alphaZ">     58.37932579 </i>
    <i name="ewald">   4695.51777139 </i>
    <i name="hartreedc">  -6452.21301376 </i>
    <i name="XCdc">    180.67420342 </i>
    <i name="pawpsdc">   5790.59998091 </i>
    <i name="pawaedc">  -5795.03051752 </i>
    <i name="eentropy">     -0.00156352 </i>
    <i name="bandstr">   -506.71738641 </i>
    <i name="atom">   1903.26342058 </i>
    <i name="e_fr_energy">   -125.52777914 </i>
    <i name="e_wo_entrp">   -125.52621563 </i>
    <i name="e_0_energy">   -125.52699738 </i>
   </energy>
  </scstep>
  <structure>
   <crystal>
    <varray name="basis" >
     <v>       4.19416103       2.42150000       0.00000000 </v>
     <v>      -4.19416103       2.42150000       0.00000000 </v>
     <v>       0.00000000       0.00000000      15.00000000 </v>
    </varray>
    <i name="volume">    304.68482806 </i>
    <varray name="rec_basis" >
     <v>       0.11921335       0.20648358       0.00000000 </v>
     <v>      -0.11921335       0.20648358       0.00000000 </v>
     <v>       0.00000000       0.00000000       0.06666667 </v>
    </varray>
   </crystal>
   <varray name="positions" >
    <v>       0.00422533       0.00284904       0.11343385 </v>
    <v>       0.35887093       0.00248516       0.09929055 </v>
    <v>       0.00423839       0.35745207       0.09959410 </v>
    <v>       0.64984347       0.64774642       0.09949697 </v>
    <v>       0.32748452       0.32541741       0.10027426 </v>
    <v>       0.68145022       0.00271903       0.10048344 </v>
    <v>       0.00441920       0.67969695       0.10028166 </v>
    <v>       0.11094501       0.38905784       0.33735821 </v>
    <v>       0.27762342       0.22226063       0.33766672 </v>
    <v>       0.11101473       0.88913343       0.33742489 </v>
    <v>       0.27763906       0.72236910       0.33703858 </v>
    <v>       0.61093535       0.38904934       0.33703283 </v>
    <v>       0.77766683       0.22237120       0.33738339 </v>
    <v>       0.61091987       0.88896502       0.33762430 </v>
    <v>       0.77757321       0.72230579       0.33739558 </v>
   </varray>
  </structure>
  <varray name="forces" >
   <v>       0.01779357      -0.00436419      -0.18066607 </v>
   <v>      -0.08066207      -0.03896661      -0.05323032 </v>
   <v>       0.10408008      -0.04384118      -0.07403303 </v>
   <v>      -0.01090193       0.09805865      -0.06879810 </v>
   <v>      -0.01581039       0.01848047       0.12221516 </v>
   <v>      -0.00529586      -0.01769696       0.11085376 </v>
   <v>       0.01212496      -0.01103480       0.12066299 </v>
   <v>       0.01426071      -0.00235344       0.00115881 </v>
   <v>      -0.03887291       0.03150253      -0.04706847 </v>
   <v>       0.02006607      -0.02623004      -0.00246412 </v>
   <v>       0.00212000       0.00667587       0.05898292 </v>
   <v>       0.02497885      -0.01100090       0.06244089 </v>
   <v>      -0.01472678      -0.01494002      -0.00514649 </v>
   <v>      -0.01285662       0.00980529      -0.04144464 </v>
   <v>      -0.01629769       0.00590531      -0.00346329 </v>
  </varray>
  <varray name="stress" >
   <v>      -0.49765765      -0.01980227      -0.38064103 </v>
   <v>      -0.01980229      -0.45616143      -0.01749379 </v>
   <v>      -0.38064102      -0.01749378      -1.88600352 </v>
  </varray>
  <energy>
   <i name="e_fr_energy">   -127.11436440 </i>
   <i name="e_wo_entrp">   -127.11280089 </i>
   <i name="e_0_energy">   -127.11358265 </i>
  </energy>
  <time name="totalsc">   60.42   60.87</time>
 </calculation>
 <calculation>
  <scstep>
   <time name="dav">    5.48    5.51</time>
   <time name="total">    5.77    5.81</time>
   <energy>
    <i name="alphaZ">     58.37932579 </i>
    <i name="ewald">   4695.13688603 </i>
    <i name="hartreedc">  -6451.53516198 </i>
    <i name="XCdc">    180.69431746 </i>
    <i name="pawpsdc">   5790.64800889 </i>
    <i name="pawaedc">  -5795.07854445 </i>
    <i name="eentropy">     -0.00152035 </i>
    <i name="bandstr">   -507.03160441 </i>
    <i name="atom">   1903.26342058 </i>
    <i name="e_fr_energy">   -125.52487245 </i>
    <i name="e_wo_entrp">   -125.52335210 </i>
    <i name="e_0_energy">   -125.52411227 </i>
   </energy>
  </scstep>
  <scstep>
   <time name="dav">   11.29   11.37</time>
   <time name="total">   11.59   11.67</time>
   <energy>
    <i name="e_fr_energy">   -125.52497481 </i>
    <i name="e_wo_entrp">   -125.52345187 </i>
    <i name="e_0_energy">   -125.52421334 </i>
   </energy>
  </scstep>
  <scstep>
   <time name="dav">    8.53    8.58</time>
   <time name="total">    8.82    8.88</time>
   <energy>
    <i name="e_fr_energy">   -125.52478389 </i>
    <i name="e_wo_entrp">   -125.52325818 </i>
    <i name="e_0_energy">   -125.52402104 </i>
   </energy>
  </scstep>
  <scstep>
   <time name="dav">   10.81   10.88</time>
   <time name="total">   11.10   11.18</time>
   <energy>
    <i name="e_fr_energy">   -125.52479168 </i>
    <i name="e_wo_entrp">   -125.52326557 </i>
    <i name="e_0_energy">   -125.52402862 </i>
   </energy>
  </scstep>
  <scstep>
   <time name="dav">    8.40    8.45</time>
   <time name="total">    8.69    8.76</time>
   <energy>
    <i name="e_fr_energy">   -125.52479616 </i>
    <i name="e_wo_entrp">   -125.52327002 </i>
    <i name="e_0_energy">   -125.52403309 </i>
   </energy>
  </scstep>
  <scstep>
   <time name="dav">   10.16   10.22</time>
   <time name="total">   10.45   10.53</time>
   <energy>
    <i name="e_fr_energy">   -125.52479501 </i>
    <i name="e_wo_entrp">   -125.52326903 </i>
    <i name="e_0_energy">   -125.52403202 </i>
   </energy>
  </scstep>
  <scstep>
   <time name="dav">    8.73    8.79</time>
   <time name="total">    8.77    8.82</time>
   <energy>
    <i name="alphaZ">     58.37932579 </i>
    <i name="ewald">   4695.13688603 </i>
    <i name="hartreedc">  -6451.63299352 </i>
    <i name="XCdc">    180.69296750 </i>
    <i name="pawpsdc">   5797.20572563 </i>
    <i name="pawaedc">  -5801.63878148 </i>
    <i name="eentropy">     -0.00152595 </i>
    <i name="bandstr">   -506.92981938 </i>
    <i name="atom">   1903.26342058 </i>
    <i name="e_fr_energy">   -125.52479481 </i>
    <i name="e_wo_entrp">   -125.52326886 </i>
    <i name="e_0_energy">   -125.52403183 </i>
   </energy>
  </scstep>
  <structure>
   <crystal>
    <varray name="basis" >
     <v>       4.19416103       2.42150000       0.00000000 </v>
     <v>      -4.19416103       2.42150000       0.00000000 </v>
     <v>       0.00000000       0.00000000      15.00000000 </v>
    </varray>
    <i name="volume">    304.68482806 </i>
    <varray name="rec_basis" >
     <v>       0.11921335       0.20648358       0.00000000 </v>
     <v>      -0.11921335       0.20648358       0.00000000 </v>
     <v>       0.00000000       0.00000000       0.06666667 </v>
    </varray>
   </crystal>
   <varray name="positions" >
    <v>       0.00426289       0.00287436       0.11089890 </v>
    <v>       0.35964573       0.00237905       0.09985230 </v>
    <v>       0.00430245       0.35810480       0.10024198 </v>
    <v>       0.64926042       0.64693634       0.10012096 </v>
    <v>       0.32808299       0.32584262       0.10037880 </v>
    <v>       0.68095934       0.00264402       0.10066099 </v>
    <v>       0.00448652       0.67917766       0.10040187 </v>
    <v>       0.11063846       0.38960910       0.33739151 </v>
    <v>       0.27831328       0.22244339       0.33775664 </v>
    <v>       0.11210006       0.88997745       0.33747964 </v>
    <v>       0.27858403       0.72232196       0.33701922 </v>
    <v>       0.61070648       0.38895649       0.33701661 </v>
    <v>       0.77765087       0.22267505       0.33741787 </v>
    <v>       0.60996831       0.88845960       0.33770601 </v>
    <v>       0.77588773       0.72147656       0.33743603 </v>
   </varray>
  </structure>
  <varray name="forces" >
   <v>       0.02532091      -0.00610073      -0.15246796 </v>
   <v>      -0.14666434      -0.07408864      -0.07097829 </v>
   <v>       0.15520920      -0.07397627      -0.10202018 </v>
   <v>      -0.01708921       0.16286760      -0.09403174 </v>
   <v>      -0.01797008      -0.07647194       0.14130435 </v>
   <v>       0.08434293       0.03459821       0.12286028 </v>
   <v>      -0.06386244       0.03345466       0.13773935 </v>
   <v>       0.32918578      -0.06242327       0.00052740 </v>
   <v>      -0.32040137      -0.14036116      -0.05933831 </v>
   <v>      -0.08590621      -0.48202825      -0.00770547 </v>
   <v>      -0.44093210      -0.20198683       0.07241198 </v>
   <v>       0.06822632       0.04970423       0.07510578 </v>
   <v>       0.05569733      -0.09740861      -0.00650401 </v>
   <v>       0.11955072       0.36146640      -0.05242826 </v>
   <v>       0.25529256       0.57275459      -0.00447492 </v>
  </varray>
  <varray name="stress" >
   <v>      -0.35861404      -0.13773408      -0.32696588 </v>
   <v>      -0.13773408       0.65775368      -0.00247772 </v>
   <v>      -0.32696589      -0.00247770      -1.92599757 </v>
  </varray>
  <energy>
   <i name="e_fr_energy">   -127.11092756 </i>
   <i name="e_wo_entrp">   -127.10940161 </i>
   <i name="e_0_energy">   -127.11016458 </i>
  </energy>
  <time name="totalsc">   69.87   70.39</time>
 </calculation>
 <calculation>
  <scstep>
   <time name="dav">    5.48    5.51</time>
   <time name="total">    5.77    5.82</time>
   <energy>
    <i name="alphaZ">     58.37932579 </i>
    <i name="ewald">   4695.44393554 </i>
    <i name="hartreedc">  -6452.14268836 </i>
    <i name="XCdc">    180.68014454 </i>
    <i name="pawpsdc">   5797.19732847 </i>
    <i name="pawaedc">  -5801.63038405 </i>
    <i name="eentropy">     -0.00155883 </i>
    <i name="bandstr">   -506.71810964 </i>
    <i name="atom">   1903.26342058 </i>
    <i name="e_fr_energy">   -125.52858598 </i>
    <i name="e_wo_entrp">   -125.52702714 </i>
    <i name="e_0_energy">   -125.52780656 </i>
   </energy>
  </scstep>
  <scstep>
   <time name="dav">   11.64   11.71</time>
   <time name="total">   11.92   12.01</time>
   <energy>
    <i name="e_fr_energy">   -125.52862990 </i>
    <i name="e_wo_entrp">   -125.52707191 </i>
    <i name="e_0_energy">   -125.52785090 </i>
   </energy>
  </scstep>
  <scstep>
   <time name="dav">    8.88    8.95</time>
   <time name="total">    9.17    9.25</time>
   <energy>
    <i name="e_fr_energy">   -125.52853371 </i>
    <i name="e_wo_entrp">   -125.52697669 </i>
    <i name="e_0_energy">   -125.52775520 </i>
   </energy>
  </scstep>
  <scstep>
   <time name="dav">   10.55   10.61</time>
   <time name="total">   10.84   10.92</time>
   <energy>
    <i name="e_fr_energy">   -125.52853845 </i>
    <i name="e_wo_entrp">   -125.52698155 </i>
    <i name="e_0_energy">   -125.52776000 </i>
   </energy>
  </scstep>
  <scstep>
   <time name="dav">    9.16    9.23</time>
   <time name="total">    9.45    9.53</time>
   <energy>
    <i name="e_fr_energy">   -125.52854129 </i>
    <i name="e_wo_entrp">   -125.52698441 </i>
    <i name="e_0_energy">   -125.52776285 </i>
   </energy>
  </scstep>
  <scstep>
   <time name="dav">    7.76    7.81</time>
   <time name="total">    7.79    7.85</time>
   <energy>
    <i name="alphaZ">     58.37932579 </i>
    <i name="ewald">   4695.44393554 </i>
    <i name="hartreedc">  -6452.08255309 </i>
    <i name="XCdc">    180.68001018 </i>
    <i name="pawpsdc">   5792.68529659 </i>
    <i name="pawaedc">  -5797.11657182 </i>
    <i name="eentropy">     -0.00155694 </i>
    <i name="bandstr">   -506.77984797 </i>
    <i name="atom">   1903.26342058 </i>
    <i name="e_fr_energy">   -125.52854115 </i>
    <i name="e_wo_entrp">   -125.52698420 </i>
    <i name="e_0_energy">   -125.52776267 </i>
   </energy>
  </scstep>
  <structure>
   <crystal>
    <varray name="basis" >
     <v>       4.19416103       2.42150000       0.00000000 </v>
     <v>      -4.19416103       2.42150000       0.00000000 </v>
     <v>       0.00000000       0.00000000      15.00000000 </v>
    </varray>
    <i name="volume">    304.68482806 </i>
    <varray name="rec_basis" >
     <v>       0.11921335       0.20648358       0.00000000 </v>
     <v>      -0.11921335       0.20648358       0.00000000 </v>
     <v>       0.00000000       0.00000000       0.06666667 </v>
    </varray>
   </crystal>
   <varray name="positions" >
    <v>       0.00423609       0.00285629       0.11270759 </v>
    <v>       0.35909291       0.00245476       0.09945149 </v>
    <v>       0.00425675       0.35763908       0.09977972 </v>
    <v>       0.64967643       0.64751433       0.09967574 </v>
    <v>       0.32765598       0.32553923       0.10030421 </v>
    <v>       0.68130958       0.00269754       0.10053431 </v>
    <v>       0.00443849       0.67954817       0.10031610 </v>
    <v>       0.11085718       0.38921578       0.33736775 </v>
    <v>       0.27782106       0.22231299       0.33769248 </v>
    <v>       0.11132568       0.88937524       0.33744058 </v>
    <v>       0.27790980       0.72235559       0.33703303 </v>
    <v>       0.61086978       0.38902274       0.33702818 </v>
    <v>       0.77766226       0.22245826       0.33739327 </v>
    <v>       0.61064725       0.88882022       0.33764771 </v>
    <v>       0.77709032       0.72206822       0.33740717 </v>
   </varray>
  </structure>
  <varray name="forces" >
   <v>       0.01996758      -0.00485607      -0.17101195 </v>
   <v>      -0.09790850      -0.04808460      -0.05850826 </v>
   <v>       0.11714911      -0.05154198      -0.08225203 </v>
[...]
       <r>     2.7465     0.9805    30.8897 </r>
       <r>     2.8532     0.5911    30.9528 </r>
       <r>     2.9599     1.0721    31.0672 </r>
       <r>     3.0667     1.5347    31.2310 </r>
       <r>     3.1734     1.1865    31.3577 </r>
       <r>     3.2801     1.2856    31.4949 </r>
       <r>     3.3869     1.3319    31.6371 </r>
       <r>     3.4936     1.1716    31.7621 </r>
       <r>     3.6004     2.0689    31.9829 </r>
       <r>     3.7071     2.8134    32.2832 </r>
       <r>     3.8138     3.1388    32.6183 </r>
       <r>     3.9206     2.7962    32.9167 </r>
       <r>     4.0273     2.9155    33.2279 </r>
       <r>     4.1340     2.9485    33.5426 </r>
       <r>     4.2408     3.4460    33.9104 </r>
       <r>     4.3475     3.1503    34.2467 </r>
       <r>     4.4542     3.0900    34.5765 </r>
       <r>     4.5610     2.8898    34.8850 </r>
       <r>     4.6677     2.6346    35.1662 </r>
       <r>     4.7745     3.3249    35.5210 </r>
       <r>     4.8812     3.2045    35.8631 </r>
       <r>     4.9879     2.8251    36.1646 </r>
       <r>     5.0947     3.2386    36.5103 </r>
       <r>     5.2014     3.3398    36.8668 </r>
       <r>     5.3081     2.9933    37.1863 </r>
       <r>     5.4149     2.8374    37.4891 </r>
       <r>     5.5216     2.8641    37.7948 </r>
       <r>     5.6283     3.5187    38.1704 </r>
       <r>     5.7351     2.9067    38.4806 </r>
       <r>     5.8418     2.7535    38.7745 </r>
       <r>     5.9486     2.4632    39.0375 </r>
       <r>     6.0553     2.6782    39.3233 </r>
       <r>     6.1620     2.0681    39.5441 </r>
       <r>     6.2688     2.1943    39.7783 </r>
       <r>     6.3755     2.9924    40.0977 </r>
       <r>     6.4822     3.0218    40.4202 </r>
       <r>     6.5890     3.2083    40.7627 </r>
       <r>     6.6957     3.3724    41.1226 </r>
       <r>     6.8024     4.2252    41.5736 </r>
       <r>     6.9092     3.7338    41.9721 </r>
       <r>     7.0159     3.2952    42.3239 </r>
       <r>     7.1227     3.0989    42.6546 </r>
       <r>     7.2294     2.7309    42.9461 </r>
       <r>     7.3361     2.3594    43.1979 </r>
       <r>     7.4429     2.5910    43.4745 </r>
       <r>     7.5496     2.8981    43.7838 </r>
       <r>     7.6563     2.8957    44.0929 </r>
       <r>     7.7631     3.4847    44.4649 </r>
       <r>     7.8698     4.4464    44.9394 </r>
       <r>     7.9766     3.9309    45.3590 </r>
       <r>     8.0833     3.9331    45.7788 </r>
       <r>     8.1900     4.2998    46.2378 </r>
       <r>     8.2968     3.7893    46.6422 </r>
       <r>     8.4035     4.7112    47.1451 </r>
       <r>     8.5102     4.0994    47.5826 </r>
       <r>     8.6170     2.0564    47.8021 </r>
       <r>     8.7237     0.9674    47.9054 </r>
       <r>     8.8304     0.4711    47.9557 </r>
       <r>     8.9372     0.3406    47.9920 </r>
       <r>     9.0439     0.0719    47.9997 </r>
       <r>     9.1507     0.0026    48.0000 </r>
       <r>     9.2574     0.0000    48.0000 </r>
       <r>     9.3641     0.0000    48.0000 </r>
       <r>     9.4709     0.0000    48.0000 </r>
       <r>     9.5776     0.0000    48.0000 </r>
       <r>     9.6843     0.0000    48.0000 </r>
       <r>     9.7911     0.0000    48.0000 </r>
       <r>     9.8978     0.0000    48.0000 </r>
       <r>    10.0045     0.0000    48.0000 </r>
       <r>    10.1113     0.0000    48.0000 </r>
       <r>    10.2180     0.0000    48.0000 </r>
       <r>    10.3248     0.0000    48.0000 </r>
      </set>
      <set comment="spin 2">
       <r>   -21.6962     0.0000     0.0000 </r>
       <r>   -21.5895     0.0000     0.0000 </r>
       <r>   -21.4828     0.0000     0.0000 </r>
       <r>   -21.3760     0.0000     0.0000 </r>
       <r>   -21.2693     0.0000     0.0000 </r>
       <r>   -21.1625     0.0000     0.0000 </r>
       <r>   -21.0558     0.0000     0.0000 </r>
       <r>   -20.9491     0.0000     0.0000 </r>
       <r>   -20.8423     0.0000     0.0000 </r>
       <r>   -20.7356     0.0000     0.0000 </r>
       <r>   -20.6289     0.0000     0.0000 </r>
       <r>   -20.5221     0.0000     0.0000 </r>
       <r>   -20.4154     0.0009     0.0001 </r>
       <r>   -20.3086     0.0346     0.0038 </r>
       <r>   -20.2019     0.2521     0.0307 </r>
       <r>   -20.0952     0.5304     0.0873 </r>
       <r>   -19.9884     0.5773     0.1489 </r>
       <r>   -19.8817     0.6311     0.2163 </r>
       <r>   -19.7750     0.5305     0.2729 </r>
       <r>   -19.6682     0.6873     0.3463 </r>
       <r>   -19.5615     0.5407     0.4040 </r>
       <r>   -19.4548     0.5403     0.4617 </r>
       <r>   -19.3480     0.7685     0.5437 </r>
       <r>   -19.2413     0.4914     0.5961 </r>
       <r>   -19.1345     0.4904     0.6485 </r>
       <r>   -19.0278     0.7801     0.7317 </r>
       <r>   -18.9211     0.6699     0.8032 </r>
       <r>   -18.8143     0.3824     0.8440 </r>
       <r>   -18.7076     0.5469     0.9024 </r>
       <r>   -18.6009     0.8855     0.9969 </r>
       <r>   -18.4941     0.5899     1.0599 </r>
       <r>   -18.3874     0.4874     1.1119 </r>
       <r>   -18.2807     0.3761     1.1521 </r>
       <r>   -18.1739     0.8330     1.2410 </r>
       <r>   -18.0672     0.8554     1.3323 </r>
       <r>   -17.9604     0.4621     1.3816 </r>
       <r>   -17.8537     0.4134     1.4257 </r>
       <r>   -17.7470     0.5213     1.4814 </r>
       <r>   -17.6402     0.7804     1.5647 </r>
       <r>   -17.5335     0.8760     1.6582 </r>
       <r>   -17.4268     0.7484     1.7380 </r>
       <r>   -17.3200     0.8973     1.8338 </r>
       <r>   -17.2133     1.3029     1.9729 </r>
       <r>   -17.1066     1.8640     2.1718 </r>
       <r>   -16.9998     2.0248     2.3880 </r>
       <r>   -16.8931     2.2454     2.6276 </r>
       <r>   -16.7863     2.6895     2.9147 </r>
       <r>   -16.6796     1.9815     3.1262 </r>
       <r>   -16.5729     0.5645     3.1864 </r>
       <r>   -16.4661     0.8770     3.2800 </r>
       <r>   -16.3594     1.0701     3.3943 </r>
       <r>   -16.2527     0.5925     3.4575 </r>
       <r>   -16.1459     0.5351     3.5146 </r>
       <r>   -16.0392     0.4897     3.5669 </r>
       <r>   -15.9324     0.4975     3.6200 </r>
       <r>   -15.8257     0.4457     3.6676 </r>
       <r>   -15.7190     0.9957     3.7738 </r>
       <r>   -15.6122     1.0655     3.8876 </r>
       <r>   -15.5055     0.5205     3.9431 </r>
       <r>   -15.3988     0.4948     3.9959 </r>
       <r>   -15.2920     0.4266     4.0415 </r>
       <r>   -15.1853     0.5765     4.1030 </r>
       <r>   -15.0786     0.7803     4.1863 </r>
       <r>   -14.9718     1.3966     4.3354 </r>
       <r>   -14.8651     2.2168     4.5720 </r>
       <r>   -14.7583     2.3793     4.8259 </r>
       <r>   -14.6516     2.1858     5.0592 </r>
       <r>   -14.5449     1.4426     5.2132 </r>
       <r>   -14.4381     0.9758     5.3174 </r>
       <r>   -14.3314     1.7986     5.5093 </r>
       <r>   -14.2247     2.0234     5.7253 </r>
       <r>   -14.1179     1.5111     5.8866 </r>
       <r>   -14.0112     1.3736     6.0332 </r>
       <r>   -13.9045     1.6016     6.2042 </r>
       <r>   -13.7977     2.4885     6.4698 </r>
       <r>   -13.6910     2.4785     6.7343 </r>
       <r>   -13.5842     2.3103     6.9809 </r>
       <r>   -13.4775     1.4265     7.1332 </r>
       <r>   -13.3708     0.8503     7.2240 </r>
       <r>   -13.2640     0.4290     7.2697 </r>
       <r>   -13.1573     0.4901     7.3221 </r>
       <r>   -13.0506     0.8434     7.4121 </r>
       <r>   -12.9438     0.9098     7.5092 </r>
       <r>   -12.8371     0.6167     7.5750 </r>
       <r>   -12.7303     0.8284     7.6634 </r>
       <r>   -12.6236     0.9166     7.7613 </r>
       <r>   -12.5169     0.7230     7.8384 </r>
       <r>   -12.4101     0.7010     7.9133 </r>
       <r>   -12.3034     0.4432     7.9606 </r>
       <r>   -12.1967     0.7421     8.0398 </r>
       <r>   -12.0899     1.0584     8.1527 </r>
       <r>   -11.9832     0.4804     8.2040 </r>
       <r>   -11.8765     0.4140     8.2482 </r>
       <r>   -11.7697     0.4331     8.2944 </r>
       <r>   -11.6630     0.7047     8.3697 </r>
       <r>   -11.5562     0.8886     8.4645 </r>
       <r>   -11.4495     0.5448     8.5227 </r>
       <r>   -11.3428     0.2294     8.5471 </r>
       <r>   -11.2360     0.5611     8.6070 </r>
       <r>   -11.1293     0.7464     8.6867 </r>
       <r>   -11.0226     0.6705     8.7583 </r>
       <r>   -10.9158     0.9470     8.8594 </r>
       <r>   -10.8091     0.8538     8.9505 </r>
       <r>   -10.7024     0.3321     8.9859 </r>
       <r>   -10.5956     0.9927     9.0919 </r>
       <r>   -10.4889     1.6426     9.2672 </r>
       <r>   -10.3821     1.9611     9.4765 </r>
       <r>   -10.2754     1.9411     9.6837 </r>
       <r>   -10.1687     1.8980     9.8863 </r>
       <r>   -10.0619     2.2461    10.1261 </r>
       <r>    -9.9552     2.3055    10.3721 </r>
       <r>    -9.8485     1.3031    10.5112 </r>
       <r>    -9.7417     0.9720    10.6150 </r>
       <r>    -9.6350     1.7703    10.8039 </r>
       <r>    -9.5283     1.8110    10.9972 </r>
       <r>    -9.4215     2.0822    11.2195 </r>
       <r>    -9.3148     2.1545    11.4494 </r>
       <r>    -9.2080     1.8061    11.6422 </r>
       <r>    -9.1013     1.3167    11.7828 </r>
       <r>    -8.9946     0.8904    11.8778 </r>
       <r>    -8.8878     1.9828    12.0894 </r>
       <r>    -8.7811     2.6990    12.3775 </r>
       <r>    -8.6744     1.9283    12.5833 </r>
       <r>    -8.5676     0.9968    12.6897 </r>
       <r>    -8.4609     1.3573    12.8346 </r>
       <r>    -8.3541     2.5605    13.1079 </r>
       <r>    -8.2474     2.4144    13.3656 </r>
       <r>    -8.1407     1.5417    13.5302 </r>
       <r>    -8.0339     2.0496    13.7489 </r>
       <r>    -7.9272     3.1184    14.0818 </r>
       <r>    -7.8205     3.1347    14.4164 </r>
       <r>    -7.7137     2.6166    14.6957 </r>
       <r>    -7.6070     1.4058    14.8457 </r>
       <r>    -7.5003     0.9615    14.9483 </r>
       <r>    -7.3935     2.2543    15.1890 </r>
       <r>    -7.2868     2.3707    15.4420 </r>
       <r>    -7.1800     1.5837    15.6110 </r>
       <r>    -7.0733     1.4010    15.7606 </r>
       <r>    -6.9666     2.0946    15.9842 </r>
       <r>    -6.8598     2.3083    16.2305 </r>
       <r>    -6.7531     2.5067    16.4981 </r>
       <r>    -6.6464     2.7830    16.7951 </r>
       <r>    -6.5396     2.4023    17.0516 </r>
       <r>    -6.4329     2.6827    17.3379 </r>
       <r>    -6.3262     2.2093    17.5737 </r>
       <r>    -6.2194     2.2850    17.8176 </r>
       <r>    -6.1127     3.3517    18.1753 </r>
       <r>    -6.0059     2.9410    18.4893 </r>
       <r>    -5.8992     3.9787    18.9139 </r>
       <r>    -5.7925     3.6313    19.3015 </r>
       <r>    -5.6857     2.2219    19.5387 </r>
       <r>    -5.5790     2.4736    19.8027 </r>
       <r>    -5.4723     4.1109    20.2415 </r>
       <r>    -5.3655     4.4976    20.7215 </r>
       <r>    -5.2588     2.9581    21.0373 </r>
       <r>    -5.1521     2.1719    21.2691 </r>
       <r>    -5.0453     1.3305    21.4111 </r>
       <r>    -4.9386     1.2824    21.5480 </r>
       <r>    -4.8318     1.8073    21.7409 </r>
       <r>    -4.7251     1.4881    21.8997 </r>
       <r>    -4.6184     1.0300    22.0097 </r>
       <r>    -4.5116     1.1062    22.1277 </r>
       <r>    -4.4049     1.9772    22.3388 </r>
       <r>    -4.2982     2.9525    22.6539 </r>
       <r>    -4.1914     2.5164    22.9225 </r>
       <r>    -4.0847     2.3429    23.1726 </r>
       <r>    -3.9779     2.6922    23.4600 </r>
       <r>    -3.8712     3.1827    23.7997 </r>
       <r>    -3.7645     2.3939    24.0552 </r>
       <r>    -3.6577     2.3655    24.3077 </r>
       <r>    -3.5510     2.5832    24.5834 </r>
       <r>    -3.4443     2.0827    24.8057 </r>
       <r>    -3.3375     1.6716    24.9841 </r>
       <r>    -3.2308     1.6402    25.1592 </r>
       <r>    -3.1241     2.2566    25.4000 </r>
       <r>    -3.0173     2.3214    25.6478 </r>
       <r>    -2.9106     1.5456    25.8128 </r>
       <r>    -2.8038     1.5729    25.9807 </r>
       <r>    -2.6971     1.0069    26.0881 </r>
       <r>    -2.5904     1.2189    26.2182 </r>
       <r>    -2.4836     2.3128    26.4651 </r>
       <r>    -2.3769     2.0755    26.6866 </r>
       <r>    -2.2702     0.5885    26.7495 </r>
       <r>    -2.1634     0.6501    26.8188 </r>
       <r>    -2.0567     1.3275    26.9605 </r>
       <r>    -1.9500     1.2309    27.0919 </r>
       <r>    -1.8432     1.3959    27.2409 </r>
       <r>    -1.7365     1.4237    27.3929 </r>
       <r>    -1.6297     1.2773    27.5292 </r>
       <r>    -1.5230     0.9755    27.6333 </r>
       <r>    -1.4163     0.5235    27.6892 </r>
       <r>    -1.3095     0.5179    27.7445 </r>
       <r>    -1.2028     0.5380    27.8019 </r>
       <r>    -1.0961     0.4401    27.8489 </r>
       <r>    -0.9893     0.7134    27.9250 </r>
       <r>    -0.8826     0.4613    27.9743 </r>
       <r>    -0.7758     0.0986    27.9848 </r>
       <r>    -0.6691     0.0120    27.9861 </r>
       <r>    -0.5624     0.0004    27.9861 </r>
       <r>    -0.4556     0.0041    27.9865 </r>
       <r>    -0.3489     0.0635    27.9933 </r>
       <r>    -0.2422     0.1422    28.0085 </r>
       <r>    -0.1354     0.0482    28.0136 </r>
       <r>    -0.0287     0.0023    28.0139 </r>
       <r>     0.0780     0.0000    28.0139 </r>
       <r>     0.1848     0.0019    28.0141 </r>
       <r>     0.2915     0.0727    28.0219 </r>
       <r>     0.3983     0.3780    28.0622 </r>
       <r>     0.5050     0.2985    28.0941 </r>
       <r>     0.6117     0.1335    28.1083 </r>
       <r>     0.7185     0.4647    28.1579 </r>
       <r>     0.8252     0.7634    28.2394 </r>
       <r>     0.9319     1.3168    28.3800 </r>
       <r>     1.0387     3.0376    28.7042 </r>
       <r>     1.1454     2.5252    28.9737 </r>
       <r>     1.2521     0.6912    29.0475 </r>
       <r>     1.3589     0.3588    29.0858 </r>
       <r>     1.4656     0.8723    29.1789 </r>
       <r>     1.5724     1.8154    29.3727 </r>
       <r>     1.6791     2.5485    29.6447 </r>
       <r>     1.7858     1.8861    29.8460 </r>
       <r>     1.8926     0.9654    29.9490 </r>
       <r>     1.9993     0.9433    30.0497 </r>
       <r>     2.1060     1.3184    30.1904 </r>
       <r>     2.2128     0.8909    30.2855 </r>
       <r>     2.3195     1.0862    30.4015 </r>
       <r>     2.4262     0.9272    30.5004 </r>
       <r>     2.5330     1.1141    30.6194 </r>
       <r>     2.6397     1.5524    30.7850 </r>
       <r>     2.7465     0.9805    30.8897 </r>
       <r>     2.8532     0.5911    30.9528 </r>
       <r>     2.9599     1.0720    31.0672 </r>
       <r>     3.0667     1.5347    31.2310 </r>
       <r>     3.1734     1.1865    31.3577 </r>
       <r>     3.2801     1.2856    31.4949 </r>
       <r>     3.3869     1.3319    31.6371 </r>
       <r>     3.4936     1.1716    31.7621 </r>
       <r>     3.6004     2.0689    31.9829 </r>
       <r>     3.7071     2.8135    32.2832 </r>
       <r>     3.8138     3.1389    32.6183 </r>
       <r>     3.9206     2.7962    32.9167 </r>
       <r>     4.0273     2.9154    33.2279 </r>
       <r>     4.1340     2.9484    33.5426 </r>
       <r>     4.2408     3.4460    33.9104 </r>
       <r>     4.3475     3.1504    34.2467 </r>
       <r>     4.4542     3.0899    34.5765 </r>
       <r>     4.5610     2.8896    34.8849 </r>
       <r>     4.6677     2.6342    35.1661 </r>
       <r>     4.7745     3.3244    35.5209 </r>
       <r>     4.8812     3.2045    35.8630 </r>
       <r>     4.9879     2.8252    36.1645 </r>
       <r>     5.0947     3.2386    36.5102 </r>
       <r>     5.2014     3.3395    36.8666 </r>
       <r>     5.3081     2.9930    37.1861 </r>
       <r>     5.4149     2.8382    37.4890 </r>
       <r>     5.5216     2.8638    37.7947 </r>
       <r>     5.6283     3.5186    38.1703 </r>
       <r>     5.7351     2.9062    38.4805 </r>
       <r>     5.8418     2.7545    38.7745 </r>
       <r>     5.9486     2.4636    39.0374 </r>
       <r>     6.0553     2.6780    39.3233 </r>
       <r>     6.1620     2.0674    39.5439 </r>
       <r>     6.2688     2.1937    39.7781 </r>
       <r>     6.3755     2.9929    40.0975 </r>
       <r>     6.4822     3.0227    40.4202 </r>
       <r>     6.5890     3.2077    40.7626 </r>
       <r>     6.6957     3.3719    41.1225 </r>
       <r>     6.8024     4.2250    41.5734 </r>
       <r>     6.9092     3.7344    41.9720 </r>
       <r>     7.0159     3.2953    42.3237 </r>
       <r>     7.1227     3.0990    42.6545 </r>
       <r>     7.2294     2.7309    42.9460 </r>
       <r>     7.3361     2.3596    43.1979 </r>
       <r>     7.4429     2.5890    43.4742 </r>
       <r>     7.5496     2.8983    43.7836 </r>
       <r>     7.6563     2.8958    44.0926 </r>
       <r>     7.7631     3.4829    44.4644 </r>
       <r>     7.8698     4.4445    44.9388 </r>
       <r>     7.9766     3.9330    45.3586 </r>
       <r>     8.0833     3.9343    45.7785 </r>
       <r>     8.1900     4.3012    46.2376 </r>
       <r>     8.2968     3.7905    46.6422 </r>
       <r>     8.4035     4.7108    47.1450 </r>
       <r>     8.5102     4.0998    47.5826 </r>
       <r>     8.6170     2.0568    47.8021 </r>
       <r>     8.7237     0.9674    47.9054 </r>
       <r>     8.8304     0.4712    47.9557 </r>
       <r>     8.9372     0.3406    47.9920 </r>
       <r>     9.0439     0.0719    47.9997 </r>
       <r>     9.1507     0.0026    48.0000 </r>
       <r>     9.2574     0.0000    48.0000 </r>
       <r>     9.3641     0.0000    48.0000 </r>
       <r>     9.4709     0.0000    48.0000 </r>
       <r>     9.5776     0.0000    48.0000 </r>
       <r>     9.6843     0.0000    48.0000 </r>
       <r>     9.7911     0.0000    48.0000 </r>
       <r>     9.8978     0.0000    48.0000 </r>
       <r>    10.0045     0.0000    48.0000 </r>
       <r>    10.1113     0.0000    48.0000 </r>
       <r>    10.2180     0.0000    48.0000 </r>
       <r>    10.3248     0.0000    48.0000 </r>
      </set>
     </set>
    </array>
   </total>
  </dos>
 </calculation>
 <structure name="finalpos" >
  <crystal>
   <varray name="basis" >
    <v>       4.19416103       2.42150000       0.00000000 </v>
    <v>      -4.19416103       2.42150000       0.00000000 </v>
    <v>       0.00000000       0.00000000      15.00000000 </v>
   </varray>
   <i name="volume">    304.68482806 </i>
   <varray name="rec_basis" >
    <v>       0.11921335       0.20648358       0.00000000 </v>
    <v>      -0.11921335       0.20648358       0.00000000 </v>
    <v>       0.00000000       0.00000000       0.06666667 </v>
   </varray>
  </crystal>
  <varray name="positions" >
   <v>       0.02615185      -0.01693050       0.10368213 </v>
   <v>       0.38123554      -0.01690209       0.10029756 </v>
   <v>       0.02610315       0.33809129       0.10027796 </v>
   <v>       0.67131755       0.62798113       0.10029742 </v>
   <v>       0.35006505       0.30655311       0.10053117 </v>
   <v>       0.70277199      -0.01671809       0.10075413 </v>
   <v>       0.02618658       0.65924304       0.10057024 </v>
   <v>       0.09178761       0.40612522       0.33816501 </v>
   <v>       0.25848837       0.23955629       0.33820555 </v>
   <v>       0.09180954       0.90612301       0.33818826 </v>
   <v>       0.25852238       0.73953350       0.33813638 </v>
   <v>       0.59178388       0.40611828       0.33818592 </v>
   <v>       0.75844959       0.23947765       0.33810003 </v>
   <v>       0.59176805       0.90613517       0.33825601 </v>
   <v>       0.75840842       0.73949144       0.33813156 </v>
  </varray>
 </structure>
</modeling>
