  16  16   0   4
  0.2019206E+02  0.4987000E-09  0.4987000E-09  0.1500000E-08  0.5000000E-15
  1.000000000000000E-004
  CAR 
 Lattice                                 
      9.72927204    -21.11097587  301     -0.32417279      1.00000000
    -21.111  0.0000E+00  0.0000E+00  0.0000E+00  0.0000E+00
    -21.008  0.0000E+00  0.0000E+00  0.0000E+00  0.0000E+00
    -20.905  0.0000E+00  0.0000E+00  0.0000E+00  0.0000E+00
    -20.803  0.0000E+00  0.0000E+00  0.0000E+00  0.0000E+00
    -20.700  0.0000E+00  0.0000E+00  0.0000E+00  0.0000E+00
    -20.597  0.0000E+00  0.0000E+00  0.0000E+00  0.0000E+00
    -20.494  0.0000E+00  0.0000E+00  0.0000E+00  0.0000E+00
    -20.391  0.0000E+00  0.0000E+00  0.0000E+00  0.0000E+00
    -20.289  0.5859E-19  0.5859E-19  0.6023E-20  0.6023E-20
    -20.186  0.4590E-14  0.4591E-14  0.4719E-15  0.4719E-15
    -20.083  0.4039E-10  0.4039E-10  0.4152E-11  0.4153E-11
    -19.980  0.5042E-07  0.5042E-07  0.5187E-08  0.5188E-08
    -19.877  0.9666E-05  0.9666E-05  0.9988E-06  0.9989E-06
    -19.775  0.3134E-03  0.3134E-03  0.3322E-04  0.3322E-04
    -19.672  0.2086E-02  0.2086E-02  0.2477E-03  0.2477E-03
    -19.569  0.4314E-02  0.4314E-02  0.6912E-03  0.6912E-03
    -19.466  0.4780E-02  0.4780E-02  0.1183E-02  0.1183E-02
    -19.363  0.5117E-02  0.5117E-02  0.1709E-02  0.1709E-02
    -19.261  0.4467E-02  0.4467E-02  0.2168E-02  0.2168E-02
    -19.158  0.5590E-02  0.5590E-02  0.2742E-02  0.2742E-02
    -19.055  0.4360E-02  0.4360E-02  0.3191E-02  0.3191E-02
    -18.952  0.4715E-02  0.4715E-02  0.3675E-02  0.3675E-02
    -18.849  0.6130E-02  0.6130E-02  0.4306E-02  0.4306E-02
    -18.747  0.3851E-02  0.3851E-02  0.4701E-02  0.4701E-02
    -18.644  0.4466E-02  0.4466E-02  0.5161E-02  0.5161E-02
    -18.541  0.6384E-02  0.6384E-02  0.5817E-02  0.5817E-02
    -18.438  0.5133E-02  0.5133E-02  0.6344E-02  0.6344E-02
    -18.335  0.3042E-02  0.3042E-02  0.6657E-02  0.6657E-02
    -18.233  0.5359E-02  0.5359E-02  0.7208E-02  0.7208E-02
    -18.130  0.6896E-02  0.6896E-02  0.7917E-02  0.7917E-02
    -18.027  0.4525E-02  0.4525E-02  0.8382E-02  0.8382E-02
    -17.924  0.3721E-02  0.3721E-02  0.8765E-02  0.8765E-02
    -17.821  0.3809E-02  0.3809E-02  0.9156E-02  0.9156E-02
    -17.719  0.7495E-02  0.7495E-02  0.9927E-02  0.9927E-02
    -17.616  0.6087E-02  0.6087E-02  0.1055E-01  0.1055E-01
    -17.513  0.3291E-02  0.3291E-02  0.1089E-01  0.1089E-01
    -17.410  0.3847E-02  0.3847E-02  0.1129E-01  0.1129E-01
    -17.307  0.4769E-02  0.4769E-02  0.1178E-01  0.1178E-01
    -17.205  0.7198E-02  0.7198E-02  0.1252E-01  0.1252E-01
    -17.102  0.6346E-02  0.6346E-02  0.1317E-01  0.1317E-01
    -16.999  0.4213E-02  0.4213E-02  0.1360E-01  0.1360E-01
    -16.896  0.2315E-02  0.2315E-02  0.1384E-01  0.1384E-01
    -16.793  0.5015E-02  0.5015E-02  0.1436E-01  0.1436E-01
    -16.691  0.7269E-02  0.7269E-02  0.1510E-01  0.1510E-01
    -16.588  0.6361E-02  0.6361E-02  0.1576E-01  0.1576E-01
    -16.485  0.5203E-02  0.5203E-02  0.1629E-01  0.1629E-01
    -16.382  0.4410E-02  0.4410E-02  0.1674E-01  0.1674E-01
    -16.279  0.2467E-02  0.2467E-02  0.1700E-01  0.1700E-01
    -16.177  0.4421E-02  0.4422E-02  0.1745E-01  0.1745E-01
    -16.074  0.9269E-02  0.9269E-02  0.1841E-01  0.1841E-01
    -15.971  0.6819E-02  0.6819E-02  0.1911E-01  0.1911E-01
    -15.868  0.8012E-02  0.8012E-02  0.1993E-01  0.1993E-01
    -15.765  0.9858E-02  0.9858E-02  0.2094E-01  0.2094E-01
    -15.663  0.1055E-01  0.1055E-01  0.2203E-01  0.2203E-01
    -15.560  0.9803E-02  0.9803E-02  0.2304E-01  0.2304E-01
    -15.457  0.1409E-01  0.1409E-01  0.2448E-01  0.2448E-01
    -15.354  0.1605E-01  0.1605E-01  0.2613E-01  0.2613E-01
    -15.251  0.1296E-01  0.1296E-01  0.2747E-01  0.2747E-01
    -15.149  0.1243E-01  0.1243E-01  0.2874E-01  0.2874E-01
    -15.046  0.1440E-01  0.1440E-01  0.3022E-01  0.3022E-01
    -14.943  0.1119E-01  0.1119E-01  0.3137E-01  0.3137E-01
    -14.840  0.1041E-01  0.1041E-01  0.3244E-01  0.3244E-01
    -14.737  0.1154E-01  0.1154E-01  0.3363E-01  0.3363E-01
    -14.635  0.1051E-01  0.1051E-01  0.3471E-01  0.3471E-01
    -14.532  0.8360E-02  0.8360E-02  0.3557E-01  0.3557E-01
    -14.429  0.7911E-02  0.7911E-02  0.3638E-01  0.3638E-01
    -14.326  0.7140E-02  0.7140E-02  0.3712E-01  0.3712E-01
    -14.223  0.1010E-01  0.1010E-01  0.3816E-01  0.3816E-01
    -14.121  0.1697E-01  0.1697E-01  0.3990E-01  0.3990E-01
    -14.018  0.1178E-01  0.1178E-01  0.4111E-01  0.4111E-01
    -13.915  0.5558E-02  0.5558E-02  0.4168E-01  0.4168E-01
    -13.812  0.5392E-02  0.5392E-02  0.4224E-01  0.4224E-01
    -13.709  0.4845E-02  0.4845E-02  0.4274E-01  0.4274E-01
    -13.607  0.4419E-02  0.4419E-02  0.4319E-01  0.4319E-01
    -13.504  0.7606E-02  0.7606E-02  0.4397E-01  0.4397E-01
    -13.401  0.8908E-02  0.8908E-02  0.4489E-01  0.4489E-01
    -13.298  0.6548E-02  0.6548E-02  0.4556E-01  0.4556E-01
    -13.195  0.6068E-02  0.6068E-02  0.4618E-01  0.4618E-01
    -13.093  0.7484E-02  0.7484E-02  0.4695E-01  0.4695E-01
    -12.990  0.8790E-02  0.8790E-02  0.4786E-01  0.4786E-01
    -12.887  0.6639E-02  0.6639E-02  0.4854E-01  0.4854E-01
    -12.784  0.8157E-02  0.8157E-02  0.4938E-01  0.4938E-01
    -12.681  0.8816E-02  0.8816E-02  0.5028E-01  0.5028E-01
    -12.579  0.1072E-01  0.1072E-01  0.5139E-01  0.5139E-01
    -12.476  0.1402E-01  0.1402E-01  0.5283E-01  0.5283E-01
    -12.373  0.1076E-01  0.1076E-01  0.5393E-01  0.5393E-01
    -12.270  0.1397E-01  0.1397E-01  0.5537E-01  0.5537E-01
    -12.167  0.1225E-01  0.1225E-01  0.5663E-01  0.5663E-01
    -12.065  0.1325E-01  0.1325E-01  0.5799E-01  0.5799E-01
    -11.962  0.2026E-01  0.2026E-01  0.6008E-01  0.6008E-01
    -11.859  0.1622E-01  0.1622E-01  0.6174E-01  0.6174E-01
    -11.756  0.1199E-01  0.1199E-01  0.6298E-01  0.6298E-01
    -11.653  0.1131E-01  0.1131E-01  0.6414E-01  0.6414E-01
    -11.550  0.1073E-01  0.1073E-01  0.6524E-01  0.6524E-01
    -11.448  0.7948E-02  0.7948E-02  0.6606E-01  0.6606E-01
    -11.345  0.4564E-02  0.4564E-02  0.6653E-01  0.6653E-01
    -11.242  0.3222E-02  0.3222E-02  0.6686E-01  0.6686E-01
    -11.139  0.5039E-02  0.5039E-02  0.6738E-01  0.6738E-01
    -11.036  0.5543E-02  0.5543E-02  0.6795E-01  0.6795E-01
    -10.934  0.6292E-02  0.6292E-02  0.6859E-01  0.6859E-01
    -10.831  0.6923E-02  0.6923E-02  0.6931E-01  0.6931E-01
    -10.728  0.8714E-02  0.8714E-02  0.7020E-01  0.7020E-01
    -10.625  0.8351E-02  0.8351E-02  0.7106E-01  0.7106E-01
    -10.522  0.1320E-01  0.1320E-01  0.7242E-01  0.7242E-01
    -10.420  0.2160E-01  0.2160E-01  0.7464E-01  0.7464E-01
    -10.317  0.1676E-01  0.1676E-01  0.7636E-01  0.7636E-01
    -10.214  0.6191E-02  0.6191E-02  0.7700E-01  0.7700E-01
    -10.111  0.3802E-02  0.3802E-02  0.7739E-01  0.7739E-01
    -10.008  0.1051E-01  0.1051E-01  0.7847E-01  0.7847E-01
     -9.906  0.1913E-01  0.1913E-01  0.8044E-01  0.8044E-01
     -9.803  0.1042E-01  0.1042E-01  0.8151E-01  0.8151E-01
     -9.700  0.4410E-02  0.4410E-02  0.8196E-01  0.8196E-01
     -9.597  0.6761E-02  0.6761E-02  0.8265E-01  0.8265E-01
     -9.494  0.1316E-01  0.1316E-01  0.8401E-01  0.8401E-01
     -9.392  0.1994E-01  0.1994E-01  0.8606E-01  0.8606E-01
     -9.289  0.1521E-01  0.1521E-01  0.8762E-01  0.8762E-01
     -9.186  0.1766E-01  0.1766E-01  0.8944E-01  0.8944E-01
     -9.083  0.1547E-01  0.1547E-01  0.9103E-01  0.9103E-01
     -8.980  0.1167E-01  0.1167E-01  0.9223E-01  0.9223E-01
     -8.878  0.1482E-01  0.1482E-01  0.9375E-01  0.9375E-01
     -8.775  0.1704E-01  0.1704E-01  0.9550E-01  0.9550E-01
     -8.672  0.1411E-01  0.1411E-01  0.9695E-01  0.9695E-01
     -8.569  0.9452E-02  0.9452E-02  0.9792E-01  0.9792E-01
     -8.466  0.1401E-01  0.1401E-01  0.9936E-01  0.9936E-01
     -8.364  0.2142E-01  0.2142E-01  0.1016E+00  0.1016E+00
     -8.261  0.1610E-01  0.1610E-01  0.1032E+00  0.1032E+00
     -8.158  0.8129E-02  0.8129E-02  0.1041E+00  0.1041E+00
     -8.055  0.1305E-01  0.1305E-01  0.1054E+00  0.1054E+00
     -7.952  0.1414E-01  0.1414E-01  0.1069E+00  0.1069E+00
     -7.850  0.1752E-01  0.1752E-01  0.1087E+00  0.1087E+00
     -7.747  0.2552E-01  0.2552E-01  0.1113E+00  0.1113E+00
     -7.644  0.1859E-01  0.1859E-01  0.1132E+00  0.1132E+00
     -7.541  0.1421E-01  0.1421E-01  0.1146E+00  0.1146E+00
     -7.438  0.1480E-01  0.1480E-01  0.1162E+00  0.1162E+00
     -7.336  0.2015E-01  0.2016E-01  0.1182E+00  0.1182E+00
     -7.233  0.1971E-01  0.1971E-01  0.1203E+00  0.1203E+00
     -7.130  0.1459E-01  0.1459E-01  0.1218E+00  0.1218E+00
     -7.027  0.1488E-01  0.1488E-01  0.1233E+00  0.1233E+00
     -6.924  0.1819E-01  0.1819E-01  0.1252E+00  0.1252E+00
     -6.822  0.2457E-01  0.2457E-01  0.1277E+00  0.1277E+00
     -6.719  0.2519E-01  0.2519E-01  0.1303E+00  0.1303E+00
     -6.616  0.2738E-01  0.2738E-01  0.1331E+00  0.1331E+00
     -6.513  0.2432E-01  0.2432E-01  0.1356E+00  0.1356E+00
     -6.410  0.2612E-01  0.2612E-01  0.1383E+00  0.1383E+00
     -6.308  0.2806E-01  0.2806E-01  0.1412E+00  0.1412E+00
     -6.205  0.2299E-01  0.2299E-01  0.1435E+00  0.1435E+00
     -6.102  0.1746E-01  0.1746E-01  0.1453E+00  0.1453E+00
     -5.999  0.1515E-01  0.1515E-01  0.1469E+00  0.1469E+00
     -5.896  0.1637E-01  0.1637E-01  0.1486E+00  0.1486E+00
     -5.794  0.1597E-01  0.1597E-01  0.1502E+00  0.1502E+00
     -5.691  0.1848E-01  0.1848E-01  0.1521E+00  0.1521E+00
     -5.588  0.1472E-01  0.1472E-01  0.1536E+00  0.1536E+00
     -5.485  0.9065E-02  0.9065E-02  0.1546E+00  0.1546E+00
     -5.382  0.1339E-01  0.1339E-01  0.1559E+00  0.1559E+00
     -5.280  0.1825E-01  0.1825E-01  0.1578E+00  0.1578E+00
     -5.177  0.1699E-01  0.1699E-01  0.1596E+00  0.1596E+00
     -5.074  0.1272E-01  0.1272E-01  0.1609E+00  0.1609E+00
     -4.971  0.1527E-01  0.1527E-01  0.1624E+00  0.1624E+00
     -4.868  0.1894E-01  0.1894E-01  0.1644E+00  0.1644E+00
     -4.766  0.1232E-01  0.1232E-01  0.1656E+00  0.1656E+00
     -4.663  0.9763E-02  0.9762E-02  0.1666E+00  0.1666E+00
     -4.560  0.1421E-01  0.1421E-01  0.1681E+00  0.1681E+00
     -4.457  0.1931E-01  0.1931E-01  0.1701E+00  0.1701E+00
     -4.354  0.1742E-01  0.1742E-01  0.1719E+00  0.1719E+00
     -4.252  0.1655E-01  0.1655E-01  0.1736E+00  0.1736E+00
     -4.149  0.2034E-01  0.2034E-01  0.1757E+00  0.1757E+00
     -4.046  0.2035E-01  0.2035E-01  0.1778E+00  0.1778E+00
     -3.943  0.2130E-01  0.2130E-01  0.1800E+00  0.1800E+00
     -3.840  0.2452E-01  0.2452E-01  0.1825E+00  0.1825E+00
     -3.738  0.2830E-01  0.2830E-01  0.1854E+00  0.1854E+00
     -3.635  0.2897E-01  0.2897E-01  0.1884E+00  0.1884E+00
     -3.532  0.2281E-01  0.2281E-01  0.1907E+00  0.1907E+00
     -3.429  0.1474E-01  0.1474E-01  0.1922E+00  0.1922E+00
     -3.326  0.1234E-01  0.1234E-01  0.1935E+00  0.1935E+00
     -3.224  0.1400E-01  0.1400E-01  0.1949E+00  0.1949E+00
     -3.121  0.1153E-01  0.1153E-01  0.1961E+00  0.1961E+00
     -3.018  0.1320E-01  0.1320E-01  0.1975E+00  0.1975E+00
     -2.915  0.1542E-01  0.1542E-01  0.1991E+00  0.1991E+00
     -2.812  0.1167E-01  0.1167E-01  0.2003E+00  0.2003E+00
     -2.710  0.8374E-02  0.8374E-02  0.2011E+00  0.2011E+00
     -2.607  0.9358E-02  0.9358E-02  0.2021E+00  0.2021E+00
     -2.504  0.1731E-01  0.1731E-01  0.2039E+00  0.2039E+00
     -2.401  0.1752E-01  0.1752E-01  0.2057E+00  0.2057E+00
     -2.298  0.7019E-02  0.7019E-02  0.2064E+00  0.2064E+00
     -2.196  0.6537E-02  0.6537E-02  0.2071E+00  0.2071E+00
     -2.093  0.9483E-02  0.9483E-02  0.2080E+00  0.2080E+00
     -1.990  0.9440E-02  0.9440E-02  0.2090E+00  0.2090E+00
     -1.887  0.9300E-02  0.9300E-02  0.2100E+00  0.2100E+00
     -1.784  0.9310E-02  0.9310E-02  0.2109E+00  0.2109E+00
     -1.682  0.6626E-02  0.6626E-02  0.2116E+00  0.2116E+00
     -1.579  0.6310E-02  0.6310E-02  0.2122E+00  0.2122E+00
     -1.476  0.1018E-01  0.1018E-01  0.2133E+00  0.2133E+00
     -1.373  0.7538E-02  0.7538E-02  0.2141E+00  0.2141E+00
     -1.270  0.4546E-02  0.4546E-02  0.2145E+00  0.2145E+00
     -1.168  0.7615E-02  0.7615E-02  0.2153E+00  0.2153E+00
     -1.065  0.6498E-02  0.6498E-02  0.2160E+00  0.2160E+00
     -0.962  0.6099E-02  0.6099E-02  0.2166E+00  0.2166E+00
     -0.859  0.5714E-02  0.5714E-02  0.2172E+00  0.2172E+00
     -0.756  0.2678E-02  0.2678E-02  0.2175E+00  0.2175E+00
     -0.654  0.1269E-02  0.1269E-02  0.2176E+00  0.2176E+00
     -0.551  0.3228E-02  0.3228E-02  0.2179E+00  0.2179E+00
     -0.448  0.4365E-02  0.4365E-02  0.2184E+00  0.2184E+00
     -0.345  0.3031E-02  0.3031E-02  0.2187E+00  0.2187E+00
     -0.242  0.2036E-02  0.2037E-02  0.2189E+00  0.2189E+00
     -0.140  0.2308E-02  0.2308E-02  0.2191E+00  0.2191E+00
     -0.037  0.3371E-02  0.3371E-02  0.2195E+00  0.2195E+00
      0.066  0.3470E-02  0.3470E-02  0.2198E+00  0.2198E+00
      0.169  0.6067E-02  0.6067E-02  0.2205E+00  0.2205E+00
      0.272  0.7284E-02  0.7284E-02  0.2212E+00  0.2212E+00
      0.374  0.9843E-02  0.9843E-02  0.2222E+00  0.2222E+00
      0.477  0.1007E-01  0.1007E-01  0.2233E+00  0.2233E+00
      0.580  0.8349E-02  0.8349E-02  0.2241E+00  0.2241E+00
      0.683  0.6535E-02  0.6535E-02  0.2248E+00  0.2248E+00
      0.786  0.9961E-02  0.9960E-02  0.2258E+00  0.2258E+00
      0.888  0.1012E-01  0.1012E-01  0.2269E+00  0.2269E+00
      0.991  0.7271E-02  0.7271E-02  0.2276E+00  0.2276E+00
      1.094  0.9515E-02  0.9515E-02  0.2286E+00  0.2286E+00
      1.197  0.1588E-01  0.1588E-01  0.2302E+00  0.2302E+00
      1.300  0.1830E-01  0.1830E-01  0.2321E+00  0.2321E+00
      1.402  0.1420E-01  0.1420E-01  0.2336E+00  0.2336E+00
      1.505  0.9015E-02  0.9015E-02  0.2345E+00  0.2345E+00
      1.608  0.6002E-02  0.6002E-02  0.2351E+00  0.2351E+00
      1.711  0.7469E-02  0.7469E-02  0.2359E+00  0.2359E+00
      1.814  0.1032E-01  0.1032E-01  0.2369E+00  0.2369E+00
      1.916  0.1079E-01  0.1079E-01  0.2380E+00  0.2380E+00
      2.019  0.1302E-01  0.1302E-01  0.2394E+00  0.2394E+00
      2.122  0.1272E-01  0.1272E-01  0.2407E+00  0.2407E+00
      2.225  0.1162E-01  0.1162E-01  0.2419E+00  0.2419E+00
      2.328  0.7546E-02  0.7547E-02  0.2427E+00  0.2427E+00
      2.430  0.4766E-02  0.4766E-02  0.2431E+00  0.2431E+00
      2.533  0.1088E-01  0.1088E-01  0.2443E+00  0.2443E+00
      2.636  0.1486E-01  0.1486E-01  0.2458E+00  0.2458E+00
      2.739  0.1346E-01  0.1346E-01  0.2472E+00  0.2472E+00
      2.842  0.1315E-01  0.1316E-01  0.2485E+00  0.2485E+00
      2.944  0.8741E-02  0.8744E-02  0.2494E+00  0.2494E+00
      3.047  0.1075E-01  0.1075E-01  0.2505E+00  0.2505E+00
      3.150  0.1549E-01  0.1549E-01  0.2521E+00  0.2521E+00
      3.253  0.1867E-01  0.1867E-01  0.2540E+00  0.2540E+00
      3.356  0.1879E-01  0.1878E-01  0.2560E+00  0.2560E+00
      3.458  0.1493E-01  0.1493E-01  0.2575E+00  0.2575E+00
      3.561  0.2007E-01  0.2008E-01  0.2596E+00  0.2596E+00
      3.664  0.2180E-01  0.2180E-01  0.2618E+00  0.2618E+00
      3.767  0.1931E-01  0.1931E-01  0.2638E+00  0.2638E+00
      3.870  0.1915E-01  0.1914E-01  0.2658E+00  0.2658E+00
      3.972  0.1835E-01  0.1835E-01  0.2677E+00  0.2677E+00
      4.075  0.1780E-01  0.1780E-01  0.2695E+00  0.2695E+00
      4.178  0.2357E-01  0.2357E-01  0.2719E+00  0.2719E+00
      4.281  0.2620E-01  0.2620E-01  0.2746E+00  0.2746E+00
      4.384  0.2251E-01  0.2251E-01  0.2769E+00  0.2769E+00
      4.486  0.1644E-01  0.1644E-01  0.2786E+00  0.2786E+00
      4.589  0.2388E-01  0.2389E-01  0.2811E+00  0.2811E+00
      4.692  0.2873E-01  0.2873E-01  0.2840E+00  0.2840E+00
      4.795  0.1978E-01  0.1981E-01  0.2860E+00  0.2861E+00
      4.898  0.2159E-01  0.2160E-01  0.2883E+00  0.2883E+00
      5.000  0.2762E-01  0.2761E-01  0.2911E+00  0.2911E+00
      5.103  0.3142E-01  0.3145E-01  0.2943E+00  0.2943E+00
      5.206  0.3018E-01  0.3017E-01  0.2974E+00  0.2974E+00
      5.309  0.2664E-01  0.2661E-01  0.3002E+00  0.3002E+00
      5.412  0.2073E-01  0.2077E-01  0.3023E+00  0.3023E+00
      5.514  0.2517E-01  0.2518E-01  0.3049E+00  0.3049E+00
      5.617  0.2951E-01  0.2947E-01  0.3079E+00  0.3079E+00
      5.720  0.2593E-01  0.2591E-01  0.3106E+00  0.3106E+00
      5.823  0.2278E-01  0.2280E-01  0.3129E+00  0.3129E+00
      5.926  0.1869E-01  0.1872E-01  0.3149E+00  0.3149E+00
      6.028  0.2324E-01  0.2329E-01  0.3172E+00  0.3173E+00
      6.131  0.2361E-01  0.2354E-01  0.3197E+00  0.3197E+00
      6.234  0.1773E-01  0.1771E-01  0.3215E+00  0.3215E+00
      6.337  0.2025E-01  0.2025E-01  0.3236E+00  0.3236E+00
      6.440  0.2207E-01  0.2210E-01  0.3258E+00  0.3259E+00
      6.542  0.2602E-01  0.2604E-01  0.3285E+00  0.3285E+00
      6.645  0.2923E-01  0.2924E-01  0.3315E+00  0.3315E+00
      6.748  0.3099E-01  0.3098E-01  0.3347E+00  0.3347E+00
      6.851  0.2997E-01  0.2995E-01  0.3378E+00  0.3378E+00
      6.954  0.2602E-01  0.2602E-01  0.3405E+00  0.3405E+00
      7.056  0.2360E-01  0.2362E-01  0.3429E+00  0.3429E+00
      7.159  0.2886E-01  0.2887E-01  0.3459E+00  0.3459E+00
      7.262  0.3469E-01  0.3471E-01  0.3494E+00  0.3494E+00
      7.365  0.4516E-01  0.4517E-01  0.3541E+00  0.3541E+00
      7.468  0.3938E-01  0.3934E-01  0.3581E+00  0.3581E+00
      7.570  0.2664E-01  0.2662E-01  0.3609E+00  0.3609E+00
      7.673  0.3175E-01  0.3177E-01  0.3641E+00  0.3641E+00
      7.776  0.3550E-01  0.3546E-01  0.3678E+00  0.3678E+00
      7.879  0.2715E-01  0.2710E-01  0.3706E+00  0.3706E+00
      7.982  0.1956E-01  0.1956E-01  0.3726E+00  0.3726E+00
      8.084  0.1601E-01  0.1601E-01  0.3742E+00  0.3742E+00
      8.187  0.6460E-02  0.6443E-02  0.3749E+00  0.3749E+00
      8.290  0.7800E-03  0.7755E-03  0.3750E+00  0.3750E+00
      8.393  0.2875E-03  0.2874E-03  0.3750E+00  0.3750E+00
      8.496  0.8909E-04  0.8900E-04  0.3750E+00  0.3750E+00
      8.598  0.4548E-05  0.4539E-05  0.3750E+00  0.3750E+00
      8.701  0.3340E-07  0.3330E-07  0.3750E+00  0.3750E+00
      8.804  0.3287E-10  0.3274E-10  0.3750E+00  0.3750E+00
      8.907  0.4166E-14  0.4146E-14  0.3750E+00  0.3750E+00
      9.010  0.5859E-19  0.5859E-19  0.3750E+00  0.3750E+00
      9.112  0.0000E+00  0.0000E+00  0.3750E+00  0.3750E+00
      9.215  0.0000E+00  0.0000E+00  0.3750E+00  0.3750E+00
      9.318  0.0000E+00  0.0000E+00  0.3750E+00  0.3750E+00
      9.421  0.0000E+00  0.0000E+00  0.3750E+00  0.3750E+00
      9.524  0.0000E+00  0.0000E+00  0.3750E+00  0.3750E+00
      9.626  0.0000E+00  0.0000E+00  0.3750E+00  0.3750E+00
      9.729  0.0000E+00  0.0000E+00  0.3750E+00  0.3750E+00
