Lattice                                 
           1
     4.318869    2.493500    0.000000
    -4.318869    2.493500    0.000000
     0.000000    0.000000   15.000000
   B    C 
     8     8
Direct configuration=     1
   0.66888689  0.00000000  0.10000000
   0.33111211  0.00000000  0.10000000
   0.00000000  0.33111211  0.10000000
   0.00000000  0.66888689  0.10000000
   0.33111211  0.33111211  0.10000000
   0.66888689  0.66888689  0.10000000
   0.66666600  0.33333300  0.09922189
   0.33333300  0.66666600  0.10077811
   0.16666600  0.33333300  0.46773333
   0.33333300  0.16666600  0.46773333
   0.16666600  0.83333300  0.46773333
   0.33333300  0.66666600  0.46773333
   0.66666600  0.33333300  0.46773333
   0.83333300  0.16666600  0.46773333
   0.66666600  0.83333300  0.46773333
   0.83333300  0.66666600  0.46773333
Direct configuration=     2
   0.67037908  0.00000002  0.10002689
   0.32961994  0.00000002  0.10002689
  -0.00000002  0.32961992  0.10002689
  -0.00000002  0.67037906  0.10002689
   0.32961994  0.32961992  0.10002689
   0.67037908  0.67037906  0.10002689
   0.66666600  0.33333300  0.09924733
   0.33333300  0.66666600  0.10081284
   0.16666369  0.33332838  0.46770563
   0.33332850  0.16666375  0.46770565
   0.16666369  0.83333531  0.46770563
   0.33333300  0.66666600  0.46770562
   0.66666600  0.33333300  0.46770570
   0.83333525  0.16666375  0.46770565
   0.66667062  0.83333531  0.46770563
   0.83333525  0.66667050  0.46770565
Direct configuration=     3
   0.66966693  0.00000001  0.10001406
   0.33033208  0.00000001  0.10001406
  -0.00000001  0.33033207  0.10001406
  -0.00000001  0.66966692  0.10001406
   0.33033208  0.33033207  0.10001406
   0.66966693  0.66966692  0.10001406
   0.66666600  0.33333300  0.09923519
   0.33333300  0.66666600  0.10079626
   0.16666479  0.33333058  0.46771885
   0.33333065  0.16666482  0.46771886
   0.16666479  0.83333421  0.46771885
   0.33333300  0.66666600  0.46771884
   0.66666600  0.33333300  0.46771889
   0.83333418  0.16666482  0.46771886
   0.66666842  0.83333421  0.46771885
   0.83333418  0.66666835  0.46771886
Direct configuration=     4
   0.66967018  0.00000001  0.10001412
   0.33032883  0.00000001  0.10001412
  -0.00000001  0.33032882  0.10001412
  -0.00000001  0.66967017  0.10001412
   0.33032883  0.33032882  0.10001412
   0.66967018  0.66967017  0.10001412
   0.66666600  0.33333300  0.09923524
   0.33333300  0.66666600  0.10079634
   0.16666479  0.33333057  0.46771879
   0.33333064  0.16666482  0.46771880
   0.16666479  0.83333421  0.46771879
   0.33333300  0.66666600  0.46771878
   0.66666600  0.33333300  0.46771883
   0.83333418  0.16666482  0.46771880
   0.66666843  0.83333421  0.46771879
   0.83333418  0.66666836  0.46771880
Direct configuration=     5
   0.66966886  0.00000001  0.10001409
   0.33033015  0.00000001  0.10001409
  -0.00000001  0.33033014  0.10001409
  -0.00000001  0.66966885  0.10001409
   0.33033015  0.33033014  0.10001409
   0.66966886  0.66966885  0.10001409
   0.66666600  0.33333300  0.09923522
   0.33333300  0.66666600  0.10079631
   0.16666479  0.33333058  0.46771881
   0.33333064  0.16666482  0.46771882
   0.16666479  0.83333421  0.46771881
   0.33333300  0.66666600  0.46771881
   0.66666600  0.33333300  0.46771885
   0.83333418  0.16666482  0.46771882
   0.66666842  0.83333421  0.46771881
   0.83333418  0.66666836  0.46771882
Direct configuration=     6
   0.66966790  0.00000001  0.10001408
   0.33033111  0.00000001  0.10001408
  -0.00000001  0.33033110  0.10001408
  -0.00000001  0.66966789  0.10001408
   0.33033111  0.33033110  0.10001408
   0.66966790  0.66966789  0.10001408
   0.66666600  0.33333300  0.09923521
   0.33333300  0.66666600  0.10079629
   0.16666479  0.33333058  0.46771883
   0.33333064  0.16666482  0.46771884
   0.16666479  0.83333421  0.46771883
   0.33333300  0.66666600  0.46771883
   0.66666600  0.33333300  0.46771887
   0.83333418  0.16666482  0.46771884
   0.66666842  0.83333421  0.46771883
   0.83333418  0.66666836  0.46771884
Direct configuration=     7
   0.66966790 -0.00000002  0.10003874
   0.33033108 -0.00000002  0.10003874
   0.00000002  0.33033110  0.10003874
   0.00000002  0.66966792  0.10003874
   0.33033108  0.33033110  0.10003874
   0.66966790  0.66966792  0.10003874
   0.66666600  0.33333300  0.09926095
   0.33333300  0.66666600  0.10082484
   0.16666653  0.33333405  0.46769353
   0.33333402  0.16666651  0.46769356
   0.16666653  0.83333247  0.46769353
   0.33333300  0.66666600  0.46769353
   0.66666600  0.33333300  0.46769363
   0.83333249  0.16666651  0.46769356
   0.66666495  0.83333247  0.46769353
   0.83333249  0.66666498  0.46769356
Direct configuration=     8
   0.66966791 -0.00000011  0.10011274
   0.33033098 -0.00000011  0.10011274
   0.00000011  0.33033109  0.10011274
   0.00000011  0.66966802  0.10011274
   0.33033098  0.33033109  0.10011274
   0.66966791  0.66966802  0.10011274
   0.66666600  0.33333300  0.09933817
   0.33333300  0.66666600  0.10091052
   0.16667174  0.33334448  0.46761762
   0.33334414  0.16667157  0.46761771
   0.16667174  0.83332726  0.46761762
   0.33333300  0.66666600  0.46761763
   0.66666600  0.33333300  0.46761790
   0.83332743  0.16667157  0.46761771
   0.66665452  0.83332726  0.46761762
   0.83332743  0.66665486  0.46761771
Direct configuration=     9
   0.66966793 -0.00000029  0.10026075
   0.33033077 -0.00000029  0.10026075
   0.00000029  0.33033107  0.10026075
   0.00000029  0.66966823  0.10026075
   0.33033077  0.33033107  0.10026075
   0.66966793  0.66966823  0.10026075
   0.66666600  0.33333300  0.09949261
   0.33333300  0.66666600  0.10108186
   0.16668216  0.33336532  0.46746581
   0.33336438  0.16668169  0.46746600
   0.16668216  0.83331684  0.46746581
   0.33333300  0.66666600  0.46746583
   0.66666600  0.33333300  0.46746643
   0.83331731  0.16668169  0.46746600
   0.66663368  0.83331684  0.46746581
   0.83331731  0.66663462  0.46746600
Direct configuration=    10
   0.66966797 -0.00000066  0.10055675
   0.33033037 -0.00000066  0.10055675
   0.00000066  0.33033103  0.10055675
   0.00000066  0.66966863  0.10055675
   0.33033037  0.33033103  0.10055675
   0.66966797  0.66966863  0.10055675
   0.66666600  0.33333300  0.09980150
   0.33333300  0.66666600  0.10142454
   0.16670301  0.33340701  0.46716219
   0.33340486  0.16670193  0.46716259
   0.16670301  0.83329599  0.46716219
   0.33333300  0.66666600  0.46716223
   0.66666600  0.33333300  0.46716351
   0.83329707  0.16670193  0.46716259
   0.66659199  0.83329599  0.46716219
   0.83329707  0.66659414  0.46716259
Direct configuration=    11
   0.66966806 -0.00000138  0.10114876
   0.33032956 -0.00000138  0.10114876
   0.00000138  0.33033094  0.10114876
   0.00000138  0.66966944  0.10114876
   0.33032956  0.33033094  0.10114876
   0.66966806  0.66966944  0.10114876
   0.66666600  0.33333300  0.10041928
   0.33333300  0.66666600  0.10210992
   0.16674470  0.33349039  0.46655495
   0.33348583  0.16674241  0.46655578
   0.16674470  0.83325430  0.46655495
   0.33333300  0.66666600  0.46655504
   0.66666600  0.33333300  0.46655766
   0.83325659  0.16674241  0.46655578
   0.66650861  0.83325430  0.46655495
   0.83325659  0.66651317  0.46655578
Direct configuration=    12
   0.66966823 -0.00000283  0.10233278
   0.33032794 -0.00000283  0.10233278
   0.00000283  0.33033077  0.10233278
   0.00000283  0.66967106  0.10233278
   0.33032794  0.33033077  0.10233278
   0.66966823  0.66967106  0.10233278
   0.66666600  0.33333300  0.10165483
   0.33333300  0.66666600  0.10348066
   0.16682808  0.33365716  0.46534047
   0.33364776  0.16682338  0.46534215
   0.16682808  0.83317092  0.46534047
   0.33333300  0.66666600  0.46534065
   0.66666600  0.33333300  0.46534596
   0.83317562  0.16682338  0.46534215
   0.66634184  0.83317092  0.46534047
   0.83317562  0.66635124  0.46534215
Direct configuration=    13
   0.66966857 -0.00000573  0.10470082
   0.33032471 -0.00000573  0.10470082
   0.00000573  0.33033043  0.10470082
   0.00000573  0.66967429  0.10470082
   0.33032471  0.33033043  0.10470082
   0.66966857  0.66967429  0.10470082
   0.66666600  0.33333300  0.10412593
   0.33333300  0.66666600  0.10622215
   0.16699484  0.33399068  0.46291152
   0.33397162  0.16698531  0.46291489
   0.16699484  0.83300416  0.46291152
   0.33333300  0.66666600  0.46291188
   0.66666600  0.33333300  0.46292256
   0.83301369  0.16698531  0.46291489
   0.66600832  0.83300416  0.46291152
   0.83301369  0.66602738  0.46291489
Direct configuration=    14
   0.66966924 -0.00001152  0.10943690
   0.33031823 -0.00001152  0.10943690
   0.00001152  0.33032976  0.10943690
   0.00001152  0.66968077  0.10943690
   0.33031823  0.33032976  0.10943690
   0.66966924  0.66968077  0.10943690
   0.66666600  0.33333300  0.10906813
   0.33333300  0.66666600  0.11170512
   0.16732836  0.33465773  0.45805360
   0.33461935  0.16730917  0.45806037
   0.16732836  0.83267064  0.45805360
   0.33333300  0.66666600  0.45805433
   0.66666600  0.33333300  0.45807576
   0.83268983  0.16730917  0.45806037
   0.66534127  0.83267064  0.45805360
   0.83268983  0.66537965  0.45806037
Direct configuration=    15
   0.66967060 -0.00002311  0.11890907
   0.33030529 -0.00002311  0.11890907
   0.00002311  0.33032840  0.11890907
   0.00002311  0.66969371  0.11890907
   0.33030529  0.33032840  0.11890907
   0.66967060  0.66969371  0.11890907
   0.66666600  0.33333300  0.11895254
   0.33333300  0.66666600  0.12267107
   0.16799541  0.33599182  0.44833776
   0.33591480  0.16795690  0.44835132
   0.16799541  0.83200359  0.44833776
   0.33333300  0.66666600  0.44833924
   0.66666600  0.33333300  0.44838217
   0.83204210  0.16795690  0.44835132
   0.66400718  0.83200359  0.44833776
   0.83204210  0.66408420  0.44835132
Direct configuration=    16
   0.66967330 -0.00004630  0.13785339
   0.33027940 -0.00004630  0.13785339
   0.00004630  0.33032570  0.13785339
   0.00004630  0.66971960  0.13785339
   0.33027940  0.33032570  0.13785339
   0.66967330  0.66971960  0.13785339
   0.66666600  0.33333300  0.13872136
   0.33333300  0.66666600  0.14460297
   0.16932951  0.33866001  0.42890608
   0.33850570  0.16925235  0.42893323
   0.16932951  0.83066949  0.42890608
   0.33333300  0.66666600  0.42890906
   0.66666600  0.33333300  0.42899498
   0.83074665  0.16925235  0.42893323
   0.66133899  0.83066949  0.42890608
   0.83074665  0.66149330  0.42893323
Direct configuration=    17
   0.66967184 -0.00003372  0.12757393
   0.33029345 -0.00003372  0.12757393
   0.00003372  0.33032716  0.12757393
   0.00003372  0.66970555  0.12757393
   0.33029345  0.33032716  0.12757393
   0.66967184  0.66970555  0.12757393
   0.66666600  0.33333300  0.12799452
   0.33333300  0.66666600  0.13270241
   0.16860561  0.33721221  0.43944999
   0.33709984  0.16854942  0.43946976
   0.16860561  0.83139339  0.43944999
   0.33333300  0.66666600  0.43945215
   0.66666600  0.33333300  0.43951475
   0.83144958  0.16854942  0.43946976
   0.66278679  0.83139339  0.43944999
   0.83144958  0.66289916  0.43946976
Direct configuration=    18
   0.66967184 -0.00003372  0.12757468
   0.33029345 -0.00003372  0.12757468
   0.00003372  0.33032716  0.12757468
   0.00003372  0.66970555  0.12757468
   0.33029345  0.33032716  0.12757468
   0.66967184  0.66970555  0.12757468
   0.66666600  0.33333300  0.12799529
   0.33333300  0.66666600  0.13270327
   0.16860563  0.33721227  0.43944922
   0.33709989  0.16854945  0.43946900
   0.16860563  0.83139337  0.43944922
   0.33333300  0.66666600  0.43945139
   0.66666600  0.33333300  0.43951398
   0.83144955  0.16854945  0.43946900
   0.66278673  0.83139337  0.43944922
   0.83144955  0.66289911  0.43946900
Direct configuration=    19
   0.66967183 -0.00003372  0.12757691
   0.33029344 -0.00003372  0.12757691
   0.00003372  0.33032717  0.12757691
   0.00003372  0.66970556  0.12757691
   0.33029344  0.33032717  0.12757691
   0.66967183  0.66970556  0.12757691
   0.66666600  0.33333300  0.12799762
   0.33333300  0.66666600  0.13270585
   0.16860572  0.33721243  0.43944693
   0.33710005  0.16854953  0.43946671
   0.16860572  0.83139328  0.43944693
   0.33333300  0.66666600  0.43944910
   0.66666600  0.33333300  0.43951170
   0.83144947  0.16854953  0.43946671
   0.66278657  0.83139328  0.43944693
   0.83144947  0.66289895  0.43946671
Direct configuration=    20
   0.66967183 -0.00003373  0.12758138
   0.33029344 -0.00003373  0.12758138
   0.00003373  0.33032717  0.12758138
   0.00003373  0.66970556  0.12758138
   0.33029344  0.33032717  0.12758138
   0.66967183  0.66970556  0.12758138
   0.66666600  0.33333300  0.12800228
   0.33333300  0.66666600  0.13271102
   0.16860588  0.33721275  0.43944235
   0.33710037  0.16854968  0.43946213
   0.16860588  0.83139312  0.43944235
   0.33333300  0.66666600  0.43944452
   0.66666600  0.33333300  0.43950713
   0.83144932  0.16854968  0.43946213
   0.66278625  0.83139312  0.43944235
   0.83144932  0.66289863  0.43946213
Direct configuration=    21
   0.66967182 -0.00003375  0.12759032
   0.33029343 -0.00003375  0.12759032
   0.00003375  0.33032718  0.12759032
   0.00003375  0.66970557  0.12759032
   0.33029343  0.33032718  0.12759032
   0.66967182  0.66970557  0.12759032
   0.66666600  0.33333300  0.12801160
   0.33333300  0.66666600  0.13272136
   0.16860620  0.33721340  0.43943319
   0.33710100  0.16855000  0.43945297
   0.16860620  0.83139280  0.43943319
   0.33333300  0.66666600  0.43943535
   0.66666600  0.33333300  0.43949798
   0.83144900  0.16855000  0.43945297
   0.66278560  0.83139280  0.43943319
   0.83144900  0.66289800  0.43945297
Direct configuration=    22
   0.66967180 -0.00003378  0.12760820
   0.33029342 -0.00003378  0.12760820
   0.00003378  0.33032720  0.12760820
   0.00003378  0.66970558  0.12760820
   0.33029342  0.33032720  0.12760820
   0.66967180  0.66970558  0.12760820
   0.66666600  0.33333300  0.12803023
   0.33333300  0.66666600  0.13274203
   0.16860685  0.33721470  0.43941485
   0.33710226  0.16855063  0.43943465
   0.16860685  0.83139215  0.43941485
   0.33333300  0.66666600  0.43941702
   0.66666600  0.33333300  0.43947969
   0.83144837  0.16855063  0.43943465
   0.66278430  0.83139215  0.43941485
   0.83144837  0.66289674  0.43943465
Direct configuration=    23
   0.66967177 -0.00003384  0.12764395
   0.33029339 -0.00003384  0.12764395
   0.00003384  0.33032723  0.12764395
   0.00003384  0.66970561  0.12764395
   0.33029339  0.33032723  0.12764395
   0.66967177  0.66970561  0.12764395
   0.66666600  0.33333300  0.12806749
   0.33333300  0.66666600  0.13278337
   0.16860815  0.33721730  0.43937819
   0.33710479  0.16855189  0.43939802
   0.16860815  0.83139085  0.43937819
   0.33333300  0.66666600  0.43938036
   0.66666600  0.33333300  0.43944310
   0.83144711  0.16855189  0.43939802
   0.66278170  0.83139085  0.43937819
   0.83144711  0.66289421  0.43939802
Direct configuration=    24
   0.66967170 -0.00003397  0.12771546
   0.33029334 -0.00003397  0.12771546
   0.00003397  0.33032730  0.12771546
   0.00003397  0.66970566  0.12771546
   0.33029334  0.33032730  0.12771546
   0.66967170  0.66970566  0.12771546
   0.66666600  0.33333300  0.12814202
   0.33333300  0.66666600  0.13286606
   0.16861074  0.33722249  0.43930487
   0.33710983  0.16855442  0.43932474
   0.16861074  0.83138826  0.43930487
   0.33333300  0.66666600  0.43930704
   0.66666600  0.33333300  0.43936994
   0.83144458  0.16855442  0.43932474
   0.66277651  0.83138826  0.43930487
   0.83144458  0.66288917  0.43932474
Direct configuration=    25
   0.66967156 -0.00003422  0.12785848
   0.33029322 -0.00003422  0.12785848
   0.00003422  0.33032744  0.12785848
   0.00003422  0.66970578  0.12785848
   0.33029322  0.33032744  0.12785848
   0.66967156  0.66970578  0.12785848
   0.66666600  0.33333300  0.12829108
   0.33333300  0.66666600  0.13303144
   0.16861593  0.33723287  0.43915823
   0.33711993  0.16855947  0.43917820
   0.16861593  0.83138307  0.43915823
   0.33333300  0.66666600  0.43916041
   0.66666600  0.33333300  0.43922360
   0.83143953  0.16855947  0.43917820
   0.66276613  0.83138307  0.43915823
   0.83143953  0.66287907  0.43917820
Direct configuration=    26
   0.66967127 -0.00003473  0.12814451
   0.33029300 -0.00003473  0.12814451
   0.00003473  0.33032773  0.12814451
   0.00003473  0.66970600  0.12814451
   0.33029300  0.33032773  0.12814451
   0.66967127  0.66970600  0.12814451
   0.66666600  0.33333300  0.12858919
   0.33333300  0.66666600  0.13336219
   0.16862631  0.33725363  0.43886495
   0.33714012  0.16856956  0.43888510
   0.16862631  0.83137269  0.43886495
   0.33333300  0.66666600  0.43886713
   0.66666600  0.33333300  0.43893093
   0.83142944  0.16856956  0.43888510
   0.66274537  0.83137269  0.43886495
   0.83142944  0.66285888  0.43888510
Direct configuration=    27
   0.66967071 -0.00003574  0.12871658
   0.33029255 -0.00003574  0.12871658
   0.00003574  0.33032829  0.12871658
   0.00003574  0.66970645  0.12871658
   0.33029255  0.33032829  0.12871658
   0.66967071  0.66970645  0.12871658
   0.66666600  0.33333300  0.12918542
   0.33333300  0.66666600  0.13402370
   0.16864707  0.33729515  0.43827838
   0.33718051  0.16858975  0.43829892
   0.16864707  0.83135193  0.43827838
   0.33333300  0.66666600  0.43828058
   0.66666600  0.33333300  0.43834560
   0.83140925  0.16858975  0.43829892
   0.66270385  0.83135193  0.43827838
   0.83140925  0.66281849  0.43829892
Direct configuration=    28
   0.66966958 -0.00003777  0.12986072
   0.33029165 -0.00003777  0.12986072
   0.00003777  0.33032942  0.12986072
   0.00003777  0.66970735  0.12986072
   0.33029165  0.33032942  0.12986072
   0.66966958  0.66970735  0.12986072
   0.66666600  0.33333300  0.13037788
   0.33333300  0.66666600  0.13534671
   0.16868860  0.33737819  0.43710524
   0.33726128  0.16863014  0.43712654
   0.16868860  0.83131040  0.43710524
   0.33333300  0.66666600  0.43710748
   0.66666600  0.33333300  0.43717492
   0.83136886  0.16863014  0.43712654
   0.66262081  0.83131040  0.43710524
   0.83136886  0.66273772  0.43712654
Direct configuration=    29
   0.66966732 -0.00004183  0.13214900
   0.33028985 -0.00004183  0.13214900
   0.00004183  0.33033168  0.13214900
   0.00004183  0.66970915  0.13214900
   0.33028985  0.33033168  0.13214900
   0.66966732  0.66970915  0.13214900
   0.66666600  0.33333300  0.13276280
   0.33333300  0.66666600  0.13799273
   0.16877164  0.33754428  0.43475896
   0.33742283  0.16871091  0.43478180
   0.16877164  0.83122736  0.43475896
   0.33333300  0.66666600  0.43476128
   0.66666600  0.33333300  0.43483358
   0.83128809  0.16871091  0.43478180
   0.66245472  0.83122736  0.43475896
   0.83128809  0.66257617  0.43478180
Direct configuration=    30
   0.66966281 -0.00004994  0.13672556
   0.33028625 -0.00004994  0.13672556
   0.00004994  0.33033619  0.13672556
   0.00004994  0.66971275  0.13672556
   0.33028625  0.33033619  0.13672556
   0.66966281  0.66971275  0.13672556
   0.66666600  0.33333300  0.13753263
   0.33333300  0.66666600  0.14328477
   0.16893773  0.33787645  0.43006640
   0.33774592  0.16887246  0.43009231
   0.16893773  0.83106127  0.43006640
   0.33333300  0.66666600  0.43006888
   0.66666600  0.33333300  0.43015089
   0.83112654  0.16887246  0.43009231
   0.66212255  0.83106127  0.43006640
   0.83112654  0.66225308  0.43009231
Direct configuration=    31
   0.66965378 -0.00006617  0.14587868
   0.33027904 -0.00006617  0.14587868
   0.00006617  0.33034522  0.14587868
   0.00006617  0.66971996  0.14587868
   0.33027904  0.33034522  0.14587868
   0.66965378  0.66971996  0.14587868
   0.66666600  0.33333300  0.14707230
   0.33333300  0.66666600  0.15386885
   0.16926990  0.33854080  0.42068129
   0.33839210  0.16919555  0.42071332
   0.16926990  0.83072910  0.42068129
   0.33333300  0.66666600  0.42068408
   0.66666600  0.33333300  0.42078550
   0.83080345  0.16919555  0.42071332
   0.66145820  0.83072910  0.42068129
   0.83080345  0.66160690  0.42071332
Direct configuration=    32
   0.66963573 -0.00009863  0.16418492
   0.33026464 -0.00009863  0.16418492
   0.00009863  0.33036327  0.16418492
   0.00009863  0.66973436  0.16418492
   0.33026464  0.33036327  0.16418492
   0.66963573  0.66973436  0.16418492
   0.66666600  0.33333300  0.16615164
   0.33333300  0.66666600  0.17503702
   0.16993425  0.33986949  0.40191106
   0.33968445  0.16984173  0.40195536
   0.16993425  0.83006475  0.40191106
   0.33333300  0.66666600  0.40191449
   0.66666600  0.33333300  0.40205473
   0.83015727  0.16984173  0.40195536
   0.66012951  0.83006475  0.40191106
   0.83015727  0.66031455  0.40195536
Direct configuration=    33
   0.66964588 -0.00008038  0.15388782
   0.33027274 -0.00008038  0.15388782
   0.00008038  0.33035312  0.15388782
   0.00008038  0.66972626  0.15388782
   0.33027274  0.33035312  0.15388782
   0.66964588  0.66972626  0.15388782
   0.66666600  0.33333300  0.15541968
   0.33333300  0.66666600  0.16313011
   0.16956056  0.33912211  0.41246915
   0.33895751  0.16947826  0.41250655
   0.16956056  0.83043844  0.41246915
   0.33333300  0.66666600  0.41247222
   0.66666600  0.33333300  0.41259062
   0.83052074  0.16947826  0.41250655
   0.66087689  0.83043844  0.41246915
   0.83052074  0.66104149  0.41250655
Direct configuration=    34
   0.66964080 -0.00008951  0.15903637
   0.33026869 -0.00008951  0.15903637
   0.00008951  0.33035820  0.15903637
   0.00008951  0.66973031  0.15903637
   0.33026869  0.33035820  0.15903637
   0.66964080  0.66973031  0.15903637
   0.66666600  0.33333300  0.16078566
   0.33333300  0.66666600  0.16908357
   0.16974740  0.33949580  0.40719011
   0.33932098  0.16965999  0.40723095
   0.16974740  0.83025160  0.40719011
   0.33333300  0.66666600  0.40719335
   0.66666600  0.33333300  0.40732268
   0.83033901  0.16965999  0.40723095
   0.66050320  0.83025160  0.40719011
   0.83033901  0.66067802  0.40723095
Direct configuration=    35
   0.66960522 -0.00011617  0.16507009
   0.33027761 -0.00011617  0.16507009
   0.00011617  0.33039378  0.16507009
   0.00011617  0.66972139  0.16507009
   0.33027761  0.33039378  0.16507009
   0.66960522  0.66972139  0.16507009
   0.66666600  0.33333300  0.16705597
   0.33333300  0.66666600  0.17603993
   0.16962343  0.33924785  0.40100899
   0.33908296  0.16954098  0.40105283
   0.16962343  0.83037557  0.40100899
   0.33333300  0.66666600  0.40101244
   0.66666600  0.33333300  0.40115236
   0.83045802  0.16954098  0.40105283
   0.66075115  0.83037557  0.40100899
   0.83045802  0.66091604  0.40105283
Direct configuration=    36
   0.66959915 -0.00012072  0.16609850
   0.33027913 -0.00012072  0.16609850
   0.00012072  0.33039985  0.16609850
   0.00012072  0.66971987  0.16609850
   0.33027913  0.33039985  0.16609850
   0.66959915  0.66971987  0.16609850
   0.66666600  0.33333300  0.16812471
   0.33333300  0.66666600  0.17722560
   0.16960230  0.33920559  0.39995545
   0.33904239  0.16952069  0.39999980
   0.16960230  0.83039670  0.39995545
   0.33333300  0.66666600  0.39995893
   0.66666600  0.33333300  0.40010066
   0.83047831  0.16952069  0.39999980
   0.66079341  0.83039670  0.39995545
   0.83047831  0.66095661  0.39999980
Direct configuration=    37
   0.66955898 -0.00013903  0.16583600
   0.33030099 -0.00013903  0.16583600
   0.00013903  0.33044002  0.16583600
   0.00013903  0.66969801  0.16583600
   0.33030099  0.33044002  0.16583600
   0.66955898  0.66969801  0.16583600
   0.66666600  0.33333300  0.16782953
   0.33333300  0.66666600  0.17689892
   0.16926986  0.33854073  0.40023097
   0.33839915  0.16919907  0.40027352
   0.16926986  0.83072914  0.40023097
   0.33333300  0.66666600  0.40023516
   0.66666600  0.33333300  0.40037356
   0.83079993  0.16919907  0.40027352
   0.66145827  0.83072914  0.40023097
   0.83079993  0.66159985  0.40027352
Direct configuration=    38
   0.66943848 -0.00019397  0.16504851
   0.33036655 -0.00019397  0.16504851
   0.00019397  0.33056052  0.16504851
   0.00019397  0.66963245  0.16504851
   0.33036655  0.33056052  0.16504851
   0.66943848  0.66963245  0.16504851
   0.66666600  0.33333300  0.16694399
   0.33333300  0.66666600  0.17591889
   0.16827257  0.33654615  0.40105756
   0.33646943  0.16823422  0.40109467
   0.16827257  0.83172643  0.40105756
   0.33333300  0.66666600  0.40106383
   0.66666600  0.33333300  0.40119224
   0.83176478  0.16823422  0.40109467
   0.66345285  0.83172643  0.40105756
   0.83176478  0.66352957  0.40109467
Direct configuration=    39
   0.66919748 -0.00030385  0.16347351
   0.33049767 -0.00030385  0.16347351
   0.00030385  0.33080152  0.16347351
   0.00030385  0.66950133  0.16347351
   0.33049767  0.33080152  0.16347351
   0.66919748  0.66950133  0.16347351
   0.66666600  0.33333300  0.16517291
   0.33333300  0.66666600  0.17395883
   0.16627799  0.33255698  0.40271072
   0.33261000  0.16630450  0.40273698
   0.16627799  0.83372101  0.40271072
   0.33333300  0.66666600  0.40272117
   0.66666600  0.33333300  0.40282959
   0.83369450  0.16630450  0.40273698
   0.66744202  0.83372101  0.40271072
   0.83369450  0.66738900  0.40273698
Direct configuration=    40
   0.66924263 -0.00028326  0.16376859
   0.33047310 -0.00028326  0.16376859
   0.00028326  0.33075637  0.16376859
   0.00028326  0.66952590  0.16376859
   0.33047310  0.33075637  0.16376859
   0.66924263  0.66952590  0.16376859
   0.66666600  0.33333300  0.16550473
   0.33333300  0.66666600  0.17432605
   0.16665168  0.33330436  0.40240100
   0.33333308  0.16666604  0.40242929
   0.16665168  0.83334732  0.40240100
   0.33333300  0.66666600  0.40241066
   0.66666600  0.33333300  0.40252283
   0.83333296  0.16666604  0.40242929
   0.66669464  0.83334732  0.40240100
   0.83333296  0.66666592  0.40242929
Direct configuration=    41
   0.66921506 -0.00028908  0.16378406
   0.33049485 -0.00028908  0.16378406
   0.00028908  0.33078394  0.16378406
   0.00028908  0.66950415  0.16378406
   0.33049485  0.33078394  0.16378406
   0.66921506  0.66950415  0.16378406
   0.66666600  0.33333300  0.16546970
   0.33333300  0.66666600  0.17429133
   0.16665374  0.33330847  0.40239985
   0.33333251  0.16666575  0.40242572
   0.16665374  0.83334526  0.40239985
   0.33333300  0.66666600  0.40240925
   0.66666600  0.33333300  0.40251533
   0.83333325  0.16666575  0.40242572
   0.66669053  0.83334526  0.40239985
   0.83333325  0.66666649  0.40242572
Direct configuration=    42
   0.66913235 -0.00030653  0.16383046
   0.33056011 -0.00030653  0.16383046
   0.00030653  0.33086665  0.16383046
   0.00030653  0.66943889  0.16383046
   0.33056011  0.33086665  0.16383046
   0.66913235  0.66943889  0.16383046
   0.66666600  0.33333300  0.16536462
   0.33333300  0.66666600  0.17418715
   0.16665990  0.33332079  0.40239642
   0.33333080  0.16666490  0.40241500
   0.16665990  0.83333910  0.40239642
   0.33333300  0.66666600  0.40240503
   0.66666600  0.33333300  0.40249283
   0.83333410  0.16666490  0.40241500
   0.66667821  0.83333910  0.40239642
   0.83333410  0.66666820  0.40241500
Direct configuration=    43
   0.66896693 -0.00034144  0.16392327
   0.33069063 -0.00034144  0.16392327
   0.00034144  0.33103207  0.16392327
   0.00034144  0.66930837  0.16392327
   0.33069063  0.33103207  0.16392327
   0.66896693  0.66930837  0.16392327
   0.66666600  0.33333300  0.16515445
   0.33333300  0.66666600  0.17397881
   0.16667222  0.33334543  0.40238956
   0.33332739  0.16666319  0.40239357
   0.16667222  0.83332678  0.40238956
   0.33333300  0.66666600  0.40239658
   0.66666600  0.33333300  0.40244783
   0.83333581  0.16666319  0.40239357
   0.66665357  0.83332678  0.40238956
   0.83333581  0.66667161  0.40239357
Direct configuration=    44
   0.66863609 -0.00041125  0.16410888
   0.33095166 -0.00041125  0.16410888
   0.00041125  0.33136291  0.16410888
   0.00041125  0.66904734  0.16410888
   0.33095166  0.33136291  0.16410888
   0.66863609  0.66904734  0.16410888
   0.66666600  0.33333300  0.16473411
   0.33333300  0.66666600  0.17356211
   0.16669686  0.33339472  0.40237584
   0.33332056  0.16665978  0.40235070
   0.16669686  0.83330214  0.40237584
   0.33333300  0.66666600  0.40237968
   0.66666600  0.33333300  0.40235784
   0.83333922  0.16665978  0.40235070
   0.66660428  0.83330214  0.40237584
   0.83333922  0.66667844  0.40235070
Direct configuration=    45
   0.66797440 -0.00055087  0.16448011
   0.33147372 -0.00055087  0.16448011
   0.00055087  0.33202460  0.16448011
   0.00055087  0.66852528  0.16448011
   0.33147372  0.33202460  0.16448011
   0.66797440  0.66852528  0.16448011
   0.66666600  0.33333300  0.16389344
   0.33333300  0.66666600  0.17272872
   0.16674614  0.33349329  0.40234839
   0.33330691  0.16665296  0.40226498
   0.16674614  0.83325286  0.40234839
   0.33333300  0.66666600  0.40234588
   0.66666600  0.33333300  0.40217785
   0.83334604  0.16665296  0.40226498
   0.66650571  0.83325286  0.40234839
   0.83334604  0.66669209  0.40226498
Direct configuration=    46
   0.66818620 -0.00050618  0.16436129
   0.33130662 -0.00050618  0.16436129
   0.00050618  0.33181280  0.16436129
   0.00050618  0.66869238  0.16436129
   0.33130662  0.33181280  0.16436129
   0.66818620  0.66869238  0.16436129
   0.66666600  0.33333300  0.16416253
   0.33333300  0.66666600  0.17299548
   0.16673037  0.33346174  0.40235718
   0.33331128  0.16665514  0.40229242
   0.16673037  0.83326863  0.40235718
   0.33333300  0.66666600  0.40235670
   0.66666600  0.33333300  0.40223547
   0.83334386  0.16665514  0.40229242
   0.66653726  0.83326863  0.40235718
   0.83334386  0.66668772  0.40229242
Direct configuration=    47
   0.66822156 -0.00048223  0.16439536
   0.33129521 -0.00048223  0.16439536
   0.00048223  0.33177744  0.16439536
   0.00048223  0.66870379  0.16439536
   0.33129521  0.33177744  0.16439536
   0.66822156  0.66870379  0.16439536
   0.66666600  0.33333300  0.16408165
   0.33333300  0.66666600  0.17292079
   0.16672231  0.33344563  0.40235318
   0.33331241  0.16665571  0.40228510
   0.16672231  0.83327669  0.40235318
   0.33333300  0.66666600  0.40235443
   0.66666600  0.33333300  0.40222277