       N       E                     dE             d eps       ncg     rms          rms(c)
DAV:   1     0.202488538697E+03    0.20249E+03   -0.25683E+04 14208   0.858E+02
DAV:   2    -0.116325433138E+03   -0.31881E+03   -0.31759E+03 19968   0.163E+02
DAV:   3    -0.129567686046E+03   -0.13242E+02   -0.13226E+02 26496   0.433E+01
DAV:   4    -0.129593638777E+03   -0.25953E-01   -0.25952E-01 19824   0.187E+00
DAV:   5    -0.129593706107E+03   -0.67330E-04   -0.67330E-04 25392   0.952E-02    0.245E+01
DAV:   6    -0.920882823242E+02    0.37505E+02   -0.71724E+01 25536   0.255E+01    0.139E+01
DAV:   7    -0.100542041860E+03   -0.84538E+01   -0.10097E+01 22560   0.102E+01    0.812E+00
DAV:   8    -0.110498336643E+03   -0.99563E+01   -0.87963E+00 24144   0.897E+00    0.434E+00
DAV:   9    -0.117206095496E+03   -0.67078E+01   -0.38652E+00 19824   0.608E+00    0.277E+00
DAV:  10    -0.123462514143E+03   -0.62564E+01   -0.81163E+00 23616   0.697E+00    0.161E+00
DAV:  11    -0.125299372945E+03   -0.18369E+01   -0.31060E+00 24288   0.390E+00    0.101E+00
DAV:  12    -0.125423194736E+03   -0.12382E+00   -0.21589E-01 20736   0.127E+00    0.491E-01
DAV:  13    -0.125449758982E+03   -0.26564E-01   -0.21300E-02 17232   0.520E-01    0.199E-01
DAV:  14    -0.125473581061E+03   -0.23822E-01   -0.59605E-03 21552   0.266E-01    0.866E-02
DAV:  15    -0.125481705652E+03   -0.81246E-02   -0.32973E-03 18336   0.154E-01    0.462E-02
DAV:  16    -0.125483778389E+03   -0.20727E-02   -0.66306E-04 17376   0.805E-02    0.231E-02
DAV:  17    -0.125485075523E+03   -0.12971E-02   -0.17701E-04 14928   0.505E-02    0.182E-02
DAV:  18    -0.125485769306E+03   -0.69378E-03   -0.89603E-05 16272   0.371E-02    0.130E-02
DAV:  19    -0.125486235490E+03   -0.46618E-03   -0.44108E-05 19056   0.244E-02    0.773E-03
DAV:  20    -0.125486282464E+03   -0.46974E-04   -0.22883E-05 22464   0.178E-02    0.475E-03
DAV:  21    -0.125486309460E+03   -0.26997E-04   -0.65857E-06 20688   0.948E-03    0.233E-03
DAV:  22    -0.125486330028E+03   -0.20568E-04   -0.21555E-06 20976   0.549E-03    0.146E-03
DAV:  23    -0.125486347419E+03   -0.17391E-04   -0.18724E-06 20976   0.412E-03    0.767E-04
DAV:  24    -0.125486351070E+03   -0.36511E-05   -0.39292E-07 22128   0.227E-03    0.393E-04
DAV:  25    -0.125486352084E+03   -0.10147E-05   -0.12280E-07 22608   0.117E-03    0.194E-04
DAV:  26    -0.125486352613E+03   -0.52818E-06   -0.31272E-08 21024   0.598E-04
   1 F= -.12707561E+03 E0= -.12707482E+03  d E =-.127076E+03  mag=    -0.0000
       N       E                     dE             d eps       ncg     rms          rms(c)
DAV:   1    -0.125495611109E+03   -0.92590E-02   -0.26564E+00 14208   0.500E+00    0.446E-01
DAV:   2    -0.125488607242E+03    0.70039E-02   -0.53672E-02 25728   0.640E-01    0.197E-01
DAV:   3    -0.125487838319E+03    0.76892E-03   -0.43950E-03 21072   0.180E-01    0.774E-02
DAV:   4    -0.125487808658E+03    0.29661E-04   -0.50243E-04 26352   0.620E-02    0.203E-02
DAV:   5    -0.125487811721E+03   -0.30629E-05   -0.13758E-05 24672   0.115E-02    0.829E-03
DAV:   6    -0.125487811950E+03   -0.22933E-06   -0.15387E-06 21792   0.376E-03
   2 F= -.12707643E+03 E0= -.12707565E+03  d E =-.825016E-03  mag=    -0.0000
       N       E                     dE             d eps       ncg     rms          rms(c)
DAV:   1    -0.125495056774E+03   -0.72451E-02   -0.61853E-01 14208   0.241E+00    0.215E-01
DAV:   2    -0.125493394468E+03    0.16623E-02   -0.12501E-02 25344   0.308E-01    0.947E-02
DAV:   3    -0.125493220358E+03    0.17411E-03   -0.10113E-03 22224   0.872E-02    0.378E-02
DAV:   4    -0.125493214205E+03    0.61524E-05   -0.11651E-04 23232   0.298E-02    0.939E-03
DAV:   5    -0.125493214860E+03   -0.65465E-06   -0.38222E-06 20544   0.595E-03
   3 F= -.12708214E+03 E0= -.12708135E+03  d E =-.653117E-02  mag=    -0.0000
       N       E                     dE             d eps       ncg     rms          rms(c)
DAV:   1    -0.125500336062E+03   -0.71219E-02   -0.36036E-01 14304   0.206E+00    0.125E-01
DAV:   2    -0.125500408825E+03   -0.72762E-04   -0.21740E-03 27840   0.181E-01    0.734E-02
DAV:   3    -0.125500404046E+03    0.47788E-05   -0.21717E-04 21888   0.506E-02    0.146E-02
DAV:   4    -0.125500405479E+03   -0.14335E-05   -0.21878E-05 26496   0.172E-02    0.566E-03
DAV:   5    -0.125500405783E+03   -0.30407E-06   -0.93208E-07 21408   0.405E-03
   4 F= -.12708905E+03 E0= -.12708827E+03  d E =-.691800E-02  mag=    -0.0000
       N       E                     dE             d eps       ncg     rms          rms(c)
DAV:   1    -0.125510766387E+03   -0.10361E-01   -0.32657E+00 14208   0.620E+00    0.373E-01
DAV:   2    -0.125511588885E+03   -0.82250E-03   -0.20409E-02 26736   0.552E-01    0.219E-01
DAV:   3    -0.125511529327E+03    0.59557E-04   -0.20041E-03 21504   0.153E-01    0.441E-02
DAV:   4    -0.125511544213E+03   -0.14886E-04   -0.19864E-04 27024   0.515E-02    0.171E-02
DAV:   5    -0.125511547140E+03   -0.29269E-05   -0.83766E-06 21648   0.120E-02    0.764E-03
DAV:   6    -0.125511547277E+03   -0.13788E-06   -0.58411E-06 24000   0.899E-03
   5 F= -.12709938E+03 E0= -.12709860E+03  d E =-.172463E-01  mag=     0.0000
       N       E                     dE             d eps       ncg     rms          rms(c)
DAV:   1    -0.125514684916E+03   -0.31378E-02   -0.95265E-02 14592   0.120E+00    0.725E-02
DAV:   2    -0.125514677764E+03    0.71519E-05   -0.82091E-04 25344   0.126E-01    0.403E-02
DAV:   3    -0.125514658316E+03    0.19447E-04   -0.97490E-05 19680   0.376E-02    0.115E-02
DAV:   4    -0.125514659261E+03   -0.94406E-06   -0.14154E-05 25824   0.143E-02    0.466E-03
DAV:   5    -0.125514659686E+03   -0.42551E-06   -0.69170E-07 21984   0.341E-03
   6 F= -.12710236E+03 E0= -.12710158E+03  d E =-.297795E-02  mag=    -0.0000
       N       E                     dE             d eps       ncg     rms          rms(c)
DAV:   1    -0.125518129513E+03   -0.34703E-02   -0.54009E-01 14208   0.287E+00    0.172E-01
DAV:   2    -0.125518091590E+03    0.37923E-04   -0.46170E-03 26112   0.300E-01    0.958E-02
DAV:   3    -0.125517982122E+03    0.10947E-03   -0.54514E-04 21024   0.887E-02    0.271E-02
DAV:   4    -0.125517987286E+03   -0.51641E-05   -0.75285E-05 25536   0.327E-02    0.109E-02
DAV:   5    -0.125517988090E+03   -0.80412E-06   -0.30144E-06 20352   0.722E-03
   7 F= -.12710535E+03 E0= -.12710457E+03  d E =-.596985E-02  mag=     0.0000
       N       E                     dE             d eps       ncg     rms          rms(c)
DAV:   1    -0.125520080544E+03   -0.20933E-02   -0.80921E-02 14208   0.928E-01    0.537E-02
DAV:   2    -0.125520100579E+03   -0.20035E-04   -0.44919E-04 24960   0.759E-02    0.322E-02
DAV:   3    -0.125520099137E+03    0.14420E-05   -0.48862E-05 20208   0.208E-02    0.547E-03
DAV:   4    -0.125520099228E+03   -0.91057E-07   -0.29858E-06 25248   0.677E-03
   8 F= -.12710727E+03 E0= -.12710649E+03  d E =-.191985E-02  mag=     0.0000
       N       E                     dE             d eps       ncg     rms          rms(c)
DAV:   1    -0.125524768957E+03   -0.46698E-02   -0.72916E-01 14208   0.278E+00    0.160E-01
DAV:   2    -0.125524946871E+03   -0.17791E-03   -0.38143E-03 26496   0.222E-01    0.957E-02
DAV:   3    -0.125524931929E+03    0.14942E-04   -0.42994E-04 20880   0.608E-02    0.148E-02
DAV:   4    -0.125524932412E+03   -0.48299E-06   -0.24399E-05 24480   0.194E-02    0.732E-03
DAV:   5    -0.125524930697E+03    0.17144E-05   -0.37631E-06 22560   0.727E-03    0.276E-03
DAV:   6    -0.125524930341E+03    0.35606E-06   -0.11134E-06 23328   0.372E-03
   9 F= -.12711153E+03 E0= -.12711075E+03  d E =-.618133E-02  mag=     0.0000
       N       E                     dE             d eps       ncg     rms          rms(c)
DAV:   1    -0.125528183529E+03   -0.32528E-02   -0.29205E+00 14208   0.557E+00    0.317E-01
DAV:   2    -0.125528899675E+03   -0.71615E-03   -0.14761E-02 26304   0.439E-01    0.189E-01
DAV:   3    -0.125528831735E+03    0.67940E-04   -0.17331E-03 22368   0.122E-01    0.278E-02
DAV:   4    -0.125528833188E+03   -0.14523E-05   -0.91172E-05 23712   0.380E-02    0.143E-02
DAV:   5    -0.125528828381E+03    0.48068E-05   -0.14630E-05 23808   0.146E-02    0.429E-03
DAV:   6    -0.125528827862E+03    0.51872E-06   -0.47247E-06 24048   0.781E-03
  10 F= -.12711431E+03 E0= -.12711353E+03  d E =-.895956E-02  mag=     0.0000
       N       E                     dE             d eps       ncg     rms          rms(c)
DAV:   1    -0.125530554413E+03   -0.17260E-02   -0.64088E-01 14208   0.318E+00    0.181E-01
DAV:   2    -0.125530460656E+03    0.93757E-04   -0.72985E-03 26496   0.370E-01    0.104E-01
DAV:   3    -0.125530389689E+03    0.70967E-04   -0.89868E-04 18672   0.107E-01    0.407E-02
DAV:   4    -0.125530390019E+03   -0.33004E-06   -0.21747E-04 25824   0.476E-02    0.206E-02
DAV:   5    -0.125530393307E+03   -0.32874E-05   -0.13230E-05 23760   0.147E-02    0.602E-03
DAV:   6    -0.125530394896E+03   -0.15891E-05   -0.16072E-06 21504   0.527E-03    0.338E-03
DAV:   7    -0.125530396062E+03   -0.11665E-05   -0.28896E-07 24144   0.210E-03    0.126E-03
DAV:   8    -0.125530397918E+03   -0.18560E-05   -0.32860E-07 21648   0.200E-03    0.843E-04
DAV:   9    -0.125530400261E+03   -0.23426E-05   -0.29808E-07 21312   0.166E-03    0.652E-04
DAV:  10    -0.125530401684E+03   -0.14233E-05   -0.10501E-07 23184   0.937E-04    0.329E-04
DAV:  11    -0.125530402221E+03   -0.53708E-06   -0.16500E-08 23184   0.355E-04
  11 F= -.12711547E+03 E0= -.12711468E+03  d E =-.115613E-02  mag=    -0.0000
       N       E                     dE             d eps       ncg     rms          rms(c)
DAV:   1    -0.125530710307E+03   -0.30862E-03   -0.75754E-02 14208   0.109E+00    0.620E-02
DAV:   2    -0.125530700701E+03    0.96060E-05   -0.87791E-04 27744   0.128E-01    0.359E-02
DAV:   3    -0.125530693196E+03    0.75046E-05   -0.10226E-04 19872   0.362E-02    0.140E-02
DAV:   4    -0.125530693426E+03   -0.22980E-06   -0.24473E-05 25872   0.160E-02    0.692E-03
DAV:   5    -0.125530693823E+03   -0.39693E-06   -0.14161E-06 21984   0.482E-03
  12 F= -.12711591E+03 E0= -.12711513E+03  d E =-.160158E-02  mag=    -0.0000
       N       E                     dE             d eps       ncg     rms          rms(c)
DAV:   1    -0.125531861638E+03   -0.11682E-02   -0.64698E-02 14208   0.928E-01    0.561E-02
DAV:   2    -0.125531840874E+03    0.20764E-04   -0.58672E-04 23952   0.852E-02    0.289E-02
DAV:   3    -0.125531838938E+03    0.19360E-05   -0.33367E-05 22320   0.194E-02    0.121E-02
DAV:   4    -0.125531840128E+03   -0.11901E-05   -0.52225E-06 21120   0.786E-03    0.255E-03
DAV:   5    -0.125531840239E+03   -0.11088E-06   -0.33222E-07 24672   0.210E-03
  13 F= -.12711694E+03 E0= -.12711615E+03  d E =-.102142E-02  mag=    -0.0000
       N       E                     dE             d eps       ncg     rms          rms(c)
DAV:   1    -0.125532174812E+03   -0.33468E-03   -0.36304E-02 14208   0.695E-01    0.422E-02
DAV:   2    -0.125532163153E+03    0.11658E-04   -0.32761E-04 22224   0.638E-02    0.217E-02
DAV:   3    -0.125532162399E+03    0.75377E-06   -0.18935E-05 19440   0.148E-02    0.915E-03
DAV:   4    -0.125532163168E+03   -0.76817E-06   -0.30379E-06 19200   0.601E-03
  14 F= -.12711716E+03 E0= -.12711638E+03  d E =-.125104E-02  mag=    -0.0000
       N       E                     dE             d eps       ncg     rms          rms(c)
DAV:   1    -0.125532419753E+03   -0.25735E-03   -0.43866E-02 14784   0.861E-01    0.554E-02
DAV:   2    -0.125532394488E+03    0.25265E-04   -0.59235E-04 22416   0.105E-01    0.290E-02
DAV:   3    -0.125532380691E+03    0.13797E-04   -0.72051E-05 20208   0.329E-02    0.987E-03
DAV:   4    -0.125532380608E+03    0.83430E-07   -0.10825E-05 21696   0.122E-02    0.418E-03
DAV:   5    -0.125532380798E+03   -0.19042E-06   -0.53362E-07 22992   0.289E-03
  15 F= -.12711731E+03 E0= -.12711652E+03  d E =-.143428E-03  mag=     0.0000
       N       E                     dE             d eps       ncg     rms          rms(c)
DAV:   1    -0.125532410131E+03   -0.29523E-04   -0.50033E-03 14976   0.291E-01    0.185E-02
DAV:   2    -0.125532407341E+03    0.27898E-05   -0.67872E-05 19488   0.356E-02    0.973E-03
DAV:   3    -0.125532405925E+03    0.14158E-05   -0.89345E-06 20064   0.116E-02    0.335E-03
DAV:   4    -0.125532406002E+03   -0.77161E-07   -0.12510E-06 19776   0.413E-03
  16 F= -.12711736E+03 E0= -.12711658E+03  d E =-.194323E-03  mag=     0.0000
       N       E                     dE             d eps       ncg     rms          rms(c)
DAV:   1    -0.125532622511E+03   -0.21659E-03   -0.10505E-02 14208   0.389E-01    0.210E-02
DAV:   2    -0.125532616917E+03    0.55940E-05   -0.11664E-04 20448   0.390E-02    0.109E-02
DAV:   3    -0.125532616519E+03    0.39834E-06   -0.10217E-05 21504   0.110E-02    0.439E-03
DAV:   4    -0.125532616787E+03   -0.26812E-06   -0.12419E-06 17280   0.394E-03
  17 F= -.12711751E+03 E0= -.12711672E+03  d E =-.149509E-03  mag=     0.0000
       N       E                     dE             d eps       ncg     rms          rms(c)
DAV:   1    -0.125532687837E+03   -0.71318E-04   -0.46180E-03 14208   0.258E-01    0.140E-02
DAV:   2    -0.125532685388E+03    0.24483E-05   -0.50687E-05 14208   0.259E-02    0.736E-03
DAV:   3    -0.125532685394E+03   -0.50341E-08   -0.52757E-06 20832   0.801E-03
  18 F= -.12711754E+03 E0= -.12711675E+03  d E =-.177401E-03  mag=    -0.0000
       N       E                     dE             d eps       ncg     rms          rms(c)
DAV:   1    -0.125532889034E+03   -0.20365E-03   -0.93772E-03 14208   0.365E-01    0.240E-02
DAV:   2    -0.125532883546E+03    0.54874E-05   -0.14143E-04 15264   0.446E-02    0.131E-02
DAV:   3    -0.125532882101E+03    0.14453E-05   -0.14578E-05 22752   0.137E-02    0.434E-03
DAV:   4    -0.125532882294E+03   -0.19341E-06   -0.16820E-06 15360   0.460E-03
  19 F= -.12711762E+03 E0= -.12711684E+03  d E =-.856693E-04  mag=    -0.0000
       N       E                     dE             d eps       ncg     rms          rms(c)
DAV:   1    -0.125532901068E+03   -0.18967E-04   -0.21988E-04 14208   0.560E-02    0.367E-03
DAV:   2    -0.125532901031E+03    0.37357E-07   -0.34036E-06 22752   0.692E-03
  20 F= -.12711762E+03 E0= -.12711684E+03  d E =-.873370E-04  mag=    -0.0000
       N       E                     dE             d eps       ncg     rms          rms(c)
DAV:   1    -0.125533106969E+03   -0.20590E-03   -0.97602E-03 14208   0.384E-01    0.230E-02
DAV:   2    -0.125533104482E+03    0.24871E-05   -0.11367E-04 24672   0.444E-02    0.131E-02
DAV:   3    -0.125533102526E+03    0.19564E-05   -0.12172E-05 23472   0.135E-02    0.341E-03
DAV:   4    -0.125533102654E+03   -0.12788E-06   -0.13551E-06 23328   0.448E-03
  21 F= -.12711769E+03 E0= -.12711691E+03  d E =-.675594E-04  mag=    -0.0000
       N       E                     dE             d eps       ncg     rms          rms(c)
DAV:   1    -0.125533118329E+03   -0.15803E-04   -0.12162E-04 17232   0.429E-02    0.268E-03
DAV:   2    -0.125533118325E+03    0.41491E-08   -0.14082E-06 26592   0.493E-03
  22 F= -.12711769E+03 E0= -.12711691E+03  d E =-.682945E-04  mag=    -0.0000
       N       E                     dE             d eps       ncg     rms          rms(c)
DAV:   1    -0.125533263347E+03   -0.14502E-03   -0.26969E-03 14208   0.179E-01    0.102E-02
DAV:   2    -0.125533263948E+03   -0.60044E-06   -0.19502E-05 15936   0.176E-02    0.616E-03
DAV:   3    -0.125533264066E+03   -0.11854E-06   -0.18243E-06 21264   0.481E-03
  23 F= -.12711775E+03 E0= -.12711697E+03  d E =-.627812E-04  mag=     0.0000
       N       E                     dE             d eps       ncg     rms          rms(c)
DAV:   1    -0.125533661451E+03   -0.39750E-03   -0.24356E-02 14208   0.539E-01    0.300E-02
DAV:   2    -0.125533667787E+03   -0.63353E-05   -0.16752E-04 21312   0.517E-02    0.180E-02
DAV:   3    -0.125533667598E+03    0.18881E-06   -0.15305E-05 25008   0.134E-02    0.341E-03
DAV:   4    -0.125533667672E+03   -0.74619E-07   -0.14692E-06 21696   0.486E-03
  24 F= -.12711791E+03 E0= -.12711713E+03  d E =-.217685E-03  mag=     0.0000
       N       E                     dE             d eps       ncg     rms          rms(c)
DAV:   1    -0.125534298230E+03   -0.63063E-03   -0.97471E-02 14208   0.108E+00    0.598E-02
DAV:   2    -0.125534324453E+03   -0.26223E-04   -0.66520E-04 23088   0.103E-01    0.358E-02
DAV:   3    -0.125534321334E+03    0.31189E-05   -0.60369E-05 25680   0.263E-02    0.677E-03
DAV:   4    -0.125534321517E+03   -0.18334E-06   -0.55368E-06 22944   0.945E-03
  25 F= -.12711807E+03 E0= -.12711728E+03  d E =-.374993E-03  mag=     0.0000
       N       E                     dE             d eps       ncg     rms          rms(c)
DAV:   1    -0.125534562840E+03   -0.24151E-03   -0.96961E-03 14208   0.372E-01    0.201E-02
DAV:   2    -0.125534565848E+03   -0.30074E-05   -0.95300E-05 24528   0.417E-02    0.124E-02
DAV:   3    -0.125534565234E+03    0.61410E-06   -0.10724E-05 20928   0.132E-02    0.275E-03
DAV:   4    -0.125534565328E+03   -0.94721E-07   -0.17315E-06 18144   0.625E-03
  26 F= -.12711817E+03 E0= -.12711738E+03  d E =-.980161E-04  mag=     0.0000
       N       E                     dE             d eps       ncg     rms          rms(c)
DAV:   1    -0.125534746129E+03   -0.18090E-03   -0.10072E-02 14208   0.379E-01    0.206E-02
DAV:   2    -0.125534749164E+03   -0.30346E-05   -0.97423E-05 25056   0.421E-02    0.126E-02
DAV:   3    -0.125534748647E+03    0.51710E-06   -0.10652E-05 17808   0.130E-02    0.268E-03
DAV:   4    -0.125534748822E+03   -0.17517E-06   -0.16991E-06 18480   0.596E-03
  27 F= -.12711820E+03 E0= -.12711742E+03  d E =-.132635E-03  mag=     0.0000
       N       E                     dE             d eps       ncg     rms          rms(c)
DAV:   1    -0.125535000640E+03   -0.25199E-03   -0.10545E-02 14208   0.359E-01    0.193E-02
DAV:   2    -0.125535004835E+03   -0.41945E-05   -0.88375E-05 23520   0.367E-02    0.118E-02
DAV:   3    -0.125535005597E+03   -0.76257E-06   -0.75173E-06 16800   0.101E-02
  28 F= -.12711829E+03 E0= -.12711751E+03  d E =-.924772E-04  mag=    -0.0000
       N       E                     dE             d eps       ncg     rms          rms(c)
DAV:   1    -0.125535611505E+03   -0.60667E-03   -0.94948E-02 14208   0.108E+00    0.577E-02
DAV:   2    -0.125535648710E+03   -0.37205E-04   -0.76723E-04 22608   0.108E-01    0.352E-02
DAV:   3    -0.125535650399E+03   -0.16893E-05   -0.67789E-05 23184   0.289E-02    0.766E-03
DAV:   4    -0.125535651072E+03   -0.67224E-06   -0.91634E-06 15984   0.121E-02
  29 F= -.12711845E+03 E0= -.12711766E+03  d E =-.245930E-03  mag=     0.0000
       N       E                     dE             d eps       ncg     rms          rms(c)
DAV:   1    -0.125536023538E+03   -0.37314E-03   -0.26574E-02 14208   0.627E-01    0.320E-02
DAV:   2    -0.125536032198E+03   -0.86596E-05   -0.28352E-04 25440   0.706E-02    0.195E-02
DAV:   3    -0.125536031870E+03    0.32821E-06   -0.29310E-05 18864   0.215E-02    0.561E-03
DAV:   4    -0.125536032077E+03   -0.20736E-06   -0.57295E-06 15264   0.107E-02
  30 F= -.12711859E+03 E0= -.12711781E+03  d E =-.148142E-03  mag=     0.0000
       N       E                     dE             d eps       ncg     rms          rms(c)
DAV:   1    -0.125536094958E+03   -0.63089E-04   -0.16050E-03 14208   0.154E-01    0.833E-03
DAV:   2    -0.125536095664E+03   -0.70557E-06   -0.18571E-05 21984   0.184E-02    0.511E-03
DAV:   3    -0.125536096169E+03   -0.50448E-06   -0.22997E-06 18768   0.706E-03
  31 F= -.12711860E+03 E0= -.12711782E+03  d E =-.154827E-03  mag=     0.0000
       N       E                     dE             d eps       ncg     rms          rms(c)
DAV:   1    -0.125536319302E+03   -0.22364E-03   -0.13553E-02 14208   0.429E-01    0.245E-02
DAV:   2    -0.125536321474E+03   -0.21717E-05   -0.15412E-04 24960   0.497E-02    0.144E-02
DAV:   3    -0.125536320551E+03    0.92258E-06   -0.15107E-05 16608   0.148E-02    0.403E-03
DAV:   4    -0.125536320762E+03   -0.21081E-06   -0.28210E-06 14928   0.692E-03
  32 F= -.12711866E+03 E0= -.12711787E+03  d E =-.555395E-04  mag=     0.0000
       N       E                     dE             d eps       ncg     rms          rms(c)
DAV:   1    -0.125536338623E+03   -0.18072E-04   -0.14325E-04 14448   0.443E-02    0.285E-03
DAV:   2    -0.125536338672E+03   -0.49441E-07   -0.20138E-06 16224   0.620E-03
  33 F= -.12711866E+03 E0= -.12711787E+03  d E =-.561262E-04  mag=     0.0000
       N       E                     dE             d eps       ncg     rms          rms(c)
DAV:   1    -0.125536447732E+03   -0.10911E-03   -0.32553E-03 14208   0.232E-01    0.116E-02
DAV:   2    -0.125536448557E+03   -0.82425E-06   -0.40117E-05 22896   0.278E-02    0.717E-03
DAV:   3    -0.125536448661E+03   -0.10407E-06   -0.49722E-06 14496   0.945E-03
  34 F= -.12711868E+03 E0= -.12711790E+03  d E =-.283674E-04  mag=    -0.0000
       N       E                     dE             d eps       ncg     rms          rms(c)
DAV:   1    -0.125536458708E+03   -0.10152E-04   -0.49578E-05 14976   0.291E-02    0.264E-03
DAV:   2    -0.125536458694E+03    0.14641E-07   -0.99803E-07 14208   0.519E-03
  35 F= -.12711869E+03 E0= -.12711790E+03  d E =-.287635E-04  mag=    -0.0000
       N       E                     dE             d eps       ncg     rms          rms(c)
DAV:   1    -0.125536560469E+03   -0.10176E-03   -0.25082E-03 14208   0.191E-01    0.117E-02
DAV:   2    -0.125536559686E+03    0.78281E-06   -0.32096E-05 14400   0.233E-02    0.651E-03
DAV:   3    -0.125536559525E+03    0.16110E-06   -0.42204E-06 16608   0.859E-03
  36 F= -.12711871E+03 E0= -.12711793E+03  d E =-.251895E-04  mag=     0.0000
       N       E                     dE             d eps       ncg     rms          rms(c)
DAV:   1    -0.125536601090E+03   -0.41404E-04   -0.63536E-04 14208   0.960E-02    0.641E-03
DAV:   2    -0.125536600861E+03    0.22873E-06   -0.84650E-06 14208   0.124E-02
  37 F= -.12711871E+03 E0= -.12711793E+03  d E =-.285852E-04  mag=     0.0000
       N       E                     dE             d eps       ncg     rms          rms(c)
DAV:   1    -0.125536687389E+03   -0.86299E-04   -0.19208E-03 14208   0.178E-01    0.944E-03
DAV:   2    -0.125536687622E+03   -0.23354E-06   -0.20757E-05 14208   0.205E-02    0.579E-03
DAV:   3    -0.125536687794E+03   -0.17173E-06   -0.36422E-06 15024   0.892E-03
  38 F= -.12711873E+03 E0= -.12711794E+03  d E =-.142531E-04  mag=    -0.0000
       N       E                     dE             d eps       ncg     rms          rms(c)
DAV:   1    -0.125536690590E+03   -0.29677E-05   -0.48394E-06 14736   0.102E-02    0.141E-03
DAV:   2    -0.125536690520E+03    0.70538E-07   -0.43682E-07 19680   0.352E-03
  39 F= -.12711873E+03 E0= -.12711794E+03  d E =-.140573E-04  mag=    -0.0000
       N       E                     dE             d eps       ncg     rms          rms(c)
DAV:   1    -0.125536783892E+03   -0.93302E-04   -0.17241E-03 14208   0.154E-01    0.913E-03
DAV:   2    -0.125536783570E+03    0.32215E-06   -0.19812E-05 14448   0.184E-02    0.524E-03
DAV:   3    -0.125536783529E+03    0.40719E-07   -0.26084E-06 14208   0.653E-03
  40 F= -.12711874E+03 E0= -.12711796E+03  d E =-.149874E-04  mag=    -0.0000
       N       E                     dE             d eps       ncg     rms          rms(c)
DAV:   1    -0.125536836730E+03   -0.53160E-04   -0.71471E-04 14208   0.993E-02    0.624E-03
DAV:   2    -0.125536836610E+03    0.11997E-06   -0.83530E-06 14208   0.121E-02
  41 F= -.12711875E+03 E0= -.12711796E+03  d E =-.180357E-04  mag=     0.0000
       N       E                     dE             d eps       ncg     rms          rms(c)
DAV:   1    -0.125536935882E+03   -0.99152E-04   -0.23325E-03 14208   0.191E-01    0.106E-02
DAV:   2    -0.125536936030E+03   -0.14869E-06   -0.25398E-05 14736   0.221E-02    0.644E-03
DAV:   3    -0.125536936047E+03   -0.17069E-07   -0.40041E-06 14592   0.891E-03
  42 F= -.12711876E+03 E0= -.12711797E+03  d E =-.110940E-04  mag=     0.0000
       N       E                     dE             d eps       ncg     rms          rms(c)
DAV:   1    -0.125536930207E+03    0.58229E-05   -0.10139E-05 14208   0.135E-02    0.931E-04
DAV:   2    -0.125536930143E+03    0.64239E-07   -0.47453E-07 17328   0.362E-03
  43 F= -.12711876E+03 E0= -.12711797E+03  d E =-.109755E-04  mag=     0.0000
       N       E                     dE             d eps       ncg     rms          rms(c)
DAV:   1    -0.125537025339E+03   -0.95132E-04   -0.16729E-03 14208   0.150E-01    0.810E-03
DAV:   2    -0.125537025330E+03    0.95015E-08   -0.16957E-05 15888   0.168E-02    0.475E-03
DAV:   3    -0.125537025401E+03   -0.71027E-07   -0.19123E-06 14304   0.545E-03
  44 F= -.12711877E+03 E0= -.12711799E+03  d E =-.138759E-04  mag=     0.0000
       N       E                     dE             d eps       ncg     rms          rms(c)
DAV:   1    -0.125537168018E+03   -0.14269E-03   -0.44742E-03 14208   0.246E-01    0.136E-02
DAV:   2    -0.125537168070E+03   -0.51233E-07   -0.44356E-05 17376   0.272E-02    0.799E-03
DAV:   3    -0.125537168155E+03   -0.84960E-07   -0.49125E-06 15120   0.849E-03
  45 F= -.12711878E+03 E0= -.12711800E+03  d E =-.236515E-04  mag=    -0.0000
       N       E                     dE             d eps       ncg     rms          rms(c)
DAV:   1    -0.125537247780E+03   -0.79710E-04   -0.11655E-03 14208   0.131E-01    0.693E-03
DAV:   2    -0.125537248025E+03   -0.24576E-06   -0.11826E-05 14640   0.148E-02    0.435E-03
DAV:   3    -0.125537248279E+03   -0.25346E-06   -0.16926E-06 14256   0.595E-03
  46 F= -.12711879E+03 E0= -.12711801E+03  d E =-.116058E-04  mag=    -0.0000
       N       E                     dE             d eps       ncg     rms          rms(c)
DAV:   1    -0.125537359238E+03   -0.11121E-03   -0.27160E-03 14208   0.200E-01    0.100E-02
DAV:   2    -0.125537359807E+03   -0.56908E-06   -0.26934E-05 15552   0.220E-02    0.631E-03
DAV:   3    -0.125537360012E+03   -0.20477E-06   -0.34934E-06 14208   0.803E-03
  47 F= -.12711880E+03 E0= -.12711802E+03  d E =-.187447E-04  mag=    -0.0000
       N       E                     dE             d eps       ncg     rms          rms(c)
DAV:   1    -0.125537450455E+03   -0.90648E-04   -0.14110E-03 14208   0.138E-01    0.752E-03
DAV:   2    -0.125537450604E+03   -0.14967E-06   -0.13970E-05 14448   0.155E-02    0.454E-03
DAV:   3    -0.125537450861E+03   -0.25672E-06   -0.17022E-06 14208   0.576E-03
  48 F= -.12711881E+03 E0= -.12711803E+03  d E =-.125132E-04  mag=     0.0000
       N       E                     dE             d eps       ncg     rms          rms(c)
DAV:   1    -0.125537701030E+03   -0.25043E-03   -0.12616E-02 14208   0.411E-01    0.217E-02
DAV:   2    -0.125537702345E+03   -0.13144E-05   -0.11788E-04 15888   0.442E-02    0.129E-02
DAV:   3    -0.125537702517E+03   -0.17239E-06   -0.12086E-05 16320   0.135E-02    0.371E-03
DAV:   4    -0.125537702857E+03   -0.34006E-06   -0.26777E-06 14304   0.739E-03
  49 F= -.12711883E+03 E0= -.12711805E+03  d E =-.296416E-04  mag=     0.0000
       N       E                     dE             d eps       ncg     rms          rms(c)
DAV:   1    -0.125537813510E+03   -0.11099E-03   -0.23905E-03 14208   0.185E-01    0.958E-03
DAV:   2    -0.125537813862E+03   -0.35239E-06   -0.25018E-05 14208   0.217E-02    0.595E-03
DAV:   3    -0.125537814207E+03   -0.34484E-06   -0.35892E-06 14208   0.853E-03
  50 F= -.12711884E+03 E0= -.12711806E+03  d E =-.118589E-04  mag=     0.0000
       N       E                     dE             d eps       ncg     rms          rms(c)
DAV:   1    -0.125537865610E+03   -0.51748E-04   -0.60464E-04 14208   0.935E-02    0.528E-03
DAV:   2    -0.125537865635E+03   -0.25362E-07   -0.67572E-06 14208   0.119E-02
  51 F= -.12711884E+03 E0= -.12711806E+03  d E =-.135632E-04  mag=    -0.0000
       N       E                     dE             d eps       ncg     rms          rms(c)
DAV:   1    -0.125537966538E+03   -0.10093E-03   -0.18393E-03 14208   0.159E-01    0.929E-03
DAV:   2    -0.125537966179E+03    0.35924E-06   -0.20204E-05 14208   0.192E-02    0.549E-03
DAV:   3    -0.125537966517E+03   -0.33825E-06   -0.30873E-06 14928   0.813E-03
  52 F= -.12711885E+03 E0= -.12711807E+03  d E =-.114058E-04  mag=    -0.0000
       N       E                     dE             d eps       ncg     rms          rms(c)
DAV:   1    -0.125538038978E+03   -0.72799E-04   -0.11260E-03 14208   0.124E-01    0.721E-03
DAV:   2    -0.125538038735E+03    0.24340E-06   -0.12569E-05 14208   0.154E-02    0.428E-03
DAV:   3    -0.125538039067E+03   -0.33181E-06   -0.21962E-06 14400   0.710E-03
  53 F= -.12711886E+03 E0= -.12711807E+03  d E =-.145247E-04  mag=     0.0000
       N       E                     dE             d eps       ncg     rms          rms(c)
DAV:   1    -0.125538123324E+03   -0.84589E-04   -0.12749E-03 14208   0.137E-01    0.732E-03
DAV:   2    -0.125538123292E+03    0.32060E-07   -0.14008E-05 14976   0.166E-02    0.452E-03
DAV:   3    -0.125538123607E+03   -0.31483E-06   -0.25137E-06 14736   0.767E-03
  54 F= -.12711886E+03 E0= -.12711808E+03  d E =-.625440E-05  mag=    -0.0000
       N       E                     dE             d eps       ncg     rms          rms(c)
DAV:   1    -0.125538144268E+03   -0.20975E-04   -0.90480E-05 14208   0.371E-02    0.233E-03
DAV:   2    -0.125538144193E+03    0.74574E-07   -0.13995E-06 18960   0.598E-03
  55 F= -.12711886E+03 E0= -.12711808E+03  d E =-.635977E-05  mag=     0.0000
       N       E                     dE             d eps       ncg     rms          rms(c)
DAV:   1    -0.125538225355E+03   -0.81087E-04   -0.11399E-03 14208   0.128E-01    0.726E-03
DAV:   2    -0.125538224995E+03    0.35975E-06   -0.14389E-05 14208   0.160E-02    0.428E-03
DAV:   3    -0.125538225151E+03   -0.15617E-06   -0.22141E-06 14256   0.684E-03
  56 F= -.12711887E+03 E0= -.12711809E+03  d E =-.546859E-05  mag=    -0.0000
       N       E                     dE             d eps       ncg     rms          rms(c)
DAV:   1    -0.125538245055E+03   -0.20060E-04   -0.79738E-05 14208   0.342E-02    0.225E-03
DAV:   2    -0.125538244944E+03    0.11131E-06   -0.14810E-06 14256   0.597E-03
  57 F= -.12711887E+03 E0= -.12711809E+03  d E =-.566547E-05  mag=    -0.0000
       N       E                     dE             d eps       ncg     rms          rms(c)
DAV:   1    -0.125538283714E+03   -0.38659E-04   -0.30483E-04 14304   0.662E-02    0.402E-03
DAV:   2    -0.125538283546E+03    0.16873E-06   -0.42057E-06 14208   0.916E-03
  58 F= -.12711887E+03 E0= -.12711808E+03  d E =-.507686E-05  mag=    -0.0000
       N       E                     dE             d eps       ncg     rms          rms(c)
DAV:   1    -0.125538254130E+03    0.29584E-04   -0.19233E-04 15456   0.522E-02    0.242E-03
DAV:   2    -0.125538254011E+03    0.11894E-06   -0.33335E-06 14208   0.834E-03
  59 F= -.12711887E+03 E0= -.12711809E+03  d E =-.579058E-05  mag=    -0.0000
       N       E                     dE             d eps       ncg     rms          rms(c)
DAV:   1    -0.125538317795E+03   -0.63665E-04   -0.77935E-04 14208   0.107E-01    0.514E-03
DAV:   2    -0.125538317740E+03    0.55327E-07   -0.86785E-06 14208   0.130E-02
  60 F= -.12711887E+03 E0= -.12711809E+03  d E =-.267314E-05  mag=     0.0000
       N       E                     dE             d eps       ncg     rms          rms(c)
DAV:   1    -0.125538343433E+03   -0.25637E-04   -0.12696E-04 14352   0.441E-02    0.306E-03
DAV:   2    -0.125538343334E+03    0.98942E-07   -0.17737E-06 14208   0.659E-03
  61 F= -.12711887E+03 E0= -.12711809E+03  d E =-.272181E-05  mag=    -0.0000
       N       E                     dE             d eps       ncg     rms          rms(c)
DAV:   1    -0.125538391310E+03   -0.47878E-04   -0.39628E-04 18960   0.751E-02    0.420E-03
DAV:   2    -0.125538391078E+03    0.23207E-06   -0.44848E-06 14832   0.976E-03
  62 F= -.12711887E+03 E0= -.12711809E+03  d E =-.263619E-05  mag=    -0.0000
       N       E                     dE             d eps       ncg     rms          rms(c)
DAV:   1    -0.125538508311E+03   -0.11700E-03   -0.25778E-03 14208   0.191E-01    0.103E-02
DAV:   2    -0.125538507944E+03    0.36648E-06   -0.27837E-05 14208   0.225E-02    0.620E-03
DAV:   3    -0.125538508396E+03   -0.45161E-06   -0.42208E-06 14208   0.955E-03
  63 F= -.12711888E+03 E0= -.12711809E+03  d E =-.485693E-05  mag=    -0.0000
       N       E                     dE             d eps       ncg     rms          rms(c)
DAV:   1    -0.125538476260E+03    0.31684E-04   -0.20388E-04 14208   0.543E-02    0.252E-03
DAV:   2    -0.125538476036E+03    0.22471E-06   -0.39160E-06 14208   0.947E-03
  64 F= -.12711888E+03 E0= -.12711809E+03  d E =-.482252E-05  mag=     0.0000
       N       E                     dE             d eps       ncg     rms          rms(c)
DAV:   1    -0.125538527308E+03   -0.51048E-04   -0.46025E-04 14208   0.831E-02    0.381E-03
DAV:   2    -0.125538527258E+03    0.50738E-07   -0.59368E-06 15216   0.110E-02
  65 F= -.12711888E+03 E0= -.12711810E+03  d E =-.293786E-05  mag=     0.0000
       N       E                     dE             d eps       ncg     rms          rms(c)
DAV:   1    -0.125538579175E+03   -0.51866E-04   -0.49548E-04 14208   0.869E-02    0.498E-03
DAV:   2    -0.125538578989E+03    0.18532E-06   -0.60774E-06 14208   0.111E-02
  66 F= -.12711888E+03 E0= -.12711810E+03  d E =-.358550E-05  mag=     0.0000
       N       E                     dE             d eps       ncg     rms          rms(c)
DAV:   1    -0.125538634617E+03   -0.55442E-04   -0.50030E-04 14352   0.869E-02    0.485E-03
DAV:   2    -0.125538634405E+03    0.21206E-06   -0.65479E-06 14208   0.116E-02
  67 F= -.12711888E+03 E0= -.12711810E+03  d E =-.197769E-05  mag=     0.0000
       N       E                     dE             d eps       ncg     rms          rms(c)
DAV:   1    -0.125538668959E+03   -0.34343E-04   -0.19996E-04 14208   0.554E-02    0.350E-03
DAV:   2    -0.125538668723E+03    0.23627E-06   -0.33015E-06 14208   0.889E-03
  68 F= -.12711888E+03 E0= -.12711810E+03  d E =-.223905E-05  mag=     0.0000
       N       E                     dE             d eps       ncg     rms          rms(c)
DAV:   1    -0.125538699051E+03   -0.30092E-04   -0.16351E-04 14352   0.511E-02    0.318E-03
DAV:   2    -0.125538698775E+03    0.27651E-06   -0.34554E-06 14208   0.934E-03
  69 F= -.12711888E+03 E0= -.12711810E+03  d E =-.134355E-05  mag=     0.0000
       N       E                     dE             d eps       ncg     rms          rms(c)
DAV:   1    -0.125538723787E+03   -0.24736E-04   -0.11722E-04 14208   0.435E-02    0.288E-03
DAV:   2    -0.125538723549E+03    0.23793E-06   -0.26175E-06 14208   0.827E-03
  70 F= -.12711888E+03 E0= -.12711810E+03  d E =-.160492E-05  mag=     0.0000
       N       E                     dE             d eps       ncg     rms          rms(c)
DAV:   1    -0.125538757949E+03   -0.34162E-04   -0.21800E-04 14400   0.589E-02    0.352E-03
DAV:   2    -0.125538757673E+03    0.27617E-06   -0.40799E-06 14208   0.981E-03
  71 F= -.12711889E+03 E0= -.12711810E+03  d E =-.112797E-05  mag=     0.0000
       N       E                     dE             d eps       ncg     rms          rms(c)
DAV:   1    -0.125538764923E+03   -0.69736E-05   -0.98285E-06 14208   0.139E-02    0.141E-03
DAV:   2    -0.125538764737E+03    0.18644E-06   -0.11819E-06 14208   0.557E-03
  72 F= -.12711889E+03 E0= -.12711810E+03  d E =-.112409E-05  mag=     0.0000
       N       E                     dE             d eps       ncg     rms          rms(c)
DAV:   1    -0.125538783934E+03   -0.19011E-04   -0.56455E-05 14208   0.304E-02    0.181E-03
DAV:   2    -0.125538783879E+03    0.55707E-07   -0.10918E-06 17952   0.518E-03
  73 F= -.12711889E+03 E0= -.12711810E+03  d E =-.584658E-06  mag=     0.0000
       N       E                     dE             d eps       ncg     rms          rms(c)
DAV:   1    -0.125538800971E+03   -0.17036E-04   -0.44984E-05 16944   0.272E-02    0.174E-03
DAV:   2    -0.125538800912E+03    0.58812E-07   -0.84611E-07 14640   0.470E-03
  74 F= -.12711889E+03 E0= -.12711810E+03  d E =-.729687E-06  mag=     0.0000
       N       E                     dE             d eps       ncg     rms          rms(c)
DAV:   1    -0.125538817546E+03   -0.16575E-04   -0.39053E-05 14928   0.251E-02    0.153E-03
DAV:   2    -0.125538817496E+03    0.49629E-07   -0.89745E-07 14640   0.481E-03
  75 F= -.12711889E+03 E0= -.12711810E+03  d E =-.546116E-06  mag=     0.0000
       N       E                     dE             d eps       ncg     rms          rms(c)
DAV:   1    -0.125538839170E+03   -0.21624E-04   -0.69173E-05 14352   0.332E-02    0.204E-03
DAV:   2    -0.125538839103E+03    0.66908E-07   -0.12512E-06 14352   0.546E-03
  76 F= -.12711889E+03 E0= -.12711810E+03  d E =-.757057E-06  mag=     0.0000
       N       E                     dE             d eps       ncg     rms          rms(c)
DAV:   1    -0.125538849899E+03   -0.10729E-04   -0.18572E-05 14544   0.179E-02    0.112E-03
DAV:   2    -0.125538849853E+03    0.45974E-07   -0.68716E-07 14352   0.433E-03
  77 F= -.12711889E+03 E0= -.12711810E+03  d E =-.338944E-06  mag=     0.0000
       N       E                     dE             d eps       ncg     rms          rms(c)
DAV:   1    -0.125538866288E+03   -0.16389E-04   -0.44981E-05 14208   0.274E-02    0.159E-03
DAV:   2    -0.125538866244E+03    0.43856E-07   -0.81711E-07 14496   0.444E-03
  78 F= -.12711889E+03 E0= -.12711810E+03  d E =-.476188E-06  mag=     0.0000
       N       E                     dE             d eps       ncg     rms          rms(c)
DAV:   1    -0.125538876550E+03   -0.10262E-04   -0.15667E-05 14496   0.160E-02    0.105E-03
DAV:   2    -0.125538876519E+03    0.30520E-07   -0.42984E-07 14208   0.338E-03
  79 F= -.12711889E+03 E0= -.12711810E+03  d E =-.261275E-06  mag=     0.0000
       N       E                     dE             d eps       ncg     rms          rms(c)
DAV:   1    -0.125538896147E+03   -0.19598E-04   -0.60032E-05 14208   0.307E-02    0.177E-03
DAV:   2    -0.125538896090E+03    0.57448E-07   -0.98690E-07 14208   0.466E-03
  80 F= -.12711889E+03 E0= -.12711810E+03  d E =-.440424E-06  mag=     0.0000
       N       E                     dE             d eps       ncg     rms          rms(c)
DAV:   1    -0.125538904814E+03   -0.86669E-05   -0.11022E-05 14352   0.140E-02    0.845E-04
DAV:   2    -0.125538904797E+03    0.17647E-07   -0.37354E-07 14208   0.322E-03
  81 F= -.12711889E+03 E0= -.12711810E+03  d E =-.235067E-06  mag=     0.0000
       N       E                     dE             d eps       ncg     rms          rms(c)
DAV:   1    -0.125538919564E+03   -0.14750E-04   -0.33099E-05 14208   0.237E-02    0.126E-03
DAV:   2    -0.125538919541E+03    0.23621E-07   -0.56489E-07 14208   0.369E-03
  82 F= -.12711889E+03 E0= -.12711810E+03  d E =-.356927E-06  mag=     0.0000
       N       E                     dE             d eps       ncg     rms          rms(c)
DAV:   1    -0.125538928592E+03   -0.90274E-05   -0.10007E-05 14208   0.127E-02    0.840E-04
DAV:   2    -0.125538928577E+03    0.15240E-07   -0.26314E-07 14208   0.264E-03
  83 F= -.12711889E+03 E0= -.12711810E+03  d E =-.177348E-06  mag=     0.0000
       N       E                     dE             d eps       ncg     rms          rms(c)
DAV:   1    -0.125538953471E+03   -0.24879E-04   -0.80097E-05 14208   0.352E-02    0.188E-03
DAV:   2    -0.125538953411E+03    0.60132E-07   -0.11474E-06 14208   0.481E-03
  84 F= -.12711889E+03 E0= -.12711810E+03  d E =-.376747E-06  mag=     0.0000
       N       E                     dE             d eps       ncg     rms          rms(c)
DAV:   1    -0.125538963876E+03   -0.10405E-04   -0.14218E-05 14208   0.156E-02    0.928E-04
DAV:   2    -0.125538963861E+03    0.15409E-07   -0.33334E-07 14208   0.301E-03
  85 F= -.12711889E+03 E0= -.12711811E+03  d E =-.228582E-06  mag=     0.0000
       N       E                     dE             d eps       ncg     rms          rms(c)
DAV:   1    -0.125538978091E+03   -0.14215E-04   -0.27809E-05 14208   0.215E-02    0.116E-03
DAV:   2    -0.125538978073E+03    0.17301E-07   -0.48324E-07 14208   0.351E-03
  86 F= -.12711889E+03 E0= -.12711811E+03  d E =-.334218E-06  mag=     0.0000
       N       E                     dE             d eps       ncg     rms          rms(c)
DAV:   1    -0.125538988878E+03   -0.10787E-04   -0.13335E-05 14640   0.145E-02    0.898E-04
DAV:   2    -0.125538988860E+03    0.17709E-07   -0.32006E-07 14208   0.290E-03
  87 F= -.12711889E+03 E0= -.12711811E+03  d E =-.184186E-06  mag=     0.0000
       N       E                     dE             d eps       ncg     rms          rms(c)
DAV:   1    -0.125539020739E+03   -0.31862E-04   -0.12299E-04 14208   0.433E-02    0.229E-03
DAV:   2    -0.125539020658E+03    0.81716E-07   -0.16974E-06 14208   0.578E-03
  88 F= -.12711889E+03 E0= -.12711811E+03  d E =-.173497E-06  mag=     0.0000
       N       E                     dE             d eps       ncg     rms          rms(c)
DAV:   1    -0.125539037231E+03   -0.16492E-04   -0.29608E-05 14208   0.221E-02    0.130E-03
DAV:   2    -0.125539037211E+03    0.19554E-07   -0.54192E-07 14208   0.372E-03
  89 F= -.12711889E+03 E0= -.12711811E+03  d E =-.302152E-06  mag=     0.0000
       N       E                     dE             d eps       ncg     rms          rms(c)
DAV:   1    -0.125539053991E+03   -0.16760E-04   -0.31845E-05 14640   0.227E-02    0.127E-03
DAV:   2    -0.125539053971E+03    0.20206E-07   -0.57532E-07 14352   0.390E-03
  90 F= -.12711889E+03 E0= -.12711811E+03  d E =-.399306E-06  mag=     0.0000
       N       E                     dE             d eps       ncg     rms          rms(c)
DAV:   1    -0.125539068648E+03   -0.14656E-04   -0.21112E-05 14352   0.182E-02    0.108E-03
DAV:   2    -0.125539068626E+03    0.22257E-07   -0.47853E-07 14352   0.354E-03
  91 F= -.12711889E+03 E0= -.12711811E+03  d E =-.218705E-06  mag=     0.0000
       N       E                     dE             d eps       ncg     rms          rms(c)
DAV:   1    -0.125539112321E+03   -0.43673E-04   -0.19327E-04 14208   0.542E-02    0.283E-03
DAV:   2    -0.125539112215E+03    0.10575E-06   -0.25394E-06 14256   0.708E-03
  92 F= -.12711889E+03 E0= -.12711811E+03  d E =-.503945E-06  mag=     0.0000
       N       E                     dE             d eps       ncg     rms          rms(c)
DAV:   1    -0.125539129706E+03   -0.17384E-04   -0.28968E-05 14208   0.216E-02    0.142E-03
DAV:   2    -0.125539129670E+03    0.35276E-07   -0.55735E-07 14208   0.381E-03
  93 F= -.12711889E+03 E0= -.12711811E+03  d E =-.503358E-06  mag=     0.0000
       N       E                     dE             d eps       ncg     rms          rms(c)
DAV:   1    -0.125539147282E+03   -0.17577E-04   -0.30951E-05 14352   0.220E-02    0.122E-03
DAV:   2    -0.125539147250E+03    0.32188E-07   -0.65465E-07 14352   0.422E-03
  94 F= -.12711889E+03 E0= -.12711811E+03  d E =-.266793E-06  mag=     0.0000
       N       E                     dE             d eps       ncg     rms          rms(c)
DAV:   1    -0.125539199577E+03   -0.52295E-04   -0.28100E-04 14208   0.655E-02    0.323E-03
DAV:   2    -0.125539199485E+03    0.92141E-07   -0.34691E-06 14208   0.843E-03
  95 F= -.12711889E+03 E0= -.12711811E+03  d E =-.526216E-06  mag=     0.0000
       N       E                     dE             d eps       ncg     rms          rms(c)
DAV:   1    -0.125539225681E+03   -0.26104E-04   -0.72019E-05 14208   0.337E-02    0.197E-03
DAV:   2    -0.125539225602E+03    0.79377E-07   -0.12490E-06 14208   0.552E-03
  96 F= -.12711889E+03 E0= -.12711811E+03  d E =-.536691E-06  mag=     0.0000
       N       E                     dE             d eps       ncg     rms          rms(c)
DAV:   1    -0.125539281370E+03   -0.55688E-04   -0.35179E-04 14352   0.732E-02    0.381E-03
DAV:   2    -0.125539281162E+03    0.20730E-06   -0.46875E-06 14352   0.975E-03
  97 F= -.12711889E+03 E0= -.12711811E+03  d E =-.957975E-06  mag=     0.0000
       N       E                     dE             d eps       ncg     rms          rms(c)
DAV:   1    -0.125539291550E+03   -0.10181E-04   -0.10770E-05 14352   0.140E-02    0.125E-03
DAV:   2    -0.125539291469E+03    0.81465E-07   -0.64753E-07 14208   0.419E-03
  98 F= -.12711889E+03 E0= -.12711811E+03  d E =-.978293E-06  mag=     0.0000
       N       E                     dE             d eps       ncg     rms          rms(c)
DAV:   1    -0.125539286153E+03    0.53978E-05   -0.38458E-06 14208   0.824E-03    0.359E-04
DAV:   2    -0.125539286134E+03    0.18327E-07   -0.35447E-07 14208   0.305E-03
  99 F= -.12711889E+03 E0= -.12711811E+03  d E =-.998186E-06  mag=     0.0000
       N       E                     dE             d eps       ncg     rms          rms(c)
DAV:   1    -0.125539318664E+03   -0.32512E-04   -0.11207E-04 21792   0.412E-02    0.190E-03
DAV:   2    -0.125539318606E+03    0.58604E-07   -0.10334E-06 19488   0.421E-03
 100 F= -.12711889E+03 E0= -.12711811E+03  d E =-.257765E-06  mag=     0.0000
       N       E                     dE             d eps       ncg     rms          rms(c)
DAV:   1    -0.125539382131E+03   -0.63467E-04   -0.42312E-04 14208   0.805E-02    0.384E-03
DAV:   2    -0.125539381988E+03    0.14326E-06   -0.43398E-06 14400   0.880E-03
 101 F= -.12711889E+03 E0= -.12711811E+03  d E =-.210043E-06  mag=     0.0000
       N       E                     dE             d eps       ncg     rms          rms(c)
DAV:   1    -0.125539362665E+03    0.19466E-04   -0.46805E-05 17952   0.261E-02    0.101E-03
DAV:   2    -0.125539362681E+03   -0.16064E-07   -0.70774E-07 16224   0.347E-03
 102 F= -.12711889E+03 E0= -.12711811E+03  d E =-.381133E-06  mag=    -0.0000
       N       E                     dE             d eps       ncg     rms          rms(c)
DAV:   1    -0.125539340739E+03    0.21926E-04   -0.49786E-05 21840   0.278E-02    0.139E-03
DAV:   2    -0.125539340709E+03    0.29585E-07   -0.45005E-07 20688   0.286E-03
 103 F= -.12711889E+03 E0= -.12711811E+03  d E =-.385463E-06  mag=     0.0000
       N       E                     dE             d eps       ncg     rms          rms(c)
DAV:   1    -0.125539369294E+03   -0.28555E-04   -0.96616E-05 15648   0.382E-02    0.181E-03
DAV:   2    -0.125539369234E+03    0.59275E-07   -0.12943E-06 15456   0.471E-03
 104 F= -.12711889E+03 E0= -.12711811E+03  d E =-.452892E-06  mag=    -0.0000
