  15  15   0   4
  0.1995323E+02  0.4800000E-09  0.4800000E-09  0.1500000E-08  0.5000000E-15
  1.000000000000000E-004
  CAR 
 Lattice                                 
     11.38493418    -20.89209045  301      0.49097335      1.00000000
    -20.892  0.0000E+00  0.0000E+00  0.0000E+00  0.0000E+00
    -20.785  0.0000E+00  0.0000E+00  0.0000E+00  0.0000E+00
    -20.677  0.0000E+00  0.0000E+00  0.0000E+00  0.0000E+00
    -20.569  0.0000E+00  0.0000E+00  0.0000E+00  0.0000E+00
    -20.462  0.0000E+00  0.0000E+00  0.0000E+00  0.0000E+00
    -20.354  0.0000E+00  0.0000E+00  0.0000E+00  0.0000E+00
    -20.247  0.0000E+00  0.0000E+00  0.0000E+00  0.0000E+00
    -20.139  0.0000E+00  0.0000E+00  0.0000E+00  0.0000E+00
    -20.031  0.0000E+00  0.0000E+00  0.0000E+00  0.0000E+00
    -19.924  0.4664E-15  0.4664E-15  0.5018E-16  0.5018E-16
    -19.816  0.9253E-11  0.9253E-11  0.9956E-12  0.9956E-12
    -19.709  0.2130E-07  0.2130E-07  0.2293E-08  0.2293E-08
    -19.601  0.6269E-05  0.6269E-05  0.6768E-06  0.6768E-06
    -19.493  0.2645E-03  0.2645E-03  0.2913E-04  0.2913E-04
    -19.386  0.1968E-02  0.1968E-02  0.2409E-03  0.2409E-03
    -19.278  0.4154E-02  0.4154E-02  0.6878E-03  0.6878E-03
    -19.171  0.4519E-02  0.4519E-02  0.1174E-02  0.1174E-02
    -19.063  0.4927E-02  0.4927E-02  0.1704E-02  0.1704E-02
    -18.955  0.4151E-02  0.4151E-02  0.2151E-02  0.2151E-02
    -18.848  0.5403E-02  0.5403E-02  0.2732E-02  0.2732E-02
    -18.740  0.4135E-02  0.4135E-02  0.3177E-02  0.3177E-02
    -18.633  0.4354E-02  0.4354E-02  0.3645E-02  0.3645E-02
    -18.525  0.5984E-02  0.5984E-02  0.4289E-02  0.4289E-02
    -18.418  0.3658E-02  0.3658E-02  0.4683E-02  0.4683E-02
    -18.310  0.4059E-02  0.4059E-02  0.5119E-02  0.5119E-02
    -18.202  0.6146E-02  0.6146E-02  0.5781E-02  0.5781E-02
    -18.095  0.5040E-02  0.5040E-02  0.6323E-02  0.6323E-02
    -17.987  0.2821E-02  0.2821E-02  0.6626E-02  0.6626E-02
    -17.880  0.4783E-02  0.4783E-02  0.7141E-02  0.7141E-02
    -17.772  0.6804E-02  0.6804E-02  0.7873E-02  0.7873E-02
    -17.664  0.4343E-02  0.4343E-02  0.8340E-02  0.8340E-02
    -17.557  0.3682E-02  0.3682E-02  0.8736E-02  0.8736E-02
    -17.449  0.3181E-02  0.3181E-02  0.9079E-02  0.9079E-02
    -17.342  0.7045E-02  0.7045E-02  0.9837E-02  0.9837E-02
    -17.234  0.6181E-02  0.6181E-02  0.1050E-01  0.1050E-01
    -17.126  0.3202E-02  0.3202E-02  0.1085E-01  0.1085E-01
    -17.019  0.3511E-02  0.3511E-02  0.1122E-01  0.1122E-01
    -16.911  0.4236E-02  0.4236E-02  0.1168E-01  0.1168E-01
    -16.804  0.6642E-02  0.6642E-02  0.1239E-01  0.1239E-01
    -16.696  0.6408E-02  0.6408E-02  0.1308E-01  0.1308E-01
    -16.588  0.5377E-02  0.5377E-02  0.1366E-01  0.1366E-01
    -16.481  0.6538E-02  0.6538E-02  0.1437E-01  0.1437E-01
    -16.373  0.1110E-01  0.1110E-01  0.1556E-01  0.1556E-01
    -16.266  0.1492E-01  0.1492E-01  0.1716E-01  0.1716E-01
    -16.158  0.1543E-01  0.1543E-01  0.1883E-01  0.1883E-01
    -16.051  0.1720E-01  0.1720E-01  0.2068E-01  0.2068E-01
    -15.943  0.2092E-01  0.2092E-01  0.2293E-01  0.2293E-01
    -15.835  0.1457E-01  0.1457E-01  0.2449E-01  0.2449E-01
    -15.728  0.4994E-02  0.4994E-02  0.2503E-01  0.2503E-01
    -15.620  0.8484E-02  0.8484E-02  0.2594E-01  0.2594E-01
    -15.513  0.6981E-02  0.6981E-02  0.2670E-01  0.2670E-01
    -15.405  0.4383E-02  0.4383E-02  0.2717E-01  0.2717E-01
    -15.297  0.3935E-02  0.3935E-02  0.2759E-01  0.2759E-01
    -15.190  0.4044E-02  0.4044E-02  0.2803E-01  0.2803E-01
    -15.082  0.3389E-02  0.3389E-02  0.2839E-01  0.2839E-01
    -14.975  0.4749E-02  0.4749E-02  0.2890E-01  0.2890E-01
    -14.867  0.8906E-02  0.8906E-02  0.2986E-01  0.2986E-01
    -14.759  0.6626E-02  0.6626E-02  0.3057E-01  0.3057E-01
    -14.652  0.3675E-02  0.3675E-02  0.3097E-01  0.3097E-01
    -14.544  0.3674E-02  0.3674E-02  0.3136E-01  0.3136E-01
    -14.437  0.3629E-02  0.3629E-02  0.3175E-01  0.3175E-01
    -14.329  0.5053E-02  0.5053E-02  0.3230E-01  0.3230E-01
    -14.222  0.7189E-02  0.7189E-02  0.3307E-01  0.3307E-01
    -14.114  0.1265E-01  0.1265E-01  0.3443E-01  0.3443E-01
    -14.006  0.1748E-01  0.1748E-01  0.3631E-01  0.3631E-01
    -13.899  0.1841E-01  0.1841E-01  0.3829E-01  0.3829E-01
    -13.791  0.1563E-01  0.1563E-01  0.3997E-01  0.3997E-01
    -13.684  0.8894E-02  0.8894E-02  0.4093E-01  0.4093E-01
    -13.576  0.9547E-02  0.9547E-02  0.4196E-01  0.4196E-01
    -13.468  0.1678E-01  0.1678E-01  0.4376E-01  0.4376E-01
    -13.361  0.1303E-01  0.1303E-01  0.4517E-01  0.4517E-01
    -13.253  0.1074E-01  0.1074E-01  0.4632E-01  0.4632E-01
    -13.146  0.1054E-01  0.1054E-01  0.4745E-01  0.4745E-01
    -13.038  0.1502E-01  0.1502E-01  0.4907E-01  0.4907E-01
    -12.930  0.2087E-01  0.2087E-01  0.5132E-01  0.5132E-01
    -12.823  0.1953E-01  0.1953E-01  0.5342E-01  0.5342E-01
    -12.715  0.1577E-01  0.1577E-01  0.5511E-01  0.5511E-01
    -12.608  0.9185E-02  0.9185E-02  0.5610E-01  0.5610E-01
    -12.500  0.5176E-02  0.5176E-02  0.5666E-01  0.5666E-01
    -12.392  0.3054E-02  0.3054E-02  0.5699E-01  0.5699E-01
    -12.285  0.5423E-02  0.5423E-02  0.5757E-01  0.5757E-01
    -12.177  0.7524E-02  0.7524E-02  0.5838E-01  0.5838E-01
    -12.070  0.5457E-02  0.5457E-02  0.5897E-01  0.5897E-01
    -11.962  0.5552E-02  0.5552E-02  0.5957E-01  0.5957E-01
    -11.855  0.7411E-02  0.7411E-02  0.6036E-01  0.6036E-01
    -11.747  0.6038E-02  0.6038E-02  0.6101E-01  0.6101E-01
    -11.639  0.5668E-02  0.5668E-02  0.6162E-01  0.6162E-01
    -11.532  0.4215E-02  0.4215E-02  0.6208E-01  0.6208E-01
    -11.424  0.4162E-02  0.4162E-02  0.6252E-01  0.6252E-01
    -11.317  0.8409E-02  0.8409E-02  0.6343E-01  0.6343E-01
    -11.209  0.5350E-02  0.5350E-02  0.6400E-01  0.6400E-01
    -11.101  0.2836E-02  0.2836E-02  0.6431E-01  0.6431E-01
    -10.994  0.3542E-02  0.3542E-02  0.6469E-01  0.6469E-01
    -10.886  0.4408E-02  0.4408E-02  0.6516E-01  0.6516E-01
    -10.779  0.7113E-02  0.7113E-02  0.6593E-01  0.6593E-01
    -10.671  0.5232E-02  0.5232E-02  0.6649E-01  0.6649E-01
    -10.563  0.2059E-02  0.2059E-02  0.6671E-01  0.6671E-01
    -10.456  0.3405E-02  0.3405E-02  0.6708E-01  0.6708E-01
    -10.348  0.5768E-02  0.5768E-02  0.6770E-01  0.6770E-01
    -10.241  0.5386E-02  0.5386E-02  0.6828E-01  0.6828E-01
    -10.133  0.6353E-02  0.6353E-02  0.6896E-01  0.6896E-01
    -10.025  0.7893E-02  0.7893E-02  0.6981E-01  0.6981E-01
     -9.918  0.2681E-02  0.2681E-02  0.7010E-01  0.7010E-01
     -9.810  0.5587E-02  0.5587E-02  0.7070E-01  0.7070E-01
     -9.703  0.1126E-01  0.1126E-01  0.7191E-01  0.7191E-01
     -9.595  0.1488E-01  0.1488E-01  0.7351E-01  0.7351E-01
     -9.488  0.1508E-01  0.1508E-01  0.7514E-01  0.7514E-01
     -9.380  0.1457E-01  0.1457E-01  0.7670E-01  0.7670E-01
     -9.272  0.1629E-01  0.1629E-01  0.7846E-01  0.7846E-01
     -9.165  0.1976E-01  0.1976E-01  0.8058E-01  0.8058E-01
     -9.057  0.1266E-01  0.1266E-01  0.8195E-01  0.8195E-01
     -8.950  0.6046E-02  0.6046E-02  0.8260E-01  0.8260E-01
     -8.842  0.1225E-01  0.1225E-01  0.8391E-01  0.8391E-01
     -8.734  0.1554E-01  0.1554E-01  0.8558E-01  0.8558E-01
     -8.627  0.1624E-01  0.1624E-01  0.8733E-01  0.8733E-01
     -8.519  0.1567E-01  0.1567E-01  0.8902E-01  0.8902E-01
     -8.412  0.1457E-01  0.1457E-01  0.9059E-01  0.9059E-01
     -8.304  0.1182E-01  0.1182E-01  0.9186E-01  0.9186E-01
     -8.196  0.7348E-02  0.7348E-02  0.9265E-01  0.9265E-01
     -8.089  0.1327E-01  0.1327E-01  0.9408E-01  0.9408E-01
     -7.981  0.2020E-01  0.2020E-01  0.9625E-01  0.9625E-01
     -7.874  0.1743E-01  0.1743E-01  0.9813E-01  0.9813E-01
     -7.766  0.8476E-02  0.8476E-02  0.9904E-01  0.9904E-01
     -7.659  0.9350E-02  0.9350E-02  0.1000E+00  0.1000E+00
     -7.551  0.1938E-01  0.1938E-01  0.1021E+00  0.1021E+00
     -7.443  0.2053E-01  0.2053E-01  0.1043E+00  0.1043E+00
     -7.336  0.1227E-01  0.1227E-01  0.1057E+00  0.1057E+00
     -7.228  0.1478E-01  0.1478E-01  0.1072E+00  0.1072E+00
     -7.121  0.2427E-01  0.2427E-01  0.1099E+00  0.1099E+00
     -7.013  0.2469E-01  0.2469E-01  0.1125E+00  0.1125E+00
     -6.905  0.2144E-01  0.2144E-01  0.1148E+00  0.1148E+00
     -6.798  0.1107E-01  0.1107E-01  0.1160E+00  0.1160E+00
     -6.690  0.7679E-02  0.7679E-02  0.1168E+00  0.1168E+00
     -6.583  0.1799E-01  0.1799E-01  0.1188E+00  0.1188E+00
     -6.475  0.1844E-01  0.1844E-01  0.1208E+00  0.1208E+00
     -6.367  0.1190E-01  0.1190E-01  0.1220E+00  0.1220E+00
     -6.260  0.1117E-01  0.1117E-01  0.1232E+00  0.1232E+00
     -6.152  0.1678E-01  0.1678E-01  0.1250E+00  0.1250E+00
     -6.045  0.1783E-01  0.1783E-01  0.1270E+00  0.1270E+00
     -5.937  0.1918E-01  0.1918E-01  0.1290E+00  0.1290E+00
     -5.829  0.2056E-01  0.2056E-01  0.1312E+00  0.1312E+00
     -5.722  0.1892E-01  0.1892E-01  0.1333E+00  0.1333E+00
     -5.614  0.1980E-01  0.1980E-01  0.1354E+00  0.1354E+00
     -5.507  0.1711E-01  0.1711E-01  0.1372E+00  0.1372E+00
     -5.399  0.1793E-01  0.1793E-01  0.1392E+00  0.1392E+00
     -5.292  0.2550E-01  0.2550E-01  0.1419E+00  0.1419E+00
     -5.184  0.2344E-01  0.2344E-01  0.1444E+00  0.1444E+00
     -5.076  0.3065E-01  0.3065E-01  0.1477E+00  0.1477E+00
     -4.969  0.2928E-01  0.2928E-01  0.1509E+00  0.1509E+00
     -4.861  0.1580E-01  0.1580E-01  0.1526E+00  0.1526E+00
     -4.754  0.1746E-01  0.1746E-01  0.1545E+00  0.1545E+00
     -4.646  0.3270E-01  0.3270E-01  0.1580E+00  0.1580E+00
     -4.538  0.3701E-01  0.3701E-01  0.1620E+00  0.1620E+00
     -4.431  0.2364E-01  0.2364E-01  0.1645E+00  0.1645E+00
     -4.323  0.1667E-01  0.1667E-01  0.1663E+00  0.1663E+00
     -4.216  0.1087E-01  0.1087E-01  0.1675E+00  0.1675E+00
     -4.108  0.1044E-01  0.1044E-01  0.1686E+00  0.1686E+00
     -4.000  0.1446E-01  0.1446E-01  0.1702E+00  0.1702E+00
     -3.893  0.1099E-01  0.1099E-01  0.1713E+00  0.1713E+00
     -3.785  0.8260E-02  0.8260E-02  0.1722E+00  0.1722E+00
     -3.678  0.9335E-02  0.9335E-02  0.1732E+00  0.1732E+00
     -3.570  0.1628E-01  0.1628E-01  0.1750E+00  0.1750E+00
     -3.462  0.2153E-01  0.2153E-01  0.1773E+00  0.1773E+00
     -3.355  0.1787E-01  0.1787E-01  0.1792E+00  0.1792E+00
     -3.247  0.1975E-01  0.1975E-01  0.1813E+00  0.1813E+00
     -3.140  0.2312E-01  0.2312E-01  0.1838E+00  0.1838E+00
     -3.032  0.2323E-01  0.2323E-01  0.1863E+00  0.1863E+00
     -2.925  0.1803E-01  0.1803E-01  0.1883E+00  0.1883E+00
     -2.817  0.1799E-01  0.1799E-01  0.1902E+00  0.1902E+00
     -2.709  0.2009E-01  0.2009E-01  0.1924E+00  0.1924E+00
     -2.602  0.1521E-01  0.1521E-01  0.1940E+00  0.1940E+00
     -2.494  0.1442E-01  0.1442E-01  0.1956E+00  0.1956E+00
     -2.387  0.1366E-01  0.1366E-01  0.1970E+00  0.1970E+00
     -2.279  0.1746E-01  0.1746E-01  0.1989E+00  0.1989E+00
     -2.171  0.1753E-01  0.1753E-01  0.2008E+00  0.2008E+00
     -2.064  0.1138E-01  0.1138E-01  0.2020E+00  0.2020E+00
     -1.956  0.1129E-01  0.1129E-01  0.2032E+00  0.2032E+00
     -1.849  0.6866E-02  0.6866E-02  0.2040E+00  0.2040E+00
     -1.741  0.1276E-01  0.1276E-01  0.2053E+00  0.2053E+00
     -1.633  0.2039E-01  0.2039E-01  0.2075E+00  0.2075E+00
     -1.526  0.1069E-01  0.1069E-01  0.2087E+00  0.2087E+00
     -1.418  0.3177E-02  0.3177E-02  0.2090E+00  0.2090E+00
     -1.311  0.5277E-02  0.5277E-02  0.2096E+00  0.2096E+00
     -1.203  0.1041E-01  0.1041E-01  0.2107E+00  0.2107E+00
     -1.096  0.1065E-01  0.1065E-01  0.2119E+00  0.2119E+00
     -0.988  0.1163E-01  0.1163E-01  0.2131E+00  0.2131E+00
     -0.880  0.1166E-01  0.1166E-01  0.2144E+00  0.2144E+00
     -0.773  0.8532E-02  0.8532E-02  0.2153E+00  0.2153E+00
     -0.665  0.6641E-02  0.6641E-02  0.2160E+00  0.2160E+00
     -0.558  0.4343E-02  0.4343E-02  0.2165E+00  0.2165E+00
     -0.450  0.3974E-02  0.3974E-02  0.2169E+00  0.2169E+00
     -0.342  0.3822E-02  0.3822E-02  0.2173E+00  0.2173E+00
     -0.235  0.4905E-02  0.4905E-02  0.2178E+00  0.2178E+00
     -0.127  0.5368E-02  0.5368E-02  0.2184E+00  0.2184E+00
     -0.020  0.1777E-02  0.1777E-02  0.2186E+00  0.2186E+00
      0.088  0.3470E-03  0.3470E-03  0.2186E+00  0.2186E+00
      0.196  0.2392E-04  0.2392E-04  0.2186E+00  0.2186E+00
      0.303  0.8574E-05  0.8574E-05  0.2186E+00  0.2186E+00
      0.411  0.2534E-03  0.2534E-03  0.2187E+00  0.2187E+00
      0.518  0.1049E-02  0.1049E-02  0.2188E+00  0.2188E+00
      0.626  0.6482E-03  0.6482E-03  0.2189E+00  0.2189E+00
      0.734  0.5774E-04  0.5774E-04  0.2189E+00  0.2189E+00
      0.841  0.6640E-06  0.6640E-06  0.2189E+00  0.2189E+00
      0.949  0.3834E-05  0.3834E-05  0.2189E+00  0.2189E+00
      1.056  0.2646E-03  0.2646E-03  0.2189E+00  0.2189E+00
      1.164  0.2321E-02  0.2321E-02  0.2191E+00  0.2191E+00
      1.271  0.2927E-02  0.2927E-02  0.2195E+00  0.2195E+00
      1.379  0.9109E-03  0.9109E-03  0.2196E+00  0.2196E+00
      1.487  0.2029E-02  0.2029E-02  0.2198E+00  0.2198E+00
      1.594  0.4060E-02  0.4060E-02  0.2202E+00  0.2202E+00
      1.702  0.6413E-02  0.6413E-02  0.2209E+00  0.2209E+00
      1.809  0.1745E-01  0.1745E-01  0.2228E+00  0.2228E+00
      1.917  0.2755E-01  0.2755E-01  0.2257E+00  0.2257E+00
      2.025  0.1079E-01  0.1079E-01  0.2269E+00  0.2269E+00
      2.132  0.3256E-02  0.3256E-02  0.2272E+00  0.2272E+00
      2.240  0.6128E-02  0.6128E-02  0.2279E+00  0.2279E+00
      2.347  0.1017E-01  0.1017E-01  0.2290E+00  0.2290E+00
      2.455  0.1459E-01  0.1459E-01  0.2306E+00  0.2306E+00
      2.563  0.1991E-01  0.1991E-01  0.2327E+00  0.2327E+00
      2.670  0.1088E-01  0.1088E-01  0.2339E+00  0.2339E+00
      2.778  0.5167E-02  0.5167E-02  0.2344E+00  0.2344E+00
      2.885  0.8439E-02  0.8439E-02  0.2353E+00  0.2353E+00
      2.993  0.9130E-02  0.9130E-02  0.2363E+00  0.2363E+00
      3.100  0.7495E-02  0.7495E-02  0.2371E+00  0.2371E+00
      3.208  0.8164E-02  0.8164E-02  0.2380E+00  0.2380E+00
      3.316  0.7979E-02  0.7979E-02  0.2389E+00  0.2389E+00
      3.423  0.1211E-01  0.1211E-01  0.2402E+00  0.2402E+00
      3.531  0.9234E-02  0.9235E-02  0.2412E+00  0.2412E+00
      3.638  0.6383E-02  0.6384E-02  0.2419E+00  0.2419E+00
      3.746  0.8051E-02  0.8051E-02  0.2427E+00  0.2427E+00
      3.854  0.1181E-01  0.1181E-01  0.2440E+00  0.2440E+00
      3.961  0.1063E-01  0.1063E-01  0.2451E+00  0.2451E+00
      4.069  0.1075E-01  0.1075E-01  0.2463E+00  0.2463E+00
      4.176  0.8171E-02  0.8171E-02  0.2472E+00  0.2472E+00
      4.284  0.1181E-01  0.1181E-01  0.2484E+00  0.2484E+00
      4.392  0.1402E-01  0.1402E-01  0.2500E+00  0.2500E+00
      4.499  0.1608E-01  0.1608E-01  0.2517E+00  0.2517E+00
      4.607  0.2052E-01  0.2052E-01  0.2539E+00  0.2539E+00
      4.714  0.1780E-01  0.1780E-01  0.2558E+00  0.2558E+00
      4.822  0.2216E-01  0.2216E-01  0.2582E+00  0.2582E+00
      4.930  0.2332E-01  0.2332E-01  0.2607E+00  0.2607E+00
      5.037  0.2441E-01  0.2441E-01  0.2633E+00  0.2633E+00
      5.145  0.2515E-01  0.2515E-01  0.2660E+00  0.2660E+00
      5.252  0.2542E-01  0.2542E-01  0.2688E+00  0.2688E+00
      5.360  0.2196E-01  0.2196E-01  0.2711E+00  0.2711E+00
      5.467  0.1701E-01  0.1701E-01  0.2730E+00  0.2730E+00
      5.575  0.2183E-01  0.2183E-01  0.2753E+00  0.2753E+00
      5.683  0.2307E-01  0.2307E-01  0.2778E+00  0.2778E+00
      5.790  0.2124E-01  0.2124E-01  0.2801E+00  0.2801E+00
      5.898  0.2141E-01  0.2141E-01  0.2824E+00  0.2824E+00
      6.005  0.2031E-01  0.2031E-01  0.2846E+00  0.2846E+00
      6.113  0.2659E-01  0.2659E-01  0.2874E+00  0.2874E+00
      6.221  0.3246E-01  0.3246E-01  0.2909E+00  0.2909E+00
      6.328  0.1954E-01  0.1954E-01  0.2930E+00  0.2930E+00
      6.436  0.1865E-01  0.1865E-01  0.2950E+00  0.2950E+00
      6.543  0.2202E-01  0.2202E-01  0.2974E+00  0.2974E+00
      6.651  0.2119E-01  0.2119E-01  0.2997E+00  0.2997E+00
      6.759  0.2400E-01  0.2400E-01  0.3023E+00  0.3023E+00
      6.866  0.1733E-01  0.1733E-01  0.3041E+00  0.3041E+00
      6.974  0.2058E-01  0.2058E-01  0.3063E+00  0.3063E+00
      7.081  0.2442E-01  0.2442E-01  0.3090E+00  0.3090E+00
      7.189  0.2383E-01  0.2383E-01  0.3115E+00  0.3115E+00
      7.297  0.1885E-01  0.1885E-01  0.3136E+00  0.3136E+00
      7.404  0.1296E-01  0.1296E-01  0.3149E+00  0.3149E+00
      7.512  0.1587E-01  0.1587E-01  0.3167E+00  0.3167E+00
      7.619  0.2945E-01  0.2945E-01  0.3198E+00  0.3198E+00
      7.727  0.3274E-01  0.3274E-01  0.3233E+00  0.3233E+00
      7.834  0.2012E-01  0.2012E-01  0.3255E+00  0.3255E+00
      7.942  0.1827E-01  0.1827E-01  0.3275E+00  0.3275E+00
      8.050  0.1682E-01  0.1682E-01  0.3293E+00  0.3293E+00
      8.157  0.2447E-01  0.2447E-01  0.3319E+00  0.3319E+00
      8.265  0.2515E-01  0.2515E-01  0.3346E+00  0.3346E+00
      8.372  0.2324E-01  0.2324E-01  0.3371E+00  0.3371E+00
      8.480  0.2259E-01  0.2259E-01  0.3396E+00  0.3396E+00
      8.588  0.2140E-01  0.2140E-01  0.3419E+00  0.3419E+00
      8.695  0.2984E-01  0.2984E-01  0.3451E+00  0.3451E+00
      8.803  0.2838E-01  0.2838E-01  0.3481E+00  0.3481E+00
      8.910  0.2860E-01  0.2860E-01  0.3512E+00  0.3512E+00
      9.018  0.2540E-01  0.2540E-01  0.3539E+00  0.3539E+00
      9.126  0.2339E-01  0.2339E-01  0.3564E+00  0.3564E+00
      9.233  0.4154E-01  0.4154E-01  0.3609E+00  0.3609E+00
      9.341  0.4188E-01  0.4188E-01  0.3654E+00  0.3654E+00
      9.448  0.3001E-01  0.3000E-01  0.3687E+00  0.3687E+00
      9.556  0.1649E-01  0.1648E-01  0.3704E+00  0.3704E+00
      9.663  0.1214E-01  0.1213E-01  0.3717E+00  0.3717E+00
      9.771  0.1726E-01  0.1726E-01  0.3736E+00  0.3736E+00
      9.879  0.9938E-02  0.9946E-02  0.3747E+00  0.3747E+00
      9.986  0.2669E-02  0.2670E-02  0.3749E+00  0.3749E+00
     10.094  0.4879E-03  0.4878E-03  0.3750E+00  0.3750E+00
     10.201  0.1804E-04  0.1803E-04  0.3750E+00  0.3750E+00
     10.309  0.8251E-07  0.8246E-07  0.3750E+00  0.3750E+00
     10.417  0.4164E-10  0.4160E-10  0.3750E+00  0.3750E+00
     10.524  0.2216E-14  0.2213E-14  0.3750E+00  0.3750E+00
     10.632  0.0000E+00  0.0000E+00  0.3750E+00  0.3750E+00
     10.739  0.0000E+00  0.0000E+00  0.3750E+00  0.3750E+00
     10.847  0.0000E+00  0.0000E+00  0.3750E+00  0.3750E+00
     10.955  0.0000E+00  0.0000E+00  0.3750E+00  0.3750E+00
     11.062  0.0000E+00  0.0000E+00  0.3750E+00  0.3750E+00
     11.170  0.0000E+00  0.0000E+00  0.3750E+00  0.3750E+00
     11.277  0.0000E+00  0.0000E+00  0.3750E+00  0.3750E+00
     11.385  0.0000E+00  0.0000E+00  0.3750E+00  0.3750E+00
