Lattice                                 
           1
     4.156922    2.400000    0.000000
    -4.156922    2.400000    0.000000
     0.000000    0.000000   15.000000
   B    C 
     4    11
Direct configuration=     1
   0.00415361  0.00267210  0.12034134
   0.35695335  0.00285503  0.09748893
   0.00423858  0.35550699  0.09749256
   0.65142295  0.65006557  0.09747688
   0.32808646  0.32671938  0.10030508
   0.68027775  0.00278085  0.10027562
   0.00416530  0.67883808  0.10026559
   0.99999933  0.49999967  0.34000000
   0.16666633  0.33333267  0.34000000
   0.99999933  0.99999967  0.34000000
   0.16666633  0.83333267  0.34000000
   0.49999933  0.49999967  0.34000000
   0.66666633  0.33333267  0.34000000
   0.49999933  0.99999967  0.34000000
   0.66666633  0.83333267  0.34000000
Lattice                                 
           1
     4.264822    2.462337    0.000021
    -4.264783    2.462268    0.000043
    -0.000040    0.000198   14.966220
   B    C 
     4    11
Direct configuration=     2
   0.00418420  0.00276098  0.11953364
   0.35614079  0.00295977  0.09776660
   0.00402257  0.35454059  0.09776885
   0.65238128  0.65082777  0.09775822
   0.32559639  0.32397210  0.10035419
   0.68298699  0.00301775  0.10033204
   0.00397890  0.68135476  0.10032465
   0.00008835  0.49998742  0.33997935
   0.16685643  0.33384356  0.34001465
   0.99999804  0.99999375  0.33988469
   0.16698024  0.83314136  0.34001686
   0.50002448  0.50011004  0.33998161
   0.66666574  0.33333691  0.33993690
   0.49990103  0.99990992  0.33997912
   0.66615525  0.83301065  0.34001463
Lattice                                 
           1
     4.193009    2.420848    0.000007
    -4.192996    2.420825    0.000014
    -0.000013    0.000066   14.988702
   B    C 
     4    11
Direct configuration=     3
   0.00416434  0.00270330  0.12007242
   0.35666791  0.00289183  0.09758138
   0.00416270  0.35516752  0.09758455
   0.65175961  0.65033333  0.09757055
   0.32721172  0.32575430  0.10032142
   0.68122949  0.00286409  0.10029441
   0.00409982  0.67972214  0.10028526
   0.00003060  0.49999536  0.33999313
   0.16673311  0.33351214  0.34000488
   0.99999888  0.99999758  0.33996161
   0.16677661  0.83326547  0.34000561
   0.50000817  0.50003844  0.33999388
   0.66666612  0.33333415  0.33997899
   0.49996480  0.99996814  0.33999305
   0.66648679  0.83321955  0.34000487
Lattice                                 
           1
     4.192484    2.420545    0.000007
    -4.192471    2.420522    0.000014
    -0.000013    0.000065   14.988867
   B    C 
     4    11
Direct configuration=     4
   0.00416419  0.00270287  0.12007635
   0.35667183  0.00289132  0.09758003
   0.00416374  0.35517218  0.09758320
   0.65175499  0.65032965  0.09756918
   0.32722374  0.32576756  0.10032118
   0.68121641  0.00286294  0.10029413
   0.00410072  0.67971000  0.10028497
   0.00003017  0.49999542  0.33999323
   0.16673219  0.33350967  0.34000481
   0.99999888  0.99999761  0.33996217
   0.16677509  0.83326639  0.34000553
   0.50000804  0.50003790  0.33999397
   0.66666613  0.33333413  0.33997930
   0.49996527  0.99996857  0.33999315
   0.66648926  0.83322110  0.34000480
Lattice                                 
           1
     4.192096    2.420326    0.000027
    -4.192080    2.420298    0.000039
    -0.000022    0.000206   14.958487
   B    C 
     4    11
Direct configuration=     5
   0.00417582  0.00274795  0.11929461
   0.35660172  0.00295813  0.09787696
   0.00402929  0.35501328  0.09787882
   0.65192693  0.65037587  0.09786922
   0.32632914  0.32472457  0.10033022
   0.68224116  0.00299115  0.10030968
   0.00398520  0.68062164  0.10030263
  -0.00003349  0.49999907  0.33998043
   0.16665525  0.33328444  0.34000832
   0.99999905  0.00000077  0.33988517
   0.16663529  0.83334853  0.34001059
   0.49999813  0.49996789  0.33998272
   0.66666894  0.33333310  0.33992821
   0.50002930  0.00003183  0.33998014
   0.66671893  0.83336913  0.34000827
Lattice                                 
           1
     4.191958    2.420247    0.000034
    -4.191941    2.420218    0.000048
    -0.000025    0.000256   14.947649
   B    C 
     4    11
Direct configuration=     6
   0.00417997  0.00276404  0.11901516
   0.35657670  0.00298196  0.09798311
   0.00398132  0.35495658  0.09798449
   0.65198828  0.65039235  0.09797648
   0.32600997  0.32435245  0.10033346
   0.68260677  0.00303690  0.10031524
   0.00394399  0.68094690  0.10030895
  -0.00005620  0.50000037  0.33997586
   0.16662780  0.33320408  0.34000957
   0.99999911  0.00000189  0.33985764
   0.16658542  0.83337784  0.34001239
   0.49999460  0.49994291  0.33997870
   0.66666994  0.33333273  0.33990995
   0.50005215  0.00005440  0.33997549
   0.66680087  0.83342194  0.34000951
Lattice                                 
           1
     4.192187    2.420384    0.000046
    -4.192169    2.420353    0.000059
    -0.000023    0.000328   14.930835
   B    C 
     4    11
Direct configuration=     7
   0.00418388  0.00278151  0.11861838
   0.35677027  0.00300387  0.09812777
   0.00393341  0.35512133  0.09812852
   0.65183192  0.65018945  0.09812258
   0.32611766  0.32441293  0.10034608
   0.68254002  0.00307406  0.10033118
   0.00390613  0.68084572  0.10032583
  -0.00001547  0.50000043  0.33996970
   0.16665487  0.33330486  0.34000603
   0.00000101  0.00000113  0.33982735
   0.16665437  0.83334854  0.34000946
   0.49999985  0.49998454  0.33997313
   0.66666860  0.33333366  0.33988485
   0.50001563  0.00001604  0.33996922
   0.66669850  0.83334927  0.34000592
Lattice                                 
           1
     4.192873    2.420793    0.000083
    -4.192852    2.420757    0.000092
    -0.000017    0.000543   14.880391
   B    C 
     4    11
Direct configuration=     8
   0.00419562  0.00283393  0.11742670
   0.35735094  0.00306957  0.09856222
   0.00378971  0.35561554  0.09856111
   0.65136287  0.64958079  0.09856138
   0.32644072  0.32459433  0.10038399
   0.68233981  0.00318556  0.10037906
   0.00379255  0.68054219  0.10037656
   0.00010673  0.50000062  0.33995117
   0.16673610  0.33360718  0.33999538
   0.00000673 -0.00000117  0.33973638
   0.16686123  0.83326067  0.34000064
   0.50001559  0.50010941  0.33995642
   0.66666458  0.33333647  0.33980945
   0.49990607 -0.00009902  0.33995037
   0.66639142  0.83313127  0.33999517
Lattice                                 
           1
     4.194245    2.421611    0.000156
    -4.194218    2.421565    0.000158
    -0.000004    0.000974   14.779505
   B    C 
     4    11
Direct configuration=     9
   0.00421920  0.00293887  0.11503527
   0.35851205  0.00320092  0.09943407
   0.00350231  0.35660377  0.09942921
   0.65042490  0.64836362  0.09944195
   0.32708673  0.32495708  0.10046006
   0.68193943  0.00340850  0.10047515
   0.00356543  0.67993524  0.10047835
   0.00035108  0.50000100  0.33991401
   0.16689852  0.33421171  0.33997401
   0.00001816 -0.00000576  0.33955381
   0.16727488  0.83308494  0.33998295
   0.50004706  0.50035912  0.33992289
   0.66665655  0.33334209  0.33965815
   0.49968700 -0.00032912  0.33991255
   0.66577736  0.83269535  0.33997358
Lattice                                 
           1
     4.194238    2.421554    0.000180
    -4.194240    2.421557    0.000168
     0.000021    0.001079   14.751825
   B    C 
     4    11
Direct configuration=    10
   0.00421979  0.00294280  0.11436033
   0.35871615  0.00320002  0.09961109
   0.00349840  0.35681209  0.09960575
   0.65022450  0.64815382  0.09962017
   0.32738002  0.32526651  0.10054739
   0.68162916  0.00338363  0.10056653
   0.00357534  0.67964496  0.10057066
   0.00012890  0.50001005  0.33990240
   0.16680200  0.33375044  0.33995499
   0.00000663 -0.00000095  0.33954193
   0.16694866  0.83320436  0.33996413
   0.50001146  0.50012884  0.33991139
   0.66667113  0.33334001  0.33963394
   0.49989080 -0.00012040  0.33990080
   0.66625773  0.83305116  0.33995451
Lattice                                 
           1
     4.194231    2.421492    0.000206
    -4.194264    2.421548    0.000178
     0.000049    0.001193   14.721660
   B    C 
     4    11
Direct configuration=    11
   0.00422045  0.00294710  0.11362340
   0.35893857  0.00319903  0.09980437
   0.00349415  0.35703911  0.09979850
   0.65000609  0.64792518  0.09981475
   0.32769965  0.32560373  0.10064275
   0.68129102  0.00335652  0.10066631
   0.00358614  0.67932861  0.10067145
  -0.00011323  0.50001990  0.33988972
   0.16669680  0.33324775  0.33993423
  -0.00000593  0.00000430  0.33952895
   0.16659314  0.83333451  0.33994358
   0.49997265  0.49987789  0.33989883
   0.66668702  0.33333774  0.33960751
   0.50011290  0.00010705  0.33988796
   0.66678125  0.83343892  0.33993370
Lattice                                 
           1
     4.194228    2.421468    0.000216
    -4.194273    2.421545    0.000182
     0.000060    0.001236   14.710245
   B    C 
     4    11
Direct configuration=    12
   0.00422071  0.00294873  0.11334397
   0.35902273  0.00319865  0.09987766
   0.00349253  0.35712502  0.09987158
   0.64992345  0.64783866  0.09988853
   0.32782060  0.32573133  0.10067890
   0.68116307  0.00334626  0.10070415
   0.00359022  0.67920890  0.10070967
  -0.00020486  0.50002363  0.33988491
   0.16665700  0.33305753  0.33992635
  -0.00001068  0.00000629  0.33952403
   0.16645861  0.83338375  0.33993579
   0.49995797  0.49978293  0.33989407
   0.66669303  0.33333688  0.33959748
   0.50019695  0.00019312  0.33988309
   0.66697935  0.83358566  0.33992580
Lattice                                 
           1
     4.193879    2.421292    0.000245
    -4.193905    2.421338    0.000184
     0.000107    0.001333   14.682715
   B    C 
     4    11
Direct configuration=    13
   0.00421523  0.00292571  0.11263952
   0.35896438  0.00316205  0.09998271
   0.00356821  0.35711940  0.09997698
   0.64992357  0.64790378  0.09999313
   0.32790309  0.32592063  0.10084226
   0.68098136  0.00324468  0.10086924
   0.00366994  0.67911666  0.10087480
  -0.00014620  0.50000587  0.33986905
   0.16658603  0.33302201  0.33989734
   0.00000616  0.00000931  0.33955519
   0.16646499  0.83343728  0.33990594
   0.49999490  0.49984818  0.33987717
   0.66667922  0.33333568  0.33959878
   0.50015144  0.00015415  0.33986710
   0.66699835  0.83356194  0.33989679
Lattice                                 
           1
     4.192829    2.420765    0.000332
    -4.192802    2.420717    0.000190
     0.000248    0.001621   14.600123
   B    C 
     4    11
Direct configuration=    14
   0.00419884  0.00285667  0.11052221
   0.35878932  0.00305225  0.10029844
   0.00379523  0.35710256  0.10029375
   0.64992394  0.64809917  0.10030753
   0.32815060  0.32648857  0.10133324
   0.68043620  0.00293992  0.10136545
   0.00390911  0.67883993  0.10137112
   0.00002978  0.49995258  0.33982136
   0.16637311  0.33291543  0.33981014
   0.00005668  0.00001839  0.33964885
   0.16648415  0.83359787  0.33981622
   0.50010571  0.50004395  0.33982636
   0.66663776  0.33333206  0.33960269
   0.50001489  0.00003722  0.33981903
   0.66705536  0.83349077  0.33980961
Lattice                                 
           1
     4.192442    2.420571    0.000364
    -4.192395    2.420489    0.000193
     0.000301    0.001727   14.569671
   B    C 
     4    11
Direct configuration=    15
   0.00419286  0.00283125  0.10973713
   0.35872475  0.00301175  0.10041551
   0.00387895  0.35709635  0.10041120
   0.64992406  0.64817122  0.10042410
   0.32824186  0.32669802  0.10151530
   0.68023513  0.00282752  0.10154944
   0.00399730  0.67873785  0.10155515
   0.00009468  0.49993292  0.33980367
   0.16629459  0.33287613  0.33977781
   0.00007531  0.00002174  0.33968358
   0.16649121  0.83365710  0.33978296
   0.50014658  0.50011615  0.33980752
   0.66662247  0.33333073  0.33960413
   0.49996453 -0.00000591  0.33980121
   0.66707639  0.83346452  0.33977728
Lattice                                 
           1
     4.194638    2.421584    0.000402
    -4.194732    2.421747    0.000196
     0.000361    0.001855   14.540190
   B    C 
     4    11
Direct configuration=    16
   0.00418406  0.00280425  0.10895022
   0.35869246  0.00299678  0.10054673
   0.00394583  0.35708023  0.10054379
   0.64990663  0.64823295  0.10055304
   0.32784295  0.32632978  0.10166002
   0.68059555  0.00283459  0.10169151
   0.00401709  0.67908895  0.10169591
   0.00005314  0.50006719  0.33977192
   0.16699487  0.33383032  0.33977623
  -0.00005741 -0.00000870  0.33971921
   0.16697157  0.83310100  0.33978037
   0.49989026  0.50004538  0.33977441
   0.66674638  0.33335530  0.33963733
   0.49990852 -0.00011027  0.33976955
   0.66626877  0.83311959  0.33977578
Lattice                                 
           1
     4.194036    2.421307    0.000391
    -4.194092    2.421403    0.000195
     0.000345    0.001820   14.548265
   B    C 
     4    11
Direct configuration=    17
   0.00418646  0.00281163  0.10916619
   0.35870130  0.00300088  0.10051072
   0.00392752  0.35708464  0.10050740
   0.64991140  0.64821605  0.10051765
   0.32795217  0.32643059  0.10162030
   0.68049688  0.00283265  0.10165252
   0.00401167  0.67899284  0.10165728
   0.00006451  0.50003044  0.33978063
   0.16680315  0.33356909  0.33977666
  -0.00002108 -0.00000036  0.33970943
   0.16684007  0.83325323  0.33978108
   0.49996043  0.50006475  0.33978350
   0.66671246  0.33334857  0.33962822
   0.49992385 -0.00008170  0.33977824
   0.66648988  0.83321403  0.33977619
Lattice                                 
           1
     4.195047    2.422056    0.000408
    -4.195020    2.422010    0.000196
     0.000371    0.001874   14.541711
   B    C 
     4    11
Direct configuration=    18
   0.00418007  0.00280028  0.10897568
   0.35883134  0.00302301  0.10056961
   0.00391085  0.35717909  0.10056730
   0.64978844  0.64809926  0.10057456
   0.32772491  0.32612353  0.10160449
   0.68079916  0.00293904  0.10163226
   0.00394806  0.67920221  0.10163569
   0.00001711  0.49999826  0.33976947
   0.16672409  0.33348163  0.33980149
   0.00003185  0.00000974  0.33971632
   0.16674319  0.83327833  0.33980577
   0.50004798  0.50001266  0.33977205
   0.66666210  0.33334001  0.33965304
   0.50003249  0.00002467  0.33976718
   0.66651902  0.83325561  0.33980110
Lattice                                 
           1
     4.195394    2.422314    0.000413
    -4.195339    2.422219    0.000197
     0.000380    0.001892   14.539460
   B    C 
     4    11
Direct configuration=    19
   0.00417788  0.00279638  0.10891022
   0.35887599  0.00303060  0.10058984
   0.00390512  0.35721151  0.10058788
   0.64974622  0.64805917  0.10059411
   0.32764689  0.32601811  0.10159905
   0.68090294  0.00297556  0.10162530
   0.00392622  0.67927410  0.10162828
   0.00000084  0.49998722  0.33976564
   0.16669695  0.33345160  0.33981002
   0.00005002  0.00001321  0.33971868
   0.16670993  0.83328694  0.33981425
   0.50007804  0.49999477  0.33976811
   0.66664481  0.33333707  0.33966157
   0.50006979  0.00006119  0.33976338
   0.66652903  0.83326989  0.33980966
Lattice                                 
           1
     4.195096    2.422027    0.000432
    -4.195108    2.422048    0.000197
     0.000413    0.001950   14.534511
   B    C 
     4    11
Direct configuration=    20
   0.00416723  0.00277437  0.10875107
   0.35907578  0.00306220  0.10064977
   0.00387048  0.35737216  0.10064881
   0.64956344  0.64786589  0.10065167
   0.32765660  0.32593098  0.10155315
   0.68099467  0.00309203  0.10157329
   0.00384769  0.67926437  0.10157452
   0.00001284  0.49997979  0.33976935
   0.16665706  0.33333701  0.33983878
  -0.00000460  0.00000600  0.33973345
   0.16673805  0.83339024  0.33984311
   0.50002123  0.50005192  0.33977178
   0.66670214  0.33334572  0.33968142
   0.49994818 -0.00001296  0.33976730
   0.66670990  0.83330763  0.33983852
Lattice                                 
           1
     4.194984    2.421919    0.000439
    -4.195021    2.421983    0.000197
     0.000426    0.001972   14.532651
   B    C 
     4    11
Direct configuration=    21
   0.00416322  0.00276610  0.10869120
   0.35915091  0.00307409  0.10067231
   0.00385745  0.35743257  0.10067173
   0.64949470  0.64779321  0.10067332
   0.32766025  0.32589821  0.10153588
   0.68102916  0.00313583  0.10155373
   0.00381816  0.67926071  0.10155430
   0.00001735  0.49997699  0.33977075
   0.16664205  0.33329392  0.33984960
  -0.00002515  0.00000328  0.33973901
   0.16674862  0.83342908  0.33985396
   0.49999987  0.50007341  0.33977316
   0.66672370  0.33334897  0.33968889
   0.49990245 -0.00004085  0.33976877
   0.66677792  0.83332182  0.33984938
Lattice                                 
           1
     4.194387    2.421668    0.000462
    -4.194373    2.421643    0.000197
     0.000464    0.002043   14.528026
   B    C 
     4    11
Direct configuration=    22
   0.00415318  0.00274348  0.10852037
   0.35928323  0.00310398  0.10072172
   0.00382434  0.35753213  0.10072208
   0.64938037  0.64766188  0.10072021
   0.32778173  0.32595155  0.10148870
   0.68098435  0.00321416  0.10149971
   0.00376008  0.67914937  0.10149839
   0.00008861  0.50001985  0.33979136
   0.16666889  0.33338230  0.33987586
   0.00001518  0.00000882  0.33976590
   0.16673519  0.83335616  0.33988039
   0.50000705  0.50007553  0.33979384
   0.66668409  0.33334441  0.33970226
   0.49994994 -0.00006474  0.33978952
   0.66664445  0.83328847  0.33987569
Lattice                                 
           1
     4.194132    2.421560    0.000472
    -4.194095    2.421497    0.000197
     0.000481    0.002073   14.526046
   B    C 
     4    11
Direct configuration=    23
   0.00414888  0.00273379  0.10844720
   0.35933989  0.00311677  0.10074289
   0.00381016  0.35757477  0.10074364
   0.64933141  0.64760564  0.10074030
   0.32783376  0.32597439  0.10146848
   0.68096516  0.00324770  0.10147657
   0.00373520  0.67910169  0.10147444
   0.00011912  0.50003821  0.33980018
   0.16668038  0.33342015  0.33988710
   0.00003245  0.00001119  0.33977741
   0.16672943  0.83332493  0.33989171
   0.50001013  0.50007643  0.33980270
   0.66666713  0.33334246  0.33970799
   0.49997027 -0.00007497  0.33979841
   0.66658729  0.83327419  0.33988696
Lattice                                 
           1
     4.194243    2.421607    0.000468
    -4.194216    2.421560    0.000197
     0.000474    0.002060   14.526906
   B    C 
     4    11
Direct configuration=    24
   0.00415075  0.00273800  0.10847898
   0.35931529  0.00311122  0.10073370
   0.00381632  0.35755625  0.10073428
   0.64935267  0.64763006  0.10073157
   0.32781117  0.32596447  0.10147726
   0.68097349  0.00323314  0.10148662
   0.00374600  0.67912239  0.10148484
   0.00010587  0.50003024  0.33979635
   0.16667539  0.33340371  0.33988222
   0.00002495  0.00001016  0.33977241
   0.16673193  0.83333849  0.33988679
   0.50000879  0.50007604  0.33979885
   0.66667450  0.33334331  0.33970550
   0.49996144 -0.00007053  0.33979455
   0.66661211  0.83328039  0.33988207
Lattice                                 
           1
     4.194502    2.421728    0.000485
    -4.194484    2.421697    0.000200
     0.000500    0.002120   14.524331
   B    C 
     4    11
Direct configuration=    25
   0.00415009  0.00273513  0.10835249
   0.35924399  0.00312117  0.10074057
   0.00381087  0.35747848  0.10074150
   0.64943251  0.64770112  0.10073717
   0.32784877  0.32601710  0.10146345
   0.68092071  0.00321518  0.10146875
   0.00375360  0.67908406  0.10146587
   0.00002331  0.50000204  0.33982430
   0.16671655  0.33345452  0.33989584
   0.00002325  0.00000998  0.33979970
   0.16674892  0.83330351  0.33990055
   0.50003500  0.50002368  0.33982698
   0.66667655  0.33334350  0.33971060
   0.50001216  0.00000974  0.33982255
   0.66656440  0.83326813  0.33989568
Lattice                                 
           1
     4.194892    2.421910    0.000512
    -4.194888    2.421904    0.000203
     0.000540    0.002211   14.520452
   B    C 
     4    11
Direct configuration=    26
   0.00414910  0.00273080  0.10816186
   0.35913655  0.00313616  0.10075092
   0.00380266  0.35736131  0.10075238
   0.64955281  0.64780819  0.10074560
   0.32790544  0.32609639  0.10144263
   0.68084117  0.00318811  0.10144181
   0.00376505  0.67902629  0.10143728
  -0.00010109  0.49995954  0.33986643
   0.16677856  0.33353108  0.33991636
   0.00002068  0.00000972  0.33984082
   0.16677452  0.83325081  0.33992128
   0.50007449  0.49994478  0.33986938
   0.66667964  0.33334380  0.33971829
   0.50008859  0.00013069  0.33986476
   0.66649252  0.83324965  0.33991620
Lattice                                 
           1
     4.194974    2.421944    0.000523
    -4.194975    2.421947    0.000205
     0.000556    0.002251   14.518949
   B    C 
     4    11
Direct configuration=    27
   0.00415004  0.00273259  0.10808183
   0.35909261  0.00313864  0.10074953
   0.00380281  0.35731662  0.10075114
   0.64959918  0.64785156  0.10074361
   0.32790736  0.32611442  0.10143769
   0.68082163  0.00316970  0.10143472
   0.00377581  0.67902161  0.10142962
  -0.00008589  0.49996039  0.33988296
   0.16676292  0.33350988  0.33992704
   0.00001827  0.00000967  0.33985663
   0.16677425  0.83326986  0.33993202
   0.50007089  0.49996087  0.33988603
   0.66668314  0.33334460  0.33972500
   0.50006972  0.00011308  0.33988131
   0.66651793  0.83325385  0.33992687
Lattice                                 
           1
     4.195220    2.422047    0.000556
    -4.195237    2.422077    0.000211
     0.000603    0.002370   14.514441
   B    C 
     4    11
Direct configuration=    28
   0.00415287  0.00273793  0.10784172
   0.35896078  0.00314607  0.10074538
   0.00380327  0.35718256  0.10074744
   0.64973831  0.64798165  0.10073763
   0.32791315  0.32616850  0.10142287
   0.68076299  0.00311445  0.10141345
   0.00380810  0.67900758  0.10140663
  -0.00004028  0.49996293  0.33993257
   0.16671597  0.33344627  0.33995909
   0.00001107  0.00000952  0.33990404
   0.16677343  0.83332701  0.33996423
   0.50006008  0.50000912  0.33993596
   0.66669365  0.33334702  0.33974514
   0.50001311  0.00006028  0.33993097
   0.66659417  0.83326643  0.33995889
Lattice                                 
           1
     4.195711    2.422253    0.000623
    -4.195759    2.422337    0.000224
     0.000698    0.002609   14.505425
   B    C 
     4    11
Direct configuration=    29
   0.00415855  0.00274863  0.10736136
   0.35869713  0.00316092  0.10073706
   0.00380419  0.35691446  0.10074003
   0.65001654  0.64824183  0.10072566
   0.32792472  0.32627664  0.10139323
   0.68064573  0.00300396  0.10137090
   0.00387267  0.67897952  0.10136065
   0.00005094  0.49996802  0.34003181
   0.16662208  0.33331907  0.34002321
  -0.00000335  0.00000923  0.33999889
   0.16677180  0.83344129  0.34002868
   0.50003847  0.50010561  0.34003586
   0.66671466  0.33335186  0.33978543
   0.49989989 -0.00004533  0.34003031
   0.66674664  0.83329160  0.34002294
Lattice                                 
           1
     4.195479    2.422156    0.000592
    -4.195513    2.422214    0.000218
     0.000653    0.002496   14.509677
   B    C 
     4    11
Direct configuration=    30
   0.00415586  0.00274357  0.10758804
   0.35882145  0.00315392  0.10074098
   0.00380376  0.35704089  0.10074353
   0.64988534  0.64811914  0.10073131
   0.32791926  0.32622565  0.10140722
   0.68070102  0.00305606  0.10139097
   0.00384222  0.67899275  0.10138235
   0.00000793  0.49996563  0.33998498
   0.16666636  0.33337906  0.33999295
   0.00000345  0.00000937  0.33995413
   0.16677257  0.83338740  0.33999827
   0.50004867  0.50006011  0.33998872
   0.66670475  0.33334958  0.33976642
   0.49995328  0.00000447  0.33998343
   0.66667474  0.83327973  0.33999272
Lattice                                 
           1
     4.195155    2.422032    0.000617
    -4.195160    2.422042    0.000223
     0.000688    0.002587   14.506526
   B    C 
     4    11
Direct configuration=    31
   0.00415819  0.00275109  0.10741211
   0.35884481  0.00314727  0.10072906
   0.00380814  0.35707040  0.10073174
   0.64985586  0.64809172  0.10071873
   0.32790643  0.32623543  0.10139822
   0.68068771  0.00303030  0.10137886
   0.00386011  0.67900086  0.10136945
   0.00007886  0.50000886  0.34001164
   0.16666063  0.33337210  0.34002849
   0.00002218  0.00001259  0.33998042
   0.16673871  0.83337325  0.34003374
   0.50002790  0.50007602  0.34001549
   0.66668861  0.33334819  0.33979977
   0.49995947 -0.00004446  0.34001007
   0.66666305  0.83329372  0.34002821
Lattice                                 
           1
     4.194181    2.421662    0.000692
    -4.194101    2.421524    0.000239
     0.000792    0.002861   14.497073
   B    C 
     4    11
Direct configuration=    32
   0.00416519  0.00277366  0.10688419
   0.35891490  0.00312731  0.10069326
   0.00382129  0.35715897  0.10069636
   0.64976744  0.64800947  0.10068098
   0.32786792  0.32626478  0.10137122
   0.68064777  0.00295301  0.10134252
   0.00391380  0.67902516  0.10133074
   0.00029166  0.50013857  0.34009163
   0.16664346  0.33335123  0.34013516
   0.00007838  0.00002225  0.34005932
   0.16663711  0.83333080  0.34014020
   0.49996558  0.50012374  0.34009583
   0.66664017  0.33334400  0.33989986
   0.49997804 -0.00019129  0.34009001
   0.66662795  0.83333569  0.34013471
Lattice                                 
           1
     4.194131    2.421614    0.000712
    -4.194066    2.421501    0.000242
     0.000819    0.002932   14.494683
   B    C 
     4    11
Direct configuration=    33
   0.00416541  0.00277678  0.10674961
   0.35896583  0.00311922  0.10068373
   0.00382417  0.35721705  0.10068685
   0.64970972  0.64795550  0.10067128
   0.32786143  0.32626376  0.10136129
   0.68064643  0.00294566  0.10133100
   0.00391933  0.67903051  0.10131883
   0.00024851  0.50011985  0.34011137
   0.16666287  0.33336717  0.34016431
   0.00006579  0.00002079  0.34007937
   0.16666028  0.83332868  0.34016925
   0.49997029  0.50010906  0.34011561
   0.66665373  0.33334597  0.33992996
   0.49997867 -0.00016206  0.34010973
   0.66662822  0.83332938  0.34016383
Lattice                                 
           1
     4.193984    2.421471    0.000771
    -4.193961    2.421432    0.000254
     0.000901    0.003143   14.487513
   B    C 
     4    11
Direct configuration=    34
   0.00416608  0.00278615  0.10634579
   0.35911862  0.00309497  0.10065513
   0.00383280  0.35739131  0.10065829
   0.64953655  0.64779361  0.10064216
   0.32784197  0.32626073  0.10133147
   0.68064242  0.00292361  0.10129643
   0.00393589  0.67904656  0.10128310
   0.00011908  0.50006369  0.34017059
   0.16672109  0.33341499  0.34025180
   0.00002800  0.00001642  0.34013953
   0.16672979  0.83332230  0.34025641
   0.49998441  0.50006502  0.34017494
   0.66669439  0.33335187  0.34002027
   0.49998055 -0.00007436  0.34016890
   0.66662903  0.83331047  0.34025120
Lattice                                 
           1
     4.193688    2.421183    0.000888
    -4.193752    2.421294    0.000277
     0.001064    0.003565   14.473174
   B    C 
     4    11
Direct configuration=    35
   0.00416747  0.00280491  0.10553775
   0.35942423  0.00304646  0.10059790
   0.00385007  0.35773984  0.10060115
   0.64919020  0.64746980  0.10058389
   0.32780305  0.32625465  0.10127180
   0.68063441  0.00287950  0.10122725
   0.00396902  0.67907866  0.10121161
  -0.00013981  0.49995136  0.34028908
   0.16683754  0.33351064  0.34042686
  -0.00004760  0.00000768  0.34025992
   0.16686881  0.83330955  0.34043081
   0.50001265  0.49997694  0.34029368
   0.66677571  0.33336368  0.34020098
   0.49998430  0.00010103  0.34028730
   0.66663063  0.83327264  0.34042603
Lattice                                 
           1
     4.193749    2.421242    0.000864
    -4.193795    2.421322    0.000272
     0.001031    0.003479   14.476108
   B    C 
     4    11
Direct configuration=    36
   0.00416717  0.00280106  0.10570326
   0.35936169  0.00305638  0.10060962
   0.00384653  0.35766851  0.10061285
   0.64926107  0.64753607  0.10059582
   0.32781101  0.32625589  0.10128402
   0.68063605  0.00288853  0.10124142
   0.00396224  0.67907209  0.10122626
  -0.00008683  0.49997435  0.34026481
   0.16681371  0.33349107  0.34039100
  -0.00003212  0.00000947  0.34023526
   0.16684036  0.83331216  0.34039509
   0.50000688  0.49999497  0.34026936
   0.66675908  0.33336126  0.34016397
   0.49998353  0.00006514  0.34026305
   0.66663030  0.83328038  0.34039022
Lattice                                 
           1
     4.194126    2.421508    0.000904
    -4.194144    2.421539    0.000280
     0.001088    0.003623   14.471276
   B    C 
     4    11
Direct configuration=    37
   0.00416394  0.00279934  0.10542802
   0.35943144  0.00304164  0.10059582
   0.00384755  0.35774987  0.10059894
   0.64917949  0.64746099  0.10058220
   0.32779748  0.32622792  0.10125080
   0.68066097  0.00290028  0.10120670
   0.00395230  0.67909041  0.10119124
  -0.00007796  0.49995828  0.34031394
   0.16677391  0.33347705  0.34044523
  -0.00000733  0.00001420  0.34028567
   0.16682479  0.83332726  0.34044900
   0.50005203  0.50000360  0.34031844
   0.66673747  0.33335880  0.34022353
   0.50000464  0.00008556  0.34031210
   0.66661993  0.83327214  0.34044437
Lattice                                 
           1
     4.195258    2.422306    0.001026
    -4.195192    2.422192    0.000302
     0.001261    0.004057   14.456779
   B    C 
     4    11
Direct configuration=    38
   0.00415431  0.00279422  0.10460205
   0.35964067  0.00299743  0.10055439
   0.00385062  0.35799391  0.10055720
   0.64893475  0.64723577  0.10054132
   0.32775689  0.32614400  0.10115112
   0.68073576  0.00293553  0.10110250
   0.00392250  0.67914536  0.10108614
  -0.00005136  0.49991007  0.34046138
   0.16665451  0.33343500  0.34060795
   0.00006706  0.00002840  0.34043695
   0.16677809  0.83337255  0.34061081
   0.50018746  0.50002947  0.34046573
   0.66667266  0.33335139  0.34040228
   0.50006795  0.00014684  0.34045930