<?xml version="1.0" encoding="ISO-8859-1"?>
<modeling>
 <generator>
  <i name="program" type="string">vasp </i>
  <i name="version" type="string">6.3.2  </i>
  <i name="subversion" type="string">27Jun22 (build Dec 22 2022 13:13:19) complex                          parallel </i>
  <i name="platform" type="string">LinuxIFC </i>
  <i name="date" type="string">2023 08 23 </i>
  <i name="time" type="string">17:30:12 </i>
 </generator>
 <incar>
  <i type="string" name="SYSTEM">Lattice</i>
  <i type="int" name="ISTART">     0</i>
  <i type="string" name="PREC">Accurate</i>
  <i type="string" name="ALGO">Normal</i>
  <i type="int" name="ISPIN">     2</i>
  <i type="int" name="ICHARG">     2</i>
  <i type="int" name="NELM">    64</i>
  <i type="int" name="IBRION">     2</i>
  <i name="EDIFF">      0.00000001</i>
  <i name="EDIFFG">     -0.00100000</i>
  <i type="int" name="NSW">   128</i>
  <i type="int" name="ISIF">     2</i>
  <i name="ENCUT">    450.00000000</i>
  <i name="POTIM">      0.50000000</i>
  <i type="int" name="ISMEAR">     0</i>
  <i name="SIGMA">      0.10000000</i>
  <i type="logical" name="LWAVE"> F  </i>
  <i type="logical" name="LCHARG"> F  </i>
  <i type="string" name="GGA">PE</i>
  <i type="int" name="IVDW">    12</i>
 </incar>
 <primitive_cell>
  <structure name="primitive_cell" >
   <crystal>
    <varray name="basis" >
     <v>       4.18636680       2.41700000       0.00000000 </v>
     <v>      -4.18636680       2.41700000       0.00000000 </v>
     <v>       0.00000000       0.00000000      15.00000000 </v>
    </varray>
    <i name="volume">    303.55345681 </i>
    <varray name="rec_basis" >
     <v>       0.11943531       0.20686802       0.00000000 </v>
     <v>      -0.11943531       0.20686802       0.00000000 </v>
     <v>       0.00000000       0.00000000       0.06666667 </v>
    </varray>
   </crystal>
   <varray name="positions" >
    <v>       0.00415361       0.00267210       0.12034134 </v>
    <v>       0.35695335       0.00285503       0.09748893 </v>
    <v>       0.00423858       0.35550699       0.09749256 </v>
    <v>       0.65142295       0.65006557       0.09747688 </v>
    <v>       0.32808646       0.32671938       0.10030508 </v>
    <v>       0.68027775       0.00278085       0.10027562 </v>
    <v>       0.00416530       0.67883808       0.10026559 </v>
    <v>       0.16666600       0.33333300       0.33720000 </v>
    <v>       0.33333300       0.16666600       0.33720000 </v>
    <v>       0.16666600       0.83333300       0.33720000 </v>
    <v>       0.33333300       0.66666600       0.33720000 </v>
    <v>       0.66666600       0.33333300       0.33720000 </v>
    <v>       0.83333300       0.16666600       0.33720000 </v>
    <v>       0.66666600       0.83333300       0.33720000 </v>
    <v>       0.83333300       0.66666600       0.33720000 </v>
   </varray>
  </structure>
  <varray name="primitive_index" >
   <v type="int" >        1 </v>
   <v type="int" >        2 </v>
   <v type="int" >        3 </v>
   <v type="int" >        4 </v>
   <v type="int" >        5 </v>
   <v type="int" >        6 </v>
   <v type="int" >        7 </v>
   <v type="int" >        8 </v>
   <v type="int" >        9 </v>
   <v type="int" >       10 </v>
   <v type="int" >       11 </v>
   <v type="int" >       12 </v>
   <v type="int" >       13 </v>
   <v type="int" >       14 </v>
   <v type="int" >       15 </v>
  </varray>
 </primitive_cell>
 <kpoints>
  <generation param="Gamma">
   <v type="int" name="divisions">      12       12        1 </v>
   <v name="usershift">      0.00000000       0.00000000       0.00000000 </v>
   <v name="genvec1">      0.08333333       0.00000000       0.00000000 </v>
   <v name="genvec2">      0.00000000       0.08333333       0.00000000 </v>
   <v name="genvec3">      0.00000000       0.00000000       1.00000000 </v>
   <v name="shift">      0.00000000       0.00000000       0.00000000 </v>
  </generation>
  <varray name="kpointlist" >
   <v>       0.00000000       0.00000000       0.00000000 </v>
   <v>       0.08333333      -0.00000000       0.00000000 </v>
   <v>      -0.00000000       0.08333333       0.00000000 </v>
   <v>      -0.08333333       0.08333333       0.00000000 </v>
   <v>       0.16666667      -0.00000000       0.00000000 </v>
   <v>      -0.00000000       0.16666667       0.00000000 </v>
   <v>      -0.16666667       0.16666667       0.00000000 </v>
   <v>       0.25000000      -0.00000000       0.00000000 </v>
   <v>      -0.00000000       0.25000000       0.00000000 </v>
   <v>      -0.25000000       0.25000000       0.00000000 </v>
   <v>       0.33333333      -0.00000000       0.00000000 </v>
   <v>      -0.00000000       0.33333333       0.00000000 </v>
   <v>      -0.33333333       0.33333333       0.00000000 </v>
   <v>       0.41666667      -0.00000000       0.00000000 </v>
   <v>      -0.00000000       0.41666667       0.00000000 </v>
   <v>      -0.41666667       0.41666667       0.00000000 </v>
   <v>       0.50000000      -0.00000000       0.00000000 </v>
   <v>      -0.00000000       0.50000000       0.00000000 </v>
   <v>       0.50000000       0.50000000       0.00000000 </v>
   <v>       0.08333333       0.08333333       0.00000000 </v>
   <v>      -0.08333333       0.16666667       0.00000000 </v>
   <v>      -0.16666667       0.08333333       0.00000000 </v>
   <v>       0.16666667       0.08333333       0.00000000 </v>
   <v>      -0.08333333       0.25000000       0.00000000 </v>
   <v>      -0.25000000       0.16666667       0.00000000 </v>
   <v>      -0.16666667       0.25000000       0.00000000 </v>
   <v>       0.08333333       0.16666667       0.00000000 </v>
   <v>       0.25000000      -0.08333333       0.00000000 </v>
   <v>       0.25000000       0.08333333       0.00000000 </v>
   <v>      -0.08333333       0.33333333       0.00000000 </v>
   <v>      -0.33333333       0.25000000       0.00000000 </v>
   <v>      -0.25000000       0.33333333       0.00000000 </v>
   <v>       0.08333333       0.25000000       0.00000000 </v>
   <v>       0.33333333      -0.08333333       0.00000000 </v>
   <v>       0.33333333       0.08333333       0.00000000 </v>
   <v>      -0.08333333       0.41666667       0.00000000 </v>
   <v>      -0.41666667       0.33333333       0.00000000 </v>
   <v>      -0.33333333       0.41666667       0.00000000 </v>
   <v>       0.08333333       0.33333333       0.00000000 </v>
   <v>       0.41666667      -0.08333333       0.00000000 </v>
   <v>       0.41666667       0.08333333       0.00000000 </v>
   <v>      -0.08333333       0.50000000       0.00000000 </v>
   <v>       0.50000000       0.41666667       0.00000000 </v>
   <v>      -0.41666667       0.50000000       0.00000000 </v>
   <v>       0.08333333       0.41666667       0.00000000 </v>
   <v>       0.50000000      -0.08333333       0.00000000 </v>
   <v>       0.16666667       0.16666667       0.00000000 </v>
   <v>      -0.16666667       0.33333333       0.00000000 </v>
   <v>      -0.33333333       0.16666667       0.00000000 </v>
   <v>       0.25000000       0.16666667       0.00000000 </v>
   <v>      -0.16666667       0.41666667       0.00000000 </v>
   <v>      -0.41666667       0.25000000       0.00000000 </v>
   <v>      -0.25000000       0.41666667       0.00000000 </v>
   <v>       0.16666667       0.25000000       0.00000000 </v>
   <v>       0.41666667      -0.16666667       0.00000000 </v>
   <v>       0.33333333       0.16666667       0.00000000 </v>
   <v>      -0.16666667       0.50000000       0.00000000 </v>
   <v>       0.50000000       0.33333333       0.00000000 </v>
   <v>      -0.33333333       0.50000000       0.00000000 </v>
   <v>       0.16666667       0.33333333       0.00000000 </v>
   <v>       0.50000000      -0.16666667       0.00000000 </v>
   <v>       0.41666667       0.16666667       0.00000000 </v>
   <v>      -0.16666667      -0.41666667       0.00000000 </v>
   <v>       0.41666667       0.41666667       0.00000000 </v>
   <v>       0.25000000       0.25000000       0.00000000 </v>
   <v>      -0.25000000       0.50000000       0.00000000 </v>
   <v>       0.50000000       0.25000000       0.00000000 </v>
   <v>       0.33333333       0.25000000       0.00000000 </v>
   <v>      -0.25000000      -0.41666667       0.00000000 </v>
   <v>       0.41666667       0.33333333       0.00000000 </v>
   <v>      -0.33333333      -0.41666667       0.00000000 </v>
   <v>       0.25000000       0.33333333       0.00000000 </v>
   <v>      -0.41666667      -0.25000000       0.00000000 </v>
   <v>       0.33333333       0.33333333       0.00000000 </v>
  </varray>
  <varray name="weights" >
   <v>       0.00694444 </v>
   <v>       0.01388889 </v>
   <v>       0.01388889 </v>
   <v>       0.01388889 </v>
   <v>       0.01388889 </v>
   <v>       0.01388889 </v>
   <v>       0.01388889 </v>
   <v>       0.01388889 </v>
   <v>       0.01388889 </v>
   <v>       0.01388889 </v>
   <v>       0.01388889 </v>
   <v>       0.01388889 </v>
   <v>       0.01388889 </v>
   <v>       0.01388889 </v>
   <v>       0.01388889 </v>
   <v>       0.01388889 </v>
   <v>       0.00694444 </v>
   <v>       0.00694444 </v>
   <v>       0.00694444 </v>
   <v>       0.01388889 </v>
   <v>       0.01388889 </v>
   <v>       0.01388889 </v>
   <v>       0.01388889 </v>
   <v>       0.01388889 </v>
   <v>       0.01388889 </v>
   <v>       0.01388889 </v>
   <v>       0.01388889 </v>
   <v>       0.01388889 </v>
   <v>       0.01388889 </v>
   <v>       0.01388889 </v>
   <v>       0.01388889 </v>
   <v>       0.01388889 </v>
   <v>       0.01388889 </v>
   <v>       0.01388889 </v>
   <v>       0.01388889 </v>
   <v>       0.01388889 </v>
   <v>       0.01388889 </v>
   <v>       0.01388889 </v>
   <v>       0.01388889 </v>
   <v>       0.01388889 </v>
   <v>       0.01388889 </v>
   <v>       0.01388889 </v>
   <v>       0.01388889 </v>
   <v>       0.01388889 </v>
   <v>       0.01388889 </v>
   <v>       0.01388889 </v>
   <v>       0.01388889 </v>
   <v>       0.01388889 </v>
   <v>       0.01388889 </v>
   <v>       0.01388889 </v>
   <v>       0.01388889 </v>
   <v>       0.01388889 </v>
   <v>       0.01388889 </v>
   <v>       0.01388889 </v>
   <v>       0.01388889 </v>
   <v>       0.01388889 </v>
   <v>       0.01388889 </v>
   <v>       0.01388889 </v>
   <v>       0.01388889 </v>
   <v>       0.01388889 </v>
   <v>       0.01388889 </v>
   <v>       0.01388889 </v>
   <v>       0.01388889 </v>
   <v>       0.01388889 </v>
   <v>       0.01388889 </v>
   <v>       0.01388889 </v>
   <v>       0.01388889 </v>
   <v>       0.01388889 </v>
   <v>       0.01388889 </v>
   <v>       0.01388889 </v>
   <v>       0.01388889 </v>
   <v>       0.01388889 </v>
   <v>       0.01388889 </v>
   <v>       0.01388889 </v>
  </varray>
 </kpoints>
 <parameters>
  <separator name="general" >
   <i type="string" name="SYSTEM">Lattice</i>
   <i type="logical" name="LCOMPAT"> F  </i>
  </separator>
  <separator name="electronic" >
   <i type="string" name="PREC">accura</i>
   <i name="ENMAX">    450.00000000</i>
   <i name="ENAUG">    644.87300000</i>
   <i name="EDIFF">      0.00000001</i>
   <i type="int" name="IALGO">    38</i>
   <i type="int" name="IWAVPR">    11</i>
   <i type="int" name="NBANDS">    48</i>
   <i type="int" name="NBANDSLOW">    -1</i>
   <i type="int" name="NBANDSHIGH">    -1</i>
   <i name="NELECT">     56.00000000</i>
   <i type="int" name="TURBO">     0</i>
   <i type="int" name="IRESTART">     0</i>
   <i type="int" name="NREBOOT">     0</i>
   <i type="int" name="NMIN">     0</i>
   <i name="EREF">      0.00000000</i>
   <separator name="electronic smearing" >
    <i type="int" name="ISMEAR">     0</i>
    <i name="SIGMA">      0.10000000</i>
    <i name="KSPACING">      0.50000000</i>
    <i type="logical" name="KGAMMA"> T  </i>
    <i type="logical" name="KBLOWUP"> T  </i>
   </separator>
   <separator name="electronic projectors" >
    <i type="logical" name="LREAL"> F  </i>
    <v name="ROPT">      0.00000000      0.00000000</v>
    <i type="int" name="LMAXPAW">  -100</i>
    <i type="int" name="LMAXMIX">     2</i>
    <i type="logical" name="NLSPLINE"> F  </i>
   </separator>
   <separator name="electronic startup" >
    <i type="int" name="ISTART">     0</i>
    <i type="int" name="ICHARG">     2</i>
    <i type="int" name="INIWAV">     1</i>
   </separator>
   <separator name="electronic spin" >
    <i type="int" name="ISPIN">     2</i>
    <i type="logical" name="LNONCOLLINEAR"> F  </i>
    <v name="MAGMOM">      1.00000000      1.00000000      1.00000000      1.00000000      1.00000000      1.00000000      1.00000000      1.00000000      1.00000000      1.00000000      1.00000000      1.00000000      1.00000000      1.00000000      1.00000000</v>
    <i name="NUPDOWN">     -1.00000000</i>
    <i type="logical" name="LSORBIT"> F  </i>
    <v name="SAXIS">      0.00000000      0.00000000      1.00000000</v>
    <i type="logical" name="LSPIRAL"> F  </i>
    <v name="QSPIRAL">      0.00000000      0.00000000      0.00000000</v>
    <i type="logical" name="LZEROZ"> F  </i>
   </separator>
   <separator name="electronic exchange-correlation" >
    <i type="logical" name="LASPH"> F  </i>
    <i type="logical" name="LMETAGGA"> F  </i>
   </separator>
   <separator name="electronic convergence" >
    <i type="int" name="NELM">    64</i>
    <i type="int" name="NELMDL">    -5</i>
    <i type="int" name="NELMIN">     2</i>
    <i name="ENINI">    450.00000000</i>
    <separator name="electronic convergence detail" >
     <i type="logical" name="LDIAG"> T  </i>
     <i type="logical" name="LSUBROT"> F  </i>
     <i name="WEIMIN">      0.00100000</i>
     <i name="EBREAK">      0.00000000</i>
     <i name="DEPER">      0.30000000</i>
     <i type="int" name="NRMM">     4</i>
     <i name="TIME">      0.40000000</i>
    </separator>
   </separator>
   <separator name="electronic mixer" >
    <i name="AMIX">      0.40000000</i>
    <i name="BMIX">      1.00000000</i>
    <i name="AMIN">      0.10000000</i>
    <i name="AMIX_MAG">      1.60000000</i>
    <i name="BMIX_MAG">      1.00000000</i>
    <separator name="electronic mixer details" >
     <i type="int" name="IMIX">     4</i>
     <i type="logical" name="MIXFIRST"> F  </i>
     <i type="int" name="MAXMIX">   -45</i>
     <i name="WC">    100.00000000</i>
     <i type="int" name="INIMIX">     1</i>
     <i type="int" name="MIXPRE">     1</i>
     <i type="int" name="MREMOVE">     5</i>
    </separator>
   </separator>
   <separator name="electronic dipolcorrection" >
    <i type="logical" name="LDIPOL"> F  </i>
    <i type="logical" name="LMONO"> F  </i>
    <i type="int" name="IDIPOL">     0</i>
    <i name="EPSILON">      1.00000000</i>
    <v name="DIPOL">   -100.00000000   -100.00000000   -100.00000000</v>
    <i name="EFIELD">      0.00000000</i>
   </separator>
  </separator>
  <separator name="grids" >
   <i type="int" name="NGX">    36</i>
   <i type="int" name="NGY">    36</i>
   <i type="int" name="NGZ">   108</i>
   <i type="int" name="NGXF">    72</i>
   <i type="int" name="NGYF">    72</i>
   <i type="int" name="NGZF">   216</i>
   <i type="logical" name="ADDGRID"> F  </i>
  </separator>
  <separator name="ionic" >
   <i type="int" name="NSW">   128</i>
   <i type="int" name="IBRION">     2</i>
   <i type="int" name="MDALGO">     0</i>
   <i type="int" name="ISIF">     2</i>
   <i name="PSTRESS">      0.00000000</i>
   <i name="EDIFFG">     -0.00100000</i>
   <i type="int" name="NFREE">     1</i>
   <i name="POTIM">      0.50000000</i>
   <i name="SMASS">     -3.00000000</i>
   <i name="SCALEE">      1.00000000</i>
  </separator>
  <separator name="ionic md" >
   <i name="TEBEG">      0.00010000</i>
   <i name="TEEND">      0.00010000</i>
   <i type="int" name="NBLOCK">     1</i>
   <i type="int" name="KBLOCK">   128</i>
   <i type="int" name="NPACO">   256</i>
   <i name="APACO">     10.00000000</i>
  </separator>
  <separator name="symmetry" >
   <i type="int" name="ISYM">     2</i>
   <i name="SYMPREC">      0.00001000</i>
  </separator>
  <separator name="dos" >
   <i type="int" name="LORBIT">     0</i>
   <v name="RWIGS">     -1.00000000     -1.00000000</v>
   <i type="int" name="NEDOS">   301</i>
   <i name="EMIN">     10.00000000</i>
   <i name="EMAX">    -10.00000000</i>
   <i name="EFERMI">      0.00000000</i>
  </separator>
  <separator name="writing" >
   <i type="int" name="NWRITE">     2</i>
   <i type="logical" name="LWAVE"> F  </i>
   <i type="logical" name="LDOWNSAMPLE"> F  </i>
   <i type="logical" name="LCHARG"> F  </i>
   <i type="logical" name="LPARD"> F  </i>
   <i type="logical" name="LVTOT"> F  </i>
   <i type="logical" name="LVHAR"> F  </i>
   <i type="logical" name="LELF"> F  </i>
   <i type="logical" name="LOPTICS"> F  </i>
   <v name="STM">      0.00000000      0.00000000      0.00000000      0.00000000      0.00000000      0.00000000      0.00000000</v>
  </separator>
  <separator name="performance" >
   <i type="int" name="NPAR">    48</i>
   <i type="int" name="NSIM">     4</i>
   <i type="int" name="NBLK">    -1</i>
   <i type="logical" name="LPLANE"> T  </i>
   <i type="logical" name="LSCALAPACK"> T  </i>
   <i type="logical" name="LSCAAWARE"> F  </i>
   <i type="logical" name="LSCALU"> F  </i>
   <i type="logical" name="LASYNC"> F  </i>
   <i type="logical" name="LORBITALREAL"> F  </i>
  </separator>
  <separator name="miscellaneous" >
   <i type="int" name="IDIOT">     3</i>
   <i type="int" name="PHON_NSTRUCT">    -1</i>
   <i type="logical" name="LMUSIC"> F  </i>
   <v name="POMASS">     10.81100000     12.01100000</v>
   <v name="DARWINR">      0.00000000      0.00000000</v>
   <v name="DARWINV">      1.00000000      1.00000000</v>
   <i type="logical" name="LCORR"> T  </i>
  </separator>
  <i type="logical" name="GGA_COMPAT"> T  </i>
  <i type="logical" name="LBERRY"> F  </i>
  <i type="int" name="ICORELEVEL">     0</i>
  <i type="logical" name="LDAU"> F  </i>
  <i type="int" name="I_CONSTRAINED_M">     0</i>
  <separator name="electronic exchange-correlation" >
   <i type="string" name="GGA">PE</i>
   <i type="int" name="VOSKOWN">     0</i>
   <i type="logical" name="LHFCALC"> F  </i>
   <i type="string" name="PRECFOCK"></i>
   <i type="logical" name="LSYMGRAD"> F  </i>
   <i type="logical" name="LHFONE"> F  </i>
   <i type="logical" name="LRHFCALC"> F  </i>
   <i type="logical" name="LTHOMAS"> F  </i>
   <i type="logical" name="LMODELHF"> F  </i>
   <i type="logical" name="LFOCKACE"> F  </i>
   <i name="ENCUT4O">     -1.00000000</i>
   <i type="int" name="EXXOEP">     0</i>
   <i type="int" name="FOURORBIT">     0</i>
   <i name="AEXX">      0.00000000</i>
   <i name="HFALPHA">      0.00000000</i>
   <i name="MCALPHA">      0.00000000</i>
   <i name="ALDAX">      1.00000000</i>
   <i name="AGGAX">      1.00000000</i>
   <i name="ALDAC">      1.00000000</i>
   <i name="AGGAC">      1.00000000</i>
   <i type="int" name="NKREDX">     1</i>
   <i type="int" name="NKREDY">     1</i>
   <i type="int" name="NKREDZ">     1</i>
   <i type="logical" name="SHIFTRED"> F  </i>
   <i type="logical" name="ODDONLY"> F  </i>
   <i type="logical" name="EVENONLY"> F  </i>
   <i type="int" name="LMAXFOCK">     0</i>
   <i type="int" name="NMAXFOCKAE">     0</i>
   <i type="logical" name="LFOCKAEDFT"> F  </i>
   <i name="HFSCREEN">      0.00000000</i>
   <i name="HFSCREENC">      0.00000000</i>
   <i type="int" name="NBANDSGWLOW">     0</i>
  </separator>
  <separator name="vdW DFT" >
   <i type="logical" name="LUSE_VDW"> F  </i>
   <i name="Zab_VDW">     -0.84910000</i>
   <i name="PARAM1">      0.12340000</i>
   <i name="PARAM2">      1.00000000</i>
   <i name="PARAM3">      0.00000000</i>
  </separator>
  <separator name="model GW" >
   <i type="int" name="MODEL_GW">     0</i>
   <i name="MODEL_EPS0">     12.14213827</i>
   <i name="MODEL_ALPHA">      1.00000000</i>
  </separator>
  <separator name="linear response parameters" >
   <i type="logical" name="LEPSILON"> F  </i>
   <i type="logical" name="LRPA"> F  </i>
   <i type="logical" name="LNABLA"> F  </i>
   <i type="logical" name="LVEL"> F  </i>
   <i name="CSHIFT">      0.10000000</i>
   <i name="OMEGAMAX">     -1.00000000</i>
   <i name="DEG_THRESHOLD">      0.00200000</i>
   <i name="RTIME">     -0.10000000</i>
   <i name="WPLASMAI">      0.00000000</i>
   <v name="DFIELD">      0.00000000      0.00000000      0.00000000</v>
   <v name="WPLASMA">      0.00000000      0.00000000      0.00000000      0.00000000      0.00000000      0.00000000      0.00000000      0.00000000      0.00000000</v>
  </separator>
  <separator name="orbital magnetization" >
   <i type="logical" name="NUCIND"> F  </i>
   <v name="MAGPOS">      0.00000000      0.00000000      0.00000000</v>
   <i type="logical" name="LNICSALL"> T  </i>
   <i type="logical" name="ORBITALMAG"> F  </i>
   <i type="logical" name="LMAGBLOCH"> F  </i>
   <i type="logical" name="LCHIMAG"> F  </i>
   <i type="logical" name="LGAUGE"> T  </i>
   <i type="int" name="MAGATOM">     0</i>
   <v name="MAGDIPOL">      0.00000000      0.00000000      0.00000000</v>
   <v name="AVECCONST">      0.00000000      0.00000000      0.00000000</v>
  </separator>
  <separator name="response functions" >
   <i type="logical" name="LFINITE_TEMPERATURE"> F  </i>
   <i type="logical" name="LADDER"> F  </i>
   <i type="logical" name="LRPAFORCE"> F  </i>
   <i type="logical" name="LFXC"> F  </i>
   <i type="logical" name="LHARTREE"> T  </i>
   <i type="int" name="IBSE">     0</i>
   <v type="int" name="KPOINT">    -1     0     0     0</v>
   <i type="logical" name="LTCTC"> F  </i>
   <i type="logical" name="LTCTE"> F  </i>
   <i type="logical" name="LTETE"> F  </i>
   <i type="logical" name="LTRIPLET"> F  </i>
   <i type="logical" name="LFXCEPS"> F  </i>
   <i type="logical" name="LFXHEG"> F  </i>
   <i type="int" name="NATURALO">     2</i>
   <i type="logical" name="LHOLEGF"> F  </i>
   <i type="logical" name="L2ORDER"> F  </i>
   <i type="logical" name="LDMP1"> F  </i>
   <i type="logical" name="LMP2LT"> F  </i>
   <i type="logical" name="LSMP2LT"> F  </i>
   <i type="logical" name="LGWLF"> F  </i>
   <i name="ENCUTGW">     -2.00000000</i>
   <i name="ENCUTGWSOFT">     -2.00000000</i>
   <i name="ENCUTLF">     -1.00000000</i>
   <i type="logical" name="LESF_SPLINES"> F  </i>
   <i type="int" name="LMAXMP2">    -1</i>
   <i name="SCISSOR">      0.00000000</i>
   <i type="int" name="NOMEGA">     0</i>
   <i type="int" name="NOMEGAR">     0</i>
   <i type="int" name="NBANDSGW">    -1</i>
   <i type="int" name="NBANDSO">    -1</i>
   <i type="int" name="NBANDSV">    -1</i>
   <i type="int" name="NELMGW">     1</i>
   <i type="int" name="NELMHF">     1</i>
   <i type="int" name="DIM">     3</i>
   <i type="int" name="IESPILON">     4</i>
   <i type="int" name="ANTIRES">     0</i>
   <i name="OMEGAMAX">    -30.00000000</i>
   <i name="OMEGAMIN">    -30.00000000</i>
   <i name="OMEGATL">   -200.00000000</i>
   <i type="int" name="OMEGAGRID">     0</i>
   <i name="CSHIFT">     -0.10000000</i>
   <i type="logical" name="LSELFENERGY"> F  </i>
   <i type="logical" name="LSPECTRAL"> F  </i>
   <i type="logical" name="LSPECTRALGW"> F  </i>
   <i type="logical" name="LSINGLES"> F  </i>
   <i type="logical" name="LFERMIGW"> F  </i>
   <i type="logical" name="ODDONLYGW"> F  </i>
   <i type="logical" name="EVENONLYGW"> F  </i>
   <i type="int" name="NKREDLFX">     1</i>
   <i type="int" name="NKREDLFY">     1</i>
   <i type="int" name="NKREDLFZ">     1</i>
   <i type="int" name="MAXMEM">  2800</i>
   <i type="int" name="TELESCOPE">     0</i>
   <i type="int" name="NTAUPAR">    -1</i>
   <i type="int" name="NOMEGAPAR">    -1</i>
   <i name="DAMP_NEWTON">      0.80000001</i>
   <i name="LAMBDA">      1.00000000</i>
  </separator>
  <separator name="External order field" >
   <i name="OFIELD_KAPPA">      0.00000000</i>
   <v name="OFIELD_K">      0.00000000      0.00000000      0.00000000</v>
   <i name="OFIELD_Q6_NEAR">      0.00000000</i>
   <i name="OFIELD_Q6_FAR">      0.00000000</i>
   <i name="OFIELD_A">      0.00000000</i>
  </separator>
  <separator name="optional k-points parameters" >
   <i type="int" name="KPOINTS_OPT_MODE">     1</i>
   <i type="logical" name="LKPOINTS_OPT"> F  </i>
  </separator>
  <separator name="solvation model" >
   <i type="logical" name="LSOL"> F  </i>
  </separator>
 </parameters>
 <atominfo>
  <atoms>      15 </atoms>
  <types>       2 </types>
  <array name="atoms" >
   <dimension dim="1">ion</dimension>
   <field type="string">element</field>
   <field type="int">atomtype</field>
   <set>
    <rc><c>B </c><c>   1</c></rc>
    <rc><c>B </c><c>   1</c></rc>
    <rc><c>B </c><c>   1</c></rc>
    <rc><c>B </c><c>   1</c></rc>
    <rc><c>C </c><c>   2</c></rc>
    <rc><c>C </c><c>   2</c></rc>
    <rc><c>C </c><c>   2</c></rc>
    <rc><c>C </c><c>   2</c></rc>
    <rc><c>C </c><c>   2</c></rc>
    <rc><c>C </c><c>   2</c></rc>
    <rc><c>C </c><c>   2</c></rc>
    <rc><c>C </c><c>   2</c></rc>
    <rc><c>C </c><c>   2</c></rc>
    <rc><c>C </c><c>   2</c></rc>
    <rc><c>C </c><c>   2</c></rc>
   </set>
  </array>
  <array name="atomtypes" >
   <dimension dim="1">type</dimension>
   <field type="int">atomspertype</field>
   <field type="string">element</field>
   <field>mass</field>
   <field>valence</field>
   <field type="string">pseudopotential</field>
   <set>
    <rc><c>   4</c><c>B </c><c>     10.81100000</c><c>      3.00000000</c><c>  PAW_PBE B 06Sep2000                   </c></rc>
    <rc><c>  11</c><c>C </c><c>     12.01100000</c><c>      4.00000000</c><c>  PAW_PBE C 08Apr2002                   </c></rc>
   </set>
  </array>
 </atominfo>
 <structure name="initialpos" >
  <crystal>
   <varray name="basis" >
    <v>       4.18636680       2.41700000       0.00000000 </v>
    <v>      -4.18636680       2.41700000       0.00000000 </v>
    <v>       0.00000000       0.00000000      15.00000000 </v>
   </varray>
   <i name="volume">    303.55345681 </i>
   <varray name="rec_basis" >
    <v>       0.11943531       0.20686802       0.00000000 </v>
    <v>      -0.11943531       0.20686802       0.00000000 </v>
    <v>       0.00000000       0.00000000       0.06666667 </v>
   </varray>
  </crystal>
  <varray name="positions" >
   <v>       0.00415361       0.00267210       0.12034134 </v>
   <v>       0.35695335       0.00285503       0.09748893 </v>
   <v>       0.00423858       0.35550699       0.09749256 </v>
   <v>       0.65142295       0.65006557       0.09747688 </v>
   <v>       0.32808646       0.32671938       0.10030508 </v>
   <v>       0.68027775       0.00278085       0.10027562 </v>
   <v>       0.00416530       0.67883808       0.10026559 </v>
   <v>       0.16666600       0.33333300       0.33720000 </v>
   <v>       0.33333300       0.16666600       0.33720000 </v>
   <v>       0.16666600       0.83333300       0.33720000 </v>
   <v>       0.33333300       0.66666600       0.33720000 </v>
   <v>       0.66666600       0.33333300       0.33720000 </v>
   <v>       0.83333300       0.16666600       0.33720000 </v>
   <v>       0.66666600       0.83333300       0.33720000 </v>
   <v>       0.83333300       0.66666600       0.33720000 </v>
  </varray>
 </structure>
 <calculation>
  <scstep>
   <time name="dav">    5.58    5.65</time>
   <time name="total">    5.63    5.70</time>
   <energy>
    <i name="alphaZ">     58.59691083 </i>
    <i name="ewald">   4719.73085939 </i>
    <i name="hartreedc">  -6274.19790661 </i>
    <i name="XCdc">    175.32049239 </i>
    <i name="pawpsdc">   1365.87943566 </i>
    <i name="pawaedc">  -1368.52100941 </i>
    <i name="eentropy">     -0.01834051 </i>
    <i name="bandstr">   -377.56532363 </i>
    <i name="atom">   1903.26342058 </i>
    <i name="e_fr_energy">    202.48853870 </i>
    <i name="e_wo_entrp">    202.50687920 </i>
    <i name="e_0_energy">    202.49770895 </i>
   </energy>
  </scstep>
  <scstep>
   <time name="dav">    7.93    8.02</time>
   <time name="total">    7.93    8.02</time>
   <energy>
    <i name="e_fr_energy">   -116.32543314 </i>
    <i name="e_wo_entrp">   -116.32402682 </i>
    <i name="e_0_energy">   -116.32472998 </i>
   </energy>
  </scstep>
  <scstep>
   <time name="dav">   11.30   11.38</time>
   <time name="total">   11.31   11.38</time>
   <energy>
    <i name="e_fr_energy">   -129.56768605 </i>
    <i name="e_wo_entrp">   -129.56462036 </i>
    <i name="e_0_energy">   -129.56615320 </i>
   </energy>
  </scstep>
  <scstep>
   <time name="dav">    8.07    8.15</time>
   <time name="total">    8.07    8.15</time>
   <energy>
    <i name="e_fr_energy">   -129.59363878 </i>
    <i name="e_wo_entrp">   -129.59056650 </i>
    <i name="e_0_energy">   -129.59210264 </i>
   </energy>
  </scstep>
  <scstep>
   <time name="dav">   10.73   10.82</time>
   <time name="total">   10.99   11.09</time>
   <energy>
    <i name="e_fr_energy">   -129.59370611 </i>
    <i name="e_wo_entrp">   -129.59063387 </i>
    <i name="e_0_energy">   -129.59216999 </i>
   </energy>
  </scstep>
  <scstep>
   <time name="dav">   10.74   10.82</time>
   <time name="total">   11.04   11.13</time>
   <energy>
    <i name="e_fr_energy">    -92.08828232 </i>
    <i name="e_wo_entrp">    -92.08170945 </i>
    <i name="e_0_energy">    -92.08499589 </i>
   </energy>
  </scstep>
  <scstep>
   <time name="dav">    9.44    9.51</time>
   <time name="total">    9.74    9.83</time>
   <energy>
    <i name="e_fr_energy">   -100.54204186 </i>
    <i name="e_wo_entrp">   -100.53625014 </i>
    <i name="e_0_energy">   -100.53914600 </i>
   </energy>
  </scstep>
  <scstep>
   <time name="dav">   10.13   10.20</time>
   <time name="total">   10.43   10.51</time>
   <energy>
    <i name="e_fr_energy">   -110.49833664 </i>
    <i name="e_wo_entrp">   -110.49829903 </i>
    <i name="e_0_energy">   -110.49831784 </i>
   </energy>
  </scstep>
  <scstep>
   <time name="dav">    8.05    8.10</time>
   <time name="total">    8.34    8.41</time>
   <energy>
    <i name="e_fr_energy">   -117.20609550 </i>
    <i name="e_wo_entrp">   -117.20609120 </i>
    <i name="e_0_energy">   -117.20609335 </i>
   </energy>
  </scstep>
  <scstep>
   <time name="dav">    9.80    9.86</time>
   <time name="total">   10.09   10.17</time>
   <energy>
    <i name="e_fr_energy">   -123.46251414 </i>
    <i name="e_wo_entrp">   -123.46191546 </i>
    <i name="e_0_energy">   -123.46221480 </i>
   </energy>
  </scstep>
  <scstep>
   <time name="dav">   10.15   10.23</time>
   <time name="total">   10.45   10.53</time>
   <energy>
    <i name="e_fr_energy">   -125.29937294 </i>
    <i name="e_wo_entrp">   -125.29818520 </i>
    <i name="e_0_energy">   -125.29877907 </i>
   </energy>
  </scstep>
  <scstep>
   <time name="dav">    8.45    8.50</time>
   <time name="total">    8.74    8.80</time>
   <energy>
    <i name="e_fr_energy">   -125.42319474 </i>
    <i name="e_wo_entrp">   -125.42172213 </i>
    <i name="e_0_energy">   -125.42245843 </i>
   </energy>
  </scstep>
  <scstep>
   <time name="dav">    6.88    6.93</time>
   <time name="total">    7.17    7.23</time>
   <energy>
    <i name="e_fr_energy">   -125.44975898 </i>
    <i name="e_wo_entrp">   -125.44819851 </i>
    <i name="e_0_energy">   -125.44897875 </i>
   </energy>
  </scstep>
  <scstep>
   <time name="dav">    8.76    8.81</time>
   <time name="total">    9.04    9.11</time>
   <energy>
    <i name="e_fr_energy">   -125.47358106 </i>
    <i name="e_wo_entrp">   -125.47201474 </i>
    <i name="e_0_energy">   -125.47279790 </i>
   </energy>
  </scstep>
  <scstep>
   <time name="dav">    7.40    7.45</time>
   <time name="total">    7.69    7.75</time>
   <energy>
    <i name="e_fr_energy">   -125.48170565 </i>
    <i name="e_wo_entrp">   -125.48013849 </i>
    <i name="e_0_energy">   -125.48092207 </i>
   </energy>
  </scstep>
  <scstep>
   <time name="dav">    7.01    7.06</time>
   <time name="total">    7.31    7.36</time>
   <energy>
    <i name="e_fr_energy">   -125.48377839 </i>
    <i name="e_wo_entrp">   -125.48221120 </i>
    <i name="e_0_energy">   -125.48299479 </i>
   </energy>
  </scstep>
  <scstep>
   <time name="dav">    5.88    5.92</time>
   <time name="total">    6.17    6.22</time>
   <energy>
    <i name="e_fr_energy">   -125.48507552 </i>
    <i name="e_wo_entrp">   -125.48350835 </i>
    <i name="e_0_energy">   -125.48429193 </i>
   </energy>
  </scstep>
  <scstep>
   <time name="dav">    6.51    6.55</time>
   <time name="total">    6.80    6.85</time>
   <energy>
    <i name="e_fr_energy">   -125.48576931 </i>
    <i name="e_wo_entrp">   -125.48420214 </i>
    <i name="e_0_energy">   -125.48498572 </i>
   </energy>
  </scstep>
  <scstep>
   <time name="dav">    7.69    7.75</time>
   <time name="total">    7.98    8.05</time>
   <energy>
    <i name="e_fr_energy">   -125.48623549 </i>
    <i name="e_wo_entrp">   -125.48466831 </i>
    <i name="e_0_energy">   -125.48545190 </i>
   </energy>
  </scstep>
  <scstep>
   <time name="dav">    9.20    9.26</time>
   <time name="total">    9.50    9.57</time>
   <energy>
    <i name="e_fr_energy">   -125.48628246 </i>
    <i name="e_wo_entrp">   -125.48471527 </i>
    <i name="e_0_energy">   -125.48549887 </i>
   </energy>
  </scstep>
  <scstep>
   <time name="dav">    8.40    8.46</time>
   <time name="total">    8.69    8.76</time>
   <energy>
    <i name="e_fr_energy">   -125.48630946 </i>
    <i name="e_wo_entrp">   -125.48474227 </i>
    <i name="e_0_energy">   -125.48552586 </i>
   </energy>
  </scstep>
  <scstep>
   <time name="dav">    8.63    8.68</time>
   <time name="total">    8.92    8.99</time>
   <energy>
    <i name="e_fr_energy">   -125.48633003 </i>
    <i name="e_wo_entrp">   -125.48476283 </i>
    <i name="e_0_energy">   -125.48554643 </i>
   </energy>
  </scstep>
  <scstep>
   <time name="dav">    8.60    8.66</time>
   <time name="total">    8.89    8.95</time>
   <energy>
    <i name="e_fr_energy">   -125.48634742 </i>
    <i name="e_wo_entrp">   -125.48478023 </i>
    <i name="e_0_energy">   -125.48556382 </i>
   </energy>
  </scstep>
  <scstep>
   <time name="dav">    9.09    9.15</time>
   <time name="total">    9.38    9.45</time>
   <energy>
    <i name="e_fr_energy">   -125.48635107 </i>
    <i name="e_wo_entrp">   -125.48478388 </i>
    <i name="e_0_energy">   -125.48556747 </i>
   </energy>
  </scstep>
  <scstep>
   <time name="dav">    9.41    9.49</time>
   <time name="total">    9.70    9.79</time>
   <energy>
    <i name="e_fr_energy">   -125.48635208 </i>
    <i name="e_wo_entrp">   -125.48478489 </i>
    <i name="e_0_energy">   -125.48556849 </i>
   </energy>
  </scstep>
  <scstep>
   <time name="dav">    8.53    8.60</time>
   <time name="total">    8.83    8.90</time>
   <energy>
    <i name="e_fr_energy">   -125.48635261 </i>
    <i name="e_wo_entrp">   -125.48478542 </i>
    <i name="e_0_energy">   -125.48556902 </i>
   </energy>
  </scstep>
  <scstep>
   <time name="dav">    8.21    8.26</time>
   <time name="total">    8.50    8.56</time>
   <energy>
    <i name="e_fr_energy">   -125.48635281 </i>
    <i name="e_wo_entrp">   -125.48478562 </i>
    <i name="e_0_energy">   -125.48556922 </i>
   </energy>
  </scstep>
  <scstep>
   <time name="dav">    8.48    8.55</time>
   <time name="total">    8.78    8.85</time>
   <energy>
    <i name="e_fr_energy">   -125.48635294 </i>
    <i name="e_wo_entrp">   -125.48478575 </i>
    <i name="e_0_energy">   -125.48556934 </i>
   </energy>
  </scstep>
  <scstep>
   <time name="dav">    9.59    9.65</time>
   <time name="total">    9.89    9.96</time>
   <energy>
    <i name="e_fr_energy">   -125.48635298 </i>
    <i name="e_wo_entrp">   -125.48478579 </i>
    <i name="e_0_energy">   -125.48556938 </i>
   </energy>
  </scstep>
  <scstep>
   <time name="dav">    9.56    9.63</time>
   <time name="total">    9.60    9.66</time>
   <energy>
    <i name="alphaZ">     58.59691083 </i>
    <i name="ewald">   4719.73085939 </i>
    <i name="hartreedc">  -6478.53590037 </i>
    <i name="XCdc">    180.78201049 </i>
    <i name="pawpsdc">   5805.55078767 </i>
    <i name="pawaedc">  -5809.98938919 </i>
    <i name="eentropy">     -0.00156719 </i>
    <i name="bandstr">   -504.88348518 </i>
    <i name="atom">   1903.26342058 </i>
    <i name="e_fr_energy">   -125.48635298 </i>
    <i name="e_wo_entrp">   -125.48478579 </i>
    <i name="e_0_energy">   -125.48556939 </i>
   </energy>
  </scstep>
  <structure>
   <crystal>
    <varray name="basis" >
     <v>       4.18636680       2.41700000       0.00000000 </v>
     <v>      -4.18636680       2.41700000       0.00000000 </v>
     <v>       0.00000000       0.00000000      15.00000000 </v>
    </varray>
    <i name="volume">    303.55345681 </i>
    <varray name="rec_basis" >
     <v>       0.11943531       0.20686802       0.00000000 </v>
     <v>      -0.11943531       0.20686802       0.00000000 </v>
     <v>       0.00000000       0.00000000       0.06666667 </v>
    </varray>
   </crystal>
   <varray name="positions" >
    <v>       0.00415361       0.00267210       0.12034134 </v>
    <v>       0.35695335       0.00285503       0.09748893 </v>
    <v>       0.00423858       0.35550699       0.09749256 </v>
    <v>       0.65142295       0.65006557       0.09747688 </v>
    <v>       0.32808646       0.32671938       0.10030508 </v>
    <v>       0.68027775       0.00278085       0.10027562 </v>
    <v>       0.00416530       0.67883808       0.10026559 </v>
    <v>       0.16666600       0.33333300       0.33720000 </v>
    <v>       0.33333300       0.16666600       0.33720000 </v>
    <v>       0.16666600       0.83333300       0.33720000 </v>
    <v>       0.33333300       0.66666600       0.33720000 </v>
    <v>       0.66666600       0.33333300       0.33720000 </v>
    <v>       0.83333300       0.16666600       0.33720000 </v>
    <v>       0.66666600       0.83333300       0.33720000 </v>
    <v>       0.83333300       0.66666600       0.33720000 </v>
   </varray>
  </structure>
  <varray name="forces" >
   <v>      -0.00424313       0.00564405      -0.39905822 </v>
   <v>      -0.08068318      -0.05189785       0.10540006 </v>
   <v>       0.08025456      -0.05081138       0.10517563 </v>
   <v>       0.00279994       0.09394428       0.10773903 </v>
   <v>       0.00317843      -0.31623291       0.00450314 </v>
   <v>       0.27220712       0.15930209       0.00771218 </v>
   <v>      -0.27305905       0.16144160       0.00882752 </v>
   <v>      -0.01406028       0.00104596       0.01861851 </v>
   <v>       0.01386136       0.00120840       0.01893948 </v>
   <v>       0.00839950       0.01060143       0.01947259 </v>
   <v>      -0.00037582       0.00040421      -0.02698764 </v>
   <v>       0.00060750       0.00018357      -0.02699259 </v>
   <v>      -0.00841760       0.01034817       0.01943830 </v>
   <v>       0.00543588      -0.01249135       0.01875084 </v>
   <v>      -0.00590525      -0.01269026       0.01846117 </v>
  </varray>
  <varray name="stress" >
   <v>       5.74600423       0.00957352      -0.01591876 </v>
   <v>       0.00957348       5.75193869      -0.01541258 </v>
   <v>      -0.01591874      -0.01541262      -1.72430922 </v>
  </varray>
  <energy>
   <i name="e_fr_energy">   -127.07560556 </i>
   <i name="e_wo_entrp">   -127.07403836 </i>
   <i name="e_0_energy">   -127.07482196 </i>
  </energy>
  <time name="totalsc">  270.64  272.86</time>
 </calculation>
 <calculation>
  <scstep>
   <time name="dav">    5.57    5.62</time>
   <time name="total">    5.87    5.93</time>
   <energy>
    <i name="alphaZ">     58.59691083 </i>
    <i name="ewald">   4722.43355790 </i>
    <i name="hartreedc">  -6479.94861292 </i>
    <i name="XCdc">    180.85656032 </i>
    <i name="pawpsdc">   5805.55106834 </i>
    <i name="pawaedc">  -5809.98966997 </i>
    <i name="eentropy">     -0.00156719 </i>
    <i name="bandstr">   -506.25736055 </i>
    <i name="atom">   1903.26342058 </i>
    <i name="e_fr_energy">   -125.49569267 </i>
    <i name="e_wo_entrp">   -125.49412548 </i>
    <i name="e_0_energy">   -125.49490908 </i>
   </energy>
  </scstep>
  <scstep>
   <time name="dav">   10.85   10.93</time>
   <time name="total">   11.14   11.23</time>
   <energy>
    <i name="e_fr_energy">   -125.48860093 </i>
    <i name="e_wo_entrp">   -125.48703374 </i>
    <i name="e_0_energy">   -125.48781734 </i>
   </energy>
  </scstep>
  <scstep>
   <time name="dav">    8.58    8.64</time>
   <time name="total">    8.87    8.94</time>
   <energy>
    <i name="e_fr_energy">   -125.48783723 </i>
    <i name="e_wo_entrp">   -125.48627004 </i>
    <i name="e_0_energy">   -125.48705363 </i>
   </energy>
  </scstep>
  <scstep>
   <time name="dav">   11.44   11.51</time>
   <time name="total">   11.73   11.82</time>
   <energy>
    <i name="e_fr_energy">   -125.48780830 </i>
    <i name="e_wo_entrp">   -125.48624110 </i>
    <i name="e_0_energy">   -125.48702470 </i>
   </energy>
  </scstep>
  <scstep>
   <time name="dav">   10.54   10.62</time>
   <time name="total">   10.84   10.93</time>
   <energy>
    <i name="e_fr_energy">   -125.48781143 </i>
    <i name="e_wo_entrp">   -125.48624423 </i>
    <i name="e_0_energy">   -125.48702783 </i>
   </energy>
  </scstep>
  <scstep>
   <time name="dav">    7.98    8.04</time>
   <time name="total">    8.27    8.34</time>
   <energy>
    <i name="e_fr_energy">   -125.48781147 </i>
    <i name="e_wo_entrp">   -125.48624428 </i>
    <i name="e_0_energy">   -125.48702788 </i>
   </energy>
  </scstep>
  <scstep>
   <time name="dav">   10.63   10.71</time>
   <time name="total">   10.93   11.01</time>
   <energy>
    <i name="e_fr_energy">   -125.48781175 </i>
    <i name="e_wo_entrp">   -125.48624456 </i>
    <i name="e_0_energy">   -125.48702815 </i>
   </energy>
  </scstep>
  <scstep>
   <time name="dav">    8.45    8.51</time>
   <time name="total">    8.74    8.81</time>
   <energy>
    <i name="e_fr_energy">   -125.48781207 </i>
    <i name="e_wo_entrp">   -125.48624488 </i>
    <i name="e_0_energy">   -125.48702847 </i>
   </energy>
  </scstep>
  <scstep>
   <time name="dav">    8.54    8.60</time>
   <time name="total">    8.84    8.90</time>
   <energy>
    <i name="e_fr_energy">   -125.48781232 </i>
    <i name="e_wo_entrp">   -125.48624512 </i>
    <i name="e_0_energy">   -125.48702872 </i>
   </energy>
  </scstep>
  <scstep>
   <time name="dav">    8.72    8.78</time>
   <time name="total">    9.01    9.09</time>
   <energy>
    <i name="e_fr_energy">   -125.48781269 </i>
    <i name="e_wo_entrp">   -125.48624549 </i>
    <i name="e_0_energy">   -125.48702909 </i>
   </energy>
  </scstep>
  <scstep>
   <time name="dav">    9.31    9.36</time>
   <time name="total">    9.61    9.68</time>
   <energy>
    <i name="e_fr_energy">   -125.48781287 </i>
    <i name="e_wo_entrp">   -125.48624568 </i>
    <i name="e_0_energy">   -125.48702928 </i>
   </energy>
  </scstep>
  <scstep>
   <time name="dav">    8.15    8.21</time>
   <time name="total">    8.45    8.51</time>
   <energy>
    <i name="e_fr_energy">   -125.48781304 </i>
    <i name="e_wo_entrp">   -125.48624585 </i>
    <i name="e_0_energy">   -125.48702944 </i>
   </energy>
  </scstep>
  <scstep>
   <time name="dav">    9.70    9.77</time>
   <time name="total">    9.99   10.07</time>
   <energy>
    <i name="e_fr_energy">   -125.48781309 </i>
    <i name="e_wo_entrp">   -125.48624590 </i>
    <i name="e_0_energy">   -125.48702949 </i>
   </energy>
  </scstep>
  <scstep>
   <time name="dav">    9.56    9.62</time>
   <time name="total">    9.85    9.92</time>
   <energy>
    <i name="e_fr_energy">   -125.48781311 </i>
    <i name="e_wo_entrp">   -125.48624591 </i>
    <i name="e_0_energy">   -125.48702951 </i>
   </energy>
  </scstep>
  <scstep>
   <time name="dav">    8.94    9.00</time>
   <time name="total">    9.23    9.30</time>
   <energy>
    <i name="e_fr_energy">   -125.48781312 </i>
    <i name="e_wo_entrp">   -125.48624593 </i>
    <i name="e_0_energy">   -125.48702953 </i>
   </energy>
  </scstep>
  <scstep>
   <time name="dav">    9.66    9.72</time>
   <time name="total">    9.69    9.76</time>
   <energy>
    <i name="alphaZ">     58.59691083 </i>
    <i name="ewald">   4722.43355790 </i>
    <i name="hartreedc">  -6480.62722064 </i>
    <i name="XCdc">    180.87134990 </i>
    <i name="pawpsdc">   5830.19500844 </i>
    <i name="pawaedc">  -5834.64154457 </i>
    <i name="eentropy">     -0.00156719 </i>
    <i name="bandstr">   -505.57772838 </i>
    <i name="atom">   1903.26342058 </i>
    <i name="e_fr_energy">   -125.48781313 </i>
    <i name="e_wo_entrp">   -125.48624594 </i>
    <i name="e_0_energy">   -125.48702953 </i>
   </energy>
  </scstep>
  <structure>
   <crystal>
    <varray name="basis" >
     <v>       4.18636680       2.41700000       0.00000000 </v>
     <v>      -4.18636680       2.41700000       0.00000000 </v>
     <v>       0.00000000       0.00000000      15.00000000 </v>
    </varray>
    <i name="volume">    303.55345681 </i>
    <varray name="rec_basis" >
     <v>       0.11943531       0.20686802       0.00000000 </v>
     <v>      -0.11943531       0.20686802       0.00000000 </v>
     <v>       0.00000000       0.00000000       0.06666667 </v>
    </varray>
   </crystal>
   <varray name="positions" >
    <v>       0.00418549       0.00275288       0.11905790 </v>
    <v>       0.35597053       0.00280198       0.09782792 </v>
    <v>       0.00419390       0.35453748       0.09783083 </v>
    <v>       0.65237664       0.65098699       0.09782339 </v>
    <v>       0.32494882       0.32354510       0.10031956 </v>
    <v>       0.68343598       0.00280224       0.10030042 </v>
    <v>       0.00420313       0.68202258       0.10029398 </v>
    <v>       0.16659542       0.33342445       0.33725988 </v>
    <v>       0.33342493       0.16659819       0.33726091 </v>
    <v>       0.16682020       0.83339040       0.33726263 </v>
    <v>       0.33333487       0.66667220       0.33711320 </v>
    <v>       0.66667133       0.33333133       0.33711319 </v>
    <v>       0.83338777       0.16681777       0.33726252 </v>
    <v>       0.66657266       0.83317702       0.33726031 </v>
    <v>       0.83317233       0.66657338       0.33725937 </v>
   </varray>
  </structure>
  <varray name="forces" >
   <v>      -0.00137372      -0.00081564      -0.18895511 </v>
   <v>       0.23145268       0.13228121       0.06175994 </v>
   <v>      -0.23259928       0.13421895       0.06158469 </v>
   <v>       0.00126096      -0.26123968       0.06340891 </v>
   <v>       0.00033522       0.53182882      -0.02041025 </v>
   <v>      -0.45867434      -0.26742548      -0.01811904 </v>
   <v>       0.46005199      -0.26753496      -0.01769323 </v>
   <v>       0.05467644      -0.00331471       0.00983911 </v>
   <v>      -0.05455039      -0.00383143       0.00992796 </v>
   <v>      -0.03188596      -0.04375920       0.01003040 </v>
   <v>       0.00130572      -0.00210094      -0.00045117 </v>
   <v>      -0.00256268      -0.00133253      -0.00044785 </v>
   <v>       0.03145608      -0.04282959       0.00999245 </v>
   <v>      -0.02337324       0.04759002       0.00979218 </v>
   <v>       0.02448052       0.04826516       0.00974101 </v>
  </varray>
  <varray name="stress" >
   <v>       8.17774454       0.00144131      -0.01098397 </v>
   <v>       0.00144131       8.16078432      -0.02592965 </v>
   <v>      -0.01098396      -0.02592966      -1.36343423 </v>
  </varray>
  <energy>
   <i name="e_fr_energy">   -127.07643138 </i>
   <i name="e_wo_entrp">   -127.07486419 </i>
   <i name="e_0_energy">   -127.07564779 </i>
  </energy>
  <time name="totalsc">  156.12  157.31</time>
 </calculation>
 <calculation>
  <scstep>
   <time name="dav">    5.57    5.61</time>
   <time name="total">    5.86    5.91</time>
   <energy>
    <i name="alphaZ">     58.59691083 </i>
    <i name="ewald">   4721.09877106 </i>
    <i name="hartreedc">  -6479.91895333 </i>
    <i name="XCdc">    180.83445116 </i>
    <i name="pawpsdc">   5830.19496634 </i>
    <i name="pawaedc">  -5834.64150245 </i>
    <i name="eentropy">     -0.00156719 </i>
    <i name="bandstr">   -504.92156821 </i>
    <i name="atom">   1903.26342058 </i>
    <i name="e_fr_energy">   -125.49507121 </i>
    <i name="e_wo_entrp">   -125.49350402 </i>
    <i name="e_0_energy">   -125.49428762 </i>
   </energy>
  </scstep>
  <scstep>
   <time name="dav">   10.55   10.63</time>
   <time name="total">   10.85   10.93</time>
   <energy>
    <i name="e_fr_energy">   -125.49339337 </i>
    <i name="e_wo_entrp">   -125.49182617 </i>
    <i name="e_0_energy">   -125.49260977 </i>
   </energy>
  </scstep>
  <scstep>
   <time name="dav">    9.87    9.93</time>
   <time name="total">   10.16   10.24</time>
   <energy>
    <i name="e_fr_energy">   -125.49321932 </i>
    <i name="e_wo_entrp">   -125.49165213 </i>
    <i name="e_0_energy">   -125.49243572 </i>
   </energy>
  </scstep>
  <scstep>
   <time name="dav">    8.72    8.79</time>
   <time name="total">    9.01    9.09</time>
   <energy>
    <i name="e_fr_energy">   -125.49321266 </i>
    <i name="e_wo_entrp">   -125.49164547 </i>
    <i name="e_0_energy">   -125.49242907 </i>
   </energy>
  </scstep>
  <scstep>
   <time name="dav">   10.38   10.76</time>
   <time name="total">   10.68   11.07</time>
   <energy>
    <i name="e_fr_energy">   -125.49321331 </i>
    <i name="e_wo_entrp">   -125.49164611 </i>
    <i name="e_0_energy">   -125.49242971 </i>
   </energy>
  </scstep>
  <scstep>
   <time name="dav">    8.94    9.01</time>
   <time name="total">    9.23    9.32</time>
   <energy>
    <i name="e_fr_energy">   -125.49321332 </i>
    <i name="e_wo_entrp">   -125.49164613 </i>
    <i name="e_0_energy">   -125.49242972 </i>
   </energy>
  </scstep>
  <scstep>
   <time name="dav">    8.79    8.85</time>
   <time name="total">    9.08    9.16</time>
   <energy>
    <i name="e_fr_energy">   -125.49321345 </i>
    <i name="e_wo_entrp">   -125.49164626 </i>
    <i name="e_0_energy">   -125.49242985 </i>
   </energy>
  </scstep>
  <scstep>
   <time name="dav">    8.18    8.23</time>
   <time name="total">    8.47    8.54</time>
   <energy>
    <i name="e_fr_energy">   -125.49321359 </i>
    <i name="e_wo_entrp">   -125.49164640 </i>
    <i name="e_0_energy">   -125.49243000 </i>
   </energy>
  </scstep>
  <scstep>
   <time name="dav">    8.90    8.95</time>
   <time name="total">    9.19    9.26</time>
   <energy>
    <i name="e_fr_energy">   -125.49321369 </i>
    <i name="e_wo_entrp">   -125.49164650 </i>
    <i name="e_0_energy">   -125.49243009 </i>
   </energy>
  </scstep>
  <scstep>
   <time name="dav">    8.22    8.27</time>
   <time name="total">    8.51    8.58</time>
   <energy>
    <i name="e_fr_energy">   -125.49321384 </i>
    <i name="e_wo_entrp">   -125.49164665 </i>
    <i name="e_0_energy">   -125.49243024 </i>
   </energy>
  </scstep>
  <scstep>
   <time name="dav">    8.64    8.69</time>
   <time name="total">    8.93    8.99</time>
   <energy>
    <i name="e_fr_energy">   -125.49321398 </i>
    <i name="e_wo_entrp">   -125.49164679 </i>
    <i name="e_0_energy">   -125.49243038 </i>
   </energy>
  </scstep>
  <scstep>
   <time name="dav">    8.08    8.13</time>
   <time name="total">    8.38    8.44</time>
   <energy>
    <i name="e_fr_energy">   -125.49321407 </i>
    <i name="e_wo_entrp">   -125.49164688 </i>
    <i name="e_0_energy">   -125.49243048 </i>
   </energy>
  </scstep>
  <scstep>
   <time name="dav">   10.44   10.51</time>
   <time name="total">   10.73   10.81</time>
   <energy>
    <i name="e_fr_energy">   -125.49321409 </i>
    <i name="e_wo_entrp">   -125.49164690 </i>
    <i name="e_0_energy">   -125.49243049 </i>
   </energy>
  </scstep>
  <scstep>
   <time name="dav">    8.25    8.30</time>
   <time name="total">    8.54    8.61</time>
   <energy>
    <i name="e_fr_energy">   -125.49321410 </i>
    <i name="e_wo_entrp">   -125.49164691 </i>
    <i name="e_0_energy">   -125.49243050 </i>
   </energy>
  </scstep>
  <scstep>
   <time name="dav">   11.43   11.50</time>
   <time name="total">   11.47   11.54</time>
   <energy>
    <i name="alphaZ">     58.59691083 </i>
    <i name="ewald">   4721.09877106 </i>
    <i name="hartreedc">  -6479.59535295 </i>
    <i name="XCdc">    180.82730854 </i>
    <i name="pawpsdc">   5817.84782643 </i>
    <i name="pawaedc">  -5822.29031187 </i>
    <i name="eentropy">     -0.00156719 </i>
    <i name="bandstr">   -505.24021953 </i>
    <i name="atom">   1903.26342058 </i>
    <i name="e_fr_energy">   -125.49321410 </i>
    <i name="e_wo_entrp">   -125.49164691 </i>
    <i name="e_0_energy">   -125.49243051 </i>
   </energy>
  </scstep>
  <structure>
   <crystal>
    <varray name="basis" >
     <v>       4.18636680       2.41700000       0.00000000 </v>
     <v>      -4.18636680       2.41700000       0.00000000 </v>
     <v>       0.00000000       0.00000000      15.00000000 </v>
    </varray>
    <i name="volume">    303.55345681 </i>
    <varray name="rec_basis" >
     <v>       0.11943531       0.20686802       0.00000000 </v>
     <v>      -0.11943531       0.20686802       0.00000000 </v>
     <v>       0.00000000       0.00000000       0.06666667 </v>
    </varray>
   </crystal>
   <varray name="positions" >
    <v>       0.00417007       0.00271380       0.11967871 </v>
    <v>       0.35644593       0.00282764       0.09766395 </v>
    <v>       0.00421551       0.35500644       0.09766721 </v>
    <v>       0.65191533       0.65054129       0.09765578 </v>
    <v>       0.32646653       0.32508053       0.10031256 </v>
    <v>       0.68190831       0.00279190       0.10028843 </v>
    <v>       0.00418483       0.68048220       0.10028024 </v>
    <v>       0.16662956       0.33338022       0.33723092 </v>
    <v>       0.33338046       0.16663099       0.33723145 </v>
    <v>       0.16674561       0.83336264       0.33723233 </v>
    <v>       0.33333396       0.66666920       0.33715519 </v>
    <v>       0.66666875       0.33333214       0.33715518 </v>
    <v>       0.83336128       0.16674436       0.33723228 </v>
    <v>       0.66661781       0.83325247       0.33723114 </v>
    <v>       0.83325005       0.66661818       0.33723065 </v>
   </varray>
  </structure>
  <varray name="forces" >
   <v>      -0.00285273       0.00247609      -0.28915667 </v>
   <v>       0.08404226       0.04518450       0.08264567 </v>
   <v>      -0.08487967       0.04671587       0.08244621 </v>
   <v>       0.00202060      -0.09356688       0.08463644 </v>
   <v>       0.00174351       0.12164759      -0.00859023 </v>
   <v>      -0.10532322      -0.06101758      -0.00589065 </v>
   <v>       0.10570249      -0.06008541      -0.00515515 </v>
   <v>       0.02148453      -0.00123078       0.01408572 </v>
   <v>      -0.02151523      -0.00141911       0.01428708 </v>
   <v>      -0.01244667      -0.01749899       0.01459682 </v>
   <v>       0.00049182      -0.00088907      -0.01327274 </v>
   <v>      -0.00102815      -0.00059932      -0.01327350 </v>
   <v>       0.01221474      -0.01713975       0.01455995 </v>
   <v>      -0.00944307       0.01858398       0.01412371 </v>
   <v>       0.00978880       0.01883886       0.01395734 </v>
  </varray>
  <varray name="stress" >
   <v>       6.89730567       0.00521949      -0.01347973 </v>
   <v>       0.00521952       6.88993201      -0.02052555 </v>
   <v>      -0.01347975      -0.02052557      -1.52893200 </v>
  </varray>
  <energy>
   <i name="e_fr_energy">   -127.08213624 </i>
   <i name="e_wo_entrp">   -127.08056905 </i>
   <i name="e_0_energy">   -127.08135264 </i>
  </energy>
  <time name="totalsc">  144.13  145.57</time>
 </calculation>
 <calculation>
  <scstep>
   <time name="dav">    5.59    5.63</time>
   <time name="total">    5.88    5.93</time>
   <energy>
    <i name="alphaZ">     58.59691083 </i>
    <i name="ewald">   4720.60918692 </i>
    <i name="hartreedc">  -6478.83554004 </i>
    <i name="XCdc">    180.84651259 </i>
    <i name="pawpsdc">   5817.84787168 </i>
    <i name="pawaedc">  -5822.29035713 </i>
    <i name="eentropy">     -0.00156719 </i>
    <i name="bandstr">   -505.53678464 </i>
    <i name="atom">   1903.26342058 </i>
    <i name="e_fr_energy">   -125.50034641 </i>
    <i name="e_wo_entrp">   -125.49877922 </i>
    <i name="e_0_energy">   -125.49956282 </i>
   </energy>
  </scstep>
  <scstep>
   <time name="dav">   11.27   11.33</time>
   <time name="total">   11.56   11.64</time>
   <energy>
    <i name="e_fr_energy">   -125.50041766 </i>
    <i name="e_wo_entrp">   -125.49885047 </i>
    <i name="e_0_energy">   -125.49963407 </i>
   </energy>
  </scstep>
  <scstep>
   <time name="dav">    8.56    8.61</time>
   <time name="total">    8.85    8.92</time>
   <energy>
    <i name="e_fr_energy">   -125.50041379 </i>
    <i name="e_wo_entrp">   -125.49884660 </i>
    <i name="e_0_energy">   -125.49963019 </i>
   </energy>
  </scstep>
  <scstep>
   <time name="dav">   11.42   11.49</time>
   <time name="total">   11.71   11.79</time>
   <energy>
    <i name="e_fr_energy">   -125.50041533 </i>
    <i name="e_wo_entrp">   -125.49884814 </i>
    <i name="e_0_energy">   -125.49963174 </i>
   </energy>
  </scstep>
  <scstep>
   <time name="dav">    8.51    8.56</time>
   <time name="total">    8.80    8.86</time>
   <energy>
    <i name="e_fr_energy">   -125.50041558 </i>
    <i name="e_wo_entrp">   -125.49884839 </i>
    <i name="e_0_energy">   -125.49963199 </i>
   </energy>
  </scstep>
  <scstep>
   <time name="dav">    8.44    8.50</time>
   <time name="total">    8.73    8.80</time>
   <energy>
    <i name="e_fr_energy">   -125.50041564 </i>
    <i name="e_wo_entrp">   -125.49884845 </i>
    <i name="e_0_energy">   -125.49963205 </i>
   </energy>
  </scstep>
  <scstep>
   <time name="dav">    8.64    8.70</time>
   <time name="total">    8.93    8.99</time>
   <energy>
    <i name="e_fr_energy">   -125.50041578 </i>
    <i name="e_wo_entrp">   -125.49884858 </i>
    <i name="e_0_energy">   -125.49963218 </i>
   </energy>
  </scstep>
  <scstep>
   <time name="dav">    8.45    8.51</time>
   <time name="total">    8.74    8.82</time>
   <energy>
    <i name="e_fr_energy">   -125.50041594 </i>
    <i name="e_wo_entrp">   -125.49884875 </i>
    <i name="e_0_energy">   -125.49963234 </i>
   </energy>
  </scstep>
  <scstep>
   <time name="dav">    9.69    9.75</time>
   <time name="total">    9.98   10.05</time>
   <energy>
    <i name="e_fr_energy">   -125.50041606 </i>
    <i name="e_wo_entrp">   -125.49884887 </i>
    <i name="e_0_energy">   -125.49963247 </i>
   </energy>
  </scstep>
  <scstep>
   <time name="dav">    9.94   10.00</time>
   <time name="total">   10.23   10.30</time>
   <energy>
    <i name="e_fr_energy">   -125.50041615 </i>
    <i name="e_wo_entrp">   -125.49884896 </i>
    <i name="e_0_energy">   -125.49963255 </i>
   </energy>
  </scstep>
  <scstep>
   <time name="dav">    8.91    8.97</time>
   <time name="total">    9.21    9.28</time>
   <energy>
    <i name="e_fr_energy">   -125.50041627 </i>
    <i name="e_wo_entrp">   -125.49884908 </i>
    <i name="e_0_energy">   -125.49963267 </i>
   </energy>
  </scstep>
  <scstep>
   <time name="dav">    7.92    7.97</time>
   <time name="total">    8.22    8.29</time>
   <energy>
    <i name="e_fr_energy">   -125.50041645 </i>
    <i name="e_wo_entrp">   -125.49884926 </i>
    <i name="e_0_energy">   -125.49963285 </i>
   </energy>
  </scstep>
  <scstep>
   <time name="dav">    9.06    9.12</time>
   <time name="total">    9.35    9.42</time>
   <energy>
    <i name="e_fr_energy">   -125.50041654 </i>
    <i name="e_wo_entrp">   -125.49884935 </i>
    <i name="e_0_energy">   -125.49963294 </i>
   </energy>
  </scstep>
  <scstep>
   <time name="dav">    8.00    8.07</time>
   <time name="total">    8.29    8.38</time>
   <energy>
    <i name="e_fr_energy">   -125.50041657 </i>
    <i name="e_wo_entrp">   -125.49884938 </i>
    <i name="e_0_energy">   -125.49963298 </i>
   </energy>
  </scstep>
  <scstep>
   <time name="dav">   10.78   10.85</time>
   <time name="total">   10.82   10.89</time>
   <energy>
    <i name="alphaZ">     58.59691083 </i>
    <i name="ewald">   4720.60918692 </i>
    <i name="hartreedc">  -6478.80860007 </i>
    <i name="XCdc">    180.84538244 </i>
    <i name="pawpsdc">   5823.56174122 </i>
    <i name="pawaedc">  -5828.00621059 </i>
    <i name="eentropy">     -0.00156719 </i>
    <i name="bandstr">   -505.56068071 </i>
    <i name="atom">   1903.26342058 </i>
    <i name="e_fr_energy">   -125.50041658 </i>
    <i name="e_wo_entrp">   -125.49884939 </i>
    <i name="e_0_energy">   -125.49963298 </i>
   </energy>
  </scstep>
  <structure>
   <crystal>
    <varray name="basis" >
     <v>       4.18636680       2.41700000       0.00000000 </v>
     <v>      -4.18636680       2.41700000       0.00000000 </v>
     <v>       0.00000000       0.00000000      15.00000000 </v>
    </varray>
    <i name="volume">    303.55345681 </i>
    <varray name="rec_basis" >
     <v>       0.11943531       0.20686802       0.00000000 </v>
     <v>      -0.11943531       0.20686802       0.00000000 </v>
     <v>       0.00000000       0.00000000       0.06666667 </v>
    </varray>
   </crystal>
   <varray name="positions" >
    <v>       0.00418744       0.00277607       0.11843994 </v>
    <v>       0.35698528       0.00278108       0.09800936 </v>
    <v>       0.00418099       0.35556809       0.09801181 </v>
    <v>       0.65137870       0.64997361       0.09800931 </v>
    <v>       0.32659732       0.32518180       0.10029210 </v>
    <v>       0.68179138       0.00279666       0.10027902 </v>
    <v>       0.00420508       0.68037986       0.10027409 </v>
    <v>       0.16670836       0.33328572       0.33729044 </v>
    <v>       0.33328425       0.16670911       0.33729188 </v>
    <v>       0.16657100       0.83328751       0.33729420 </v>
    <v>       0.33332909       0.66666055       0.33708966 </v>
    <v>       0.66665966       0.33333157       0.33708965 </v>
    <v>       0.83328736       0.16657344       0.33729400 </v>
    <v>       0.66670719       0.83342067       0.33729090 </v>
    <v>       0.83342089       0.66670828       0.33728965 </v>
   </varray>
  </structure>
  <varray name="forces" >
   <v>       0.00012808      -0.00059276      -0.26046264 </v>
   <v>       0.04791660       0.02788522       0.04776780 </v>
   <v>      -0.04788453       0.02900420       0.04769731 </v>
   <v>       0.00055360      -0.05339134       0.04861373 </v>
   <v>      -0.00050320       0.11221417       0.01935194 </v>
   <v>      -0.09523544      -0.05698167       0.02102357 </v>
   <v>       0.09544767      -0.05687031       0.02133853 </v>
   <v>      -0.05120791      -0.00172155       0.00601223 </v>
   <v>       0.05105479      -0.00147515       0.00601749 </v>
   <v>       0.02620411       0.04404022       0.00597387 </v>
   <v>      -0.00166893       0.00112159       0.00941513 </v>
   <v>       0.00227571       0.00054084       0.00941951 </v>
   <v>      -0.02613171       0.04324186       0.00594535 </v>
   <v>       0.02650157      -0.04327561       0.00593053 </v>
   <v>      -0.02745042      -0.04373971       0.00595564 </v>
  </varray>
  <varray name="stress" >
   <v>       7.34055628       0.00121096      -0.00823080 </v>
   <v>       0.00121096       7.34495629      -0.02481377 </v>
   <v>      -0.00823080      -0.02481378      -1.51811133 </v>
  </varray>
  <energy>
   <i name="e_fr_energy">   -127.08906526 </i>
   <i name="e_wo_entrp">   -127.08749807 </i>
   <i name="e_0_energy">   -127.08828167 </i>
  </energy>
  <time name="totalsc">  144.36  145.47</time>
 </calculation>
 <calculation>
  <scstep>
   <time name="dav">    5.56    5.60</time>
   <time name="total">    5.85    5.91</time>
   <energy>
    <i name="alphaZ">     58.59691083 </i>
    <i name="ewald">   4718.54973185 </i>
    <i name="hartreedc">  -6476.07902299 </i>
    <i name="XCdc">    180.89357960 </i>
    <i name="pawpsdc">   5823.56176333 </i>
    <i name="pawaedc">  -5828.00623270 </i>
    <i name="eentropy">     -0.00156714 </i>
    <i name="bandstr">   -506.28937560 </i>
    <i name="atom">   1903.26342058 </i>
    <i name="e_fr_energy">   -125.51079224 </i>
    <i name="e_wo_entrp">   -125.50922510 </i>
    <i name="e_0_energy">   -125.51000867 </i>
   </energy>
  </scstep>
  <scstep>
   <time name="dav">   11.53   11.60</time>
   <time name="total">   11.82   11.91</time>
   <energy>
    <i name="e_fr_energy">   -125.51159164 </i>
    <i name="e_wo_entrp">   -125.51002450 </i>
    <i name="e_0_energy">   -125.51080807 </i>
   </energy>
  </scstep>
  <scstep>
   <time name="dav">    8.91    8.97</time>
   <time name="total">    9.20    9.28</time>
   <energy>
    <i name="e_fr_energy">   -125.51153345 </i>
    <i name="e_wo_entrp">   -125.50996631 </i>
    <i name="e_0_energy">   -125.51074988 </i>
   </energy>
  </scstep>
  <scstep>
   <time name="dav">   10.70   10.77</time>
   <time name="total">   10.99   11.08</time>
   <energy>
    <i name="e_fr_energy">   -125.51154902 </i>
    <i name="e_wo_entrp">   -125.50998187 </i>
    <i name="e_0_energy">   -125.51076544 </i>
   </energy>
  </scstep>
  <scstep>
   <time name="dav">    9.54    9.60</time>
   <time name="total">    9.84    9.91</time>
   <energy>
    <i name="e_fr_energy">   -125.51155203 </i>
    <i name="e_wo_entrp">   -125.50998489 </i>
    <i name="e_0_energy">   -125.51076846 </i>
   </energy>
  </scstep>
  <scstep>
   <time name="dav">    9.02    9.08</time>
   <time name="total">    9.31    9.39</time>
   <energy>
    <i name="e_fr_energy">   -125.51155201 </i>
    <i name="e_wo_entrp">   -125.50998486 </i>
    <i name="e_0_energy">   -125.51076844 </i>
   </energy>
  </scstep>
  <scstep>
   <time name="dav">    9.68    9.74</time>
   <time name="total">    9.97   10.04</time>
   <energy>
    <i name="e_fr_energy">   -125.51155256 </i>
    <i name="e_wo_entrp">   -125.50998542 </i>
    <i name="e_0_energy">   -125.51076899 </i>
   </energy>
  </scstep>
  <scstep>
   <time name="dav">    8.65    8.71</time>
   <time name="total">    8.94    9.01</time>
   <energy>
    <i name="e_fr_energy">   -125.51155307 </i>
    <i name="e_wo_entrp">   -125.50998592 </i>
    <i name="e_0_energy">   -125.51076949 </i>
   </energy>
  </scstep>
  <scstep>
   <time name="dav">   10.16   10.23</time>
   <time name="total">   10.45   10.53</time>
   <energy>
    <i name="e_fr_energy">   -125.51155353 </i>
    <i name="e_wo_entrp">   -125.50998639 </i>
    <i name="e_0_energy">   -125.51076996 </i>
   </energy>
  </scstep>
  <scstep>
   <time name="dav">    9.62    9.90</time>
   <time name="total">    9.91   10.20</time>
   <energy>
    <i name="e_fr_energy">   -125.51155387 </i>
    <i name="e_wo_entrp">   -125.50998673 </i>
    <i name="e_0_energy">   -125.51077030 </i>
   </energy>
  </scstep>
  <scstep>
   <time name="dav">   10.00   10.07</time>
   <time name="total">   10.29   10.37</time>
   <energy>
    <i name="e_fr_energy">   -125.51155414 </i>
    <i name="e_wo_entrp">   -125.50998700 </i>
    <i name="e_0_energy">   -125.51077057 </i>
   </energy>
  </scstep>
  <scstep>
   <time name="dav">    8.89    8.95</time>
   <time name="total">    9.18    9.25</time>
   <energy>
    <i name="e_fr_energy">   -125.51155445 </i>
    <i name="e_wo_entrp">   -125.50998730 </i>
    <i name="e_0_energy">   -125.51077087 </i>
   </energy>
  </scstep>
  <scstep>
   <time name="dav">    8.54    8.60</time>
   <time name="total">    8.83    8.90</time>
   <energy>
    <i name="e_fr_energy">   -125.51155467 </i>
    <i name="e_wo_entrp">   -125.50998753 </i>
    <i name="e_0_energy">   -125.51077110 </i>
   </energy>
  </scstep>
  <scstep>
   <time name="dav">    8.58    8.64</time>
   <time name="total">    8.87    8.94</time>
   <energy>
    <i name="e_fr_energy">   -125.51155485 </i>
    <i name="e_wo_entrp">   -125.50998771 </i>
    <i name="e_0_energy">   -125.51077128 </i>
   </energy>
  </scstep>
  <scstep>
   <time name="dav">    8.34    8.40</time>
   <time name="total">    8.63    8.70</time>
   <energy>
    <i name="e_fr_energy">   -125.51155492 </i>
    <i name="e_wo_entrp">   -125.50998777 </i>
    <i name="e_0_energy">   -125.51077134 </i>
   </energy>
  </scstep>
  <scstep>
   <time name="dav">   10.65   10.71</time>
   <time name="total">   10.68   10.74</time>
   <energy>
    <i name="alphaZ">     58.59691083 </i>
    <i name="ewald">   4718.54973185 </i>
    <i name="hartreedc">  -6476.01372620 </i>
    <i name="XCdc">    180.89040780 </i>
    <i name="pawpsdc">   5837.83891519 </i>
    <i name="pawaedc">  -5842.28850505 </i>
    <i name="eentropy">     -0.00156714 </i>
    <i name="bandstr">   -506.34714278 </i>
    <i name="atom">   1903.26342058 </i>
    <i name="e_fr_energy">   -125.51155493 </i>
    <i name="e_wo_entrp">   -125.50998778 </i>
    <i name="e_0_energy">   -125.51077135 </i>
   </energy>
  </scstep>
  <structure>
   <crystal>
    <varray name="basis" >
     <v>       4.18636680       2.41700000       0.00000000 </v>
     <v>      -4.18636680       2.41700000       0.00000000 </v>
     <v>       0.00000000       0.00000000      15.00000000 </v>
    </varray>
    <i name="volume">    303.55345681 </i>
    <varray name="rec_basis" >
     <v>       0.11943531       0.20686802       0.00000000 </v>
     <v>      -0.11943531       0.20686802       0.00000000 </v>
     <v>       0.00000000       0.00000000       0.06666667 </v>
    </varray>
   </crystal>
   <varray name="positions" >
    <v>       0.00423958       0.00296286       0.11472362 </v>
    <v>       0.35860332       0.00264138       0.09904559 </v>
    <v>       0.00407744       0.35725303       0.09904563 </v>
    <v>       0.64976883       0.64827056       0.09906990 </v>
    <v>       0.32698972       0.32548561       0.10023073 </v>
    <v>       0.68144058       0.00281093       0.10025080 </v>
    <v>       0.00426581       0.68007282       0.10025562 </v>
    <v>       0.16694474       0.33300223       0.33746901 </v>
    <v>       0.33299564       0.16694345       0.33747317 </v>
    <v>       0.16604716       0.83306212       0.33747978 </v>
    <v>       0.33331447       0.66663461       0.33689309 </v>
    <v>       0.66663237       0.33332986       0.33689305 </v>
    <v>       0.83306562       0.16606068       0.33747916 </v>
    <v>       0.66697531       0.83392529       0.33747020 </v>
    <v>       0.83393343       0.66697857       0.33746663 </v>
   </varray>
  </structure>
  <varray name="forces" >
   <v>       0.00969021      -0.01068468      -0.20608952 </v>
   <v>      -0.07922126      -0.03545700      -0.04681122 </v>
   <v>       0.08111368      -0.03537118      -0.04645762 </v>
   <v>      -0.00364357       0.08877244      -0.04928208 </v>
   <v>      -0.00670865       0.06853770       0.10325336 </v>
   <v>      -0.05069533      -0.03646704       0.10193289 </v>
   <v>       0.04981885      -0.03827980       0.10119010 </v>
   <v>      -0.27225645      -0.00223715      -0.01821859 </v>
   <v>       0.27172095      -0.00067986      -0.01879360 </v>
   <v>       0.14438188       0.23069357      -0.01991909 </v>
   <v>      -0.00810991       0.00712438       0.07791006 </v>
   <v>       0.01213209       0.00394127       0.07793043 </v>
   <v>      -0.14333399       0.22633880      -0.01993351 </v>
   <v>       0.13488751      -0.23175221      -0.01865680 </v>
   <v>      -0.13977601      -0.23447925      -0.01805481 </v>
  </varray>
  <varray name="stress" >
   <v>       8.57909006      -0.00793102       0.00419344 </v>
   <v>      -0.00793099       8.61029093      -0.03333330 </v>
   <v>       0.00419344      -0.03333325      -1.58473589 </v>
  </varray>
  <energy>
   <i name="e_fr_energy">   -127.09938898 </i>
   <i name="e_wo_entrp">   -127.09782183 </i>
   <i name="e_0_energy">   -127.09860541 </i>
  </energy>
  <time name="totalsc">  157.82  159.26</time>
 </calculation>
 <calculation>
  <scstep>
   <time name="dav">    5.57    5.61</time>
   <time name="total">    5.87    5.92</time>
   <energy>
    <i name="alphaZ">     58.59691083 </i>
    <i name="ewald">   4718.27839770 </i>
    <i name="hartreedc">  -6475.65993670 </i>
    <i name="XCdc">    180.89606883 </i>
    <i name="pawpsdc">   5837.83893140 </i>
    <i name="pawaedc">  -5842.28852129 </i>
    <i name="eentropy">     -0.00156719 </i>
    <i name="bandstr">   -506.43840991 </i>
    <i name="atom">   1903.26342058 </i>
    <i name="e_fr_energy">   -125.51470576 </i>
    <i name="e_wo_entrp">   -125.51313858 </i>
    <i name="e_0_energy">   -125.51392217 </i>
   </energy>
  </scstep>
  <scstep>
   <time name="dav">   10.95   11.02</time>
   <time name="total">   11.24   11.32</time>
   <energy>
    <i name="e_fr_energy">   -125.51469449 </i>
    <i name="e_wo_entrp">   -125.51312731 </i>
    <i name="e_0_energy">   -125.51391090 </i>
   </energy>
  </scstep>
  <scstep>
   <time name="dav">    8.17    8.22</time>
   <time name="total">    8.46    8.53</time>
   <energy>
    <i name="e_fr_energy">   -125.51467581 </i>
    <i name="e_wo_entrp">   -125.51310863 </i>
    <i name="e_0_energy">   -125.51389222 </i>
   </energy>
  </scstep>
  <scstep>
   <time name="dav">    9.61    9.67</time>
   <time name="total">    9.90    9.98</time>
   <energy>
    <i name="e_fr_energy">   -125.51467705 </i>
    <i name="e_wo_entrp">   -125.51310987 </i>
    <i name="e_0_energy">   -125.51389346 </i>
   </energy>
  </scstep>
  <scstep>
   <time name="dav">    9.37    9.43</time>
   <time name="total">    9.66    9.73</time>
   <energy>
    <i name="e_fr_energy">   -125.51467731 </i>
    <i name="e_wo_entrp">   -125.51311013 </i>
    <i name="e_0_energy">   -125.51389372 </i>
   </energy>
  </scstep>
  <scstep>
   <time name="dav">    8.87    8.93</time>
   <time name="total">    9.16    9.24</time>
   <energy>
    <i name="e_fr_energy">   -125.51467728 </i>
    <i name="e_wo_entrp">   -125.51311010 </i>
    <i name="e_0_energy">   -125.51389369 </i>
   </energy>
  </scstep>
  <scstep>
   <time name="dav">   10.04   10.10</time>
   <time name="total">   10.33   10.41</time>
   <energy>
    <i name="e_fr_energy">   -125.51467726 </i>
    <i name="e_wo_entrp">   -125.51311007 </i>
    <i name="e_0_energy">   -125.51389366 </i>
   </energy>
  </scstep>
  <scstep>
   <time name="dav">    8.37    8.43</time>
   <time name="total">    8.66    8.74</time>
   <energy>
    <i name="e_fr_energy">   -125.51467724 </i>
    <i name="e_wo_entrp">   -125.51311006 </i>
    <i name="e_0_energy">   -125.51389365 </i>
   </energy>
  </scstep>
  <scstep>
   <time name="dav">   10.52   10.59</time>
   <time name="total">   10.55   10.63</time>
   <energy>
    <i name="alphaZ">     58.59691083 </i>
    <i name="ewald">   4718.27839770 </i>
    <i name="hartreedc">  -6475.68766273 </i>
    <i name="XCdc">    180.89553732 </i>
    <i name="pawpsdc">   5839.59545986 </i>
    <i name="pawaedc">  -5844.04566717 </i>
    <i name="eentropy">     -0.00156718 </i>
    <i name="bandstr">   -506.40950643 </i>
    <i name="atom">   1903.26342058 </i>
    <i name="e_fr_energy">   -125.51467724 </i>
    <i name="e_wo_entrp">   -125.51311006 </i>
    <i name="e_0_energy">   -125.51389365 </i>
   </energy>
  </scstep>
  <structure>
   <crystal>
    <varray name="basis" >
     <v>       4.18636680       2.41700000       0.00000000 </v>
     <v>      -4.18636680       2.41700000       0.00000000 </v>
     <v>       0.00000000       0.00000000      15.00000000 </v>
    </varray>
    <i name="volume">    303.55345681 </i>
    <varray name="rec_basis" >
     <v>       0.11943531       0.20686802       0.00000000 </v>
     <v>      -0.11943531       0.20686802       0.00000000 </v>
     <v>       0.00000000       0.00000000       0.06666667 </v>
    </varray>
   </crystal>
   <varray name="positions" >
    <v>       0.00424065       0.00296893       0.11416174 </v>
    <v>       0.35872348       0.00263470       0.09916427 </v>
    <v>       0.00407683       0.35738082       0.09916413 </v>
    <v>       0.64965592       0.64815020       0.09919087 </v>
    <v>       0.32711421       0.32560726       0.10026031 </v>
    <v>       0.68132032       0.00280467       0.10028424 </v>
    <v>       0.00426301       0.67995681       0.10029007 </v>
    <v>       0.16679548       0.33314025       0.33748577 </v>
    <v>       0.33313440       0.16679604       0.33749007 </v>
    <v>       0.16633355       0.83319914       0.33749684 </v>
    <v>       0.33331531       0.66664456       0.33689572 </v>
    <v>       0.66664116       0.33332617       0.33689569 </v>
    <v>       0.83319888       0.16634291       0.33749615 </v>
    <v>       0.66683650       0.83364138       0.33748689 </v>
    <v>       0.83364429       0.66684015       0.33748324 </v>
   </varray>
  </structure>
  <varray name="forces" >
   <v>       0.00980269      -0.01020872      -0.19524321 </v>
   <v>      -0.08492487      -0.03812937      -0.05053746 </v>
   <v>       0.08705801      -0.03865935      -0.05013066 </v>
   <v>      -0.00412189       0.09408014      -0.05330975 </v>
   <v>      -0.00683872       0.04990676       0.10435359 </v>
   <v>      -0.03559714      -0.02688105       0.10265374 </v>
   <v>       0.03496835      -0.02908086       0.10181575 </v>
   <v>      -0.14919613       0.00373555      -0.01938373 </v>
   <v>       0.14872959       0.00484128      -0.01998821 </v>
   <v>       0.08293269       0.12254961      -0.02113012 </v>
   <v>      -0.00409064       0.00440113       0.08050782 </v>
   <v>       0.00660400       0.00244082       0.08052728 </v>
   <v>      -0.08233015       0.12013707      -0.02113533 </v>
   <v>       0.06845025      -0.12879106      -0.01981132 </v>
   <v>      -0.07144603      -0.13034193      -0.01918839 </v>
  </varray>
  <varray name="stress" >
   <v>       8.71586627      -0.00946217       0.00402094 </v>
   <v>      -0.00946214       8.71967551      -0.03161137 </v>
   <v>       0.00402096      -0.03161139      -1.59889283 </v>
  </varray>
  <energy>
   <i name="e_fr_energy">   -127.10237636 </i>
   <i name="e_wo_entrp">   -127.10080917 </i>
   <i name="e_0_energy">   -127.10159277 </i>
  </energy>
  <time name="totalsc">   88.88   89.57</time>
 </calculation>
 <calculation>
  <scstep>
   <time name="dav">    5.56    5.60</time>
   <time name="total">    5.85    5.90</time>
   <energy>
    <i name="alphaZ">     58.59691083 </i>
    <i name="ewald">   4717.57451048 </i>
    <i name="hartreedc">  -6474.79800782 </i>
    <i name="XCdc">    180.90797275 </i>
    <i name="pawpsdc">   5839.59360988 </i>
    <i name="pawaedc">  -5844.04381674 </i>
    <i name="eentropy">     -0.00156715 </i>
    <i name="bandstr">   -506.61117897 </i>
    <i name="atom">   1903.26342058 </i>
    <i name="e_fr_energy">   -125.51814615 </i>
    <i name="e_wo_entrp">   -125.51657901 </i>
    <i name="e_0_energy">   -125.51736258 </i>
   </energy>
  </scstep>
  <scstep>
   <time name="dav">   11.95   12.03</time>
   <time name="total">   12.24   12.33</time>
   <energy>
    <i name="e_fr_energy">   -125.51809596 </i>
    <i name="e_wo_entrp">   -125.51652881 </i>
    <i name="e_0_energy">   -125.51731239 </i>
   </energy>
  </scstep>
  <scstep>
   <time name="dav">    8.47    8.53</time>
   <time name="total">    8.77    8.83</time>
   <energy>
    <i name="e_fr_energy">   -125.51798572 </i>
    <i name="e_wo_entrp">   -125.51641857 </i>
    <i name="e_0_energy">   -125.51720214 </i>
   </energy>
  </scstep>
  <scstep>
   <time name="dav">   10.19   10.26</time>
   <time name="total">   10.48   10.56</time>
   <energy>
    <i name="e_fr_energy">   -125.51799146 </i>
    <i name="e_wo_entrp">   -125.51642430 </i>
    <i name="e_0_energy">   -125.51720788 </i>
   </energy>
  </scstep>
  <scstep>
[...]
       <r>     2.7520     1.4894    30.8697 </r>
       <r>     2.8588     0.7439    30.9491 </r>
       <r>     2.9655     0.8175    31.0363 </r>
       <r>     3.0722     1.1545    31.1596 </r>
       <r>     3.1790     1.5830    31.3285 </r>
       <r>     3.2857     1.2624    31.4633 </r>
       <r>     3.3924     1.3497    31.6073 </r>
       <r>     3.4992     1.0093    31.7150 </r>
       <r>     3.6059     1.8349    31.9109 </r>
       <r>     3.7126     2.9667    32.2275 </r>
       <r>     3.8194     2.9873    32.5464 </r>
       <r>     3.9261     2.7978    32.8450 </r>
       <r>     4.0328     2.6219    33.1249 </r>
       <r>     4.1396     3.2430    33.4710 </r>
       <r>     4.2463     3.4228    33.8363 </r>
       <r>     4.3530     3.1295    34.1704 </r>
       <r>     4.4598     3.1003    34.5013 </r>
       <r>     4.5665     3.1442    34.8369 </r>
       <r>     4.6732     2.5829    35.1126 </r>
       <r>     4.7800     3.0683    35.4400 </r>
       <r>     4.8867     3.6791    35.8327 </r>
       <r>     4.9934     3.0041    36.1534 </r>
       <r>     5.1002     3.0401    36.4779 </r>
       <r>     5.2069     3.2892    36.8289 </r>
       <r>     5.3137     2.5944    37.1058 </r>
       <r>     5.4204     2.6114    37.3846 </r>
       <r>     5.5271     3.0215    37.7071 </r>
       <r>     5.6339     3.8729    38.1204 </r>
       <r>     5.7406     2.9813    38.4386 </r>
       <r>     5.8473     2.6593    38.7225 </r>
       <r>     5.9541     2.4500    38.9840 </r>
       <r>     6.0608     2.7824    39.2810 </r>
       <r>     6.1675     2.2274    39.5187 </r>
       <r>     6.2743     2.0124    39.7335 </r>
       <r>     6.3810     2.7784    40.0300 </r>
       <r>     6.4877     3.0916    40.3600 </r>
       <r>     6.5945     3.3124    40.7136 </r>
       <r>     6.7012     3.0953    41.0440 </r>
       <r>     6.8079     4.2077    41.4931 </r>
       <r>     6.9147     3.9603    41.9158 </r>
       <r>     7.0214     3.3158    42.2697 </r>
       <r>     7.1281     3.2512    42.6167 </r>
       <r>     7.2349     2.7558    42.9108 </r>
       <r>     7.3416     2.1709    43.1425 </r>
       <r>     7.4483     2.7526    43.4363 </r>
       <r>     7.5551     3.1089    43.7682 </r>
       <r>     7.6618     2.5879    44.0444 </r>
       <r>     7.7685     3.0900    44.3742 </r>
       <r>     7.8753     3.7267    44.7720 </r>
       <r>     7.9820     4.1053    45.2101 </r>
       <r>     8.0888     4.4087    45.6807 </r>
       <r>     8.1955     3.9692    46.1043 </r>
       <r>     8.3022     3.4908    46.4769 </r>
       <r>     8.4090     4.0470    46.9089 </r>
       <r>     8.5157     4.5015    47.3894 </r>
       <r>     8.6224     2.9282    47.7019 </r>
       <r>     8.7292     1.5716    47.8696 </r>
       <r>     8.8359     0.7425    47.9489 </r>
       <r>     8.9426     0.3949    47.9910 </r>
       <r>     9.0494     0.0811    47.9997 </r>
       <r>     9.1561     0.0029    48.0000 </r>
       <r>     9.2628     0.0000    48.0000 </r>
       <r>     9.3696     0.0000    48.0000 </r>
       <r>     9.4763     0.0000    48.0000 </r>
       <r>     9.5830     0.0000    48.0000 </r>
       <r>     9.6898     0.0000    48.0000 </r>
       <r>     9.7965     0.0000    48.0000 </r>
       <r>     9.9032     0.0000    48.0000 </r>
       <r>    10.0100     0.0000    48.0000 </r>
       <r>    10.1167     0.0000    48.0000 </r>
       <r>    10.2234     0.0000    48.0000 </r>
       <r>    10.3302     0.0000    48.0000 </r>
      </set>
      <set comment="spin 2">
       <r>   -21.6902     0.0000     0.0000 </r>
       <r>   -21.5835     0.0000     0.0000 </r>
       <r>   -21.4767     0.0000     0.0000 </r>
       <r>   -21.3700     0.0000     0.0000 </r>
       <r>   -21.2633     0.0000     0.0000 </r>
       <r>   -21.1565     0.0000     0.0000 </r>
       <r>   -21.0498     0.0000     0.0000 </r>
       <r>   -20.9431     0.0000     0.0000 </r>
       <r>   -20.8363     0.0000     0.0000 </r>
       <r>   -20.7296     0.0000     0.0000 </r>
       <r>   -20.6229     0.0000     0.0000 </r>
       <r>   -20.5161     0.0000     0.0000 </r>
       <r>   -20.4094     0.0009     0.0001 </r>
       <r>   -20.3026     0.0345     0.0038 </r>
       <r>   -20.1959     0.2512     0.0306 </r>
       <r>   -20.0892     0.5288     0.0870 </r>
       <r>   -19.9824     0.5751     0.1484 </r>
       <r>   -19.8757     0.6298     0.2156 </r>
       <r>   -19.7690     0.5281     0.2720 </r>
       <r>   -19.6622     0.6841     0.3450 </r>
       <r>   -19.5555     0.5432     0.4030 </r>
       <r>   -19.4488     0.5322     0.4598 </r>
       <r>   -19.3420     0.7672     0.5417 </r>
       <r>   -19.2353     0.4988     0.5949 </r>
       <r>   -19.1286     0.4783     0.6460 </r>
       <r>   -19.0218     0.7747     0.7287 </r>
       <r>   -18.9151     0.6768     0.8009 </r>
       <r>   -18.8084     0.3905     0.8426 </r>
       <r>   -18.7016     0.5211     0.8982 </r>
       <r>   -18.5949     0.8856     0.9927 </r>
       <r>   -18.4882     0.6027     1.0570 </r>
       <r>   -18.3814     0.4905     1.1094 </r>
       <r>   -18.2747     0.3683     1.1487 </r>
       <r>   -18.1680     0.7997     1.2341 </r>
       <r>   -18.0612     0.8751     1.3275 </r>
       <r>   -17.9545     0.4838     1.3791 </r>
       <r>   -17.8478     0.3986     1.4216 </r>
       <r>   -17.7410     0.5149     1.4766 </r>
       <r>   -17.6343     0.7486     1.5565 </r>
       <r>   -17.5275     0.9073     1.6533 </r>
       <r>   -17.4208     0.8923     1.7486 </r>
       <r>   -17.3141     1.0772     1.8636 </r>
       <r>   -17.2073     1.3099     2.0034 </r>
       <r>   -17.1006     1.8727     2.2033 </r>
       <r>   -16.9939     2.1169     2.4292 </r>
       <r>   -16.8871     2.4563     2.6914 </r>
       <r>   -16.7804     2.6851     2.9780 </r>
       <r>   -16.6737     1.5475     3.1431 </r>
       <r>   -16.5669     0.3729     3.1830 </r>
       <r>   -16.4602     0.7630     3.2644 </r>
       <r>   -16.3535     1.1186     3.3838 </r>
       <r>   -16.2467     0.6185     3.4498 </r>
       <r>   -16.1400     0.5426     3.5077 </r>
       <r>   -16.0333     0.4799     3.5589 </r>
       <r>   -15.9265     0.5150     3.6139 </r>
       <r>   -15.8198     0.4110     3.6578 </r>
       <r>   -15.7131     0.9075     3.7546 </r>
       <r>   -15.6063     1.1195     3.8741 </r>
       <r>   -15.4996     0.5741     3.9354 </r>
       <r>   -15.3929     0.4889     3.9876 </r>
       <r>   -15.2861     0.4244     4.0329 </r>
       <r>   -15.1794     0.5419     4.0907 </r>
       <r>   -15.0727     0.8033     4.1764 </r>
       <r>   -14.9659     1.5811     4.3452 </r>
       <r>   -14.8592     2.3975     4.6011 </r>
       <r>   -14.7525     2.4768     4.8655 </r>
       <r>   -14.6457     2.0131     5.0803 </r>
       <r>   -14.5390     1.4352     5.2335 </r>
       <r>   -14.4322     1.0587     5.3465 </r>
       <r>   -14.3255     1.5530     5.5123 </r>
       <r>   -14.2188     2.0783     5.7341 </r>
       <r>   -14.1120     1.8022     5.9265 </r>
       <r>   -14.0053     1.3635     6.0720 </r>
       <r>   -13.8986     1.7794     6.2619 </r>
       <r>   -13.7918     2.4089     6.5190 </r>
       <r>   -13.6851     2.2627     6.7605 </r>
       <r>   -13.5784     2.1884     6.9941 </r>
       <r>   -13.4716     1.3136     7.1343 </r>
       <r>   -13.3649     0.7661     7.2161 </r>
       <r>   -13.2582     0.4521     7.2643 </r>
       <r>   -13.1514     0.4357     7.3108 </r>
       <r>   -13.0447     0.7707     7.3931 </r>
       <r>   -12.9380     0.9461     7.4941 </r>
       <r>   -12.8312     0.6389     7.5623 </r>
       <r>   -12.7245     0.7578     7.6432 </r>
       <r>   -12.6178     0.9173     7.7411 </r>
       <r>   -12.5110     0.7573     7.8219 </r>
       <r>   -12.4043     0.7129     7.8980 </r>
       <r>   -12.2976     0.4970     7.9510 </r>
       <r>   -12.1908     0.6046     8.0156 </r>
       <r>   -12.0841     1.0763     8.1304 </r>
       <r>   -11.9774     0.6068     8.1952 </r>
       <r>   -11.8706     0.3834     8.2361 </r>
       <r>   -11.7639     0.4473     8.2839 </r>
       <r>   -11.6571     0.5795     8.3457 </r>
       <r>   -11.5504     0.9043     8.4422 </r>
       <r>   -11.4437     0.6654     8.5133 </r>
       <r>   -11.3369     0.2512     8.5401 </r>
       <r>   -11.2302     0.4544     8.5886 </r>
       <r>   -11.1235     0.7418     8.6677 </r>
       <r>   -11.0167     0.7040     8.7429 </r>
       <r>   -10.9100     0.8613     8.8348 </r>
       <r>   -10.8033     0.9733     8.9387 </r>
       <r>   -10.6965     0.4551     8.9873 </r>
       <r>   -10.5898     0.9921     9.0932 </r>
       <r>   -10.4831     1.7480     9.2797 </r>
       <r>   -10.3763     1.9078     9.4834 </r>
       <r>   -10.2696     2.0168     9.6986 </r>
       <r>   -10.1629     2.0748     9.9201 </r>
       <r>   -10.0561     2.1270    10.1471 </r>
       <r>    -9.9494     1.9727    10.3577 </r>
       <r>    -9.8427     1.3709    10.5040 </r>
       <r>    -9.7359     1.3753    10.6508 </r>
       <r>    -9.6292     1.6793    10.8300 </r>
       <r>    -9.5225     1.3486    10.9740 </r>
       <r>    -9.4157     2.0356    11.1912 </r>
       <r>    -9.3090     2.6064    11.4694 </r>
       <r>    -9.2023     1.7851    11.6600 </r>
       <r>    -9.0955     1.1601    11.7838 </r>
       <r>    -8.9888     0.8121    11.8705 </r>
       <r>    -8.8820     2.0288    12.0870 </r>
       <r>    -8.7753     2.8350    12.3896 </r>
       <r>    -8.6686     1.6932    12.5703 </r>
       <r>    -8.5618     1.0659    12.6841 </r>
       <r>    -8.4551     1.5052    12.8447 </r>
       <r>    -8.3484     2.3553    13.0961 </r>
       <r>    -8.2416     2.3033    13.3420 </r>
       <r>    -8.1349     1.7219    13.5258 </r>
       <r>    -8.0282     2.1581    13.7561 </r>
       <r>    -7.9214     2.8915    14.0647 </r>
       <r>    -7.8147     3.0729    14.3927 </r>
       <r>    -7.7080     2.5851    14.6686 </r>
       <r>    -7.6012     1.5539    14.8345 </r>
       <r>    -7.4945     0.8475    14.9249 </r>
       <r>    -7.3878     1.9271    15.1306 </r>
       <r>    -7.2810     2.4335    15.3904 </r>
       <r>    -7.1743     1.7009    15.5719 </r>
       <r>    -7.0676     1.4870    15.7306 </r>
       <r>    -6.9608     1.9598    15.9398 </r>
       <r>    -6.8541     2.2964    16.1849 </r>
       <r>    -6.7474     2.3565    16.4364 </r>
       <r>    -6.6406     2.8574    16.7414 </r>
       <r>    -6.5339     2.7011    17.0297 </r>
       <r>    -6.4272     2.7793    17.3263 </r>
       <r>    -6.3204     2.2453    17.5660 </r>
       <r>    -6.2137     2.2606    17.8073 </r>
       <r>    -6.1069     3.1243    18.1408 </r>
       <r>    -6.0002     3.3682    18.5003 </r>
       <r>    -5.8935     3.9066    18.9172 </r>
       <r>    -5.7867     3.2691    19.2662 </r>
       <r>    -5.6800     2.4992    19.5329 </r>
       <r>    -5.5733     2.7955    19.8313 </r>
       <r>    -5.4665     4.0776    20.2665 </r>
       <r>    -5.3598     4.2461    20.7197 </r>
       <r>    -5.2531     2.7291    21.0110 </r>
       <r>    -5.1463     2.1196    21.2373 </r>
       <r>    -5.0396     1.4001    21.3867 </r>
       <r>    -4.9329     1.1982    21.5146 </r>
       <r>    -4.8261     1.7015    21.6962 </r>
       <r>    -4.7194     1.6034    21.8673 </r>
       <r>    -4.6127     1.0886    21.9835 </r>
       <r>    -4.5059     1.0898    22.0998 </r>
       <r>    -4.3992     1.7821    22.2901 </r>
       <r>    -4.2925     3.0080    22.6111 </r>
       <r>    -4.1857     2.9646    22.9275 </r>
       <r>    -4.0790     2.2626    23.1690 </r>
       <r>    -3.9723     2.3852    23.4236 </r>
       <r>    -3.8655     3.1703    23.7620 </r>
       <r>    -3.7588     2.5522    24.0344 </r>
       <r>    -3.6521     2.4717    24.2982 </r>
       <r>    -3.5453     2.4987    24.5649 </r>
       <r>    -3.4386     2.1398    24.7933 </r>
       <r>    -3.3318     1.5534    24.9591 </r>
       <r>    -3.2251     1.6552    25.1358 </r>
       <r>    -3.1184     2.3248    25.3839 </r>
       <r>    -3.0116     2.2395    25.6230 </r>
       <r>    -2.9049     1.6003    25.7938 </r>
       <r>    -2.7982     1.5862    25.9631 </r>
       <r>    -2.6914     1.1097    26.0815 </r>
       <r>    -2.5847     1.2115    26.2108 </r>
       <r>    -2.4780     2.0134    26.4257 </r>
       <r>    -2.3712     2.2970    26.6709 </r>
       <r>    -2.2645     0.7556    26.7515 </r>
       <r>    -2.1578     0.6768    26.8238 </r>
       <r>    -2.0510     1.2087    26.9528 </r>
       <r>    -1.9443     1.1707    27.0777 </r>
       <r>    -1.8376     1.3115    27.2177 </r>
       <r>    -1.7308     1.3922    27.3663 </r>
       <r>    -1.6241     1.3153    27.5067 </r>
       <r>    -1.5174     1.1590    27.6304 </r>
       <r>    -1.4106     0.4880    27.6825 </r>
       <r>    -1.3039     0.4867    27.7344 </r>
       <r>    -1.1972     0.6063    27.7991 </r>
       <r>    -1.0904     0.3868    27.8404 </r>
       <r>    -0.9837     0.5815    27.9025 </r>
       <r>    -0.8770     0.5974    27.9663 </r>
       <r>    -0.7702     0.1703    27.9844 </r>
       <r>    -0.6635     0.0155    27.9861 </r>
       <r>    -0.5568     0.0003    27.9861 </r>
       <r>    -0.4500     0.0005    27.9862 </r>
       <r>    -0.3433     0.0224    27.9886 </r>
       <r>    -0.2365     0.1234    28.0017 </r>
       <r>    -0.1298     0.1015    28.0126 </r>
       <r>    -0.0231     0.0123    28.0139 </r>
       <r>     0.0837     0.0002    28.0139 </r>
       <r>     0.1904     0.0001    28.0139 </r>
       <r>     0.2971     0.0155    28.0156 </r>
       <r>     0.4039     0.2133    28.0383 </r>
       <r>     0.5106     0.4222    28.0834 </r>
       <r>     0.6173     0.1770    28.1023 </r>
       <r>     0.7241     0.4600    28.1514 </r>
       <r>     0.8308     0.9049    28.2480 </r>
       <r>     0.9375     1.4202    28.3995 </r>
       <r>     1.0443     2.8556    28.7043 </r>
       <r>     1.1510     2.4873    28.9698 </r>
       <r>     1.2577     0.6987    29.0444 </r>
       <r>     1.3645     0.1270    29.0579 </r>
       <r>     1.4712     0.4264    29.1034 </r>
       <r>     1.5779     1.5943    29.2736 </r>
       <r>     1.6847     2.6225    29.5535 </r>
       <r>     1.7914     1.9552    29.7622 </r>
       <r>     1.8981     1.3105    29.9021 </r>
       <r>     2.0049     1.1157    30.0212 </r>
       <r>     2.1116     1.2868    30.1585 </r>
       <r>     2.2183     0.9446    30.2593 </r>
       <r>     2.3251     1.0908    30.3758 </r>
       <r>     2.4318     0.9046    30.4723 </r>
       <r>     2.5386     0.6463    30.5413 </r>
       <r>     2.6453     1.5872    30.7107 </r>
       <r>     2.7520     1.4894    30.8697 </r>
       <r>     2.8588     0.7440    30.9491 </r>
       <r>     2.9655     0.8175    31.0363 </r>
       <r>     3.0722     1.1545    31.1596 </r>
       <r>     3.1790     1.5830    31.3285 </r>
       <r>     3.2857     1.2624    31.4633 </r>
       <r>     3.3924     1.3497    31.6073 </r>
       <r>     3.4992     1.0093    31.7151 </r>
       <r>     3.6059     1.8349    31.9109 </r>
       <r>     3.7126     2.9667    32.2275 </r>
       <r>     3.8194     2.9874    32.5464 </r>
       <r>     3.9261     2.7978    32.8450 </r>
       <r>     4.0328     2.6220    33.1249 </r>
       <r>     4.1396     3.2430    33.4710 </r>
       <r>     4.2463     3.4228    33.8363 </r>
       <r>     4.3530     3.1295    34.1704 </r>
       <r>     4.4598     3.1004    34.5013 </r>
       <r>     4.5665     3.1442    34.8369 </r>
       <r>     4.6732     2.5830    35.1126 </r>
       <r>     4.7800     3.0684    35.4401 </r>
       <r>     4.8867     3.6791    35.8328 </r>
       <r>     4.9934     3.0042    36.1534 </r>
       <r>     5.1002     3.0401    36.4779 </r>
       <r>     5.2069     3.2892    36.8290 </r>
       <r>     5.3137     2.5945    37.1059 </r>
       <r>     5.4204     2.6112    37.3846 </r>
       <r>     5.5271     3.0215    37.7071 </r>
       <r>     5.6339     3.8729    38.1205 </r>
       <r>     5.7406     2.9813    38.4387 </r>
       <r>     5.8473     2.6593    38.7225 </r>
       <r>     5.9541     2.4498    38.9840 </r>
       <r>     6.0608     2.7824    39.2810 </r>
       <r>     6.1675     2.2275    39.5187 </r>
       <r>     6.2743     2.0126    39.7335 </r>
       <r>     6.3810     2.7784    40.0301 </r>
       <r>     6.4877     3.0915    40.3601 </r>
       <r>     6.5945     3.3125    40.7136 </r>
       <r>     6.7012     3.0955    41.0440 </r>
       <r>     6.8079     4.2078    41.4931 </r>
       <r>     6.9147     3.9602    41.9158 </r>
       <r>     7.0214     3.3158    42.2697 </r>
       <r>     7.1281     3.2510    42.6167 </r>
       <r>     7.2349     2.7556    42.9108 </r>
       <r>     7.3416     2.1709    43.1426 </r>
       <r>     7.4483     2.7530    43.4364 </r>
       <r>     7.5551     3.1087    43.7682 </r>
       <r>     7.6618     2.5878    44.0444 </r>
       <r>     7.7685     3.0901    44.3742 </r>
       <r>     7.8753     3.7267    44.7720 </r>
       <r>     7.9820     4.1054    45.2102 </r>
       <r>     8.0888     4.4089    45.6808 </r>
       <r>     8.1955     3.9689    46.1044 </r>
       <r>     8.3022     3.4908    46.4770 </r>
       <r>     8.4090     4.0471    46.9089 </r>
       <r>     8.5157     4.5012    47.3894 </r>
       <r>     8.6224     2.9280    47.7019 </r>
       <r>     8.7292     1.5715    47.8696 </r>
       <r>     8.8359     0.7425    47.9489 </r>
       <r>     8.9426     0.3949    47.9910 </r>
       <r>     9.0494     0.0810    47.9997 </r>
       <r>     9.1561     0.0029    48.0000 </r>
       <r>     9.2628     0.0000    48.0000 </r>
       <r>     9.3696     0.0000    48.0000 </r>
       <r>     9.4763     0.0000    48.0000 </r>
       <r>     9.5830     0.0000    48.0000 </r>
       <r>     9.6898     0.0000    48.0000 </r>
       <r>     9.7965     0.0000    48.0000 </r>
       <r>     9.9032     0.0000    48.0000 </r>
       <r>    10.0100     0.0000    48.0000 </r>
       <r>    10.1167     0.0000    48.0000 </r>
       <r>    10.2234     0.0000    48.0000 </r>
       <r>    10.3302     0.0000    48.0000 </r>
      </set>
     </set>
    </array>
   </total>
  </dos>
 </calculation>
 <structure name="finalpos" >
  <crystal>
   <varray name="basis" >
    <v>       4.18636680       2.41700000       0.00000000 </v>
    <v>      -4.18636680       2.41700000       0.00000000 </v>
    <v>       0.00000000       0.00000000      15.00000000 </v>
   </varray>
   <i name="volume">    303.55345681 </i>
   <varray name="rec_basis" >
    <v>       0.11943531       0.20686802       0.00000000 </v>
    <v>      -0.11943531       0.20686802       0.00000000 </v>
    <v>       0.00000000       0.00000000       0.06666667 </v>
   </varray>
  </crystal>
  <varray name="positions" >
   <v>       0.00440042       0.00292402       0.09938232 </v>
   <v>       0.35954819       0.00292795       0.10124969 </v>
   <v>       0.00440821       0.35807077       0.10125188 </v>
   <v>       0.64925877       0.64777869       0.10125546 </v>
   <v>       0.32818209       0.32670232       0.10097199 </v>
   <v>       0.68062976       0.00292827       0.10096726 </v>
   <v>       0.00440997       0.67915068       0.10096684 </v>
   <v>       0.16645227       0.33320107       0.33817593 </v>
   <v>       0.33313947       0.16651424       0.33817772 </v>
   <v>       0.16649250       0.83322242       0.33817998 </v>
   <v>       0.33314117       0.66653667       0.33806869 </v>
   <v>       0.66647434       0.33320199       0.33806868 </v>
   <v>       0.83316005       0.16655379       0.33817940 </v>
   <v>       0.66647477       0.83318429       0.33817566 </v>
   <v>       0.83312202       0.66653682       0.33817450 </v>
  </varray>
 </structure>
</modeling>
