       N       E                     dE             d eps       ncg     rms          rms(c)
DAV:   1     0.201614337361E+03    0.20161E+03   -0.25631E+04 14208   0.858E+02
DAV:   2    -0.116431416653E+03   -0.31805E+03   -0.31677E+03 20400   0.162E+02
DAV:   3    -0.129106056089E+03   -0.12675E+02   -0.12661E+02 27168   0.426E+01
DAV:   4    -0.129124263406E+03   -0.18207E-01   -0.18207E-01 19920   0.162E+00
DAV:   5    -0.129124323746E+03   -0.60340E-04   -0.60340E-04 26064   0.889E-02    0.242E+01
DAV:   6    -0.919034335253E+02    0.37221E+02   -0.72930E+01 25488   0.256E+01    0.138E+01
DAV:   7    -0.100346853734E+03   -0.84434E+01   -0.97053E+00 21648   0.100E+01    0.806E+00
DAV:   8    -0.110408763333E+03   -0.10062E+02   -0.88662E+00 23328   0.897E+00    0.432E+00
DAV:   9    -0.117159274557E+03   -0.67505E+01   -0.39130E+00 18816   0.613E+00    0.276E+00
DAV:  10    -0.123495993584E+03   -0.63367E+01   -0.81867E+00 23664   0.708E+00    0.159E+00
DAV:  11    -0.125266654451E+03   -0.17707E+01   -0.27862E+00 25776   0.382E+00    0.987E-01
DAV:  12    -0.125424795162E+03   -0.15814E+00   -0.22279E-01 20112   0.137E+00    0.462E-01
DAV:  13    -0.125451961420E+03   -0.27166E-01   -0.22849E-02 18240   0.553E-01    0.187E-01
DAV:  14    -0.125474442576E+03   -0.22481E-01   -0.59915E-03 20736   0.283E-01    0.833E-02
DAV:  15    -0.125481836976E+03   -0.73944E-02   -0.30735E-03 19680   0.156E-01    0.435E-02
DAV:  16    -0.125483791139E+03   -0.19542E-02   -0.62329E-04 16848   0.805E-02    0.219E-02
DAV:  17    -0.125485023083E+03   -0.12319E-02   -0.16639E-04 15264   0.515E-02    0.167E-02
DAV:  18    -0.125485748618E+03   -0.72553E-03   -0.82556E-05 15936   0.379E-02    0.121E-02
DAV:  19    -0.125486167590E+03   -0.41897E-03   -0.39730E-05 19680   0.246E-02    0.708E-03
DAV:  20    -0.125486223621E+03   -0.56031E-04   -0.21189E-05 22464   0.176E-02    0.430E-03
DAV:  21    -0.125486242816E+03   -0.19195E-04   -0.58064E-06 21216   0.954E-03    0.215E-03
DAV:  22    -0.125486264051E+03   -0.21234E-04   -0.21985E-06 21600   0.553E-03    0.136E-03
DAV:  23    -0.125486278455E+03   -0.14404E-04   -0.16470E-06 21792   0.397E-03    0.713E-04
DAV:  24    -0.125486281355E+03   -0.28997E-05   -0.31589E-07 23664   0.211E-03    0.373E-04
DAV:  25    -0.125486282299E+03   -0.94445E-06   -0.11376E-07 21840   0.113E-03
   1 F= -.12707452E+03 E0= -.12707374E+03  d E =-.127075E+03  mag=    -0.0000
       N       E                     dE             d eps       ncg     rms          rms(c)
DAV:   1    -0.125497955570E+03   -0.11674E-01   -0.37123E+00 14208   0.592E+00    0.520E-01
DAV:   2    -0.125488234211E+03    0.97214E-02   -0.74075E-02 26544   0.765E-01    0.229E-01
DAV:   3    -0.125487143117E+03    0.10911E-02   -0.60354E-03 20592   0.216E-01    0.899E-02
DAV:   4    -0.125487094989E+03    0.48128E-04   -0.70844E-04 27072   0.752E-02    0.236E-02
DAV:   5    -0.125487098499E+03   -0.35101E-05   -0.20150E-05 24192   0.141E-02    0.780E-03
DAV:   6    -0.125487098462E+03    0.36652E-07   -0.42671E-06 23424   0.603E-03
   2 F= -.12707469E+03 E0= -.12707391E+03  d E =-.172073E-03  mag=    -0.0000
       N       E                     dE             d eps       ncg     rms          rms(c)
DAV:   1    -0.125497816822E+03   -0.10718E-01   -0.92083E-01 14208   0.294E+00    0.259E-01
DAV:   2    -0.125495345435E+03    0.24714E-02   -0.18295E-02 26352   0.380E-01    0.114E-01
DAV:   3    -0.125495084198E+03    0.26124E-03   -0.14748E-03 23760   0.108E-01    0.453E-02
DAV:   4    -0.125495072451E+03    0.11747E-04   -0.16770E-04 22992   0.366E-02    0.115E-02
DAV:   5    -0.125495073262E+03   -0.81071E-06   -0.56496E-06 23472   0.742E-03
   3 F= -.12708298E+03 E0= -.12708220E+03  d E =-.846184E-02  mag=    -0.0000
       N       E                     dE             d eps       ncg     rms          rms(c)
DAV:   1    -0.125501663646E+03   -0.65912E-02   -0.31892E-01 14208   0.199E+00    0.117E-01
DAV:   2    -0.125501723371E+03   -0.59725E-04   -0.20739E-03 27408   0.185E-01    0.684E-02
DAV:   3    -0.125501720649E+03    0.27219E-05   -0.20286E-04 21984   0.511E-02    0.174E-02
DAV:   4    -0.125501721645E+03   -0.99601E-06   -0.31816E-05 26928   0.206E-02    0.664E-03
DAV:   5    -0.125501722091E+03   -0.44624E-06   -0.12114E-06 22464   0.462E-03
   4 F= -.12708951E+03 E0= -.12708873E+03  d E =-.652405E-02  mag=    -0.0000
       N       E                     dE             d eps       ncg     rms          rms(c)
DAV:   1    -0.125509796040E+03   -0.80744E-02   -0.25685E+00 14208   0.564E+00    0.331E-01
DAV:   2    -0.125510391996E+03   -0.59596E-03   -0.16934E-02 27168   0.527E-01    0.193E-01
DAV:   3    -0.125510362321E+03    0.29675E-04   -0.16510E-03 21600   0.145E-01    0.487E-02
DAV:   4    -0.125510371167E+03   -0.88454E-05   -0.25324E-04 27456   0.580E-02    0.189E-02
DAV:   5    -0.125510375041E+03   -0.38747E-05   -0.91040E-06 22752   0.126E-02    0.827E-03
DAV:   6    -0.125510375202E+03   -0.16012E-06   -0.52362E-06 24576   0.806E-03
   5 F= -.12709779E+03 E0= -.12709701E+03  d E =-.148039E-01  mag=     0.0000
       N       E                     dE             d eps       ncg     rms          rms(c)
DAV:   1    -0.125512423920E+03   -0.20489E-02   -0.31288E-02 14448   0.661E-01    0.384E-02
DAV:   2    -0.125512428577E+03   -0.46567E-05   -0.26039E-04 27840   0.689E-02    0.216E-02
DAV:   3    -0.125512426726E+03    0.18510E-05   -0.25427E-05 22560   0.190E-02    0.656E-03
DAV:   4    -0.125512427212E+03   -0.48591E-06   -0.43163E-06 25584   0.770E-03
   6 F= -.12709981E+03 E0= -.12709902E+03  d E =-.201981E-02  mag=     0.0000
       N       E                     dE             d eps       ncg     rms          rms(c)
DAV:   1    -0.125517161385E+03   -0.47347E-02   -0.28194E-01 14208   0.198E+00    0.115E-01
DAV:   2    -0.125517199036E+03   -0.37651E-04   -0.22812E-03 27648   0.204E-01    0.646E-02
DAV:   3    -0.125517182182E+03    0.16854E-04   -0.21960E-04 20208   0.559E-02    0.194E-02
DAV:   4    -0.125517183326E+03   -0.11447E-05   -0.37250E-05 26400   0.223E-02    0.783E-03
DAV:   5    -0.125517184203E+03   -0.87685E-06   -0.12908E-06 21024   0.477E-03
   7 F= -.12710446E+03 E0= -.12710368E+03  d E =-.667215E-02  mag=     0.0000
       N       E                     dE             d eps       ncg     rms          rms(c)
DAV:   1    -0.125520420670E+03   -0.32373E-02   -0.11322E+00 14208   0.397E+00    0.229E-01
DAV:   2    -0.125520574022E+03   -0.15335E-03   -0.92966E-03 27264   0.412E-01    0.129E-01
DAV:   3    -0.125520503924E+03    0.70098E-04   -0.88709E-04 21696   0.112E-01    0.388E-02
DAV:   4    -0.125520508327E+03   -0.44033E-05   -0.14646E-04 25824   0.442E-02    0.156E-02
DAV:   5    -0.125520511118E+03   -0.27909E-05   -0.48898E-06 22272   0.937E-03    0.640E-03
DAV:   6    -0.125520510654E+03    0.46341E-06   -0.24611E-06 25008   0.602E-03
   8 F= -.12710754E+03 E0= -.12710677E+03  d E =-.975288E-02  mag=    -0.0000
       N       E                     dE             d eps       ncg     rms          rms(c)
DAV:   1    -0.125522574019E+03   -0.20629E-02   -0.11494E-01 14304   0.110E+00    0.642E-02
DAV:   2    -0.125522600700E+03   -0.26682E-04   -0.61268E-04 24144   0.896E-02    0.384E-02
DAV:   3    -0.125522598542E+03    0.21580E-05   -0.71611E-05 21216   0.258E-02    0.600E-03
DAV:   4    -0.125522598740E+03   -0.19770E-06   -0.46031E-06 25728   0.826E-03
   9 F= -.12710950E+03 E0= -.12710872E+03  d E =-.195618E-02  mag=    -0.0000
       N       E                     dE             d eps       ncg     rms          rms(c)
DAV:   1    -0.125526889098E+03   -0.42906E-02   -0.10357E+00 14208   0.330E+00    0.191E-01
DAV:   2    -0.125527158888E+03   -0.26979E-03   -0.54017E-03 27264   0.267E-01    0.115E-01
DAV:   3    -0.125527138686E+03    0.20201E-04   -0.63769E-04 20784   0.764E-02    0.168E-02
DAV:   4    -0.125527139296E+03   -0.60941E-06   -0.37589E-05 24768   0.239E-02    0.900E-03
DAV:   5    -0.125527137395E+03    0.19007E-05   -0.49595E-06 22080   0.848E-03    0.329E-03
DAV:   6    -0.125527136828E+03    0.56715E-06   -0.15118E-06 24384   0.448E-03
  10 F= -.12711364E+03 E0= -.12711286E+03  d E =-.610489E-02  mag=     0.0000
       N       E                     dE             d eps       ncg     rms          rms(c)
DAV:   1    -0.125528344154E+03   -0.12068E-02   -0.41425E+00 14208   0.661E+00    0.376E-01
DAV:   2    -0.125529471446E+03   -0.11273E-02   -0.21012E-02 25536   0.530E-01    0.226E-01
DAV:   3    -0.125529399966E+03    0.71480E-04   -0.26027E-03 23088   0.154E-01    0.310E-02
DAV:   4    -0.125529398668E+03    0.12977E-05   -0.14428E-04 22080   0.472E-02    0.176E-02
DAV:   5    -0.125529393730E+03    0.49373E-05   -0.18957E-05 23712   0.167E-02    0.566E-03
DAV:   6    -0.125529392826E+03    0.90463E-06   -0.54696E-06 25008   0.847E-03
  11 F= -.12711515E+03 E0= -.12711441E+03  d E =-.761322E-02  mag=     0.0000
       N       E                     dE             d eps       ncg     rms          rms(c)
DAV:   1    -0.125531818836E+03   -0.24251E-02   -0.19566E-01 14208   0.156E+00    0.832E-02
DAV:   2    -0.125531872705E+03   -0.53869E-04   -0.12286E-03 25152   0.141E-01    0.501E-02
DAV:   3    -0.125531865006E+03    0.76988E-05   -0.14508E-04 20160   0.421E-02    0.103E-02
DAV:   4    -0.125531866395E+03   -0.13893E-05   -0.16183E-05 22752   0.158E-02    0.520E-03
DAV:   5    -0.125531868047E+03   -0.16516E-05   -0.94770E-07 20544   0.426E-03    0.279E-03
DAV:   6    -0.125531869810E+03   -0.17632E-05   -0.37004E-07 21120   0.237E-03    0.131E-03
DAV:   7    -0.125531871929E+03   -0.21193E-05   -0.31448E-07 19776   0.194E-03    0.562E-04
DAV:   8    -0.125531875234E+03   -0.33046E-05   -0.52316E-07 19584   0.200E-03    0.409E-04
DAV:   9    -0.125531876959E+03   -0.17252E-05   -0.13608E-07 21840   0.100E-03    0.228E-04
DAV:  10    -0.125531877669E+03   -0.70974E-06   -0.24023E-08 22560   0.449E-04
  12 F= -.12711748E+03 E0= -.12711672E+03  d E =-.232837E-02  mag=     0.0000
       N       E                     dE             d eps       ncg     rms          rms(c)
DAV:   1    -0.125534291215E+03   -0.24143E-02   -0.72415E-01 14208   0.301E+00    0.160E-01
DAV:   2    -0.125534484353E+03   -0.19314E-03   -0.43916E-03 24384   0.268E-01    0.965E-02
DAV:   3    -0.125534458064E+03    0.26289E-04   -0.53079E-04 21072   0.804E-02    0.189E-02
DAV:   4    -0.125534457849E+03    0.21435E-06   -0.59669E-05 21792   0.295E-02    0.942E-03
DAV:   5    -0.125534458227E+03   -0.37730E-06   -0.26202E-06 24432   0.688E-03
  13 F= -.12711976E+03 E0= -.12711897E+03  d E =-.460506E-02  mag=     0.0000
       N       E                     dE             d eps       ncg     rms          rms(c)
DAV:   1    -0.125534666696E+03   -0.20885E-03   -0.67972E-02 14208   0.921E-01    0.490E-02
DAV:   2    -0.125534686688E+03   -0.19992E-04   -0.42954E-04 26112   0.837E-02    0.297E-02
DAV:   3    -0.125534684647E+03    0.20407E-05   -0.51500E-05 24240   0.249E-02    0.593E-03
DAV:   4    -0.125534684846E+03   -0.19844E-06   -0.54606E-06 23232   0.907E-03
  14 F= -.12711989E+03 E0= -.12711911E+03  d E =-.473804E-02  mag=     0.0000
       N       E                     dE             d eps       ncg     rms          rms(c)
DAV:   1    -0.125535059652E+03   -0.37500E-03   -0.69008E-03 16416   0.326E-01    0.225E-02
DAV:   2    -0.125535045740E+03    0.13911E-04   -0.12596E-04 27648   0.424E-02    0.107E-02
DAV:   3    -0.125535043762E+03    0.19779E-05   -0.12189E-05 20400   0.129E-02    0.381E-03
DAV:   4    -0.125535044279E+03   -0.51647E-06   -0.16760E-06 22656   0.477E-03
  15 F= -.12712023E+03 E0= -.12711945E+03  d E =-.344105E-03  mag=     0.0000
       N       E                     dE             d eps       ncg     rms          rms(c)
DAV:   1    -0.125535381293E+03   -0.33753E-03   -0.23841E-02 15168   0.606E-01    0.417E-02
DAV:   2    -0.125535333709E+03    0.47584E-04   -0.43500E-04 27744   0.790E-02    0.200E-02
DAV:   3    -0.125535325518E+03    0.81910E-05   -0.41837E-05 21984   0.239E-02    0.713E-03
DAV:   4    -0.125535325519E+03   -0.11250E-08   -0.55260E-06 23904   0.873E-03
  16 F= -.12712049E+03 E0= -.12711970E+03  d E =-.596057E-03  mag=     0.0000
       N       E                     dE             d eps       ncg     rms          rms(c)
DAV:   1    -0.125535404133E+03   -0.78614E-04   -0.17030E-03 20160   0.170E-01    0.104E-02
DAV:   2    -0.125535402109E+03    0.20233E-05   -0.21893E-05 26640   0.195E-02    0.538E-03
DAV:   3    -0.125535401719E+03    0.39068E-06   -0.27566E-06 22992   0.656E-03
  17 F= -.12712055E+03 E0= -.12711977E+03  d E =-.633527E-04  mag=    -0.0000
       N       E                     dE             d eps       ncg     rms          rms(c)
DAV:   1    -0.125535454902E+03   -0.52793E-04   -0.30567E-03 18432   0.228E-01    0.143E-02
DAV:   2    -0.125535451253E+03    0.36488E-05   -0.40635E-05 25632   0.266E-02    0.742E-03
DAV:   3    -0.125535450357E+03    0.89616E-06   -0.52468E-06 23376   0.900E-03
  18 F= -.12712058E+03 E0= -.12711980E+03  d E =-.946446E-04  mag=     0.0000
       N       E                     dE             d eps       ncg     rms          rms(c)
DAV:   1    -0.125535501709E+03   -0.50456E-04   -0.10499E-03 14208   0.129E-01    0.571E-03
DAV:   2    -0.125535501412E+03    0.29752E-06   -0.78784E-06 27552   0.114E-02
  19 F= -.12712062E+03 E0= -.12711984E+03  d E =-.373882E-04  mag=     0.0000
       N       E                     dE             d eps       ncg     rms          rms(c)
DAV:   1    -0.125535601034E+03   -0.99325E-04   -0.93748E-03 14208   0.386E-01    0.171E-02
DAV:   2    -0.125535598593E+03    0.24409E-05   -0.65558E-05 27504   0.330E-02    0.100E-02
DAV:   3    -0.125535598104E+03    0.48896E-06   -0.84038E-06 16896   0.997E-03
  20 F= -.12712067E+03 E0= -.12711989E+03  d E =-.931383E-04  mag=    -0.0000
       N       E                     dE             d eps       ncg     rms          rms(c)
DAV:   1    -0.125535605051E+03   -0.64582E-05   -0.18365E-04 22320   0.539E-02    0.302E-03
DAV:   2    -0.125535604975E+03    0.76094E-07   -0.10964E-06 26736   0.437E-03
  21 F= -.12712068E+03 E0= -.12711989E+03  d E =-.943790E-04  mag=    -0.0000
       N       E                     dE             d eps       ncg     rms          rms(c)
DAV:   1    -0.125535659945E+03   -0.54894E-04   -0.24578E-03 16032   0.208E-01    0.964E-03
DAV:   2    -0.125535659591E+03    0.35426E-06   -0.23430E-05 20448   0.209E-02    0.572E-03
DAV:   3    -0.125535659196E+03    0.39478E-06   -0.32377E-06 19728   0.724E-03
  22 F= -.12712070E+03 E0= -.12711991E+03  d E =-.203293E-04  mag=    -0.0000
       N       E                     dE             d eps       ncg     rms          rms(c)
DAV:   1    -0.125535658548E+03    0.10424E-05   -0.13152E-06 15888   0.521E-03    0.913E-04
DAV:   2    -0.125535658578E+03   -0.29804E-07   -0.98600E-08 15120   0.164E-03
  23 F= -.12712070E+03 E0= -.12711991E+03  d E =-.203778E-04  mag=    -0.0000
       N       E                     dE             d eps       ncg     rms          rms(c)
DAV:   1    -0.125535710254E+03   -0.51706E-04   -0.93999E-04 14208   0.124E-01    0.517E-03
DAV:   2    -0.125535710254E+03    0.69394E-09   -0.71018E-06 16176   0.115E-02
  24 F= -.12712071E+03 E0= -.12711993E+03  d E =-.138732E-04  mag=     0.0000
       N       E                     dE             d eps       ncg     rms          rms(c)
DAV:   1    -0.125535775162E+03   -0.64907E-04   -0.21394E-03 14208   0.188E-01    0.831E-03
DAV:   2    -0.125535775077E+03    0.84779E-07   -0.15769E-05 24384   0.170E-02    0.510E-03
DAV:   3    -0.125535774956E+03    0.12067E-06   -0.17950E-06 16320   0.524E-03
  25 F= -.12712072E+03 E0= -.12711993E+03  d E =-.211098E-04  mag=     0.0000
       N       E                     dE             d eps       ncg     rms          rms(c)
DAV:   1    -0.125535823181E+03   -0.48104E-04   -0.71003E-04 14208   0.109E-01    0.457E-03
DAV:   2    -0.125535823227E+03   -0.46627E-07   -0.58789E-06 20688   0.107E-02
  26 F= -.12712073E+03 E0= -.12711994E+03  d E =-.888330E-05  mag=     0.0000
       N       E                     dE             d eps       ncg     rms          rms(c)
DAV:   1    -0.125535878997E+03   -0.55816E-04   -0.12219E-03 14400   0.144E-01    0.633E-03
DAV:   2    -0.125535879002E+03   -0.47958E-08   -0.95169E-06 17712   0.137E-02
  27 F= -.12712073E+03 E0= -.12711995E+03  d E =-.123672E-04  mag=     0.0000
       N       E                     dE             d eps       ncg     rms          rms(c)
DAV:   1    -0.125535916469E+03   -0.37472E-04   -0.27758E-04 14448   0.699E-02    0.343E-03
DAV:   2    -0.125535916431E+03    0.37989E-07   -0.29586E-06 14448   0.802E-03
  28 F= -.12712073E+03 E0= -.12711995E+03  d E =-.492539E-05  mag=    -0.0000
       N       E                     dE             d eps       ncg     rms          rms(c)
DAV:   1    -0.125536022748E+03   -0.10628E-03   -0.25716E-03 14208   0.211E-01    0.916E-03
DAV:   2    -0.125536022818E+03   -0.69878E-07   -0.24170E-05 15600   0.213E-02    0.580E-03
DAV:   3    -0.125536022926E+03   -0.10816E-06   -0.27380E-06 14880   0.746E-03
  29 F= -.12712074E+03 E0= -.12711996E+03  d E =-.139162E-04  mag=    -0.0000
       N       E                     dE             d eps       ncg     rms          rms(c)
DAV:   1    -0.125536059102E+03   -0.36284E-04   -0.34251E-04 14304   0.771E-02    0.352E-03
DAV:   2    -0.125536059010E+03    0.92095E-07   -0.39225E-06 14448   0.961E-03
  30 F= -.12712074E+03 E0= -.12711996E+03  d E =-.147487E-04  mag=     0.0000
       N       E                     dE             d eps       ncg     rms          rms(c)
DAV:   1    -0.125536117960E+03   -0.58858E-04   -0.62595E-04 14880   0.104E-01    0.506E-03
DAV:   2    -0.125536117814E+03    0.14565E-06   -0.80688E-06 14976   0.133E-02
  31 F= -.12712075E+03 E0= -.12711997E+03  d E =-.655727E-05  mag=     0.0000
       N       E                     dE             d eps       ncg     rms          rms(c)
DAV:   1    -0.125536209034E+03   -0.91074E-04   -0.17258E-03 14880   0.173E-01    0.839E-03
DAV:   2    -0.125536208822E+03    0.21252E-06   -0.20100E-05 15024   0.203E-02    0.539E-03
DAV:   3    -0.125536209218E+03   -0.39620E-06   -0.36370E-06 15024   0.964E-03
  32 F= -.12712076E+03 E0= -.12711997E+03  d E =-.109184E-04  mag=    -0.0000
       N       E                     dE             d eps       ncg     rms          rms(c)
DAV:   1    -0.125536240120E+03   -0.31299E-04   -0.16318E-04 14208   0.535E-02    0.254E-03
DAV:   2    -0.125536239896E+03    0.22477E-06   -0.31053E-06 14592   0.915E-03
  33 F= -.12712076E+03 E0= -.12711998E+03  d E =-.275616E-05  mag=    -0.0000
       N       E                     dE             d eps       ncg     rms          rms(c)
DAV:   1    -0.125536332472E+03   -0.92352E-04   -0.14186E-03 14208   0.156E-01    0.693E-03
DAV:   2    -0.125536332492E+03   -0.20047E-07   -0.16517E-05 15072   0.181E-02    0.461E-03
DAV:   3    -0.125536332819E+03   -0.32693E-06   -0.25275E-06 14880   0.787E-03
  34 F= -.12712077E+03 E0= -.12711998E+03  d E =-.119566E-04  mag=    -0.0000
       N       E                     dE             d eps       ncg     rms          rms(c)
DAV:   1    -0.125536513452E+03   -0.18096E-03   -0.57097E-03 14208   0.312E-01    0.130E-02
DAV:   2    -0.125536514323E+03   -0.87109E-06   -0.61799E-05 15744   0.338E-02    0.862E-03
DAV:   3    -0.125536514502E+03   -0.17860E-06   -0.64268E-06 14976   0.116E-02
  35 F= -.12712078E+03 E0= -.12712000E+03  d E =-.261676E-04  mag=     0.0000
       N       E                     dE             d eps       ncg     rms          rms(c)
DAV:   1    -0.125536860290E+03   -0.34597E-03   -0.22845E-02 14208   0.624E-01    0.260E-02
DAV:   2    -0.125536864467E+03   -0.41778E-05   -0.24208E-04 16944   0.659E-02    0.172E-02
DAV:   3    -0.125536863608E+03    0.85924E-06   -0.22109E-05 14640   0.200E-02    0.495E-03
DAV:   4    -0.125536864425E+03   -0.81700E-06   -0.81167E-06 15504   0.143E-02
  36 F= -.12712080E+03 E0= -.12712001E+03  d E =-.413076E-04  mag=     0.0000
       N       E                     dE             d eps       ncg     rms          rms(c)
DAV:   1    -0.125536967310E+03   -0.10370E-03   -0.17651E-03 15984   0.175E-01    0.769E-03
DAV:   2    -0.125536967401E+03   -0.91343E-07   -0.21240E-05 20352   0.204E-02    0.509E-03
DAV:   3    -0.125536967822E+03   -0.42088E-06   -0.29404E-06 15696   0.858E-03
  37 F= -.12712081E+03 E0= -.12712003E+03  d E =-.133871E-04  mag=    -0.0000
       N       E                     dE             d eps       ncg     rms          rms(c)
DAV:   1    -0.125537259936E+03   -0.29253E-03   -0.15812E-02 14208   0.522E-01    0.222E-02
DAV:   2    -0.125537262726E+03   -0.27903E-05   -0.17814E-04 15744   0.570E-02    0.146E-02
DAV:   3    -0.125537262161E+03    0.56527E-06   -0.17595E-05 14544   0.181E-02    0.466E-03
DAV:   4    -0.125537262604E+03   -0.44231E-06   -0.59357E-06 15120   0.122E-02
  38 F= -.12712083E+03 E0= -.12712005E+03  d E =-.380556E-04  mag=     0.0000
       N       E                     dE             d eps       ncg     rms          rms(c)
DAV:   1    -0.125537352886E+03   -0.90724E-04   -0.17416E-03 14208   0.174E-01    0.756E-03
DAV:   2    -0.125537353054E+03   -0.16859E-06   -0.22242E-05 17040   0.211E-02    0.503E-03
DAV:   3    -0.125537353453E+03   -0.39916E-06   -0.31068E-06 15552   0.884E-03
  39 F= -.12712084E+03 E0= -.12712005E+03  d E =-.393293E-04  mag=     0.0000
       N       E                     dE             d eps       ncg     rms          rms(c)
DAV:   1    -0.125537504759E+03   -0.15170E-03   -0.37550E-03 14208   0.255E-01    0.107E-02
DAV:   2    -0.125537505462E+03   -0.70344E-06   -0.42750E-05 14592   0.287E-02    0.718E-03
DAV:   3    -0.125537505898E+03   -0.43509E-06   -0.48045E-06 14736   0.106E-02
  40 F= -.12712085E+03 E0= -.12712007E+03  d E =-.173405E-04  mag=    -0.0000
       N       E                     dE             d eps       ncg     rms          rms(c)
DAV:   1    -0.125537938778E+03   -0.43332E-03   -0.33762E-02 14208   0.764E-01    0.316E-02
DAV:   2    -0.125537947746E+03   -0.89681E-05   -0.36352E-04 16368   0.806E-02    0.210E-02
DAV:   3    -0.125537945806E+03    0.19404E-05   -0.29658E-05 14592   0.229E-02    0.611E-03
DAV:   4    -0.125537946586E+03   -0.77980E-06   -0.84932E-06 14928   0.143E-02
  41 F= -.12712089E+03 E0= -.12712011E+03  d E =-.529266E-04  mag=     0.0000
       N       E                     dE             d eps       ncg     rms          rms(c)
DAV:   1    -0.125538720001E+03   -0.77420E-03   -0.13499E-01 14208   0.153E+00    0.628E-02
DAV:   2    -0.125538762454E+03   -0.42453E-04   -0.14767E-03 19824   0.159E-01    0.418E-02
DAV:   3    -0.125538747694E+03    0.14760E-04   -0.10667E-04 21840   0.395E-02    0.118E-02
DAV:   4    -0.125538749159E+03   -0.14654E-05   -0.17130E-05 15168   0.183E-02    0.437E-03
DAV:   5    -0.125538749414E+03   -0.25516E-06   -0.47268E-06 14208   0.109E-02
  42 F= -.12712088E+03 E0= -.12712010E+03  d E =-.465993E-04  mag=     0.0000
       N       E                     dE             d eps       ncg     rms          rms(c)
DAV:   1    -0.125538292496E+03    0.45666E-03   -0.44192E-02 14208   0.874E-01    0.357E-02
DAV:   2    -0.125538305168E+03   -0.12672E-04   -0.48598E-04 21024   0.917E-02    0.239E-02
DAV:   3    -0.125538300852E+03    0.43157E-05   -0.34170E-05 21360   0.225E-02    0.679E-03
DAV:   4    -0.125538301435E+03   -0.58304E-06   -0.64649E-06 14208   0.118E-02
  43 F= -.12712090E+03 E0= -.12712012E+03  d E =-.617837E-04  mag=     0.0000
       N       E                     dE             d eps       ncg     rms          rms(c)
DAV:   1    -0.125538500936E+03   -0.20008E-03   -0.59657E-03 14880   0.322E-01    0.126E-02
DAV:   2    -0.125538502502E+03   -0.15660E-05   -0.68173E-05 21216   0.348E-02    0.855E-03
DAV:   3    -0.125538502414E+03    0.87169E-07   -0.52097E-06 16512   0.104E-02
  44 F= -.12712092E+03 E0= -.12712014E+03  d E =-.242522E-04  mag=    -0.0000
       N       E                     dE             d eps       ncg     rms          rms(c)
DAV:   1    -0.125539063778E+03   -0.56128E-03   -0.53896E-02 14208   0.967E-01    0.398E-02
DAV:   2    -0.125539082294E+03   -0.18516E-04   -0.58662E-04 17136   0.101E-01    0.268E-02
DAV:   3    -0.125539078568E+03    0.37255E-05   -0.41511E-05 15168   0.266E-02    0.803E-03
DAV:   4    -0.125539079685E+03   -0.11161E-05   -0.10094E-05 15360   0.154E-02    0.299E-03
DAV:   5    -0.125539079228E+03    0.45699E-06   -0.43869E-06 14304   0.105E-02
  45 F= -.12712097E+03 E0= -.12712019E+03  d E =-.711071E-04  mag=     0.0000
       N       E                     dE             d eps       ncg     rms          rms(c)
DAV:   1    -0.125540047498E+03   -0.96781E-03   -0.21548E-01 14208   0.193E+00    0.783E-02
DAV:   2    -0.125540131397E+03   -0.83899E-04   -0.24035E-03 22320   0.201E-01    0.530E-02
DAV:   3    -0.125540108127E+03    0.23270E-04   -0.15048E-04 27168   0.454E-02    0.156E-02
DAV:   4    -0.125540109298E+03   -0.11710E-05   -0.17440E-05 16272   0.164E-02    0.532E-03
DAV:   5    -0.125540109735E+03   -0.43641E-06   -0.18717E-06 18624   0.582E-03
  46 F= -.12712094E+03 E0= -.12712016E+03  d E =-.427952E-04  mag=     0.0000
       N       E                     dE             d eps       ncg     rms          rms(c)
DAV:   1    -0.125539415191E+03    0.69411E-03   -0.95962E-02 14208   0.129E+00    0.526E-02
DAV:   2    -0.125539447471E+03   -0.32279E-04   -0.10388E-03 21888   0.133E-01    0.354E-02
DAV:   3    -0.125539438519E+03    0.89515E-05   -0.65654E-05 21888   0.305E-02    0.101E-02
DAV:   4    -0.125539439277E+03   -0.75797E-06   -0.10233E-05 15072   0.137E-02    0.348E-03
DAV:   5    -0.125539439541E+03   -0.26418E-06   -0.21703E-06 14928   0.740E-03
  47 F= -.12712098E+03 E0= -.12712020E+03  d E =-.791647E-04  mag=     0.0000
       N       E                     dE             d eps       ncg     rms          rms(c)
DAV:   1    -0.125539705197E+03   -0.26592E-03   -0.10690E-02 14208   0.431E-01    0.174E-02
DAV:   2    -0.125539708613E+03   -0.34159E-05   -0.12058E-04 17760   0.458E-02    0.118E-02
DAV:   3    -0.125539708169E+03    0.44363E-06   -0.82898E-06 15024   0.120E-02
  48 F= -.12712101E+03 E0= -.12712023E+03  d E =-.307624E-04  mag=    -0.0000
       N       E                     dE             d eps       ncg     rms          rms(c)
DAV:   1    -0.125540452258E+03   -0.74365E-03   -0.96422E-02 14208   0.129E+00    0.532E-02
DAV:   2    -0.125540487213E+03   -0.34955E-04   -0.10457E-03 18672   0.134E-01    0.359E-02
DAV:   3    -0.125540478468E+03    0.87447E-05   -0.66692E-05 17856   0.318E-02    0.105E-02
DAV:   4    -0.125540479696E+03   -0.12282E-05   -0.11374E-05 14640   0.149E-02    0.349E-03
DAV:   5    -0.125540480011E+03   -0.31524E-06   -0.34671E-06 14448   0.935E-03
  49 F= -.12712107E+03 E0= -.12712028E+03  d E =-.893989E-04  mag=    -0.0000
       N       E                     dE             d eps       ncg     rms          rms(c)
DAV:   1    -0.125541752039E+03   -0.12723E-02   -0.38536E-01 14208   0.258E+00    0.105E-01
DAV:   2    -0.125541896279E+03   -0.14424E-03   -0.42358E-03 20880   0.266E-01    0.707E-02
DAV:   3    -0.125541857906E+03    0.38373E-04   -0.26544E-04 27600   0.606E-02    0.206E-02
DAV:   4    -0.125541859494E+03   -0.15886E-05   -0.28514E-05 16464   0.211E-02    0.679E-03
DAV:   5    -0.125541860180E+03   -0.68527E-06   -0.36778E-06 18048   0.810E-03
  50 F= -.12712102E+03 E0= -.12712024E+03  d E =-.456482E-04  mag=    -0.0000
       N       E                     dE             d eps       ncg     rms          rms(c)
DAV:   1    -0.125540869500E+03    0.98999E-03   -0.18852E-01 14208   0.181E+00    0.737E-02
DAV:   2    -0.125540934675E+03   -0.65175E-04   -0.20316E-03 22080   0.186E-01    0.497E-02
DAV:   3    -0.125540916029E+03    0.18646E-04   -0.12397E-04 23136   0.417E-02    0.141E-02
DAV:   4    -0.125540917305E+03   -0.12764E-05   -0.17847E-05 14352   0.180E-02    0.468E-03
DAV:   5    -0.125540917697E+03   -0.39131E-06   -0.39294E-06 14784   0.985E-03
  51 F= -.12712108E+03 E0= -.12712029E+03  d E =-.989024E-04  mag=    -0.0000
       N       E                     dE             d eps       ncg     rms          rms(c)
DAV:   1    -0.125541195744E+03   -0.27844E-03   -0.13575E-02 14208   0.487E-01    0.195E-02
DAV:   2    -0.125541199749E+03   -0.40047E-05   -0.14905E-04 15072   0.510E-02    0.132E-02
DAV:   3    -0.125541198999E+03    0.75001E-06   -0.11504E-05 14496   0.139E-02    0.401E-03
DAV:   4    -0.125541199259E+03   -0.26040E-06   -0.24602E-06 20208   0.752E-03
  52 F= -.12712111E+03 E0= -.12712033E+03  d E =-.324885E-04  mag=    -0.0000
       N       E                     dE             d eps       ncg     rms          rms(c)
DAV:   1    -0.125541966896E+03   -0.76790E-03   -0.12241E-01 14208   0.146E+00    0.592E-02
DAV:   2    -0.125542004457E+03   -0.37561E-04   -0.12722E-03 19584   0.149E-01    0.395E-02
DAV:   3    -0.125541991483E+03    0.12975E-04   -0.89926E-05 22896   0.358E-02    0.111E-02
DAV:   4    -0.125541992470E+03   -0.98754E-06   -0.12200E-05 15024   0.146E-02    0.402E-03
DAV:   5    -0.125541992754E+03   -0.28380E-06   -0.21829E-06 14688   0.732E-03
  53 F= -.12712116E+03 E0= -.12712037E+03  d E =-.792773E-04  mag=     0.0000
       N       E                     dE             d eps       ncg     rms          rms(c)
DAV:   1    -0.125542348542E+03   -0.35607E-03   -0.25274E-02 14208   0.665E-01    0.270E-02
DAV:   2    -0.125542355913E+03   -0.73716E-05   -0.27163E-04 16512   0.690E-02    0.180E-02
DAV:   3    -0.125542353836E+03    0.20768E-05   -0.21775E-05 23712   0.184E-02    0.541E-03
DAV:   4    -0.125542354175E+03   -0.33842E-06   -0.33781E-06 14784   0.857E-03
  54 F= -.12712119E+03 E0= -.12712041E+03  d E =-.395086E-04  mag=     0.0000
       N       E                     dE             d eps       ncg     rms          rms(c)
DAV:   1    -0.125542594388E+03   -0.24055E-03   -0.13372E-02 14208   0.484E-01    0.200E-02
DAV:   2    -0.125542597712E+03   -0.33247E-05   -0.14043E-04 14496   0.505E-02    0.132E-02
DAV:   3    -0.125542597083E+03    0.62911E-06   -0.12044E-05 14304   0.147E-02    0.404E-03
DAV:   4    -0.125542597391E+03   -0.30767E-06   -0.31195E-06 14640   0.868E-03
  55 F= -.12712120E+03 E0= -.12712042E+03  d E =-.487254E-04  mag=     0.0000
       N       E                     dE             d eps       ncg     rms          rms(c)
DAV:   1    -0.125542793173E+03   -0.19609E-03   -0.84698E-03 14208   0.385E-01    0.158E-02
DAV:   2    -0.125542795547E+03   -0.23741E-05   -0.88639E-05 14304   0.400E-02    0.106E-02
DAV:   3    -0.125542795308E+03    0.23921E-06   -0.73894E-06 14208   0.118E-02
  56 F= -.12712122E+03 E0= -.12712044E+03  d E =-.198258E-04  mag=     0.0000
       N       E                     dE             d eps       ncg     rms          rms(c)
DAV:   1    -0.125543083259E+03   -0.28771E-03   -0.20416E-02 14208   0.598E-01    0.248E-02
DAV:   2    -0.125543088886E+03   -0.56267E-05   -0.20757E-04 14208   0.614E-02    0.166E-02
DAV:   3    -0.125543087939E+03    0.94704E-06   -0.17347E-05 14304   0.176E-02    0.494E-03
DAV:   4    -0.125543088304E+03   -0.36525E-06   -0.45400E-06 16080   0.105E-02
  57 F= -.12712124E+03 E0= -.12712046E+03  d E =-.365332E-04  mag=     0.0000
       N       E                     dE             d eps       ncg     rms          rms(c)
DAV:   1    -0.125543286766E+03   -0.19883E-03   -0.10795E-02 14208   0.437E-01    0.186E-02
DAV:   2    -0.125543289457E+03   -0.26912E-05   -0.11702E-04 15504   0.463E-02    0.123E-02
DAV:   3    -0.125543288984E+03    0.47288E-06   -0.10552E-05 14496   0.143E-02    0.411E-03
DAV:   4    -0.125543289200E+03   -0.21572E-06   -0.33735E-06 15168   0.932E-03
  58 F= -.12712126E+03 E0= -.12712048E+03  d E =-.228188E-04  mag=    -0.0000
       N       E                     dE             d eps       ncg     rms          rms(c)
DAV:   1    -0.125543339976E+03   -0.50991E-04   -0.85415E-04 14208   0.123E-01    0.543E-03
DAV:   2    -0.125543340078E+03   -0.10229E-06   -0.10365E-05 16080   0.147E-02    0.361E-03
DAV:   3    -0.125543340298E+03   -0.22024E-06   -0.15223E-06 16416   0.633E-03
  59 F= -.12712126E+03 E0= -.12712048E+03  d E =-.238064E-04  mag=    -0.0000
       N       E                     dE             d eps       ncg     rms          rms(c)
DAV:   1    -0.125543452831E+03   -0.11275E-03   -0.48600E-03 14208   0.294E-01    0.122E-02
DAV:   2    -0.125543454068E+03   -0.12372E-05   -0.45342E-05 14304   0.292E-02    0.820E-03
DAV:   3    -0.125543453971E+03    0.96371E-07   -0.41579E-06 15120   0.922E-03
  60 F= -.12712128E+03 E0= -.12712049E+03  d E =-.115079E-04  mag=     0.0000
       N       E                     dE             d eps       ncg     rms          rms(c)
DAV:   1    -0.125543601996E+03   -0.14793E-03   -0.95094E-03 14208   0.412E-01    0.171E-02
DAV:   2    -0.125543604642E+03   -0.26463E-05   -0.87526E-05 14208   0.405E-02    0.115E-02
DAV:   3    -0.125543604291E+03    0.35058E-06   -0.77701E-06 15168   0.124E-02
  61 F= -.12712128E+03 E0= -.12712050E+03  d E =-.190460E-04  mag=    -0.0000
       N       E                     dE             d eps       ncg     rms          rms(c)
DAV:   1    -0.125543715459E+03   -0.11082E-03   -0.70094E-03 14208   0.356E-01    0.153E-02
DAV:   2    -0.125543717457E+03   -0.19986E-05   -0.65910E-05 14208   0.362E-02    0.102E-02
DAV:   3    -0.125543717394E+03    0.62980E-07   -0.71080E-06 16656   0.128E-02
  62 F= -.12712130E+03 E0= -.12712051E+03  d E =-.128837E-04  mag=     0.0000
       N       E                     dE             d eps       ncg     rms          rms(c)
DAV:   1    -0.125543721384E+03   -0.39263E-05   -0.15282E-05 14208   0.188E-02    0.173E-03
DAV:   2    -0.125543721095E+03    0.28878E-06   -0.17129E-06 14352   0.681E-03
  63 F= -.12712130E+03 E0= -.12712051E+03  d E =-.124764E-04  mag=    -0.0000
       N       E                     dE             d eps       ncg     rms          rms(c)
DAV:   1    -0.125543807026E+03   -0.85643E-04   -0.50354E-03 14208   0.304E-01    0.123E-02
DAV:   2    -0.125543808679E+03   -0.16522E-05   -0.40240E-05 15792   0.273E-02    0.840E-03
DAV:   3    -0.125543808454E+03    0.22479E-06   -0.30817E-06 14784   0.782E-03
  64 F= -.12712131E+03 E0= -.12712053E+03  d E =-.144579E-04  mag=     0.0000
       N       E                     dE             d eps       ncg     rms          rms(c)
DAV:   1    -0.125543988444E+03   -0.17977E-03   -0.27631E-02 14208   0.712E-01    0.282E-02
DAV:   2    -0.125543997808E+03   -0.93642E-05   -0.21186E-04 14304   0.625E-02    0.192E-02
DAV:   3    -0.125543995856E+03    0.19524E-05   -0.14837E-05 14304   0.161E-02    0.520E-03
DAV:   4    -0.125543995920E+03   -0.64074E-07   -0.26602E-06 14208   0.776E-03
  65 F= -.12712133E+03 E0= -.12712054E+03  d E =-.311202E-04  mag=     0.0000
       N       E                     dE             d eps       ncg     rms          rms(c)
DAV:   1    -0.125544054711E+03   -0.58855E-04   -0.31142E-03 14208   0.240E-01    0.947E-03
DAV:   2    -0.125544055902E+03   -0.11906E-05   -0.24825E-05 14832   0.222E-02    0.655E-03
DAV:   3    -0.125544056003E+03   -0.10130E-06   -0.22758E-06 14592   0.775E-03
  66 F= -.12712134E+03 E0= -.12712056E+03  d E =-.121478E-04  mag=     0.0000
       N       E                     dE             d eps       ncg     rms          rms(c)
DAV:   1    -0.125544176814E+03   -0.12091E-03   -0.17651E-02 14208   0.571E-01    0.224E-02
DAV:   2    -0.125544183471E+03   -0.66570E-05   -0.13386E-04 14400   0.499E-02    0.154E-02
DAV:   3    -0.125544182588E+03    0.88276E-06   -0.91461E-06 14496   0.138E-02
  67 F= -.12712135E+03 E0= -.12712057E+03  d E =-.242975E-04  mag=     0.0000
       N       E                     dE             d eps       ncg     rms          rms(c)
DAV:   1    -0.125544244252E+03   -0.60781E-04   -0.53110E-03 14208   0.314E-01    0.126E-02
DAV:   2    -0.125544246142E+03   -0.18903E-05   -0.38475E-05 14208   0.274E-02    0.872E-03
DAV:   3    -0.125544246324E+03   -0.18113E-06   -0.33493E-06 15168   0.943E-03
  68 F= -.12712136E+03 E0= -.12712058E+03  d E =-.133581E-04  mag=    -0.0000
       N       E                     dE             d eps       ncg     rms          rms(c)
DAV:   1    -0.125544409843E+03   -0.16370E-03   -0.47864E-02 14208   0.941E-01    0.364E-02
DAV:   2    -0.125544427060E+03   -0.17217E-04   -0.33470E-04 15072   0.781E-02    0.252E-02
DAV:   3    -0.125544424010E+03    0.30505E-05   -0.19509E-05 14544   0.196E-02    0.660E-03
DAV:   4    -0.125544424054E+03   -0.44304E-07   -0.45406E-06 14208   0.110E-02
  69 F= -.12712139E+03 E0= -.12712061E+03  d E =-.399418E-04  mag=     0.0000
       N       E                     dE             d eps       ncg     rms          rms(c)
DAV:   1    -0.125544668192E+03   -0.24418E-03   -0.19169E-01 14208   0.188E+00    0.731E-02
DAV:   2    -0.125544736708E+03   -0.68516E-04   -0.13249E-03 15696   0.155E-01    0.505E-02
DAV:   3    -0.125544721228E+03    0.15481E-04   -0.73626E-05 15216   0.359E-02    0.127E-02
DAV:   4    -0.125544721630E+03   -0.40218E-06   -0.10368E-05 14304   0.156E-02    0.368E-03
DAV:   5    -0.125544721922E+03   -0.29190E-06   -0.45446E-06 14784   0.109E-02
  70 F= -.12712139E+03 E0= -.12712060E+03  d E =-.357507E-04  mag=     0.0000
       N       E                     dE             d eps       ncg     rms          rms(c)
DAV:   1    -0.125544529936E+03    0.19169E-03   -0.70702E-02 14208   0.114E+00    0.441E-02
DAV:   2    -0.125544555378E+03   -0.25442E-04   -0.49915E-04 19104   0.944E-02    0.308E-02
DAV:   3    -0.125544549115E+03    0.62636E-05   -0.25345E-05 19680   0.203E-02    0.728E-03
DAV:   4    -0.125544549349E+03   -0.23477E-06   -0.35588E-06 15072   0.917E-03
  71 F= -.12712140E+03 E0= -.12712062E+03  d E =-.467222E-04  mag=    -0.0000
       N       E                     dE             d eps       ncg     rms          rms(c)
DAV:   1    -0.125544600944E+03   -0.51829E-04   -0.38639E-03 14208   0.267E-01    0.101E-02
DAV:   2    -0.125544602036E+03   -0.10919E-05   -0.28147E-05 14208   0.237E-02    0.695E-03
DAV:   3    -0.125544601953E+03    0.82941E-07   -0.28537E-06 15072   0.859E-03
  72 F= -.12712141E+03 E0= -.12712063E+03  d E =-.137059E-04  mag=     0.0000
       N       E                     dE             d eps       ncg     rms          rms(c)
DAV:   1    -0.125544738989E+03   -0.13695E-03   -0.34893E-02 14208   0.803E-01    0.311E-02
DAV:   2    -0.125544751466E+03   -0.12476E-04   -0.24298E-04 15408   0.669E-02    0.215E-02
DAV:   3    -0.125544748957E+03    0.25092E-05   -0.15697E-05 15552   0.175E-02    0.556E-03
DAV:   4    -0.125544748926E+03    0.30693E-07   -0.37519E-06 14208   0.992E-03
  73 F= -.12712144E+03 E0= -.12712066E+03  d E =-.439567E-04  mag=     0.0000
       N       E                     dE             d eps       ncg     rms          rms(c)
DAV:   1    -0.125544961973E+03   -0.21302E-03   -0.13977E-01 14208   0.161E+00    0.623E-02
DAV:   2    -0.125545011981E+03   -0.50008E-04   -0.96530E-04 18144   0.133E-01    0.431E-02
DAV:   3    -0.125544999501E+03    0.12480E-04   -0.57997E-05 15216   0.310E-02    0.101E-02
DAV:   4    -0.125544999659E+03   -0.15798E-06   -0.87569E-06 14208   0.140E-02
  74 F= -.12712146E+03 E0= -.12712068E+03  d E =-.611719E-04  mag=     0.0000
       N       E                     dE             d eps       ncg     rms          rms(c)
DAV:   1    -0.125544928425E+03    0.71076E-04   -0.12335E-02 14208   0.478E-01    0.181E-02
DAV:   2    -0.125544932003E+03   -0.35776E-05   -0.88571E-05 15936   0.413E-02    0.125E-02
DAV:   3    -0.125544931526E+03    0.47698E-06   -0.76907E-06 20208   0.135E-02
  75 F= -.12712146E+03 E0= -.12712068E+03  d E =-.625791E-04  mag=    -0.0000
       N       E                     dE             d eps       ncg     rms          rms(c)
DAV:   1    -0.125545036844E+03   -0.10484E-03   -0.21108E-02 14208   0.624E-01    0.238E-02
DAV:   2    -0.125545043832E+03   -0.69882E-05   -0.15465E-04 19728   0.540E-02    0.166E-02
DAV:   3    -0.125545042666E+03    0.11661E-05   -0.12617E-05 15744   0.163E-02    0.442E-03
DAV:   4    -0.125545042302E+03    0.36349E-06   -0.59446E-06 14208   0.123E-02
  76 F= -.12712149E+03 E0= -.12712071E+03  d E =-.292352E-04  mag=     0.0000
       N       E                     dE             d eps       ncg     rms          rms(c)
DAV:   1    -0.125545284045E+03   -0.24138E-03   -0.18972E-01 14208   0.187E+00    0.727E-02
DAV:   2    -0.125545353005E+03   -0.68961E-04   -0.13340E-03 20400   0.156E-01    0.504E-02
DAV:   3    -0.125545334102E+03    0.18903E-04   -0.85878E-05 14544   0.357E-02    0.117E-02
DAV:   4    -0.125545334042E+03    0.60812E-07   -0.12709E-05 14304   0.146E-02    0.394E-03
DAV:   5    -0.125545334049E+03   -0.79081E-08   -0.21947E-06 14256   0.698E-03
  77 F= -.12712154E+03 E0= -.12712075E+03  d E =-.763822E-04  mag=     0.0000
       N       E                     dE             d eps       ncg     rms          rms(c)
DAV:   1    -0.125545408452E+03   -0.74411E-04   -0.18692E-02 14208   0.587E-01    0.228E-02
DAV:   2    -0.125545415145E+03   -0.66933E-05   -0.13258E-04 14208   0.500E-02    0.157E-02
DAV:   3    -0.125545414087E+03    0.10582E-05   -0.10102E-05 14784   0.145E-02    0.433E-03
DAV:   4    -0.125545413920E+03    0.16687E-06   -0.33993E-06 14208   0.934E-03
  78 F= -.12712154E+03 E0= -.12712076E+03  d E =-.794760E-04  mag=     0.0000
       N       E                     dE             d eps       ncg     rms          rms(c)
DAV:   1    -0.125545525480E+03   -0.11139E-03   -0.29334E-02 14208   0.735E-01    0.286E-02
DAV:   2    -0.125545536392E+03   -0.10912E-04   -0.20202E-04 16320   0.604E-02    0.199E-02
DAV:   3    -0.125545534279E+03    0.21135E-05   -0.13063E-05 15024   0.155E-02    0.502E-03
DAV:   4    -0.125545534228E+03    0.50656E-07   -0.29273E-06 14208   0.849E-03
  79 F= -.12712157E+03 E0= -.12712079E+03  d E =-.314057E-04  mag=     0.0000
       N       E                     dE             d eps       ncg     rms          rms(c)
DAV:   1    -0.125545804703E+03   -0.27042E-03   -0.26391E-01 14208   0.220E+00    0.856E-02
DAV:   2    -0.125545899462E+03   -0.94759E-04   -0.17671E-03 16032   0.178E-01    0.594E-02
DAV:   3    -0.125545875338E+03    0.24124E-04   -0.10895E-04 14736   0.415E-02    0.143E-02
DAV:   4    -0.125545875583E+03   -0.24485E-06   -0.13759E-05 14208   0.156E-02    0.447E-03
DAV:   5    -0.125545875531E+03    0.51488E-07   -0.27071E-06 14784   0.779E-03
  80 F= -.12712165E+03 E0= -.12712086E+03  d E =-.105971E-03  mag=     0.0000
       N       E                     dE             d eps       ncg     rms          rms(c)
DAV:   1    -0.125546194996E+03   -0.31941E-03   -0.10553E+00 14208   0.441E+00    0.171E-01
DAV:   2    -0.125546571676E+03   -0.37668E-03   -0.70341E-03 17616   0.355E-01    0.119E-01
DAV:   3    -0.125546468028E+03    0.10365E-03   -0.42589E-04 15936   0.799E-02    0.273E-02
DAV:   4    -0.125546468461E+03   -0.43285E-06   -0.51905E-05 14400   0.285E-02    0.858E-03
DAV:   5    -0.125546468279E+03    0.18119E-06   -0.70142E-06 15792   0.116E-02
  81 F= -.12712170E+03 E0= -.12712092E+03  d E =-.164881E-03  mag=    -0.0000
       N       E                     dE             d eps       ncg     rms          rms(c)
DAV:   1    -0.125546557802E+03   -0.89341E-04   -0.17769E-02 14208   0.572E-01    0.222E-02
DAV:   2    -0.125546564165E+03   -0.63636E-05   -0.12196E-04 14208   0.484E-02    0.155E-02
DAV:   3    -0.125546564121E+03    0.44511E-07   -0.10302E-05 16800   0.161E-02    0.437E-03
DAV:   4    -0.125546563536E+03    0.58473E-06   -0.58119E-06 14208   0.124E-02
  82 F= -.12712173E+03 E0= -.12712095E+03  d E =-.277381E-04  mag=     0.0000
       N       E                     dE             d eps       ncg     rms          rms(c)
DAV:   1    -0.125546798637E+03   -0.23452E-03   -0.15980E-01 14208   0.171E+00    0.666E-02
DAV:   2    -0.125546856430E+03   -0.57793E-04   -0.10625E-03 15648   0.137E-01    0.463E-02
DAV:   3    -0.125546842375E+03    0.14055E-04   -0.61879E-05 18144   0.312E-02    0.112E-02
DAV:   4    -0.125546842643E+03   -0.26722E-06   -0.68592E-06 14784   0.110E-02
  83 F= -.12712181E+03 E0= -.12712103E+03  d E =-.104635E-03  mag=     0.0000
       N       E                     dE             d eps       ncg     rms          rms(c)
DAV:   1    -0.125547216260E+03   -0.37388E-03   -0.63939E-01 14208   0.343E+00    0.134E-01
DAV:   2    -0.125547441662E+03   -0.22540E-03   -0.41732E-03 14400   0.273E-01    0.924E-02
DAV:   3    -0.125547383027E+03    0.58635E-04   -0.24939E-04 14304   0.629E-02    0.223E-02
DAV:   4    -0.125547384073E+03   -0.10463E-05   -0.27206E-05 14592   0.212E-02    0.669E-03
DAV:   5    -0.125547383829E+03    0.24408E-06   -0.47229E-06 15984   0.965E-03
  84 F= -.12712195E+03 E0= -.12712116E+03  d E =-.241474E-03  mag=     0.0000
       N       E                     dE             d eps       ncg     rms          rms(c)
DAV:   1    -0.125547742883E+03   -0.35881E-03   -0.25558E+00 14208   0.685E+00    0.267E-01
DAV:   2    -0.125548637306E+03   -0.89442E-03   -0.16624E-02 16032   0.544E-01    0.185E-01
DAV:   3    -0.125548389389E+03    0.24792E-03   -0.98062E-04 16224   0.122E-01    0.432E-02
DAV:   4    -0.125548391881E+03   -0.24918E-05   -0.10526E-04 15744   0.408E-02    0.129E-02
DAV:   5    -0.125548390952E+03    0.92846E-06   -0.15236E-05 17136   0.169E-02    0.533E-03
DAV:   6    -0.125548391689E+03   -0.73658E-06   -0.74205E-06 14208   0.135E-02
  85 F= -.12712215E+03 E0= -.12712137E+03  d E =-.441674E-03  mag=    -0.0000
       N       E                     dE             d eps       ncg     rms          rms(c)
DAV:   1    -0.125547465860E+03    0.92509E-03   -0.10216E+01 14208   0.137E+01    0.533E-01
DAV:   2    -0.125551104051E+03   -0.36382E-02   -0.67075E-02 15696   0.109E+00    0.369E-01
DAV:   3    -0.125550102187E+03    0.10019E-02   -0.39601E-03 23424   0.243E-01    0.901E-02
DAV:   4    -0.125550103458E+03   -0.12713E-05   -0.37642E-04 24000   0.742E-02    0.252E-02
DAV:   5    -0.125550097697E+03    0.57611E-05   -0.35796E-05 19152   0.220E-02    0.102E-02
DAV:   6    -0.125550098232E+03   -0.53555E-06   -0.65792E-06 17424   0.110E-02
  86 F= -.12712224E+03 E0= -.12712146E+03  d E =-.536432E-03  mag=     0.0000
       N       E                     dE             d eps       ncg     rms          rms(c)
DAV:   1    -0.125550444873E+03   -0.34718E-03   -0.69946E-01 14208   0.358E+00    0.139E-01
DAV:   2    -0.125550685868E+03   -0.24099E-03   -0.45689E-03 16896   0.286E-01    0.963E-02
DAV:   3    -0.125550617486E+03    0.68382E-04   -0.28066E-04 18240   0.649E-02    0.222E-02
DAV:   4    -0.125550618265E+03   -0.77822E-06   -0.29359E-05 15840   0.214E-02    0.684E-03
DAV:   5    -0.125550618258E+03    0.64292E-08   -0.39400E-06 16128   0.860E-03
  87 F= -.12712235E+03 E0= -.12712157E+03  d E =-.111769E-03  mag=    -0.0000
       N       E                     dE             d eps       ncg     rms          rms(c)
DAV:   1    -0.125550531320E+03    0.86944E-04   -0.62924E+00 14208   0.108E+01    0.419E-01
DAV:   2    -0.125552685808E+03   -0.21545E-02   -0.40847E-02 14928   0.855E-01    0.289E-01
DAV:   3    -0.125552062592E+03    0.62322E-03   -0.25028E-03 20400   0.195E-01    0.699E-02
DAV:   4    -0.125552065406E+03   -0.28139E-05   -0.24409E-04 20016   0.604E-02    0.206E-02
DAV:   5    -0.125552062122E+03    0.32831E-05   -0.27518E-05 16368   0.210E-02    0.826E-03
DAV:   6    -0.125552063487E+03   -0.13642E-05   -0.94207E-06 19920   0.150E-02    0.237E-03
DAV:   7    -0.125552061417E+03    0.20694E-05   -0.34434E-06 19584   0.926E-03    0.955E-04
DAV:   8    -0.125552061223E+03    0.19411E-06   -0.29422E-07 21360   0.261E-03
  88 F= -.12712257E+03 E0= -.12712179E+03  d E =-.331691E-03  mag=    -0.0000
       N       E                     dE             d eps       ncg     rms          rms(c)
DAV:   1    -0.125548162747E+03    0.38987E-02   -0.25127E+01 14208   0.215E+01    0.838E-01
DAV:   2    -0.125557010053E+03   -0.88473E-02   -0.16542E-01 14784   0.172E+00    0.577E-01
DAV:   3    -0.125554476666E+03    0.25334E-02   -0.99394E-03 26112   0.384E-01    0.150E-01
DAV:   4    -0.125554463941E+03    0.12725E-04   -0.90074E-04 23952   0.115E-01    0.402E-02
DAV:   5    -0.125554447486E+03    0.16455E-04   -0.89575E-05 21888   0.344E-02    0.163E-02
DAV:   6    -0.125554447684E+03   -0.19793E-06   -0.13861E-05 21360   0.140E-02    0.276E-03
DAV:   7    -0.125554447880E+03   -0.19662E-06   -0.10868E-06 22416   0.391E-03
  89 F= -.12712252E+03 E0= -.12712174E+03  d E =-.280698E-03  mag=    -0.0000
       N       E                     dE             d eps       ncg     rms          rms(c)
DAV:   1    -0.125551313791E+03    0.31339E-02   -0.78160E+00 14208   0.120E+01    0.467E-01
DAV:   2    -0.125553998766E+03   -0.26850E-02   -0.50786E-02 17088   0.950E-01    0.322E-01
DAV:   3    -0.125553198888E+03    0.79988E-03   -0.31343E-03 24384   0.213E-01    0.756E-02
DAV:   4    -0.125553197455E+03    0.14329E-05   -0.29276E-04 19488   0.648E-02    0.221E-02
DAV:   5    -0.125553193606E+03    0.38490E-05   -0.26674E-05 22176   0.191E-02    0.900E-03
DAV:   6    -0.125553193813E+03   -0.20704E-06   -0.47182E-06 23760   0.821E-03
  90 F= -.12712263E+03 E0= -.12712184E+03  d E =-.383760E-03  mag=    -0.0000
       N       E                     dE             d eps       ncg     rms          rms(c)
DAV:   1    -0.125553597223E+03   -0.40362E-03   -0.31272E+00 14208   0.758E+00    0.295E-01
DAV:   2    -0.125554656906E+03   -0.10597E-02   -0.20252E-02 15264   0.602E-01    0.203E-01
DAV:   3    -0.125554343613E+03    0.31329E-03   -0.12441E-03 16416   0.138E-01    0.485E-02
DAV:   4    -0.125554346455E+03   -0.28421E-05   -0.13135E-04 20160   0.434E-02    0.148E-02
DAV:   5    -0.125554344587E+03    0.18680E-05   -0.13349E-05 17472   0.134E-02    0.583E-03
DAV:   6    -0.125554344603E+03   -0.16087E-07   -0.27027E-06 15072   0.671E-03
  91 F= -.12712295E+03 E0= -.12712217E+03  d E =-.326809E-03  mag=    -0.0000
       N       E                     dE             d eps       ncg     rms          rms(c)
DAV:   1    -0.125554422782E+03   -0.78196E-04   -0.42321E+00 14208   0.882E+00    0.343E-01
DAV:   2    -0.125555865362E+03   -0.14426E-02   -0.27467E-02 15984   0.702E-01    0.236E-01
DAV:   3    -0.125555440565E+03    0.42480E-03   -0.17130E-03 23184   0.159E-01    0.562E-02
DAV:   4    -0.125555441068E+03   -0.50297E-06   -0.16630E-04 24528   0.487E-02    0.168E-02
DAV:   5    -0.125555438874E+03    0.21934E-05   -0.13640E-05 19296   0.139E-02    0.680E-03
DAV:   6    -0.125555439073E+03   -0.19881E-06   -0.29652E-06 15840   0.747E-03
  92 F= -.12712309E+03 E0= -.12712231E+03  d E =-.464292E-03  mag=    -0.0000
       N       E                     dE             d eps       ncg     rms          rms(c)
DAV:   1    -0.125555744632E+03   -0.30576E-03   -0.22999E+00 14208   0.651E+00    0.252E-01
DAV:   2    -0.125556547144E+03   -0.80251E-03   -0.14806E-02 15072   0.515E-01    0.174E-01
DAV:   3    -0.125556328244E+03    0.21890E-03   -0.87315E-04 22080   0.116E-01    0.426E-02
DAV:   4    -0.125556329399E+03   -0.11549E-05   -0.84026E-05 25056   0.353E-02    0.122E-02
DAV:   5    -0.125556328140E+03    0.12589E-05   -0.79599E-06 17232   0.108E-02    0.490E-03
DAV:   6    -0.125556328502E+03   -0.36117E-06   -0.19825E-06 19152   0.658E-03
  93 F= -.12712332E+03 E0= -.12712254E+03  d E =-.229672E-03  mag=    -0.0000
       N       E                     dE             d eps       ncg     rms          rms(c)
DAV:   1    -0.125556530616E+03   -0.20248E-03   -0.16378E+00 14208   0.549E+00    0.213E-01
DAV:   2    -0.125557102821E+03   -0.57221E-03   -0.10555E-02 15600   0.434E-01    0.147E-01
DAV:   3    -0.125556947031E+03    0.15579E-03   -0.61883E-04 20592   0.971E-02    0.356E-02
DAV:   4    -0.125556948149E+03   -0.11180E-05   -0.61202E-05 24144   0.300E-02    0.103E-02
DAV:   5    -0.125556947335E+03    0.81461E-06   -0.58566E-06 18768   0.914E-03
  94 F= -.12712338E+03 E0= -.12712260E+03  d E =-.292621E-03  mag=     0.0000
       N       E                     dE             d eps       ncg     rms          rms(c)
DAV:   1    -0.125557170837E+03   -0.22269E-03   -0.59920E-01 14208   0.333E+00    0.129E-01
DAV:   2    -0.125557385122E+03   -0.21429E-03   -0.38373E-03 20640   0.260E-01    0.897E-02
DAV:   3    -0.125557329186E+03    0.55936E-04   -0.20130E-04 16656   0.550E-02    0.197E-02
DAV:   4    -0.125557330106E+03   -0.91975E-06   -0.21179E-05 14880   0.191E-02    0.580E-03
DAV:   5    -0.125557330107E+03   -0.90040E-09   -0.31834E-06 14976   0.849E-03
  95 F= -.12712349E+03 E0= -.12712271E+03  d E =-.112795E-03  mag=    -0.0000
       N       E                     dE             d eps       ncg     rms          rms(c)
DAV:   1    -0.125557408647E+03   -0.78540E-04   -0.67611E-02 14208   0.112E+00    0.434E-02
DAV:   2    -0.125557433353E+03   -0.24707E-04   -0.44059E-04 22848   0.884E-02    0.304E-02
DAV:   3    -0.125557427873E+03    0.54803E-05   -0.23224E-05 16752   0.199E-02    0.658E-03
DAV:   4    -0.125557427927E+03   -0.53826E-07   -0.42209E-06 14208   0.103E-02
  96 F= -.12712350E+03 E0= -.12712272E+03  d E =-.119905E-03  mag=    -0.0000
       N       E                     dE             d eps       ncg     rms          rms(c)
DAV:   1    -0.125557559324E+03   -0.13145E-03   -0.32431E-01 14208   0.245E+00    0.947E-02
DAV:   2    -0.125557674435E+03   -0.11511E-03   -0.20336E-03 21600   0.189E-01    0.662E-02
DAV:   3    -0.125557644790E+03    0.29644E-04   -0.10235E-04 14880   0.393E-02    0.140E-02
DAV:   4    -0.125557645419E+03   -0.62839E-06   -0.11349E-05 14496   0.144E-02    0.415E-03
DAV:   5    -0.125557645383E+03    0.35718E-07   -0.20946E-06 17136   0.709E-03
  97 F= -.12712360E+03 E0= -.12712282E+03  d E =-.957717E-04  mag=     0.0000
       N       E                     dE             d eps       ncg     rms          rms(c)
DAV:   1    -0.125557702355E+03   -0.56936E-04   -0.57277E-01 14208   0.326E+00    0.126E-01
DAV:   2    -0.125557898942E+03   -0.19659E-03   -0.35398E-03 17664   0.251E-01    0.872E-02
DAV:   3    -0.125557847156E+03    0.51786E-04   -0.18305E-04 17280   0.536E-02    0.199E-02
DAV:   4    -0.125557848186E+03   -0.10299E-05   -0.18872E-05 14496   0.187E-02    0.564E-03
DAV:   5    -0.125557848040E+03    0.14636E-06   -0.38055E-06 17136   0.960E-03
  98 F= -.12712364E+03 E0= -.12712286E+03  d E =-.136651E-03  mag=    -0.0000
       N       E                     dE             d eps       ncg     rms          rms(c)
DAV:   1    -0.125557915901E+03   -0.67714E-04   -0.38031E-01 14208   0.266E+00    0.102E-01
DAV:   2    -0.125558045653E+03   -0.12975E-03   -0.23748E-03 16800   0.207E-01    0.706E-02
DAV:   3    -0.125558010529E+03    0.35124E-04   -0.13621E-04 17424   0.466E-02    0.168E-02
DAV:   4    -0.125558010782E+03   -0.25315E-06   -0.17349E-05 14208   0.184E-02    0.495E-03
DAV:   5    -0.125558010687E+03    0.95185E-07   -0.41390E-06 14208   0.101E-02
  99 F= -.12712374E+03 E0= -.12712295E+03  d E =-.976212E-04  mag=     0.0000
       N       E                     dE             d eps       ncg     rms          rms(c)
DAV:   1    -0.125557994909E+03    0.15873E-04   -0.55159E-01 14208   0.320E+00    0.123E-01
DAV:   2    -0.125558183167E+03   -0.18826E-03   -0.34375E-03 17328   0.249E-01    0.851E-02
DAV:   3    -0.125558131424E+03    0.51743E-04   -0.19620E-04 17184   0.554E-02    0.199E-02
DAV:   4    -0.125558131706E+03   -0.28232E-06   -0.24650E-05 14400   0.215E-02    0.591E-03
DAV:   5    -0.125558131564E+03    0.14194E-06   -0.52700E-06 14496   0.113E-02
 100 F= -.12712378E+03 E0= -.12712300E+03  d E =-.140143E-03  mag=    -0.0000
       N       E                     dE             d eps       ncg     rms          rms(c)
DAV:   1    -0.125558114855E+03    0.16852E-04   -0.13797E-01 14208   0.160E+00    0.621E-02
DAV:   2    -0.125558164587E+03   -0.49732E-04   -0.92307E-04 14928   0.130E-01    0.429E-02
DAV:   3    -0.125558153145E+03    0.11442E-04   -0.62374E-05 21744   0.330E-02    0.116E-02
DAV:   4    -0.125558152694E+03    0.45089E-06   -0.11183E-05 14352   0.159E-02    0.353E-03
DAV:   5    -0.125558152663E+03    0.31176E-07   -0.41166E-06 14208   0.102E-02
 101 F= -.12712385E+03 E0= -.12712307E+03  d E =-.679765E-04  mag=    -0.0000
       N       E                     dE             d eps       ncg     rms          rms(c)
DAV:   1    -0.125558117790E+03    0.34904E-04   -0.60319E-02 14208   0.105E+00    0.410E-02
DAV:   2    -0.125558139732E+03   -0.21942E-04   -0.40586E-04 15312   0.860E-02    0.284E-02
DAV:   3    -0.125558134686E+03    0.50463E-05   -0.26682E-05 15552   0.215E-02    0.761E-03
DAV:   4    -0.125558134655E+03    0.30867E-07   -0.48208E-06 14208   0.103E-02
 102 F= -.12712386E+03 E0= -.12712308E+03  d E =-.808105E-04  mag=     0.0000
       N       E                     dE             d eps       ncg     rms          rms(c)
DAV:   1    -0.125558043380E+03    0.91306E-04   -0.15120E-01 14208   0.166E+00    0.654E-02
DAV:   2    -0.125558094289E+03   -0.50909E-04   -0.99312E-04 14448   0.134E-01    0.451E-02
DAV:   3    -0.125558080663E+03    0.13627E-04   -0.66999E-05 19872   0.331E-02    0.113E-02
DAV:   4    -0.125558080581E+03    0.81291E-07   -0.90210E-06 14496   0.138E-02
 103 F= -.12712394E+03 E0= -.12712316E+03  d E =-.774789E-04  mag=     0.0000
       N       E                     dE             d eps       ncg     rms          rms(c)
DAV:   1    -0.125558016834E+03    0.63828E-04   -0.51438E-02 14208   0.970E-01    0.383E-02
DAV:   2    -0.125558035262E+03   -0.18428E-04   -0.34727E-04 16992   0.793E-02    0.266E-02
DAV:   3    -0.125558031303E+03    0.39594E-05   -0.24681E-05 18864   0.215E-02    0.641E-03
DAV:   4    -0.125558030979E+03    0.32401E-06   -0.67298E-06 14304   0.130E-02
 104 F= -.12712396E+03 E0= -.12712318E+03  d E =-.104522E-03  mag=     0.0000
       N       E                     dE             d eps       ncg     rms          rms(c)
DAV:   1    -0.125557841089E+03    0.19021E-03   -0.20549E-01 14208   0.194E+00    0.763E-02
DAV:   2    -0.125557912116E+03   -0.71027E-04   -0.13671E-03 20256   0.156E-01    0.530E-02
DAV:   3    -0.125557891990E+03    0.20125E-04   -0.88987E-05 19488   0.366E-02    0.117E-02
DAV:   4    -0.125557891682E+03    0.30816E-06   -0.13413E-05 14688   0.163E-02    0.388E-03
DAV:   5    -0.125557891644E+03    0.37671E-07   -0.34125E-06 14496   0.910E-03
 105 F= -.12712398E+03 E0= -.12712320E+03  d E =-.118507E-03  mag=    -0.0000
       N       E                     dE             d eps       ncg     rms          rms(c)
DAV:   1    -0.125557787618E+03    0.10406E-03   -0.95483E-02 14208   0.132E+00    0.522E-02
DAV:   2    -0.125557818872E+03   -0.31254E-04   -0.64137E-04 19488   0.107E-01    0.361E-02
DAV:   3    -0.125557809251E+03    0.96212E-05   -0.43738E-05 19392   0.266E-02    0.772E-03
DAV:   4    -0.125557809132E+03    0.11945E-06   -0.81256E-06 14208   0.139E-02
 106 F= -.12712403E+03 E0= -.12712325E+03  d E =-.559661E-04  mag=    -0.0000
       N       E                     dE             d eps       ncg     rms          rms(c)
DAV:   1    -0.125557343613E+03    0.46564E-03   -0.75719E-01 14208   0.372E+00    0.147E-01
DAV:   2    -0.125557584933E+03   -0.24132E-03   -0.50069E-03 20112   0.299E-01    0.102E-01
DAV:   3    -0.125557502328E+03    0.82606E-04   -0.33495E-04 19488   0.692E-02    0.212E-02
DAV:   4    -0.125557501918E+03    0.40987E-06   -0.39027E-05 16800   0.264E-02    0.740E-03
DAV:   5    -0.125557501814E+03    0.10352E-06   -0.70756E-06 14976   0.129E-02
 107 F= -.12712412E+03 E0= -.12712334E+03  d E =-.138824E-03  mag=     0.0000
       N       E                     dE             d eps       ncg     rms          rms(c)
DAV:   1    -0.125557411554E+03    0.90364E-04   -0.67998E-02 14208   0.112E+00    0.436E-02
DAV:   2    -0.125557435246E+03   -0.23692E-04   -0.48951E-04 19392   0.956E-02    0.302E-02
DAV:   3    -0.125557431076E+03    0.41697E-05   -0.38613E-05 20064   0.278E-02    0.705E-03
DAV:   4    -0.125557429985E+03    0.10917E-05   -0.15300E-05 14208   0.199E-02    0.271E-03
DAV:   5    -0.125557428598E+03    0.13864E-05   -0.69507E-06 15696   0.130E-02    0.146E-03
DAV:   6    -0.125557428223E+03    0.37519E-06   -0.17337E-06 21456   0.647E-03
 108 F= -.12712421E+03 E0= -.12712343E+03  d E =-.931631E-04  mag=     0.0000
       N       E                     dE             d eps       ncg     rms          rms(c)
DAV:   1    -0.125557038211E+03    0.39039E-03   -0.38668E-01 14208   0.267E+00    0.104E-01
DAV:   2    -0.125557165592E+03   -0.12738E-03   -0.26811E-03 20928   0.219E-01    0.716E-02
DAV:   3    -0.125557124226E+03    0.41366E-04   -0.18272E-04 18720   0.506E-02    0.155E-02
DAV:   4    -0.125557124254E+03   -0.27320E-07   -0.20861E-05 17568   0.170E-02    0.562E-03
DAV:   5    -0.125557124293E+03   -0.39036E-07   -0.17062E-06 22176   0.498E-03
 109 F= -.12712430E+03 E0= -.12712352E+03  d E =-.186434E-03  mag=     0.0000
       N       E                     dE             d eps       ncg     rms          rms(c)
DAV:   1    -0.125557012583E+03    0.11167E-03   -0.48358E-02 14208   0.945E-01    0.364E-02
DAV:   2    -0.125557030742E+03   -0.18159E-04   -0.34598E-04 19632   0.786E-02    0.253E-02
DAV:   3    -0.125557026454E+03    0.42887E-05   -0.20262E-05 19440   0.172E-02    0.575E-03
DAV:   4    -0.125557026562E+03   -0.10802E-06   -0.23646E-06 14208   0.590E-03
 110 F= -.12712437E+03 E0= -.12712359E+03  d E =-.712523E-04  mag=    -0.0000
       N       E                     dE             d eps       ncg     rms          rms(c)
DAV:   1    -0.125556538736E+03    0.48772E-03   -0.43509E-01 14208   0.283E+00    0.109E-01
DAV:   2    -0.125556701194E+03   -0.16246E-03   -0.30830E-03 19488   0.235E-01    0.760E-02
DAV:   3    -0.125556659128E+03    0.42066E-04   -0.18354E-04 19488   0.516E-02    0.170E-02
DAV:   4    -0.125556659382E+03   -0.25404E-06   -0.21516E-05 16368   0.175E-02    0.548E-03
DAV:   5    -0.125556659308E+03    0.73464E-07   -0.20736E-06 19824   0.543E-03
 111 F= -.12712451E+03 E0= -.12712373E+03  d E =-.210923E-03  mag=    -0.0000
       N       E                     dE             d eps       ncg     rms          rms(c)
DAV:   1    -0.125555115218E+03    0.15442E-02   -0.17398E+00 14208   0.567E+00    0.218E-01
DAV:   2    -0.125555763089E+03   -0.64787E-03   -0.12275E-02 19776   0.469E-01    0.152E-01
DAV:   3    -0.125555586581E+03    0.17651E-03   -0.72922E-04 19440   0.103E-01    0.341E-02
DAV:   4    -0.125555587126E+03   -0.54548E-06   -0.85526E-05 22464   0.348E-02    0.109E-02
DAV:   5    -0.125555586564E+03    0.56245E-06   -0.68655E-06 19392   0.978E-03
 112 F= -.12712446E+03 E0= -.12712368E+03  d E =-.153071E-03  mag=     0.0000
       N       E                     dE             d eps       ncg     rms          rms(c)
DAV:   1    -0.125556130474E+03   -0.54335E-03   -0.70472E-01 14208   0.361E+00    0.139E-01
DAV:   2    -0.125556392205E+03   -0.26173E-03   -0.50086E-03 20064   0.299E-01    0.967E-02
DAV:   3    -0.125556321339E+03    0.70866E-04   -0.29800E-04 18912   0.654E-02    0.214E-02
DAV:   4    -0.125556321810E+03   -0.47056E-06   -0.36541E-05 19056   0.231E-02    0.700E-03
DAV:   5    -0.125556321639E+03    0.17019E-06   -0.33007E-06 19776   0.762E-03
 113 F= -.12712455E+03 E0= -.12712376E+03  d E =-.241921E-03  mag=     0.0000
       N       E                     dE             d eps       ncg     rms          rms(c)
DAV:   1    -0.125556077174E+03    0.24464E-03   -0.14197E-01 14208   0.162E+00    0.622E-02
DAV:   2    -0.125556132362E+03   -0.55187E-04   -0.10398E-03 15312   0.137E-01    0.433E-02
DAV:   3    -0.125556119630E+03    0.12732E-04   -0.59184E-05 17712   0.315E-02    0.111E-02
DAV:   4    -0.125556120002E+03   -0.37247E-06   -0.76389E-06 14208   0.129E-02
 114 F= -.12712468E+03 E0= -.12712390E+03  d E =-.132539E-03  mag=    -0.0000
       N       E                     dE             d eps       ncg     rms          rms(c)
DAV:   1    -0.125555008950E+03    0.11107E-02   -0.11815E+00 14208   0.467E+00    0.180E-01
DAV:   2    -0.125555483139E+03   -0.47419E-03   -0.86267E-03 19296   0.392E-01    0.126E-01
DAV:   3    -0.125555369083E+03    0.11406E-03   -0.46106E-04 20544   0.831E-02    0.288E-02
DAV:   4    -0.125555369791E+03   -0.70851E-06   -0.52795E-05 19680   0.299E-02    0.855E-03
DAV:   5    -0.125555369087E+03    0.70423E-06   -0.80970E-06 18768   0.131E-02
 115 F= -.12712489E+03 E0= -.12712411E+03  d E =-.346421E-03  mag=     0.0000
       N       E                     dE             d eps       ncg     rms          rms(c)
DAV:   1    -0.125554961520E+03    0.40827E-03   -0.17215E-01 14208   0.178E+00    0.685E-02
DAV:   2    -0.125555033276E+03   -0.71756E-04   -0.12851E-03 20112   0.152E-01    0.481E-02
DAV:   3    -0.125555017874E+03    0.15403E-04   -0.71107E-05 19488   0.353E-02    0.113E-02
DAV:   4    -0.125555017936E+03   -0.62601E-07   -0.14862E-05 14304   0.195E-02    0.358E-03
DAV:   5    -0.125555017663E+03    0.27305E-06   -0.64290E-06 14592   0.129E-02
 116 F= -.12712491E+03 E0= -.12712413E+03  d E =-.363929E-03  mag=     0.0000
       N       E                     dE             d eps       ncg     rms          rms(c)
DAV:   1    -0.125554668382E+03    0.34955E-03   -0.20783E-01 14208   0.196E+00    0.755E-02
DAV:   2    -0.125554750159E+03   -0.81777E-04   -0.15601E-03 21168   0.167E-01    0.528E-02
DAV:   3    -0.125554729630E+03    0.20528E-04   -0.87333E-05 19344   0.359E-02    0.119E-02
DAV:   4    -0.125554729762E+03   -0.13133E-06   -0.10641E-05 18528   0.135E-02    0.383E-03
DAV:   5    -0.125554729665E+03    0.97113E-07   -0.16568E-06 14784   0.612E-03
 117 F= -.12712505E+03 E0= -.12712427E+03  d E =-.141455E-03  mag=     0.0000
       N       E                     dE             d eps       ncg     rms          rms(c)
DAV:   1    -0.125553770980E+03    0.95878E-03   -0.79913E-01 14208   0.384E+00    0.148E-01
DAV:   2    -0.125554077874E+03   -0.30689E-03   -0.59014E-03 20160   0.325E-01    0.103E-01
DAV:   3    -0.125553996408E+03    0.81466E-04   -0.34260E-04 19968   0.711E-02    0.231E-02
DAV:   4    -0.125553996803E+03   -0.39493E-06   -0.39265E-05 21216   0.256E-02    0.749E-03
DAV:   5    -0.125553996258E+03    0.54512E-06   -0.54595E-06 19344   0.108E-02
 118 F= -.12712516E+03 E0= -.12712438E+03  d E =-.250937E-03  mag=    -0.0000
       N       E                     dE             d eps       ncg     rms          rms(c)
DAV:   1    -0.125553587197E+03    0.40961E-03   -0.25182E-01 14208   0.215E+00    0.834E-02
DAV:   2    -0.125553681301E+03   -0.94104E-04   -0.19250E-03 20496   0.187E-01    0.578E-02
DAV:   3    -0.125553654664E+03    0.26637E-04   -0.12442E-04 19872   0.444E-02    0.130E-02
DAV:   4    -0.125553654398E+03    0.26524E-06   -0.20762E-05 14976   0.217E-02    0.465E-03
DAV:   5    -0.125553654169E+03    0.22892E-06   -0.74542E-06 14784   0.137E-02
 119 F= -.12712532E+03 E0= -.12712454E+03  d E =-.159484E-03  mag=    -0.0000
       N       E                     dE             d eps       ncg     rms          rms(c)
DAV:   1    -0.125552370637E+03    0.12838E-02   -0.12453E+00 14208   0.477E+00    0.186E-01
DAV:   2    -0.125552823949E+03   -0.45331E-03   -0.93822E-03 22224   0.411E-01    0.129E-01
DAV:   3    -0.125552681180E+03    0.14277E-03   -0.59217E-04 20784   0.911E-02    0.276E-02
DAV:   4    -0.125552680660E+03    0.51920E-06   -0.71187E-05 21840   0.333E-02    0.991E-03
DAV:   5    -0.125552679947E+03    0.71358E-06   -0.76913E-06 18816   0.127E-02
 120 F= -.12712546E+03 E0= -.12712468E+03  d E =-.302956E-03  mag=    -0.0000
       N       E                     dE             d eps       ncg     rms          rms(c)
DAV:   1    -0.125551981874E+03    0.69879E-03   -0.49591E-01 14208   0.301E+00    0.117E-01
DAV:   2    -0.125552184046E+03   -0.20217E-03   -0.39031E-03 21120   0.265E-01    0.818E-02
DAV:   3    -0.125552133504E+03    0.50542E-04   -0.23516E-04 20784   0.603E-02    0.188E-02
DAV:   4    -0.125552132774E+03    0.73069E-06   -0.37525E-05 15840   0.281E-02    0.644E-03
DAV:   5    -0.125552132333E+03    0.44046E-06   -0.10534E-05 14784   0.162E-02    0.300E-03
DAV:   6    -0.125552132050E+03    0.28358E-06   -0.55922E-06 14880   0.119E-02
 121 F= -.12712567E+03 E0= -.12712489E+03  d E =-.210272E-03  mag=    -0.0000
       N       E                     dE             d eps       ncg     rms          rms(c)
DAV:   1    -0.125550734573E+03    0.13978E-02   -0.11921E+00 14208   0.466E+00    0.182E-01
DAV:   2    -0.125551205486E+03   -0.47091E-03   -0.92540E-03 22368   0.405E-01    0.127E-01
DAV:   3    -0.125551076003E+03    0.12948E-03   -0.55101E-04 20256   0.880E-02    0.285E-02
DAV:   4    -0.125551075593E+03    0.41035E-06   -0.70150E-05 26304   0.309E-02    0.962E-03
DAV:   5    -0.125551075208E+03    0.38456E-06   -0.43526E-06 20688   0.763E-03
 122 F= -.12712579E+03 E0= -.12712501E+03  d E =-.330941E-03  mag=    -0.0000
       N       E                     dE             d eps       ncg     rms          rms(c)
DAV:   1    -0.125550262331E+03    0.81326E-03   -0.55965E-01 14208   0.319E+00    0.125E-01
DAV:   2    -0.125550481919E+03   -0.21959E-03   -0.44005E-03 20928   0.279E-01    0.869E-02
DAV:   3    -0.125550424759E+03    0.57160E-04   -0.25886E-04 19680   0.611E-02    0.204E-02
DAV:   4    -0.125550424952E+03   -0.19274E-06   -0.33136E-05 21312   0.218E-02    0.666E-03
DAV:   5    -0.125550424876E+03    0.76513E-07   -0.27489E-06 20544   0.651E-03
 123 F= -.12712599E+03 E0= -.12712521E+03  d E =-.194184E-03  mag=     0.0000
       N       E                     dE             d eps       ncg     rms          rms(c)
DAV:   1    -0.125549777347E+03    0.64761E-03   -0.28555E-01 14208   0.228E+00    0.894E-02
DAV:   2    -0.125549890513E+03   -0.11317E-03   -0.22572E-03 21024   0.200E-01    0.622E-02
DAV:   3    -0.125549862184E+03    0.28329E-04   -0.13197E-04 19584   0.439E-02    0.148E-02
DAV:   4    -0.125549862328E+03   -0.14438E-06   -0.17426E-05 18144   0.166E-02    0.488E-03
DAV:   5    -0.125549862331E+03   -0.27612E-08   -0.19732E-06 16896   0.633E-03
 124 F= -.12712603E+03 E0= -.12712525E+03  d E =-.235348E-03  mag=    -0.0000
       N       E                     dE             d eps       ncg     rms          rms(c)
DAV:   1    -0.125549467890E+03    0.39444E-03   -0.17567E-01 14208   0.179E+00    0.699E-02
DAV:   2    -0.125549531291E+03   -0.63401E-04   -0.13960E-03 20880   0.158E-01    0.484E-02
DAV:   3    -0.125549513103E+03    0.18188E-04   -0.89685E-05 19440   0.356E-02    0.112E-02
DAV:   4    -0.125549513281E+03   -0.17770E-06   -0.11432E-05 17952   0.133E-02    0.401E-03
DAV:   5    -0.125549513343E+03   -0.62259E-07   -0.12455E-06 16320   0.502E-03
 125 F= -.12712617E+03 E0= -.12712539E+03  d E =-.141646E-03  mag=    -0.0000
       N       E                     dE             d eps       ncg     rms          rms(c)
DAV:   1    -0.125547923889E+03    0.15894E-02   -0.15806E+00 14208   0.536E+00    0.210E-01
DAV:   2    -0.125548484611E+03   -0.56072E-03   -0.12441E-02 21360   0.469E-01    0.145E-01
DAV:   3    -0.125548304680E+03    0.17993E-03   -0.80545E-04 20160   0.105E-01    0.330E-02
DAV:   4    -0.125548305169E+03   -0.48926E-06   -0.98335E-05 24672   0.367E-02    0.115E-02
DAV:   5    -0.125548304801E+03    0.36849E-06   -0.63146E-06 18960   0.931E-03
 126 F= -.12712644E+03 E0= -.12712566E+03  d E =-.407939E-03  mag=     0.0000
       N       E                     dE             d eps       ncg     rms          rms(c)
DAV:   1    -0.125543605251E+03    0.46999E-02   -0.63197E+00 14208   0.107E+01    0.420E-01
DAV:   2    -0.125545897977E+03   -0.22927E-02   -0.50238E-02 22752   0.940E-01    0.290E-01
DAV:   3    -0.125545159863E+03    0.73811E-03   -0.31031E-03 20688   0.204E-01    0.666E-02
DAV:   4    -0.125545157221E+03    0.26425E-05   -0.39313E-04 26304   0.730E-02    0.226E-02
DAV:   5    -0.125545154791E+03    0.24296E-05   -0.24610E-05 24768   0.181E-02    0.871E-03
DAV:   6    -0.125545154837E+03   -0.46134E-07   -0.44992E-06 19440   0.971E-03
 127 F= -.12712625E+03 E0= -.12712547E+03  d E =-.220979E-03  mag=    -0.0000
       N       E                     dE             d eps       ncg     rms          rms(c)
DAV:   1    -0.125546706421E+03   -0.15516E-02   -0.30964E+00 14208   0.750E+00    0.294E-01
DAV:   2    -0.125547809909E+03   -0.11035E-02   -0.24538E-02 20832   0.658E-01    0.203E-01
DAV:   3    -0.125547463242E+03    0.34667E-03   -0.15885E-03 23280   0.147E-01    0.460E-02
DAV:   4    -0.125547463408E+03   -0.16623E-06   -0.18274E-04 18576   0.500E-02    0.160E-02
DAV:   5    -0.125547463562E+03   -0.15324E-06   -0.13299E-05 19776   0.136E-02    0.596E-03
DAV:   6    -0.125547463771E+03   -0.20963E-06   -0.22309E-06 15792   0.653E-03
 128 F= -.12712648E+03 E0= -.12712570E+03  d E =-.454087E-03  mag=    -0.0000
