   16   16  128    2
  0.2037874E+02  0.5010000E-09  0.5010000E-09  0.1500000E-08  0.5000000E-15
  1.000000000000000E-004
  CAR 
 Lattice                                 
     56     43     48
 
  0.0000000E+00  0.0000000E+00  0.0000000E+00  0.6944444E-02
      1        -19.599848      -19.599848   1.000000   1.000000
      2        -16.022458      -16.022458   1.000000   1.000000
      3        -14.567041      -14.567041   1.000000   1.000000
      4        -14.565963      -14.565963   1.000000   1.000000
      5        -14.565807      -14.565807   1.000000   1.000000
      6        -13.391703      -13.391703   1.000000   1.000000
      7        -13.390899      -13.390899   1.000000   1.000000
      8        -13.389119      -13.389120   1.000000   1.000000
      9        -11.824363      -11.824362   1.000000   1.000000
     10        -11.746678      -11.746677   1.000000   1.000000
     11        -11.746504      -11.746503   1.000000   1.000000
     12         -9.553002       -9.553001   1.000000   1.000000
     13         -9.550917       -9.550917   1.000000   1.000000
     14         -7.958968       -7.958968   1.000000   1.000000
     15         -7.509882       -7.509882   1.000000   1.000000
     16         -6.732673       -6.732673   1.000000   1.000000
     17         -6.731453       -6.731453   1.000000   1.000000
     18         -6.731408       -6.731408   1.000000   1.000000
     19         -6.665782       -6.665781   1.000000   1.000000
     20         -3.501555       -3.501555   1.000000   1.000000
     21         -3.498595       -3.498595   1.000000   1.000000
     22         -2.780969       -2.780969   1.000000   1.000000
     23         -2.771559       -2.771559   1.000000   1.000000
     24         -2.758077       -2.758078   1.000000   1.000000
     25         -1.815692       -1.815692   1.000000   1.000000
     26         -1.810909       -1.810908   1.000000   1.000000
     27         -0.342921       -0.342922   0.914932   0.914933
     28          0.181514        0.181514   0.000000   0.000000
     29          0.268348        0.268349   0.000000   0.000000
     30          0.519945        0.519945   0.000000   0.000000
     31          0.541094        0.541094   0.000000   0.000000
     32          0.600893        0.600893   0.000000   0.000000
     33          0.692255        0.692255   0.000000   0.000000
     34          1.251090        1.251090   0.000000   0.000000
     35          1.378406        1.378406   0.000000   0.000000
     36          1.391961        1.391961   0.000000   0.000000
     37          2.889258        2.889079   0.000000   0.000000
     38          3.552268        3.552136   0.000000   0.000000
     39          4.415934        4.415857   0.000000   0.000000
     40          4.753064        4.752624   0.000000   0.000000
     41          6.457107        6.457107   0.000000   0.000000
     42          6.457778        6.457778   0.000000   0.000000
     43          6.459048        6.459048   0.000000   0.000000
     44          7.001877        7.001758   0.000000   0.000000
     45          7.562558        7.562558   0.000000   0.000000
     46          7.566663        7.566663   0.000000   0.000000
     47          7.715163        7.714514   0.000000   0.000000
     48          7.873114        7.873113   0.000000   0.000000
 
  0.8333333E-01  0.7564205E-17  0.0000000E+00  0.2777778E-01
      1        -19.559904      -19.559904   1.000000   1.000000
      2        -15.990466      -15.990465   1.000000   1.000000
      3        -15.019190      -15.019190   1.000000   1.000000
      4        -14.684103      -14.684103   1.000000   1.000000
      5        -14.683234      -14.683234   1.000000   1.000000
      6        -13.208743      -13.208743   1.000000   1.000000
      7        -13.206924      -13.206924   1.000000   1.000000
      8        -12.878431      -12.878431   1.000000   1.000000
      9        -12.324954      -12.324954   1.000000   1.000000
     10        -11.778540      -11.778539   1.000000   1.000000
     11        -11.271389      -11.271388   1.000000   1.000000
     12         -9.606461       -9.606461   1.000000   1.000000
     13         -9.468112       -9.468112   1.000000   1.000000
     14         -7.906785       -7.906785   1.000000   1.000000
     15         -7.361231       -7.361231   1.000000   1.000000
     16         -6.857507       -6.857507   1.000000   1.000000
     17         -6.856339       -6.856339   1.000000   1.000000
     18         -6.692320       -6.692320   1.000000   1.000000
     19         -6.617476       -6.617475   1.000000   1.000000
     20         -3.667561       -3.667561   1.000000   1.000000
     21         -3.583962       -3.583962   1.000000   1.000000
     22         -3.021751       -3.021751   1.000000   1.000000
     23         -2.808154       -2.808154   1.000000   1.000000
     24         -2.791822       -2.791822   1.000000   1.000000
     25         -2.187336       -2.187335   1.000000   1.000000
     26         -2.131394       -2.131394   1.000000   1.000000
     27         -0.935058       -0.935058   1.000000   1.000000
     28         -0.102095       -0.102095   0.020974   0.020974
     29          0.266603        0.266604   0.000000   0.000000
     30          0.875004        0.875005   0.000000   0.000000
     31          0.901101        0.901101   0.000000   0.000000
     32          0.991016        0.991017   0.000000   0.000000
     33          1.131762        1.131762   0.000000   0.000000
     34          1.354627        1.354627   0.000000   0.000000
     35          1.560620        1.560620   0.000000   0.000000
     36          1.698564        1.698564   0.000000   0.000000
     37          2.943067        2.942889   0.000000   0.000000
     38          3.619525        3.619388   0.000000   0.000000
     39          4.559045        4.558908   0.000000   0.000000
     40          4.829736        4.829359   0.000000   0.000000
     41          6.480286        6.480286   0.000000   0.000000
     42          6.645228        6.645228   0.000000   0.000000
     43          6.646674        6.646674   0.000000   0.000000
     44          7.049717        7.049597   0.000000   0.000000
     45          7.552798        7.552794   0.000000   0.000000
     46          7.587110        7.587095   0.000000   0.000000
     47          7.734613        7.734613   0.000000   0.000000
     48          7.771967        7.771338   0.000000   0.000000
 
 -0.8333333E-01  0.8333333E-01  0.0000000E+00  0.1388889E-01
      1        -19.559903      -19.559903   1.000000   1.000000
      2        -15.990464      -15.990463   1.000000   1.000000
      3        -15.019319      -15.019319   1.000000   1.000000
      4        -14.683668      -14.683668   1.000000   1.000000
      5        -14.683372      -14.683372   1.000000   1.000000
      6        -13.208409      -13.208409   1.000000   1.000000
      7        -13.208274      -13.208274   1.000000   1.000000
      8        -12.877557      -12.877557   1.000000   1.000000
      9        -12.325158      -12.325157   1.000000   1.000000
     10        -11.778537      -11.778537   1.000000   1.000000
     11        -11.271128      -11.271127   1.000000   1.000000
     12         -9.605017       -9.605017   1.000000   1.000000
     13         -9.469709       -9.469708   1.000000   1.000000
     14         -7.906784       -7.906784   1.000000   1.000000
     15         -7.361170       -7.361170   1.000000   1.000000
     16         -6.856476       -6.856476   1.000000   1.000000
     17         -6.856373       -6.856373   1.000000   1.000000
     18         -6.693322       -6.693322   1.000000   1.000000
     19         -6.617489       -6.617488   1.000000   1.000000
     20         -3.665396       -3.665395   1.000000   1.000000
     21         -3.586148       -3.586148   1.000000   1.000000
     22         -3.018543       -3.018543   1.000000   1.000000
     23         -2.803101       -2.803101   1.000000   1.000000
     24         -2.800778       -2.800778   1.000000   1.000000
     25         -2.189678       -2.189677   1.000000   1.000000
     26         -2.128818       -2.128817   1.000000   1.000000
     27         -0.937449       -0.937449   1.000000   1.000000
     28         -0.115381       -0.115381   0.032436   0.032436
     29          0.302078        0.302079   0.000000   0.000000
     30          0.887816        0.887817   0.000000   0.000000
     31          0.921359        0.921360   0.000000   0.000000
     32          1.009723        1.009723   0.000000   0.000000
     33          1.039650        1.039650   0.000000   0.000000
     34          1.352377        1.352377   0.000000   0.000000
     35          1.551074        1.551074   0.000000   0.000000
     36          1.732174        1.732174   0.000000   0.000000
     37          2.943054        2.942876   0.000000   0.000000
     38          3.619463        3.619327   0.000000   0.000000
     39          4.558210        4.558073   0.000000   0.000000
     40          4.829552        4.829174   0.000000   0.000000
     41          6.480627        6.480627   0.000000   0.000000
     42          6.645521        6.645521   0.000000   0.000000
     43          6.646063        6.646062   0.000000   0.000000
     44          7.049638        7.049520   0.000000   0.000000
     45          7.551450        7.551445   0.000000   0.000000
     46          7.586158        7.586145   0.000000   0.000000
     47          7.736978        7.736978   0.000000   0.000000
     48          7.771876        7.771246   0.000000   0.000000
 
  0.1666667E+00  0.2265725E-17  0.0000000E+00  0.2777778E-01
      1        -19.440201      -19.440201   1.000000   1.000000
      2        -15.895704      -15.895703   1.000000   1.000000
      3        -15.738209      -15.738209   1.000000   1.000000
      4        -14.912987      -14.912987   1.000000   1.000000
      5        -14.912171      -14.912171   1.000000   1.000000
      6        -12.857902      -12.857901   1.000000   1.000000
      7        -12.786049      -12.786049   1.000000   1.000000
      8        -12.784834      -12.784834   1.000000   1.000000
      9        -11.981876      -11.981876   1.000000   1.000000
     10        -11.857864      -11.857863   1.000000   1.000000
     11        -10.868482      -10.868482   1.000000   1.000000
     12         -9.639877       -9.639876   1.000000   1.000000
     13         -9.237926       -9.237926   1.000000   1.000000
     14         -7.758445       -7.758445   1.000000   1.000000
     15         -7.207833       -7.207833   1.000000   1.000000
     16         -7.206663       -7.206663   1.000000   1.000000
     17         -7.007966       -7.007965   1.000000   1.000000
     18         -6.575783       -6.575782   1.000000   1.000000
     19         -6.473473       -6.473472   1.000000   1.000000
     20         -4.141363       -4.141363   1.000000   1.000000
     21         -3.821212       -3.821212   1.000000   1.000000
     22         -3.604752       -3.604752   1.000000   1.000000
     23         -2.951849       -2.951849   1.000000   1.000000
     24         -2.884455       -2.884455   1.000000   1.000000
     25         -2.863887       -2.863888   1.000000   1.000000
     26         -2.759978       -2.759978   1.000000   1.000000
     27         -1.789731       -1.789731   1.000000   1.000000
     28         -0.501927       -0.501927   0.999853   0.999853
     29          0.158133        0.158134   0.000000   0.000000
     30          1.293231        1.293231   0.000000   0.000000
     31          1.439995        1.439995   0.000000   0.000000
     32          1.648910        1.648911   0.000000   0.000000
     33          1.807930        1.807931   0.000000   0.000000
     34          2.025721        2.025721   0.000000   0.000000
     35          2.092608        2.092608   0.000000   0.000000
     36          2.484757        2.484758   0.000000   0.000000
     37          3.103956        3.103781   0.000000   0.000000
     38          3.805062        3.804919   0.000000   0.000000
     39          4.849856        4.849455   0.000000   0.000000
     40          5.156448        5.156338   0.000000   0.000000
     41          6.545307        6.545307   0.000000   0.000000
     42          6.725890        6.725891   0.000000   0.000000
     43          7.174341        7.174297   0.000000   0.000000
     44          7.183005        7.183004   0.000000   0.000000
     45          7.200409        7.200335   0.000000   0.000000
     46          7.608593        7.608566   0.000000   0.000000
     47          7.721555        7.721523   0.000000   0.000000
     48          7.941272        7.940657   0.000000   0.000000
 
 -0.1666667E+00  0.1666667E+00  0.0000000E+00  0.1388889E-01
      1        -19.440198      -19.440198   1.000000   1.000000
      2        -15.895730      -15.895730   1.000000   1.000000
      3        -15.738158      -15.738158   1.000000   1.000000
      4        -14.912652      -14.912653   1.000000   1.000000
      5        -14.912379      -14.912379   1.000000   1.000000
      6        -12.857950      -12.857950   1.000000   1.000000
      7        -12.786271      -12.786271   1.000000   1.000000
      8        -12.785738      -12.785738   1.000000   1.000000
      9        -11.981173      -11.981173   1.000000   1.000000
     10        -11.857842      -11.857841   1.000000   1.000000
     11        -10.867791      -10.867790   1.000000   1.000000
     12         -9.638776       -9.638776   1.000000   1.000000
     13         -9.239605       -9.239604   1.000000   1.000000
     14         -7.758430       -7.758430   1.000000   1.000000
     15         -7.206748       -7.206748   1.000000   1.000000
     16         -7.206728       -7.206728   1.000000   1.000000
     17         -7.007813       -7.007813   1.000000   1.000000
     18         -6.576815       -6.576815   1.000000   1.000000
     19         -6.473523       -6.473522   1.000000   1.000000
     20         -4.139400       -4.139400   1.000000   1.000000
     21         -3.823244       -3.823244   1.000000   1.000000
     22         -3.602032       -3.602032   1.000000   1.000000
     23         -2.962032       -2.962032   1.000000   1.000000
     24         -2.886842       -2.886842   1.000000   1.000000
     25         -2.858332       -2.858332   1.000000   1.000000
     26         -2.756403       -2.756403   1.000000   1.000000
     27         -1.792201       -1.792201   1.000000   1.000000
     28         -0.508971       -0.508971   0.999900   0.999900
     29          0.183709        0.183710   0.000000   0.000000
     30          1.313622        1.313622   0.000000   0.000000
     31          1.409471        1.409471   0.000000   0.000000
     32          1.636403        1.636403   0.000000   0.000000
     33          1.800686        1.800687   0.000000   0.000000
     34          2.031699        2.031699   0.000000   0.000000
     35          2.081057        2.081057   0.000000   0.000000
     36          2.506723        2.506723   0.000000   0.000000
     37          3.103923        3.103747   0.000000   0.000000
     38          3.805073        3.804931   0.000000   0.000000
     39          4.848862        4.848462   0.000000   0.000000
     40          5.154431        5.154319   0.000000   0.000000
     41          6.545367        6.545367   0.000000   0.000000
     42          6.725461        6.725461   0.000000   0.000000
     43          7.174902        7.174855   0.000000   0.000000
     44          7.181889        7.181889   0.000000   0.000000
     45          7.200156        7.200084   0.000000   0.000000
     46          7.606827        7.606802   0.000000   0.000000
     47          7.721263        7.721233   0.000000   0.000000
     48          7.941059        7.940444   0.000000   0.000000
 
  0.2500000E+00  0.1041763E-16  0.0000000E+00  0.2777778E-01
      1        -19.241073      -19.241073   1.000000   1.000000
      2        -16.441348      -16.441348   1.000000   1.000000
      3        -15.740454      -15.740453   1.000000   1.000000
      4        -15.132278      -15.132278   1.000000   1.000000
      5        -15.131438      -15.131438   1.000000   1.000000
      6        -13.365865      -13.365864   1.000000   1.000000
      7        -12.255763      -12.255763   1.000000   1.000000
      8        -12.254110      -12.254110   1.000000   1.000000
      9        -11.952148      -11.952148   1.000000   1.000000
     10        -10.988831      -10.988831   1.000000   1.000000
     11        -10.715362      -10.715361   1.000000   1.000000
     12         -9.420799       -9.420798   1.000000   1.000000
     13         -8.906000       -8.905999   1.000000   1.000000
     14         -7.721512       -7.721512   1.000000   1.000000
     15         -7.720361       -7.720361   1.000000   1.000000
     16         -7.518513       -7.518513   1.000000   1.000000
     17         -6.640829       -6.640829   1.000000   1.000000
     18         -6.384291       -6.384291   1.000000   1.000000
     19         -6.237757       -6.237757   1.000000   1.000000
     20         -4.859505       -4.859505   1.000000   1.000000
     21         -4.298187       -4.298187   1.000000   1.000000
     22         -4.168722       -4.168721   1.000000   1.000000
     23         -3.732210       -3.732209   1.000000   1.000000
     24         -3.368233       -3.368232   1.000000   1.000000
     25         -3.001034       -3.001034   1.000000   1.000000
     26         -2.981843       -2.981844   1.000000   1.000000
     27         -2.597841       -2.597841   1.000000   1.000000
     28         -0.828791       -0.828791   1.000000   1.000000
     29          0.003139        0.003142   0.000214   0.000214
     30          1.621451        1.621451   0.000000   0.000000
     31          1.686034        1.686034   0.000000   0.000000
     32          2.474213        2.474214   0.000000   0.000000
     33          2.730901        2.730902   0.000000   0.000000
     34          2.845680        2.845680   0.000000   0.000000
     35          3.024569        3.024569   0.000000   0.000000
     36          3.346507        3.346390   0.000000   0.000000
     37          3.418912        3.418858   0.000000   0.000000
     38          4.094949        4.094805   0.000000   0.000000
     39          5.145020        5.144533   0.000000   0.000000
     40          5.707982        5.707982   0.000000   0.000000
     41          5.745238        5.745214   0.000000   0.000000
     42          6.645305        6.645304   0.000000   0.000000
     43          7.012518        7.012469   0.000000   0.000000
     44          7.419569        7.419452   0.000000   0.000000
     45          7.482806        7.482754   0.000000   0.000000
     46          7.601793        7.601776   0.000000   0.000000
     47          7.719997        7.719997   0.000000   0.000000
     48          7.937948        7.937766   0.000000   0.000000
 
 -0.2500000E+00  0.2500000E+00  0.0000000E+00  0.1388889E-01
      1        -19.241066      -19.241066   1.000000   1.000000
      2        -16.441327      -16.441327   1.000000   1.000000
      3        -15.740379      -15.740379   1.000000   1.000000
      4        -15.131960      -15.131960   1.000000   1.000000
      5        -15.131724      -15.131724   1.000000   1.000000
      6        -13.366207      -13.366206   1.000000   1.000000
      7        -12.255669      -12.255669   1.000000   1.000000
      8        -12.255310      -12.255310   1.000000   1.000000
      9        -11.951974      -11.951973   1.000000   1.000000
     10        -10.988069      -10.988069   1.000000   1.000000
     11        -10.714230      -10.714229   1.000000   1.000000
     12         -9.420028       -9.420027   1.000000   1.000000
     13         -8.907849       -8.907849   1.000000   1.000000
     14         -7.720432       -7.720432   1.000000   1.000000
     15         -7.720334       -7.720334   1.000000   1.000000
     16         -7.518445       -7.518445   1.000000   1.000000
     17         -6.640620       -6.640620   1.000000   1.000000
     18         -6.385380       -6.385380   1.000000   1.000000
     19         -6.237855       -6.237854   1.000000   1.000000
     20         -4.857790       -4.857790   1.000000   1.000000
     21         -4.296101       -4.296101   1.000000   1.000000
     22         -4.170571       -4.170571   1.000000   1.000000
     23         -3.735722       -3.735722   1.000000   1.000000
     24         -3.368280       -3.368279   1.000000   1.000000
     25         -3.002982       -3.002982   1.000000   1.000000
     26         -2.978098       -2.978098   1.000000   1.000000
     27         -2.600818       -2.600818   1.000000   1.000000
     28         -0.833422       -0.833422   1.000000   1.000000
     29          0.018567        0.018570   0.000092   0.000092
     30          1.629472        1.629472   0.000000   0.000000
     31          1.674518        1.674518   0.000000   0.000000
     32          2.471879        2.471880   0.000000   0.000000
     33          2.731312        2.731312   0.000000   0.000000
     34          2.835627        2.835627   0.000000   0.000000
     35          3.021949        3.021949   0.000000   0.000000
     36          3.351645        3.351517   0.000000   0.000000
     37          3.424997        3.424955   0.000000   0.000000
     38          4.095214        4.095070   0.000000   0.000000
     39          5.144374        5.143888   0.000000   0.000000
     40          5.705944        5.705944   0.000000   0.000000
     41          5.742152        5.742127   0.000000   0.000000
     42          6.645224        6.645222   0.000000   0.000000
     43          7.012214        7.012158   0.000000   0.000000
     44          7.419958        7.419842   0.000000   0.000000
     45          7.483100        7.483055   0.000000   0.000000
     46          7.607532        7.607516   0.000000   0.000000
     47          7.710286        7.710287   0.000000   0.000000
     48          7.938917        7.938739   0.000000   0.000000
 
  0.3333333E+00  0.4691752E-17  0.0000000E+00  0.2777778E-01
      1        -18.963118      -18.963118   1.000000   1.000000
      2        -17.087810      -17.087810   1.000000   1.000000
      3        -15.535303      -15.535302   1.000000   1.000000
      4        -15.301106      -15.301106   1.000000   1.000000
      5        -15.300116      -15.300117   1.000000   1.000000
      6        -13.831588      -13.831588   1.000000   1.000000
      7        -12.035510      -12.035509   1.000000   1.000000
      8        -11.679506      -11.679506   1.000000   1.000000
      9        -11.678405      -11.678405   1.000000   1.000000
     10        -10.751650      -10.751650   1.000000   1.000000
     11         -9.945739       -9.945739   1.000000   1.000000
     12         -8.979087       -8.979087   1.000000   1.000000
     13         -8.530530       -8.530530   1.000000   1.000000
     14         -8.317920       -8.317920   1.000000   1.000000
     15         -8.316858       -8.316858   1.000000   1.000000
     16         -7.188695       -7.188695   1.000000   1.000000
     17         -6.468939       -6.468938   1.000000   1.000000
     18         -6.122131       -6.122131   1.000000   1.000000
     19         -5.924401       -5.924400   1.000000   1.000000
     20         -5.748241       -5.748241   1.000000   1.000000
     21         -4.985907       -4.985907   1.000000   1.000000
     22         -4.577515       -4.577515   1.000000   1.000000
     23         -4.448003       -4.448002   1.000000   1.000000
     24         -3.744193       -3.744193   1.000000   1.000000
     25         -3.448160       -3.448160   1.000000   1.000000
     26         -3.076109       -3.076109   1.000000   1.000000
     27         -3.003975       -3.003975   1.000000   1.000000
     28         -1.066127       -1.066127   1.000000   1.000000
     29         -0.140621       -0.140618   0.068219   0.068213
     30          1.915444        1.915443   0.000000   0.000000
     31          1.941826        1.941826   0.000000   0.000000
     32          3.272644        3.272644   0.000000   0.000000
     33          3.634080        3.634081   0.000000   0.000000
     34          3.717055        3.717043   0.000000   0.000000
     35          3.736717        3.736568   0.000000   0.000000
     36          4.058993        4.058991   0.000000   0.000000
     37          4.308000        4.307981   0.000000   0.000000
     38          4.504088        4.503963   0.000000   0.000000
     39          4.806717        4.806717   0.000000   0.000000
     40          5.513944        5.513432   0.000000   0.000000
     41          6.197719        6.197659   0.000000   0.000000
     42          6.309990        6.309961   0.000000   0.000000
     43          6.784630        6.784621   0.000000   0.000000
     44          6.850727        6.850709   0.000000   0.000000
     45          7.073149        7.073009   0.000000   0.000000
     46          7.219859        7.219860   0.000000   0.000000
     47          7.500482        7.500466   0.000000   0.000000
     48          7.743922        7.743913   0.000000   0.000000
 
 -0.3333333E+00  0.3333333E+00  0.0000000E+00  0.1388889E-01
      1        -18.963106      -18.963106   1.000000   1.000000
      2        -17.087776      -17.087776   1.000000   1.000000
      3        -15.535158      -15.535157   1.000000   1.000000
      4        -15.300666      -15.300666   1.000000   1.000000
      5        -15.300583      -15.300583   1.000000   1.000000
      6        -13.832044      -13.832043   1.000000   1.000000
      7        -12.035761      -12.035760   1.000000   1.000000
      8        -11.679711      -11.679711   1.000000   1.000000
      9        -11.679041      -11.679041   1.000000   1.000000
     10        -10.750280      -10.750280   1.000000   1.000000
     11         -9.944939       -9.944939   1.000000   1.000000
     12         -8.978346       -8.978345   1.000000   1.000000
     13         -8.532954       -8.532953   1.000000   1.000000
     14         -8.316926       -8.316926   1.000000   1.000000
     15         -8.316183       -8.316183   1.000000   1.000000
     16         -7.188490       -7.188490   1.000000   1.000000
     17         -6.468785       -6.468784   1.000000   1.000000
     18         -6.123292       -6.123292   1.000000   1.000000
     19         -5.924449       -5.924449   1.000000   1.000000
     20         -5.746793       -5.746793   1.000000   1.000000
     21         -4.984470       -4.984470   1.000000   1.000000
     22         -4.579182       -4.579182   1.000000   1.000000
     23         -4.450699       -4.450699   1.000000   1.000000
     24         -3.744115       -3.744114   1.000000   1.000000
     25         -3.448043       -3.448042   1.000000   1.000000
     26         -3.071989       -3.071989   1.000000   1.000000
     27         -3.009252       -3.009252   1.000000   1.000000
     28         -1.069667       -1.069667   1.000000   1.000000
     29         -0.131151       -0.131148   0.052283   0.052278
     30          1.919850        1.919850   0.000000   0.000000
     31          1.941833        1.941833   0.000000   0.000000
     32          3.272180        3.272180   0.000000   0.000000
     33          3.639101        3.639102   0.000000   0.000000
     34          3.705264        3.705264   0.000000   0.000000
     35          3.733999        3.733838   0.000000   0.000000
     36          4.056628        4.056625   0.000000   0.000000
     37          4.314163        4.314141   0.000000   0.000000
     38          4.505327        4.505205   0.000000   0.000000
     39          4.798925        4.798926   0.000000   0.000000
     40          5.513308        5.512801   0.000000   0.000000
     41          6.204374        6.204296   0.000000   0.000000
     42          6.299628        6.299607   0.000000   0.000000
     43          6.787023        6.787014   0.000000   0.000000
     44          6.854754        6.854733   0.000000   0.000000
     45          7.072812        7.072674   0.000000   0.000000
     46          7.215849        7.215850   0.000000   0.000000
     47          7.498032        7.498016   0.000000   0.000000
     48          7.742528        7.742360   0.000000   0.000000
 
  0.4166667E+00  0.5549213E-16  0.0000000E+00  0.2777778E-01
      1        -18.607206      -18.607206   1.000000   1.000000
      2        -17.667218      -17.667218   1.000000   1.000000
      3        -15.405919      -15.405919   1.000000   1.000000
      4        -15.405545      -15.405545   1.000000   1.000000
      5        -15.308030      -15.308030   1.000000   1.000000
      6        -14.217256      -14.217256   1.000000   1.000000
      7        -12.090346      -12.090346   1.000000   1.000000
      8        -11.141324      -11.141324   1.000000   1.000000
      9        -11.140161      -11.140161   1.000000   1.000000
     10        -10.814754      -10.814754   1.000000   1.000000
     11         -8.883982       -8.883982   1.000000   1.000000
     12         -8.882910       -8.882910   1.000000   1.000000
     13         -8.875334       -8.875334   1.000000   1.000000
     14         -8.522229       -8.522229   1.000000   1.000000
     15         -8.199221       -8.199221   1.000000   1.000000
     16         -6.780834       -6.780834   1.000000   1.000000
     17         -6.744448       -6.744448   1.000000   1.000000
     18         -6.570830       -6.570830   1.000000   1.000000
     19         -5.796920       -5.796920   1.000000   1.000000
     20         -5.733729       -5.733729   1.000000   1.000000
     21         -5.447956       -5.447956   1.000000   1.000000
     22         -5.005037       -5.005037   1.000000   1.000000
     23         -4.985236       -4.985236   1.000000   1.000000