   16   16  128    2
  0.1957334E+02  0.4910000E-09  0.4910000E-09  0.1500000E-08  0.5000000E-15
  1.000000000000000E-004
  CAR 
 Lattice                                 
     56     19     48
 
  0.0000000E+00  0.0000000E+00  0.0000000E+00  0.6944444E-02
      1        -19.919859      -19.919859   1.000000   1.000000
      2        -15.964079      -15.964080   1.000000   1.000000
      3        -14.616763      -14.616762   1.000000   1.000000
      4        -14.613965      -14.613965   1.000000   1.000000
      5        -14.613935      -14.613935   1.000000   1.000000
      6        -13.609556      -13.609555   1.000000   1.000000
      7        -13.609506      -13.609505   1.000000   1.000000
      8        -13.608579      -13.608578   1.000000   1.000000
      9        -11.725760      -11.725761   1.000000   1.000000
     10        -11.484680      -11.484681   1.000000   1.000000
     11        -11.484662      -11.484662   1.000000   1.000000
     12         -9.249538       -9.249538   1.000000   1.000000
     13         -9.249516       -9.249517   1.000000   1.000000
     14         -8.174313       -8.174313   1.000000   1.000000
     15         -7.350138       -7.350138   1.000000   1.000000
     16         -6.738537       -6.738537   1.000000   1.000000
     17         -6.737186       -6.737186   1.000000   1.000000
     18         -6.737158       -6.737157   1.000000   1.000000
     19         -6.617057       -6.617056   1.000000   1.000000
     20         -3.317253       -3.317253   1.000000   1.000000
     21         -3.317135       -3.317135   1.000000   1.000000
     22         -2.756282       -2.756282   1.000000   1.000000
     23         -2.719260       -2.719261   1.000000   1.000000
     24         -2.719235       -2.719235   1.000000   1.000000
     25         -1.325244       -1.325244   1.000000   1.000000
     26         -1.325239       -1.325239   1.000000   1.000000
     27         -0.394411       -0.394411   0.980280   0.980280
     28         -0.394393       -0.394393   0.980268   0.980268
     29         -0.198104       -0.198103   0.236799   0.236796
     30          1.059216        1.059216   0.000000   0.000000
     31          1.059235        1.059236   0.000000   0.000000
     32          1.331180        1.331180   0.000000   0.000000
     33          1.365848        1.365848   0.000000   0.000000
     34          1.365885        1.365885   0.000000   0.000000
     35          2.225372        2.225372   0.000000   0.000000
     36          2.225378        2.225378   0.000000   0.000000
     37          3.071434        3.071531   0.000000   0.000000
     38          3.664479        3.664497   0.000000   0.000000
     39          4.595883        4.595889   0.000000   0.000000
     40          4.867539        4.867977   0.000000   0.000000
     41          7.092599        7.092825   0.000000   0.000000
     42          7.204755        7.204758   0.000000   0.000000
     43          7.211265        7.211264   0.000000   0.000000
     44          7.211285        7.211285   0.000000   0.000000
     45          7.728184        7.728245   0.000000   0.000000
     46          8.118623        8.118623   0.000000   0.000000
     47          8.118756        8.118756   0.000000   0.000000
     48          8.850470        8.850489   0.000000   0.000000
 
  0.8333333E-01 -0.1130915E-16  0.0000000E+00  0.4166667E-01
      1        -19.878468      -19.878468   1.000000   1.000000
      2        -15.931028      -15.931029   1.000000   1.000000
      3        -15.134532      -15.134531   1.000000   1.000000
      4        -14.761746      -14.761745   1.000000   1.000000
      5        -14.760192      -14.760191   1.000000   1.000000
      6        -13.394970      -13.394970   1.000000   1.000000
      7        -13.394620      -13.394620   1.000000   1.000000
      8        -13.028168      -13.028168   1.000000   1.000000
      9        -12.168276      -12.168277   1.000000   1.000000
     10        -11.516923      -11.516923   1.000000   1.000000
     11        -11.068951      -11.068952   1.000000   1.000000
     12         -9.320953       -9.320953   1.000000   1.000000
     13         -9.165482       -9.165483   1.000000   1.000000
     14         -8.121267       -8.121267   1.000000   1.000000
     15         -7.181569       -7.181569   1.000000   1.000000
     16         -6.866139       -6.866139   1.000000   1.000000
     17         -6.865287       -6.865286   1.000000   1.000000
     18         -6.696472       -6.696471   1.000000   1.000000
     19         -6.565750       -6.565750   1.000000   1.000000
     20         -3.487123       -3.487122   1.000000   1.000000
     21         -3.407290       -3.407289   1.000000   1.000000
     22         -3.001943       -3.001943   1.000000   1.000000
     23         -2.774945       -2.774945   1.000000   1.000000
     24         -2.755473       -2.755473   1.000000   1.000000
     25         -1.765044       -1.765044   1.000000   1.000000
     26         -1.730749       -1.730750   1.000000   1.000000
     27         -0.850168       -0.850168   1.000000   1.000000
     28         -0.288074       -0.288073   0.710801   0.710800
     29          0.300746        0.300747   0.000000   0.000000
     30          1.000004        1.000005   0.000000   0.000000
     31          1.151171        1.151171   0.000000   0.000000
     32          1.436008        1.436008   0.000000   0.000000
     33          1.486692        1.486692   0.000000   0.000000
     34          1.676944        1.676944   0.000000   0.000000
     35          2.564921        2.564921   0.000000   0.000000
     36          2.584024        2.584027   0.000000   0.000000
     37          3.154212        3.154304   0.000000   0.000000
     38          3.731949        3.731971   0.000000   0.000000
     39          4.744560        4.744586   0.000000   0.000000
     40          4.935184        4.935599   0.000000   0.000000
     41          7.140541        7.140769   0.000000   0.000000
     42          7.229356        7.229357   0.000000   0.000000
     43          7.398762        7.398763   0.000000   0.000000
     44          7.403154        7.403154   0.000000   0.000000
     45          7.774706        7.774761   0.000000   0.000000
     46          8.148029        8.148030   0.000000   0.000000
     47          8.300692        8.300692   0.000000   0.000000
     48          8.588312        8.588330   0.000000   0.000000
 
  0.1666667E+00 -0.5171478E-17  0.0000000E+00  0.4166667E-01
      1        -19.754393      -19.754393   1.000000   1.000000
      2        -15.903500      -15.903500   1.000000   1.000000
      3        -15.831608      -15.831608   1.000000   1.000000
      4        -15.024893      -15.024892   1.000000   1.000000
      5        -15.023635      -15.023634   1.000000   1.000000
      6        -12.928880      -12.928879   1.000000   1.000000
      7        -12.928754      -12.928753   1.000000   1.000000
      8        -12.707118      -12.707118   1.000000   1.000000
      9        -12.077402      -12.077402   1.000000   1.000000
     10        -11.597227      -11.597227   1.000000   1.000000
     11        -10.663835      -10.663835   1.000000   1.000000
     12         -9.383591       -9.383591   1.000000   1.000000
     13         -8.933445       -8.933445   1.000000   1.000000
     14         -7.967023       -7.967023   1.000000   1.000000
     15         -7.226044       -7.226044   1.000000   1.000000
     16         -7.225408       -7.225407   1.000000   1.000000
     17         -6.795396       -6.795396   1.000000   1.000000
     18         -6.573596       -6.573596   1.000000   1.000000
     19         -6.412775       -6.412775   1.000000   1.000000
     20         -3.971831       -3.971831   1.000000   1.000000
     21         -3.660142       -3.660142   1.000000   1.000000
     22         -3.621113       -3.621113   1.000000   1.000000
     23         -2.864636       -2.864637   1.000000   1.000000
     24         -2.860472       -2.860472   1.000000   1.000000
     25         -2.519165       -2.519165   1.000000   1.000000
     26         -2.423552       -2.423552   1.000000   1.000000
     27         -1.556108       -1.556107   1.000000   1.000000
     28         -0.434243       -0.434243   0.995640   0.995640
     29          0.408958        0.408959   0.000000   0.000000
     30          1.416491        1.416491   0.000000   0.000000
     31          1.516082        1.516082   0.000000   0.000000
     32          1.761574        1.761574   0.000000   0.000000
     33          1.918371        1.918371   0.000000   0.000000
     34          2.461883        2.461883   0.000000   0.000000
     35          3.118633        3.118677   0.000000   0.000000
     36          3.310505        3.310505   0.000000   0.000000
     37          3.506903        3.506944   0.000000   0.000000
     38          3.940248        3.940288   0.000000   0.000000
     39          5.058931        5.059230   0.000000   0.000000
     40          5.217244        5.217371   0.000000   0.000000
     41          7.267050        7.267261   0.000000   0.000000
     42          7.288947        7.288965   0.000000   0.000000
     43          7.697684        7.697670   0.000000   0.000000
     44          7.945000        7.945033   0.000000   0.000000
     45          7.952335        7.952335   0.000000   0.000000
     46          7.955541        7.955589   0.000000   0.000000
     47          8.210511        8.210520   0.000000   0.000000
     48          8.374724        8.374763   0.000000   0.000000
 
  0.2500000E+00 -0.3817225E-16  0.0000000E+00  0.4166667E-01
      1        -19.547967      -19.547967   1.000000   1.000000
      2        -16.638871      -16.638870   1.000000   1.000000
      3        -15.672718      -15.672718   1.000000   1.000000
      4        -15.265875      -15.265874   1.000000   1.000000
      5        -15.264862      -15.264862   1.000000   1.000000
      6        -13.227110      -13.227111   1.000000   1.000000
      7        -12.359176      -12.359176   1.000000   1.000000
      8        -12.358904      -12.358903   1.000000   1.000000
      9        -11.692868      -11.692869   1.000000   1.000000
     10        -11.041217      -11.041217   1.000000   1.000000
     11        -10.512518      -10.512519   1.000000   1.000000
     12         -9.181247       -9.181247   1.000000   1.000000
     13         -8.599484       -8.599485   1.000000   1.000000
     14         -7.757806       -7.757806   1.000000   1.000000
     15         -7.757411       -7.757410   1.000000   1.000000
     16         -7.715173       -7.715174   1.000000   1.000000
     17         -6.407616       -6.407616   1.000000   1.000000
     18         -6.371733       -6.371732   1.000000   1.000000
     19         -6.162883       -6.162882   1.000000   1.000000
     20         -4.708234       -4.708233   1.000000   1.000000
     21         -4.349487       -4.349487   1.000000   1.000000
     22         -4.029595       -4.029594   1.000000   1.000000
     23         -3.353929       -3.353929   1.000000   1.000000
     24         -3.073237       -3.073237   1.000000   1.000000
     25         -2.950722       -2.950722   1.000000   1.000000
     26         -2.926606       -2.926607   1.000000   1.000000
     27         -2.342508       -2.342508   1.000000   1.000000
     28         -0.705226       -0.705226   1.000000   1.000000
     29          0.244751        0.244752   0.000000   0.000000
     30          1.852471        1.852471   0.000000   0.000000
     31          1.871958        1.871958   0.000000   0.000000
     32          2.460909        2.460912   0.000000   0.000000
     33          2.701274        2.701274   0.000000   0.000000
     34          3.460476        3.460492   0.000000   0.000000
     35          3.535804        3.535858   0.000000   0.000000
     36          4.050084        4.050069   0.000000   0.000000
     37          4.197779        4.197779   0.000000   0.000000
     38          4.352706        4.352795   0.000000   0.000000
     39          5.361725        5.362069   0.000000   0.000000
     40          5.693149        5.693204   0.000000   0.000000
     41          6.631800        6.631805   0.000000   0.000000
     42          7.345502        7.345515   0.000000   0.000000
     43          7.510417        7.510597   0.000000   0.000000
     44          7.650128        7.650242   0.000000   0.000000
     45          8.104196        8.104200   0.000000   0.000000
     46          8.218492        8.218475   0.000000   0.000000
     47          8.294278        8.294294   0.000000   0.000000
     48          8.372533        8.372575   0.000000   0.000000
 
  0.3333333E+00 -0.3420574E-19  0.0000000E+00  0.4166667E-01
      1        -19.259762      -19.259761   1.000000   1.000000
      2        -17.312570      -17.312569   1.000000   1.000000
      3        -15.466318      -15.466319   1.000000   1.000000
      4        -15.447078      -15.447078   1.000000   1.000000
      5        -15.442262      -15.442261   1.000000   1.000000
      6        -13.704991      -13.704991   1.000000   1.000000
      7        -11.781651      -11.781651   1.000000   1.000000
      8        -11.743031      -11.743031   1.000000   1.000000
      9        -11.738579      -11.738579   1.000000   1.000000
     10        -10.557445      -10.557445   1.000000   1.000000
     11         -9.958229       -9.958229   1.000000   1.000000
     12         -8.741481       -8.741481   1.000000   1.000000
     13         -8.382511       -8.382510   1.000000   1.000000
     14         -8.382297       -8.382297   1.000000   1.000000
     15         -8.222966       -8.222966   1.000000   1.000000
     16         -7.368098       -7.368098   1.000000   1.000000
     17         -6.237105       -6.237105   1.000000   1.000000
     18         -6.095569       -6.095569   1.000000   1.000000
     19         -5.829485       -5.829484   1.000000   1.000000
     20         -5.622098       -5.622097   1.000000   1.000000
     21         -5.063260       -5.063260   1.000000   1.000000
     22         -4.463298       -4.463298   1.000000   1.000000
     23         -4.052495       -4.052495   1.000000   1.000000
     24         -3.445829       -3.445829   1.000000   1.000000
     25         -3.208907       -3.208907   1.000000   1.000000
     26         -3.039977       -3.039977   1.000000   1.000000
     27         -2.950555       -2.950556   1.000000   1.000000
     28         -0.935631       -0.935630   1.000000   1.000000
     29          0.092099        0.092101   0.000001   0.000001
     30          2.182332        2.182332   0.000000   0.000000
     31          2.193596        2.193596   0.000000   0.000000
     32          3.215038        3.215051   0.000000   0.000000
     33          3.635208        3.635208   0.000000   0.000000
     34          4.020673        4.020735   0.000000   0.000000
     35          4.504092        4.504077   0.000000   0.000000
     36          4.606435        4.606441   0.000000   0.000000
     37          4.898617        4.898711   0.000000   0.000000
     38          5.097861        5.097861   0.000000   0.000000
     39          5.532217        5.532286   0.000000   0.000000
     40          5.719986        5.720181   0.000000   0.000000
     41          6.087073        6.087212   0.000000   0.000000
     42          6.899921        6.899937   0.000000   0.000000
     43          7.360356        7.360459   0.000000   0.000000
     44          7.552453        7.552450   0.000000   0.000000
     45          7.640463        7.640479   0.000000   0.000000
     46          7.892304        7.892306   0.000000   0.000000
     47          7.926693        7.926911   0.000000   0.000000
     48          8.164109        8.164098   0.000000   0.000000
 
  0.4166667E+00 -0.4421867E-16  0.0000000E+00  0.4166667E-01
      1        -18.890628      -18.890627   1.000000   1.000000
      2        -17.914915      -17.914915   1.000000   1.000000
      3        -15.560628      -15.560627   1.000000   1.000000
      4        -15.559080      -15.559080   1.000000   1.000000
      5        -15.226080      -15.226081   1.000000   1.000000
      6        -14.101685      -14.101685   1.000000   1.000000
      7        -11.833164      -11.833165   1.000000   1.000000
      8        -11.155785      -11.155784   1.000000   1.000000
      9        -11.155749      -11.155748   1.000000   1.000000
     10        -10.627864      -10.627864   1.000000   1.000000
     11         -8.990978       -8.990977   1.000000   1.000000
     12         -8.990763       -8.990763   1.000000   1.000000
     13         -8.849680       -8.849679   1.000000   1.000000
     14         -8.281238       -8.281238   1.000000   1.000000
     15         -7.893832       -7.893832   1.000000   1.000000
     16         -6.935711       -6.935711   1.000000   1.000000
     17         -6.648591       -6.648591   1.000000   1.000000
     18         -6.357707       -6.357707   1.000000   1.000000
     19         -5.785862       -5.785862   1.000000   1.000000
     20         -5.752500       -5.752499   1.000000   1.000000
     21         -5.368609       -5.368609   1.000000   1.000000
     22         -4.916018       -4.916018   1.000000   1.000000
     23         -4.581550       -4.581550   1.000000   1.000000
     24         -3.903795       -3.903794   1.000000   1.000000
     25         -3.440149       -3.440150   1.000000   1.000000
     26         -3.112083       -3.112084   1.000000   1.000000
     27         -3.080170       -3.080171   1.000000   1.000000
     28         -1.081541       -1.081540   1.000000   1.000000
     29         -0.008002       -0.008000   0.000331   0.000331
     30          2.420512        2.420512   0.000000   0.000000
     31          2.430602        2.430602   0.000000   0.000000
     32          3.863512        3.863535   0.000000   0.000000
     33          4.636938        4.636938   0.000000   0.000000
     34          4.639421        4.639460   0.000000   0.000000
     35          4.846240        4.846246   0.000000   0.000000
     36          4.999991        4.999986   0.000000   0.000000
     37          5.186980        5.187014   0.000000   0.000000
     38          5.645517        5.645645   0.000000   0.000000
     39          5.823632        5.823650   0.000000   0.000000
     40          5.863688        5.863688   0.000000   0.000000
     41          6.205529        6.205809   0.000000   0.000000
     42          6.460009        6.460017   0.000000   0.000000
     43          6.897927        6.898134   0.000000   0.000000
     44          6.992486        6.992487   0.000000   0.000000
     45          7.091155        7.091171   0.000000   0.000000
     46          7.638195        7.638261   0.000000   0.000000
     47          7.878407        7.878655   0.000000   0.000000
     48          8.005340        8.005345   0.000000   0.000000
 
  0.5000000E+00 -0.7634451E-16  0.0000000E+00  0.2083333E-01
      1        -18.444118      -18.444118   1.000000   1.000000
      2        -18.439445      -18.439444   1.000000   1.000000
      3        -15.598223      -15.598222   1.000000   1.000000
      4        -15.596783      -15.596783   1.000000   1.000000
      5        -15.093416      -15.093417   1.000000   1.000000
      6        -14.289318      -14.289319   1.000000   1.000000
      7        -11.852473      -11.852473   1.000000   1.000000
      8        -10.848959      -10.848958   1.000000   1.000000
      9        -10.848553      -10.848553   1.000000   1.000000
     10        -10.656233      -10.656234   1.000000   1.000000
     11         -9.307906       -9.307905   1.000000   1.000000
     12         -9.307484       -9.307484   1.000000   1.000000
     13         -8.058258       -8.058258   1.000000   1.000000
     14         -7.753183       -7.753183   1.000000   1.000000
     15         -7.737206       -7.737206   1.000000   1.000000
     16         -7.735624       -7.735623   1.000000   1.000000
     17         -6.601609       -6.601609   1.000000   1.000000
     18         -6.370309       -6.370310   1.000000   1.000000
     19         -6.299087       -6.299087   1.000000   1.000000
     20         -5.355520       -5.355520   1.000000   1.000000
     21         -5.351950       -5.351950   1.000000   1.000000
     22         -5.119800       -5.119799   1.000000   1.000000
     23         -4.789329       -4.789329   1.000000   1.000000
     24         -4.251409       -4.251408   1.000000   1.000000
     25         -3.429494       -3.429494   1.000000   1.000000
     26         -3.137332       -3.137332   1.000000   1.000000
     27         -3.109435       -3.109435   1.000000   1.000000
     28         -1.131053       -1.131052   1.000000   1.000000
     29         -0.042523       -0.042522   0.001768   0.001768
     30          2.508717        2.508717   0.000000   0.000000
     31          2.518706        2.518706   0.000000   0.000000
     32          4.378364        4.378389   0.000000   0.000000
     33          4.454900        4.454914   0.000000   0.000000
     34          4.805044        4.805056   0.000000   0.000000
     35          5.246168        5.246235   0.000000   0.000000
     36          5.428709        5.428636   0.000000   0.000000
     37          5.487227        5.487227   0.000000   0.000000
     38          5.621526        5.621560   0.000000   0.000000
     39          5.816375        5.816375   0.000000   0.000000
     40          5.853384        5.853530   0.000000   0.000000
     41          6.347488        6.347803   0.000000   0.000000
     42          6.621775        6.621775   0.000000   0.000000
     43          6.693410        6.693525   0.000000   0.000000
     44          6.996837        6.996909   0.000000   0.000000
     45          7.026708        7.026717   0.000000   0.000000
     46          7.107369        7.107438   0.000000   0.000000
     47          7.442782        7.443024   0.000000   0.000000
     48          7.650391        7.650394   0.000000   0.000000
 
  0.8333333E-01  0.8333333E-01  0.0000000E+00  0.4166667E-01
      1        -19.795736      -19.795735   1.000000   1.000000
      2        -15.865503      -15.865503   1.000000   1.000000
      3        -15.491539      -15.491539   1.000000   1.000000
      4        -15.487682      -15.487682   1.000000   1.000000
      5        -14.508854      -14.508854   1.000000   1.000000
      6        -13.503682      -13.503682   1.000000   1.000000
      7        -12.561471      -12.561471   1.000000   1.000000
      8        -12.545373      -12.545373   1.000000   1.000000
      9        -12.541369      -12.541369   1.000000   1.000000
     10        -11.593709      -11.593709   1.000000   1.000000
     11        -10.724608      -10.724608   1.000000   1.000000
     12         -9.411440       -9.411440   1.000000   1.000000
     13         -8.992878       -8.992879   1.000000   1.000000
     14         -8.017962       -8.017963   1.000000   1.000000
     15         -7.267636       -7.267636   1.000000   1.000000
     16         -6.908173       -6.908174   1.000000   1.000000
     17         -6.783566       -6.783565   1.000000   1.000000
     18         -6.782644       -6.782643   1.000000   1.000000
     19         -6.463554       -6.463553   1.000000   1.000000
     20         -3.805113       -3.805112   1.000000   1.000000
     21         -3.588382       -3.588382   1.000000   1.000000
     22         -3.273450       -3.273451   1.000000   1.000000
     23         -3.226335       -3.226335   1.000000   1.000000
     24         -2.585159       -2.585159   1.000000   1.000000
     25         -2.360136       -2.360136   1.000000   1.000000
     26         -2.178325       -2.178325   1.000000   1.000000
     27         -1.358772       -1.358771   1.000000   1.000000
     28         -0.452568       -0.452568   0.998024   0.998024
     29          0.624313        0.624313   0.000000   0.000000
     30          1.060050        1.060051   0.000000   0.000000
     31          1.506053        1.506053   0.000000   0.000000
     32          1.519551        1.519551   0.000000   0.000000
     33          2.010997        2.010997   0.000000   0.000000
     34          2.055690        2.055690   0.000000   0.000000
     35          3.029535        3.029570   0.000000   0.000000
     36          3.051271        3.051271   0.000000   0.000000
     37          3.402091        3.402144   0.000000   0.000000
     38          3.871016        3.871051   0.000000   0.000000
     39          4.984538        4.984736   0.000000   0.000000
     40          5.100489        5.100720   0.000000   0.000000
     41          7.231842        7.232074   0.000000   0.000000
     42          7.438329        7.438330   0.000000   0.000000
     43          7.443179        7.443179   0.000000   0.000000
     44          7.844419        7.844438   0.000000   0.000000
     45          7.931514        7.931515   0.000000   0.000000
     46          8.095056        8.095096   0.000000   0.000000
     47          8.223275        8.223286   0.000000   0.000000
     48          8.646777        8.647865   0.000000   0.000000
 
  0.1666667E+00  0.8333333E-01  0.0000000E+00  0.8333333E-01
      1        -19.630485      -19.630484   1.000000   1.000000
      2        -16.248699      -16.248699   1.000000   1.000000
      3        -15.789539      -15.789539   1.000000   1.000000
      4        -15.734269      -15.734269   1.000000   1.000000
      5        -14.545789      -14.545789   1.000000   1.000000
      6        -13.191397      -13.191397   1.000000   1.000000
      7        -13.034971      -13.034972   1.000000   1.000000
      8        -11.988316      -11.988316   1.000000   1.000000
      9        -11.723973      -11.723973   1.000000   1.000000
     10        -11.545573      -11.545572   1.000000   1.000000
     11        -10.406578      -10.406579   1.000000   1.000000
     12         -9.407393       -9.407393   1.000000   1.000000
     13         -8.684281       -8.684282   1.000000   1.000000
     14         -7.843919       -7.843918   1.000000   1.000000
     15         -7.815271       -7.815271   1.000000   1.000000
     16         -7.100593       -7.100592   1.000000   1.000000
     17         -6.619625       -6.619624   1.000000   1.000000
     18         -6.533601       -6.533601   1.000000   1.000000
     19         -6.261718       -6.261718   1.000000   1.000000
     20         -4.394512       -4.394512   1.000000   1.000000
     21         -3.948830       -3.948831   1.000000   1.000000
     22         -3.920946       -3.920946   1.000000   1.000000
     23         -3.487306       -3.487306   1.000000   1.000000
     24         -3.070257       -3.070257   1.000000   1.000000
     25         -2.793537       -2.793537   1.000000   1.000000
     26         -2.459136       -2.459136   1.000000   1.000000
     27         -2.052896       -2.052896   1.000000   1.000000
     28         -0.835953       -0.835952   1.000000   1.000000
     29          0.695794        0.695795   0.000000   0.000000
     30          1.245290        1.245290   0.000000   0.000000
     31          1.946851        1.946852   0.000000   0.000000
     32          2.191519        2.191520   0.000000   0.000000
     33          2.485200        2.485200   0.000000   0.000000
     34          2.940566        2.940566   0.000000   0.000000
     35          3.371429        3.371500   0.000000   0.000000
     36          3.846286        3.846286   0.000000   0.000000
     37          3.949942        3.949924   0.000000   0.000000
     38          4.233815        4.233907   0.000000   0.000000
     39          5.274889        5.275246   0.000000   0.000000
     40          5.506858        5.506901   0.000000   0.000000
     41          7.094574        7.094604   0.000000   0.000000
     42          7.467791        7.467980   0.000000   0.000000
     43          7.512139        7.512152   0.000000   0.000000
     44          7.916991        7.917001   0.000000   0.000000
     45          7.998313        7.998345   0.000000   0.000000
     46          8.026973        8.027051   0.000000   0.000000
     47          8.118128        8.118122   0.000000   0.000000
     48          8.335813        8.335830   0.000000   0.000000
 
  0.2500000E+00  0.8333333E-01  0.0000000E+00  0.8333333E-01
      1        -19.383167      -19.383166   1.000000   1.000000
      2        -16.954720      -16.954720   1.000000   1.000000
      3        -16.017714      -16.017713   1.000000   1.000000
      4        -15.547986      -15.547987   1.000000   1.000000
      5        -14.695600      -14.695599   1.000000   1.000000
      6        -13.507988      -13.507989   1.000000   1.000000
      7        -12.646249      -12.646249   1.000000   1.000000
      8        -11.854404      -11.854404   1.000000   1.000000
      9        -11.385992      -11.385992   1.000000   1.000000
     10        -10.487292      -10.487292   1.000000   1.000000
     11        -10.325551      -10.325551   1.000000   1.000000
     12         -9.105332       -9.105332   1.000000   1.000000
     13         -8.522060       -8.522060   1.000000   1.000000
     14         -8.310590       -8.310590   1.000000   1.000000
     15         -7.585267       -7.585267   1.000000   1.000000
     16         -7.515649       -7.515649   1.000000   1.000000
     17         -6.378571       -6.378571   1.000000   1.000000
     18         -6.284633       -6.284634   1.000000   1.000000
     19         -5.969698       -5.969698   1.000000   1.000000
     20         -5.198177       -5.198176   1.000000   1.000000
     21         -4.679566       -4.679566   1.000000   1.000000
     22         -4.344519       -4.344518   1.000000   1.000000
     23         -3.781547       -3.781547   1.000000   1.000000