Lattice                                 
           1
     4.252185    2.455000    0.000000
    -4.252185    2.455000    0.000000
     0.000000    0.000000   15.000000
   B    C 
     8     8
Direct configuration=     1
   0.66888689  0.00000000  0.10000000
   0.33111211  0.00000000  0.10000000
   0.00000000  0.33111211  0.10000000
   0.00000000  0.66888689  0.10000000
   0.33111211  0.33111211  0.10000000
   0.66888689  0.66888689  0.10000000
   0.66666600  0.33333300  0.09922189
   0.33333300  0.66666600  0.10077811
   0.16666600  0.33333300  0.46773333
   0.33333300  0.16666600  0.46773333
   0.16666600  0.83333300  0.46773333
   0.33333300  0.66666600  0.46773333
   0.66666600  0.33333300  0.46773333
   0.83333300  0.16666600  0.46773333
   0.66666600  0.83333300  0.46773333
   0.83333300  0.66666600  0.46773333
Direct configuration=     2
   0.67246403  0.00000010  0.10002754
   0.32753507  0.00000010  0.10002754
  -0.00000010  0.32753497  0.10002754
  -0.00000010  0.67246393  0.10002754
   0.32753507  0.32753497  0.10002754
   0.67246403  0.67246393  0.10002754
   0.66666600  0.33333300  0.09922390
   0.33333300  0.66666600  0.10083495
   0.16666357  0.33332814  0.46770530
   0.33332826  0.16666363  0.46770533
   0.16666357  0.83333543  0.46770530
   0.33333300  0.66666600  0.46770528
   0.66666600  0.33333300  0.46770536
   0.83333537  0.16666363  0.46770533
   0.66667086  0.83333543  0.46770530
   0.83333537  0.66667074  0.46770533
Direct configuration=     3
   0.67050859  0.00000005  0.10001249
   0.32949045  0.00000005  0.10001249
  -0.00000005  0.32949041  0.10001249
  -0.00000005  0.67050855  0.10001249
   0.32949045  0.32949041  0.10001249
   0.67050859  0.67050855  0.10001249
   0.66666600  0.33333300  0.09922280
   0.33333300  0.66666600  0.10080388
   0.16666490  0.33333080  0.46772063
   0.33333085  0.16666492  0.46772064
   0.16666490  0.83333410  0.46772063
   0.33333300  0.66666600  0.46772062
   0.66666600  0.33333300  0.46772065
   0.83333408  0.16666492  0.46772064
   0.66666820  0.83333410  0.46772063
   0.83333408  0.66666815  0.46772064
Direct configuration=     4
   0.67050983  0.00000005  0.10001250
   0.32948921  0.00000005  0.10001250
  -0.00000005  0.32948917  0.10001250
  -0.00000005  0.67050979  0.10001250
   0.32948921  0.32948917  0.10001250
   0.67050983  0.67050979  0.10001250
   0.66666600  0.33333300  0.09922280
   0.33333300  0.66666600  0.10080390
   0.16666490  0.33333079  0.46772062
   0.33333085  0.16666492  0.46772063
   0.16666490  0.83333410  0.46772062
   0.33333300  0.66666600  0.46772061
   0.66666600  0.33333300  0.46772064
   0.83333408  0.16666492  0.46772063
   0.66666821  0.83333410  0.46772062
   0.83333408  0.66666815  0.46772063
Direct configuration=     5
   0.67050940  0.00000005  0.10001249
   0.32948964  0.00000005  0.10001249
  -0.00000005  0.32948960  0.10001249
  -0.00000005  0.67050936  0.10001249
   0.32948964  0.32948960  0.10001249
   0.67050940  0.67050936  0.10001249
   0.66666600  0.33333300  0.09922280
   0.33333300  0.66666600  0.10080389
   0.16666490  0.33333079  0.46772062
   0.33333085  0.16666492  0.46772063
   0.16666490  0.83333410  0.46772062
   0.33333300  0.66666600  0.46772061
   0.66666600  0.33333300  0.46772065
   0.83333408  0.16666492  0.46772063
   0.66666821  0.83333410  0.46772062
   0.83333408  0.66666815  0.46772063
Direct configuration=     6
   0.67050928  0.00000001  0.10003720
   0.32948974  0.00000001  0.10003720
  -0.00000001  0.32948972  0.10003720
  -0.00000001  0.67050926  0.10003720
   0.32948974  0.32948972  0.10003720
   0.67050928  0.67050926  0.10003720
   0.66666600  0.33333300  0.09923010
   0.33333300  0.66666600  0.10084807
   0.16666663  0.33333427  0.46769564
   0.33333424  0.16666662  0.46769567
   0.16666663  0.83333237  0.46769564
   0.33333300  0.66666600  0.46769563
   0.66666600  0.33333300  0.46769573
   0.83333238  0.16666662  0.46769567
   0.66666473  0.83333237  0.46769564
   0.83333238  0.66666476  0.46769567
Direct configuration=     7
   0.67050891 -0.00000008  0.10011132
   0.32949001 -0.00000008  0.10011132
   0.00000008  0.32949009  0.10011132
   0.00000008  0.67050899  0.10011132
   0.32949001  0.32949009  0.10011132
   0.67050891  0.67050899  0.10011132
   0.66666600  0.33333300  0.09925198
   0.33333300  0.66666600  0.10098060
   0.16667185  0.33334469  0.46762070
   0.33334441  0.16667170  0.46762078
   0.16667185  0.83332715  0.46762070
   0.33333300  0.66666600  0.46762071
   0.66666600  0.33333300  0.46762098
   0.83332730  0.16667170  0.46762078
   0.66665431  0.83332715  0.46762070
   0.83332730  0.66665459  0.46762078
Direct configuration=     8
   0.67050816 -0.00000027  0.10025957
   0.32949056 -0.00000027  0.10025957
   0.00000027  0.32949084  0.10025957
   0.00000027  0.67050844  0.10025957
   0.32949056  0.32949084  0.10025957
   0.67050816  0.67050844  0.10025957
   0.66666600  0.33333300  0.09929575
   0.33333300  0.66666600  0.10124567
   0.16668227  0.33336554  0.46747082
   0.33336475  0.16668187  0.46747101
   0.16668227  0.83331673  0.46747082
   0.33333300  0.66666600  0.46747086
   0.66666600  0.33333300  0.46747149
   0.83331713  0.16668187  0.46747101
   0.66663346  0.83331673  0.46747082
   0.83331713  0.66663425  0.46747101
Direct configuration=     9
   0.67050668 -0.00000066  0.10055606
   0.32949167 -0.00000066  0.10055606
   0.00000066  0.32949232  0.10055606
   0.00000066  0.67050733  0.10055606
   0.32949167  0.32949232  0.10055606
   0.67050668  0.67050733  0.10055606
   0.66666600  0.33333300  0.09938329
   0.33333300  0.66666600  0.10177580
   0.16670311  0.33340723  0.46717106
   0.33340543  0.16670222  0.46717147
   0.16670311  0.83329589  0.46717106
   0.33333300  0.66666600  0.46717115
   0.66666600  0.33333300  0.46717249
   0.83329678  0.16670222  0.46717147
   0.66659177  0.83329589  0.46717106
   0.83329678  0.66659357  0.46717147
Direct configuration=    10
   0.67050370 -0.00000143  0.10114904
   0.32949387 -0.00000143  0.10114904
   0.00000143  0.32949530  0.10114904
   0.00000143  0.67050513  0.10114904
   0.32949387  0.32949530  0.10114904
   0.67050370  0.67050513  0.10114904
   0.66666600  0.33333300  0.09955836
   0.33333300  0.66666600  0.10283606
   0.16674480  0.33349060  0.46657153
   0.33348679  0.16674290  0.46657238
   0.16674480  0.83325420  0.46657153
   0.33333300  0.66666600  0.46657174
   0.66666600  0.33333300  0.46657450
   0.83325610  0.16674290  0.46657238
   0.66650840  0.83325420  0.46657153
   0.83325610  0.66651221  0.46657238
Direct configuration=    11
   0.67049776 -0.00000296  0.10233501
   0.32949828 -0.00000296  0.10233501
   0.00000296  0.32950124  0.10233501
   0.00000296  0.67050072  0.10233501
   0.32949828  0.32950124  0.10233501
   0.67049776  0.67050072  0.10233501
   0.66666600  0.33333300  0.09990851
   0.33333300  0.66666600  0.10495658
   0.16682818  0.33365736  0.46537248
   0.33364952  0.16682426  0.46537420
   0.16682818  0.83317082  0.46537248
   0.33333300  0.66666600  0.46537292
   0.66666600  0.33333300  0.46537853
   0.83317474  0.16682426  0.46537420
   0.66634164  0.83317082  0.46537248
   0.83317474  0.66634948  0.46537420
Direct configuration=    12
   0.67048587 -0.00000603  0.10470694
   0.32950710 -0.00000603  0.10470694
   0.00000603  0.32951313  0.10470694
   0.00000603  0.67049190  0.10470694
   0.32950710  0.32951313  0.10470694
   0.67048587  0.67049190  0.10470694
   0.66666600  0.33333300  0.10060881
   0.33333300  0.66666600  0.10919762
   0.16699494  0.33399088  0.46297439
   0.33397497  0.16698699  0.46297785
   0.16699494  0.83300406  0.46297439
   0.33333300  0.66666600  0.46297528
   0.66666600  0.33333300  0.46298657
   0.83301201  0.16698699  0.46297785
   0.66600812  0.83300406  0.46297439
   0.83301201  0.66602403  0.46297785
Direct configuration=    13
   0.67046208 -0.00001217  0.10945081
   0.32952474 -0.00001217  0.10945081
   0.00001217  0.32953692  0.10945081
   0.00001217  0.67047426  0.10945081
   0.32952474  0.32953692  0.10945081
   0.67046208  0.67047426  0.10945081
   0.66666600  0.33333300  0.10200940
   0.33333300  0.66666600  0.11767971
   0.16732846  0.33465792  0.45817820
   0.33462588  0.16731244  0.45818515
   0.16732846  0.83267054  0.45817820
   0.33333300  0.66666600  0.45818000
   0.66666600  0.33333300  0.45820267
   0.83268656  0.16731244  0.45818515
   0.66534108  0.83267054  0.45817820
   0.83268656  0.66537312  0.45818515
Direct configuration=    14
   0.67041451 -0.00002446  0.11893853
   0.32956003 -0.00002446  0.11893853
   0.00002446  0.32958449  0.11893853
   0.00002446  0.67043897  0.11893853
   0.32956003  0.32958449  0.11893853
   0.67041451  0.67043897  0.11893853
   0.66666600  0.33333300  0.10481059
   0.33333300  0.66666600  0.13464388
   0.16799550  0.33599199  0.44858581
   0.33592769  0.16796334  0.44859975
   0.16799550  0.83200350  0.44858581
   0.33333300  0.66666600  0.44858944
   0.66666600  0.33333300  0.44863486
   0.83203566  0.16796334  0.44859975
   0.66400701  0.83200350  0.44858581
   0.83203566  0.66407131  0.44859975
Direct configuration=    15
   0.67040049 -0.00002808  0.12173648
   0.32957043 -0.00002808  0.12173648
   0.00002808  0.32959851  0.12173648
   0.00002808  0.67042857  0.12173648
   0.32957043  0.32959851  0.12173648
   0.67040049  0.67042857  0.12173648
   0.66666600  0.33333300  0.10563667
   0.33333300  0.66666600  0.13964664
   0.16819221  0.33638541  0.44575700
   0.33631159  0.16815530  0.44577301
   0.16819221  0.83180679  0.44575700
   0.33333300  0.66666600  0.44576117
   0.66666600  0.33333300  0.44581330
   0.83184370  0.16815530  0.44577301
   0.66361359  0.83180679  0.44575700
   0.83184370  0.66368741  0.44577301
Direct configuration=    16
   0.67041054 -0.00002549  0.11973169
   0.32956298 -0.00002549  0.11973169
   0.00002549  0.32958846  0.11973169
   0.00002549  0.67043602  0.11973169
   0.32956298  0.32958846  0.11973169
   0.67041054  0.67043602  0.11973169
   0.66666600  0.33333300  0.10504477
   0.33333300  0.66666600  0.13606206
   0.16805126  0.33610352  0.44778390
   0.33603652  0.16801776  0.44779843
   0.16805126  0.83194774  0.44778390
   0.33333300  0.66666600  0.44778769
   0.66666600  0.33333300  0.44783501
   0.83198124  0.16801776  0.44779843
   0.66389548  0.83194774  0.44778390
   0.83198124  0.66396248  0.44779843
Direct configuration=    17
   0.67041052 -0.00002549  0.11973252
   0.32956299 -0.00002549  0.11973252
   0.00002549  0.32958848  0.11973252
   0.00002549  0.67043601  0.11973252
   0.32956299  0.32958848  0.11973252
   0.67041052  0.67043601  0.11973252
   0.66666600  0.33333300  0.10504501
   0.33333300  0.66666600  0.13606354
   0.16805128  0.33610357  0.44778306
   0.33603656  0.16801778  0.44779759
   0.16805128  0.83194772  0.44778306
   0.33333300  0.66666600  0.44778684
   0.66666600  0.33333300  0.44783417
   0.83198122  0.16801778  0.44779759
   0.66389543  0.83194772  0.44778306
   0.83198122  0.66396244  0.44779759
Direct configuration=    18
   0.67041045 -0.00002550  0.11973502
   0.32956305 -0.00002550  0.11973502
   0.00002550  0.32958855  0.11973502
   0.00002550  0.67043595  0.11973502
   0.32956305  0.32958855  0.11973502
   0.67041045  0.67043595  0.11973502
   0.66666600  0.33333300  0.10504575
   0.33333300  0.66666600  0.13606801
   0.16805135  0.33610371  0.44778054
   0.33603670  0.16801785  0.44779507
   0.16805135  0.83194765  0.44778054
   0.33333300  0.66666600  0.44778432
   0.66666600  0.33333300  0.44783165
   0.83198115  0.16801785  0.44779507
   0.66389529  0.83194765  0.44778054
   0.83198115  0.66396230  0.44779507
Direct configuration=    19
   0.67041032 -0.00002552  0.11974002
   0.32956316 -0.00002552  0.11974002
   0.00002552  0.32958868  0.11974002
   0.00002552  0.67043584  0.11974002
   0.32956316  0.32958868  0.11974002
   0.67041032  0.67043584  0.11974002
   0.66666600  0.33333300  0.10504722
   0.33333300  0.66666600  0.13607694
   0.16805149  0.33610398  0.44777548
   0.33603697  0.16801799  0.44779002
   0.16805149  0.83194751  0.44777548
   0.33333300  0.66666600  0.44777927
   0.66666600  0.33333300  0.44782661
   0.83198101  0.16801799  0.44779002
   0.66389502  0.83194751  0.44777548
   0.83198101  0.66396203  0.44779002
Direct configuration=    20
   0.67041005 -0.00002556  0.11975002
   0.32956339 -0.00002556  0.11975002
   0.00002556  0.32958895  0.11975002
   0.00002556  0.67043561  0.11975002
   0.32956339  0.32958895  0.11975002
   0.67041005  0.67043561  0.11975002
   0.66666600  0.33333300  0.10505017
   0.33333300  0.66666600  0.13609479
   0.16805177  0.33610454  0.44776538
   0.33603751  0.16801826  0.44777992
   0.16805177  0.83194723  0.44776538
   0.33333300  0.66666600  0.44776917
   0.66666600  0.33333300  0.44781653
   0.83198074  0.16801826  0.44777992
   0.66389446  0.83194723  0.44776538
   0.83198074  0.66396149  0.44777992
Direct configuration=    21
   0.67040953 -0.00002564  0.11977001
   0.32956384 -0.00002564  0.11977001
   0.00002564  0.32958947  0.11977001
   0.00002564  0.67043516  0.11977001
   0.32956384  0.32958947  0.11977001
   0.67040953  0.67043516  0.11977001
   0.66666600  0.33333300  0.10505607
   0.33333300  0.66666600  0.13613050
   0.16805233  0.33610565  0.44774518
   0.33603860  0.16801880  0.44775973
   0.16805233  0.83194667  0.44774518
   0.33333300  0.66666600  0.44774897
   0.66666600  0.33333300  0.44779637
   0.83198020  0.16801880  0.44775973
   0.66389335  0.83194667  0.44774518
   0.83198020  0.66396040  0.44775973
Direct configuration=    22
   0.67040847 -0.00002579  0.11980999
   0.32956474 -0.00002579  0.11980999
   0.00002579  0.32959053  0.11980999
   0.00002579  0.67043426  0.11980999
   0.32956474  0.32959053  0.11980999
   0.67040847  0.67043426  0.11980999
   0.66666600  0.33333300  0.10506786
   0.33333300  0.66666600  0.13620193
   0.16805344  0.33610787  0.44770477
   0.33604077  0.16801988  0.44771935
   0.16805344  0.83194556  0.44770477
   0.33333300  0.66666600  0.44770856
   0.66666600  0.33333300  0.44775606
   0.83197912  0.16801988  0.44771935
   0.66389113  0.83194556  0.44770477
   0.83197912  0.66395823  0.44771935
Direct configuration=    23
   0.67040636 -0.00002611  0.11988995
   0.32956653 -0.00002611  0.11988995
   0.00002611  0.32959264  0.11988995
   0.00002611  0.67043247  0.11988995
   0.32956653  0.32959264  0.11988995
   0.67040636  0.67043247  0.11988995
   0.66666600  0.33333300  0.10509144
   0.33333300  0.66666600  0.13634477
   0.16805566  0.33611232  0.44762395
   0.33604511  0.16802206  0.44763859
   0.16805566  0.83194334  0.44762395
   0.33333300  0.66666600  0.44762775
   0.66666600  0.33333300  0.44767543
   0.83197694  0.16802206  0.44763859
   0.66388668  0.83194334  0.44762395
   0.83197694  0.66395389  0.44763859
Direct configuration=    24
   0.67040214 -0.00002674  0.12004987
   0.32957013 -0.00002674  0.12004987
   0.00002674  0.32959686  0.12004987
   0.00002674  0.67042887  0.12004987
   0.32957013  0.32959686  0.12004987
   0.67040214  0.67042887  0.12004987
   0.66666600  0.33333300  0.10513861
   0.33333300  0.66666600  0.13663046
   0.16806011  0.33612121  0.44746231
   0.33605380  0.16802640  0.44747706
   0.16806011  0.83193889  0.44746231
   0.33333300  0.66666600  0.44746613
   0.66666600  0.33333300  0.44751417
   0.83197260  0.16802640  0.44747706
   0.66387779  0.83193889  0.44746231
   0.83197260  0.66394520  0.44747706
Direct configuration=    25
   0.67039370 -0.00002799  0.12036971
   0.32957731 -0.00002799  0.12036971
   0.00002799  0.32960530  0.12036971
   0.00002799  0.67042169  0.12036971
   0.32957731  0.32960530  0.12036971
   0.67039370  0.67042169  0.12036971
   0.66666600  0.33333300  0.10523295
   0.33333300  0.66666600  0.13720184
   0.16806900  0.33613900  0.44713903
   0.33607116  0.16803508  0.44715400
   0.16806900  0.83193000  0.44713903
   0.33333300  0.66666600  0.44714289
   0.66666600  0.33333300  0.44719164
   0.83196392  0.16803508  0.44715400
   0.66386000  0.83193000  0.44713903
   0.83196392  0.66392784  0.44715400
Direct configuration=    26
   0.67037681 -0.00003050  0.12100939
   0.32959169 -0.00003050  0.12100939
   0.00003050  0.32962219  0.12100939
   0.00003050  0.67040731  0.12100939
   0.32959169  0.32962219  0.12100939
   0.67037681  0.67040731  0.12100939
   0.66666600  0.33333300  0.10542162
   0.33333300  0.66666600  0.13834460
   0.16808678  0.33617457  0.44649248
   0.33610590  0.16805245  0.44650789
   0.16808678  0.83191222  0.44649248
   0.33333300  0.66666600  0.44649641
   0.66666600  0.33333300  0.44654660
   0.83194655  0.16805245  0.44650789
   0.66382443  0.83191222  0.44649248
   0.83194655  0.66389310  0.44650789
Direct configuration=    27
   0.67034304 -0.00003552  0.12228875
   0.32962044 -0.00003552  0.12228875
   0.00003552  0.32965596  0.12228875
   0.00003552  0.67037856  0.12228875
   0.32962044  0.32965596  0.12228875
   0.67034304  0.67037856  0.12228875
   0.66666600  0.33333300  0.10579897
   0.33333300  0.66666600  0.14063012
   0.16812235  0.33624570  0.44519936
   0.33617537  0.16808718  0.44521566
   0.16812235  0.83187665  0.44519936
   0.33333300  0.66666600  0.44520345
   0.66666600  0.33333300  0.44525652
   0.83191182  0.16808718  0.44521566
   0.66375330  0.83187665  0.44519936
   0.83191182  0.66382363  0.44521566
Direct configuration=    28
   0.67027549 -0.00004557  0.12484748
   0.32967794 -0.00004557  0.12484748
   0.00004557  0.32972351  0.12484748
   0.00004557  0.67032106  0.12484748
   0.32967794  0.32972351  0.12484748
   0.67027549  0.67032106  0.12484748
   0.66666600  0.33333300  0.10655366
   0.33333300  0.66666600  0.14520117
   0.16819349  0.33638798  0.44261314
   0.33631431  0.16815666  0.44263121
   0.16819349  0.83180551  0.44261314
   0.33333300  0.66666600  0.44261753
   0.66666600  0.33333300  0.44267635
   0.83184234  0.16815666  0.44263121
   0.66361102  0.83180551  0.44261314
   0.83184234  0.66368469  0.44263121
Direct configuration=    29
   0.67030002 -0.00004192  0.12391819
   0.32965706 -0.00004192  0.12391819
   0.00004192  0.32969898  0.12391819
   0.00004192  0.67034194  0.12391819
   0.32965706  0.32969898  0.12391819
   0.67030002  0.67034194  0.12391819
   0.66666600  0.33333300  0.10627957
   0.33333300  0.66666600  0.14354104
   0.16816765  0.33633630  0.44355242
   0.33626385  0.16813143  0.44356984
   0.16816765  0.83183135  0.44355242
   0.33333300  0.66666600  0.44355670
   0.66666600  0.33333300  0.44361343
   0.83186757  0.16813143  0.44356984
   0.66366270  0.83183135  0.44355242
   0.83186757  0.66373515  0.44356984
Direct configuration=    30
   0.67027505 -0.00004519  0.12401321
   0.32967875 -0.00004519  0.12401321
   0.00004519  0.32972395  0.12401321
   0.00004519  0.67032025  0.12401321
   0.32967875  0.32972395  0.12401321
   0.67027505  0.67032025  0.12401321
   0.66666600  0.33333300  0.10630946
   0.33333300  0.66666600  0.14370660
   0.16813168  0.33626436  0.44345672
   0.33619372  0.16809636  0.44347417
   0.16813168  0.83186732  0.44345672
   0.33333300  0.66666600  0.44346094
   0.66666600  0.33333300  0.44351773
   0.83190264  0.16809636  0.44347417
   0.66373464  0.83186732  0.44345672
   0.83190264  0.66380528  0.44347417
Direct configuration=    31
   0.67020015 -0.00005501  0.12429827
   0.32974384 -0.00005501  0.12429827
   0.00005501  0.32979885  0.12429827
   0.00005501  0.67025516  0.12429827
   0.32974384  0.32979885  0.12429827
   0.67020015  0.67025516  0.12429827
   0.66666600  0.33333300  0.10639914
   0.33333300  0.66666600  0.14420329
   0.16802376  0.33604852  0.44316964
   0.33598332  0.16799116  0.44318714
   0.16802376  0.83197524  0.44316964
   0.33333300  0.66666600  0.44317366
   0.66666600  0.33333300  0.44323065
   0.83200784  0.16799116  0.44318714
   0.66395048  0.83197524  0.44316964
   0.83200784  0.66401568  0.44318714
Direct configuration=    32
   0.67005034 -0.00007464  0.12486838
   0.32987402 -0.00007464  0.12486838
   0.00007464  0.32994866  0.12486838
   0.00007464  0.67012498  0.12486838
   0.32987402  0.32994866  0.12486838
   0.67005034  0.67012498  0.12486838
   0.66666600  0.33333300  0.10657851
   0.33333300  0.66666600  0.14519667
   0.16780792  0.33561684  0.44259546
   0.33556253  0.16778076  0.44261308
   0.16780792  0.83219108  0.44259546
   0.33333300  0.66666600  0.44259909
   0.66666600  0.33333300  0.44265649
   0.83221824  0.16778076  0.44261308
   0.66438216  0.83219108  0.44259546
   0.83221824  0.66443647  0.44261308
Direct configuration=    33
   0.66975073 -0.00011390  0.12600861
   0.33013438 -0.00011390  0.12600861
   0.00011390  0.33024827  0.12600861
   0.00011390  0.66986462  0.12600861
   0.33013438  0.33024827  0.12600861
   0.66975073  0.66986462  0.12600861
   0.66666600  0.33333300  0.10693723
   0.33333300  0.66666600  0.14718344
   0.16737624  0.33475348  0.44144711
   0.33472094  0.16735997  0.44146497
   0.16737624  0.83262276  0.44144711
   0.33333300  0.66666600  0.44144996
   0.66666600  0.33333300  0.44150816
   0.83263903  0.16735997  0.44146497
   0.66524552  0.83262276  0.44144711
   0.83263903  0.66527806  0.44146497
Direct configuration=    34
   0.66915150 -0.00019242  0.12828906
   0.33065509 -0.00019242  0.12828906
   0.00019242  0.33084750  0.12828906
   0.00019242  0.66934391  0.12828906
   0.33065509  0.33084750  0.12828906
   0.66915150  0.66934391  0.12828906
   0.66666600  0.33333300  0.10765468
   0.33333300  0.66666600  0.15115697
   0.16651288  0.33302675  0.43915042
   0.33303777  0.16651839  0.43916874
   0.16651288  0.83348612  0.43915042
   0.33333300  0.66666600  0.43915171
   0.66666600  0.33333300  0.43921150
   0.83348061  0.16651839  0.43916874
   0.66697225  0.83348612  0.43915042
   0.83348061  0.66696123  0.43916874
Direct configuration=    35
   0.66924908 -0.00017963  0.12791767
   0.33057029 -0.00017963  0.12791767
   0.00017963  0.33074992  0.12791767
   0.00017963  0.66942871  0.12791767
   0.33057029  0.33074992  0.12791767
   0.66924908  0.66942871  0.12791767
   0.66666600  0.33333300  0.10753784
   0.33333300  0.66666600  0.15050986
   0.16665348  0.33330796  0.43952445
   0.33331189  0.16665544  0.43954270
   0.16665348  0.83334552  0.43952445
   0.33333300  0.66666600  0.43952599
   0.66666600  0.33333300  0.43958552
   0.83334356  0.16665544  0.43954270
   0.66669104  0.83334552  0.43952445
   0.83334356  0.66668711  0.43954270
Direct configuration=    36
   0.66913794 -0.00018914  0.12791856
   0.33067192 -0.00018914  0.12791856
   0.00018914  0.33086106  0.12791856
   0.00018914  0.66932708  0.12791856
   0.33067192  0.33086106  0.12791856
   0.66913794  0.66932708  0.12791856
   0.66666600  0.33333300  0.10758123
   0.33333300  0.66666600  0.15044364
   0.16665776  0.33331651  0.43952714
   0.33332074  0.16665987  0.43954497
   0.16665776  0.83334124  0.43952714
   0.33333300  0.66666600  0.43952797
   0.66666600  0.33333300  0.43958610
   0.83333913  0.16665987  0.43954497
   0.66668249  0.83334124  0.43952714
   0.83333913  0.66667826  0.43954497
Direct configuration=    37
   0.66880451 -0.00021768  0.12792125
   0.33097680 -0.00021768  0.12792125
   0.00021768  0.33119449  0.12792125
   0.00021768  0.66902220  0.12792125
   0.33097680  0.33119449  0.12792125
   0.66880451  0.66902220  0.12792125
   0.66666600  0.33333300  0.10771142
   0.33333300  0.66666600  0.15024498
   0.16667058  0.33334216  0.43953524
   0.33334730  0.16667315  0.43955177
   0.16667058  0.83332842  0.43953524
   0.33333300  0.66666600  0.43953391
   0.66666600  0.33333300  0.43958784
   0.83332585  0.16667315  0.43955177
   0.66665684  0.83332842  0.43953524
   0.83332585  0.66665170  0.43955177
Direct configuration=    38
   0.66813766 -0.00027476  0.12792662
   0.33158658 -0.00027476  0.12792662
   0.00027476  0.33186134  0.12792662
   0.00027476  0.66841242  0.12792662
   0.33158658  0.33186134  0.12792662
   0.66813766  0.66841242  0.12792662
   0.66666600  0.33333300  0.10797179
   0.33333300  0.66666600  0.14984766
   0.16669623  0.33339346  0.43955142
   0.33340041  0.16669971  0.43956539
   0.16669623  0.83330277  0.43955142
   0.33333300  0.66666600  0.43954578
   0.66666600  0.33333300  0.43959132
   0.83329929  0.16669971  0.43956539
   0.66660554  0.83330277  0.43955142
   0.83329929  0.66659859  0.43956539
Direct configuration=    39
   0.66799389 -0.00028707  0.12792777
   0.33171804 -0.00028707  0.12792777
   0.00028707  0.33200511  0.12792777
   0.00028707  0.66828096  0.12792777
   0.33171804  0.33200511  0.12792777
   0.66799389  0.66828096  0.12792777
   0.66666600  0.33333300  0.10802793
   0.33333300  0.66666600  0.14976200
   0.16670176  0.33340452  0.43955491
   0.33341187  0.16670543  0.43956832
   0.16670176  0.83329724  0.43955491
   0.33333300  0.66666600  0.43954834
   0.66666600  0.33333300  0.43959207
   0.83329357  0.16670543  0.43956832
   0.66659448  0.83329724  0.43955491
   0.83329357  0.66658713  0.43956832
Direct configuration=    40
   0.66804806 -0.00025756  0.12794629
   0.33169338 -0.00025756  0.12794629
   0.00025756  0.33195094  0.12794629
   0.00025756  0.66830562  0.12794629
   0.33169338  0.33195094  0.12794629
   0.66804806  0.66830562  0.12794629
   0.66666600  0.33333300  0.10819340
   0.33333300  0.66666600  0.14954959
   0.16667899  0.33335898  0.43954848
   0.33336544  0.16668222  0.43956034
   0.16667899  0.83332001  0.43954848
   0.33333300  0.66666600  0.43954028
   0.66666600  0.33333300  0.43957919
   0.83331678  0.16668222  0.43956034
   0.66664002  0.83332001  0.43954848
   0.83331678  0.66663356  0.43956034
Direct configuration=    41
   0.66821058 -0.00016905  0.12800184
   0.33161938 -0.00016905  0.12800184
   0.00016905  0.33178842  0.12800184
   0.00016905  0.66837962  0.12800184
   0.33161938  0.33178842  0.12800184
   0.66821058  0.66837962  0.12800184
   0.66666600  0.33333300  0.10868983
   0.33333300  0.66666600  0.14891237
   0.16661067  0.33322235  0.43952919
   0.33322616  0.16661258  0.43953639
   0.16661067  0.83338833  0.43952919
   0.33333300  0.66666600  0.43951612
   0.66666600  0.33333300  0.43954057
   0.83338642  0.16661258  0.43953639
   0.66677665  0.83338833  0.43952919
   0.83338642  0.66677284  0.43953639
Direct configuration=    42
   0.66853561  0.00000798  0.12811294
   0.33147137  0.00000798  0.12811294
  -0.00000798  0.33146339  0.12811294
  -0.00000798  0.66852763  0.12811294
   0.33147137  0.33146339  0.12811294
   0.66853561  0.66852763  0.12811294
   0.66666600  0.33333300  0.10968269
   0.33333300  0.66666600  0.14763793
   0.16647404  0.33294908  0.43949060
   0.33294761  0.16647330  0.43948849
   0.16647404  0.83352496  0.43949060
   0.33333300  0.66666600  0.43946780
   0.66666600  0.33333300  0.43946331
   0.83352570  0.16647330  0.43948849
   0.66704992  0.83352496  0.43949060
   0.83352570  0.66705139  0.43948849
Direct configuration=    43
   0.66918568  0.00036205  0.12833514
   0.33117537  0.00036205  0.12833514
  -0.00036205  0.33081332  0.12833514
  -0.00036205  0.66882363  0.12833514
   0.33117537  0.33081332  0.12833514
   0.66918568  0.66882363  0.12833514
   0.66666600  0.33333300  0.11166841
   0.33333300  0.66666600  0.14508906
   0.16620078  0.33240256  0.43941343
   0.33239050  0.16619475  0.43939269
   0.16620078  0.83379822  0.43941343
   0.33333300  0.66666600  0.43937116
   0.66666600  0.33333300  0.43930881
   0.83380425  0.16619475  0.43939269
   0.66759644  0.83379822  0.43941343
   0.83380425  0.66760850  0.43939269
Direct configuration=    44
   0.66890921  0.00021147  0.12824064
   0.33130126  0.00021147  0.12824064
  -0.00021147  0.33108979  0.12824064
  -0.00021147  0.66869774  0.12824064
   0.33130126  0.33108979  0.12824064
   0.66890921  0.66869774  0.12824064
   0.66666600  0.33333300  0.11082389
   0.33333300  0.66666600  0.14617309
   0.16631700  0.33263499  0.43944625
   0.33262743  0.16631322  0.43943343
   0.16631700  0.83368200  0.43944625
   0.33333300  0.66666600  0.43941226
   0.66666600  0.33333300  0.43937452
   0.83368578  0.16631322  0.43943343
   0.66736401  0.83368200  0.43944625
   0.83368578  0.66737157  0.43943343
Direct configuration=    45
   0.66896238  0.00018083  0.12827122
   0.33121746  0.00018083  0.12827122
  -0.00018083  0.33103662  0.12827122
  -0.00018083  0.66878154  0.12827122
   0.33121746  0.33103662  0.12827122
   0.66896238  0.66878154  0.12827122
   0.66666600  0.33333300  0.11104582
   0.33333300  0.66666600  0.14589139
   0.16640835  0.33281769  0.43943179
   0.33281283  0.16640592  0.43941745
   0.16640835  0.83359065  0.43943179
   0.33333300  0.66666600  0.43939826
   0.66666600  0.33333300  0.43935611
   0.83359308  0.16640592  0.43941745
   0.66718131  0.83359065  0.43943179
   0.83359308  0.66718617  0.43941745
Direct configuration=    46
   0.66912189  0.00008894  0.12836298
   0.33096605  0.00008894  0.12836298
  -0.00008894  0.33087711  0.12836298
  -0.00008894  0.66903295  0.12836298
   0.33096605  0.33087711  0.12836298
   0.66912189  0.66903295  0.12836298
   0.66666600  0.33333300  0.11171161
   0.33333300  0.66666600  0.14504630
   0.16668239  0.33336578  0.43938841
   0.33336902  0.16668401  0.43936950
   0.16668239  0.83331661  0.43938841
   0.33333300  0.66666600  0.43935624
   0.66666600  0.33333300  0.43930090
   0.83331499  0.16668401  0.43936950
   0.66663322  0.83331661  0.43938841
   0.83331499  0.66662998  0.43936950
Direct configuration=    47
   0.66912712  0.00008593  0.12836598
   0.33095782  0.00008593  0.12836598
  -0.00008593  0.33087188  0.12836598
  -0.00008593  0.66904118  0.12836598
   0.33095782  0.33087188  0.12836598
   0.66912712  0.66904118  0.12836598
   0.66666600  0.33333300  0.11173343
   0.33333300  0.66666600  0.14501861
   0.16669137  0.33338374  0.43938699
   0.33338725  0.16669312  0.43936793
   0.16669137  0.83330763  0.43938699
   0.33333300  0.66666600  0.43935486
   0.66666600  0.33333300  0.43929909