   8   8   0   0
  0.4338553E+02  0.5169000E-09  0.5169000E-09  0.1500000E-08  0.5000000E-15
  1.000000000000000E-004
  CAR 
 BC3                                     
      9.52941351    -21.28554959  301     -3.47654143      1.00000000
    -21.286  0.0000E+00  0.0000E+00
    -21.183  0.0000E+00  0.0000E+00
    -21.080  0.0000E+00  0.0000E+00
    -20.977  0.0000E+00  0.0000E+00
    -20.875  0.0000E+00  0.0000E+00
    -20.772  0.0000E+00  0.0000E+00
    -20.669  0.0000E+00  0.0000E+00
    -20.567  0.0000E+00  0.0000E+00
    -20.464  0.1985E-18  0.2039E-19
    -20.361  0.1488E-13  0.1528E-14
    -20.258  0.1444E-09  0.1483E-10
    -20.156  0.1913E-06  0.1967E-07
    -20.053  0.3712E-04  0.3832E-05
    -19.950  0.1199E-02  0.1270E-03
    -19.848  0.8108E-02  0.9597E-03
    -19.745  0.1714E-01  0.2720E-02
    -19.642  0.2080E-01  0.4856E-02
    -19.539  0.2343E-01  0.7263E-02
    -19.437  0.2879E-01  0.1022E-01
    -19.334  0.3994E-01  0.1432E-01
    -19.231  0.3925E-01  0.1835E-01
    -19.129  0.1456E-01  0.1985E-01
    -19.026  0.1436E-02  0.2000E-01
    -18.923  0.2904E-04  0.2000E-01
    -18.820  0.9786E-07  0.2000E-01
    -18.718  0.4824E-10  0.2000E-01
    -18.615  0.3240E-14  0.2000E-01
    -18.512  0.0000E+00  0.2000E-01
    -18.409  0.0000E+00  0.2000E-01
    -18.307  0.0000E+00  0.2000E-01
    -18.204  0.1191E-18  0.2000E-01
    -18.101  0.8439E-14  0.2000E-01
    -17.999  0.9837E-10  0.2000E-01
    -17.896  0.1559E-06  0.2000E-01
    -17.793  0.3592E-04  0.2000E-01
    -17.690  0.1360E-02  0.2014E-01
    -17.588  0.1059E-01  0.2123E-01
    -17.485  0.2528E-01  0.2383E-01
    -17.382  0.3226E-01  0.2714E-01
    -17.280  0.2729E-01  0.2994E-01
    -17.177  0.1970E-01  0.3197E-01
    -17.074  0.1846E-01  0.3386E-01
    -16.971  0.1912E-01  0.3583E-01
    -16.869  0.2010E-01  0.3789E-01
    -16.766  0.2148E-01  0.4010E-01
    -16.663  0.2362E-01  0.4252E-01
    -16.561  0.2775E-01  0.4538E-01
    -16.458  0.3445E-01  0.4891E-01
    -16.355  0.3395E-01  0.5240E-01
    -16.252  0.2597E-01  0.5507E-01
    -16.150  0.2055E-01  0.5718E-01
    -16.047  0.1643E-01  0.5887E-01
    -15.944  0.9084E-02  0.5980E-01
    -15.842  0.1856E-02  0.5999E-01
    -15.739  0.8735E-04  0.6000E-01
    -15.636  0.7216E-06  0.6000E-01
    -15.533  0.8980E-09  0.6000E-01
    -15.431  0.1551E-12  0.6000E-01
    -15.328  0.3553E-17  0.6000E-01
    -15.225  0.0000E+00  0.6000E-01
    -15.123  0.0000E+00  0.6000E-01
    -15.020  0.0000E+00  0.6000E-01
    -14.917  0.0000E+00  0.6000E-01
    -14.814  0.0000E+00  0.6000E-01
    -14.712  0.1028E-15  0.6000E-01
    -14.609  0.2560E-11  0.6000E-01
    -14.506  0.8589E-08  0.6000E-01
    -14.404  0.4085E-05  0.6000E-01
    -14.301  0.3020E-03  0.6003E-01
    -14.198  0.4133E-02  0.6046E-01
    -14.095  0.1428E-01  0.6192E-01
    -13.993  0.2104E-01  0.6408E-01
    -13.890  0.2432E-01  0.6658E-01
    -13.787  0.2993E-01  0.6966E-01
    -13.685  0.3536E-01  0.7329E-01
    -13.582  0.2752E-01  0.7612E-01
    -13.479  0.1834E-01  0.7800E-01
    -13.376  0.1565E-01  0.7961E-01
    -13.274  0.1445E-01  0.8109E-01
    -13.171  0.1381E-01  0.8251E-01
    -13.068  0.1330E-01  0.8388E-01
    -12.966  0.1281E-01  0.8519E-01
    -12.863  0.1266E-01  0.8649E-01
    -12.760  0.1445E-01  0.8798E-01
    -12.657  0.1858E-01  0.8988E-01
    -12.555  0.1993E-01  0.9193E-01
    -12.452  0.1888E-01  0.9387E-01
    -12.349  0.1740E-01  0.9566E-01
    -12.246  0.1612E-01  0.9731E-01
    -12.144  0.1512E-01  0.9887E-01
    -12.041  0.1426E-01  0.1003E+00
    -11.938  0.1309E-01  0.1017E+00
    -11.836  0.1014E-01  0.1027E+00
    -11.733  0.5792E-02  0.1033E+00
    -11.630  0.4598E-02  0.1038E+00
    -11.527  0.4493E-02  0.1042E+00
    -11.425  0.4829E-02  0.1047E+00
    -11.322  0.4808E-02  0.1052E+00
    -11.219  0.6526E-02  0.1059E+00
    -11.117  0.7408E-02  0.1067E+00
    -11.014  0.9202E-02  0.1076E+00
    -10.911  0.9241E-02  0.1086E+00
    -10.808  0.1365E-01  0.1100E+00
    -10.706  0.1482E-01  0.1115E+00
    -10.603  0.1679E-01  0.1132E+00
    -10.500  0.1770E-01  0.1150E+00
    -10.398  0.1922E-01  0.1170E+00
    -10.295  0.2275E-01  0.1193E+00
    -10.192  0.2221E-01  0.1216E+00
    -10.089  0.1707E-01  0.1234E+00
     -9.987  0.1299E-01  0.1247E+00
     -9.884  0.1679E-01  0.1264E+00
     -9.781  0.2618E-01  0.1291E+00
     -9.679  0.2690E-01  0.1319E+00
     -9.576  0.2227E-01  0.1342E+00
     -9.473  0.2077E-01  0.1363E+00
     -9.370  0.1840E-01  0.1382E+00
     -9.268  0.1906E-01  0.1402E+00
     -9.165  0.1950E-01  0.1422E+00
     -9.062  0.2178E-01  0.1444E+00
     -8.960  0.2457E-01  0.1469E+00
     -8.857  0.2602E-01  0.1496E+00
     -8.754  0.2500E-01  0.1522E+00
     -8.651  0.2641E-01  0.1549E+00
     -8.549  0.3002E-01  0.1580E+00
     -8.446  0.2821E-01  0.1609E+00
     -8.343  0.2325E-01  0.1632E+00
     -8.241  0.2063E-01  0.1654E+00
     -8.138  0.1997E-01  0.1674E+00
     -8.035  0.2471E-01  0.1699E+00
     -7.932  0.3159E-01  0.1732E+00
     -7.830  0.4002E-01  0.1773E+00
     -7.727  0.4395E-01  0.1818E+00
     -7.624  0.4354E-01  0.1863E+00
     -7.522  0.3884E-01  0.1903E+00
     -7.419  0.2590E-01  0.1929E+00
     -7.316  0.1733E-01  0.1947E+00
     -7.213  0.2004E-01  0.1968E+00
     -7.111  0.2091E-01  0.1989E+00
     -7.008  0.1750E-01  0.2007E+00
     -6.905  0.1616E-01  0.2024E+00
     -6.803  0.1629E-01  0.2041E+00
     -6.700  0.1849E-01  0.2060E+00
     -6.597  0.2693E-01  0.2087E+00
     -6.494  0.4212E-01  0.2131E+00
     -6.392  0.6804E-01  0.2200E+00
     -6.289  0.7946E-01  0.2282E+00
     -6.186  0.5800E-01  0.2342E+00
     -6.084  0.3944E-01  0.2382E+00
     -5.981  0.2698E-01  0.2410E+00
     -5.878  0.2329E-01  0.2434E+00
     -5.775  0.2369E-01  0.2458E+00
     -5.673  0.2422E-01  0.2483E+00
     -5.570  0.2547E-01  0.2509E+00
     -5.467  0.2627E-01  0.2536E+00
     -5.364  0.2797E-01  0.2565E+00
     -5.262  0.2968E-01  0.2595E+00
     -5.159  0.3258E-01  0.2629E+00
     -5.056  0.3705E-01  0.2667E+00
     -4.954  0.4188E-01  0.2710E+00
     -4.851  0.4341E-01  0.2754E+00
     -4.748  0.4737E-01  0.2803E+00
     -4.645  0.4620E-01  0.2851E+00
     -4.543  0.3952E-01  0.2891E+00
     -4.440  0.2800E-01  0.2920E+00
     -4.337  0.1606E-01  0.2936E+00
     -4.235  0.1270E-01  0.2949E+00
     -4.132  0.1206E-01  0.2962E+00
     -4.029  0.1164E-01  0.2974E+00
     -3.926  0.1117E-01  0.2985E+00
     -3.824  0.9430E-02  0.2995E+00
     -3.721  0.4318E-02  0.2999E+00
     -3.618  0.5952E-03  0.3000E+00
     -3.516  0.1685E-04  0.3000E+00
     -3.413  0.4254E-06  0.3000E+00
     -3.310  0.5034E-04  0.3000E+00
     -3.207  0.1267E-02  0.3001E+00
     -3.105  0.7018E-02  0.3009E+00
     -3.002  0.1333E-01  0.3022E+00
     -2.899  0.1600E-01  0.3039E+00
     -2.797  0.1846E-01  0.3058E+00
     -2.694  0.2315E-01  0.3081E+00
     -2.591  0.2687E-01  0.3109E+00
     -2.488  0.2272E-01  0.3132E+00
     -2.386  0.1586E-01  0.3149E+00
     -2.283  0.1266E-01  0.3162E+00
     -2.180  0.9968E-02  0.3172E+00
     -2.078  0.8409E-02  0.3181E+00
     -1.975  0.6374E-02  0.3187E+00
     -1.872  0.4454E-02  0.3192E+00
     -1.769  0.2972E-02  0.3195E+00
     -1.667  0.2286E-02  0.3197E+00
     -1.564  0.1542E-02  0.3199E+00
     -1.461  0.9082E-03  0.3200E+00
     -1.359  0.4512E-03  0.3200E+00
     -1.256  0.4888E-03  0.3201E+00
     -1.153  0.1128E-02  0.3202E+00
     -1.050  0.1685E-02  0.3203E+00
     -0.948  0.2561E-02  0.3206E+00
     -0.845  0.3118E-02  0.3209E+00
     -0.742  0.4212E-02  0.3214E+00
     -0.640  0.4809E-02  0.3219E+00
     -0.537  0.6353E-02  0.3225E+00
     -0.434  0.7136E-02  0.3232E+00
     -0.331  0.9954E-02  0.3243E+00
     -0.229  0.1512E-01  0.3258E+00
     -0.126  0.2804E-01  0.3287E+00
     -0.023  0.2902E-01  0.3317E+00
      0.079  0.2213E-01  0.3339E+00
      0.182  0.1657E-01  0.3357E+00
      0.285  0.1504E-01  0.3372E+00
      0.388  0.1327E-01  0.3386E+00
      0.490  0.1479E-01  0.3401E+00
      0.593  0.1489E-01  0.3416E+00
      0.696  0.1376E-01  0.3430E+00
      0.799  0.1129E-01  0.3442E+00
      0.901  0.1379E-01  0.3456E+00
      1.004  0.1776E-01  0.3474E+00
      1.107  0.1877E-01  0.3493E+00
      1.209  0.1940E-01  0.3513E+00
      1.312  0.2012E-01  0.3534E+00
      1.415  0.2113E-01  0.3556E+00
      1.518  0.2272E-01  0.3579E+00
      1.620  0.2442E-01  0.3604E+00
      1.723  0.2344E-01  0.3628E+00
      1.826  0.2440E-01  0.3653E+00
      1.928  0.2751E-01  0.3682E+00
      2.031  0.3012E-01  0.3713E+00
      2.134  0.3027E-01  0.3744E+00
      2.237  0.3151E-01  0.3776E+00
      2.339  0.3705E-01  0.3814E+00
      2.442  0.3819E-01  0.3853E+00
      2.545  0.3893E-01  0.3893E+00
      2.647  0.3882E-01  0.3933E+00
      2.750  0.3800E-01  0.3972E+00
      2.853  0.3884E-01  0.4012E+00
      2.956  0.3797E-01  0.4051E+00
      3.058  0.3800E-01  0.4090E+00
      3.161  0.3860E-01  0.4130E+00
      3.264  0.3719E-01  0.4168E+00
      3.366  0.3879E-01  0.4208E+00
      3.469  0.3733E-01  0.4246E+00
      3.572  0.3837E-01  0.4286E+00
      3.675  0.3741E-01  0.4324E+00
      3.777  0.3823E-01  0.4363E+00
      3.880  0.3904E-01  0.4403E+00
      3.983  0.4008E-01  0.4445E+00
      4.085  0.3965E-01  0.4485E+00
      4.188  0.3199E-01  0.4518E+00
      4.291  0.3309E-01  0.4552E+00
      4.394  0.4365E-01  0.4597E+00
      4.496  0.4841E-01  0.4647E+00
      4.599  0.4888E-01  0.4697E+00
      4.702  0.4704E-01  0.4745E+00
      4.804  0.5031E-01  0.4797E+00
      4.907  0.5449E-01  0.4853E+00
      5.010  0.5874E-01  0.4913E+00
      5.113  0.6165E-01  0.4976E+00
      5.215  0.6568E-01  0.5044E+00
      5.318  0.7146E-01  0.5117E+00
      5.421  0.7443E-01  0.5194E+00
      5.523  0.8253E-01  0.5279E+00
      5.626  0.7380E-01  0.5354E+00
      5.729  0.6002E-01  0.5416E+00
      5.832  0.6749E-01  0.5485E+00
      5.934  0.7855E-01  0.5566E+00
      6.037  0.7861E-01  0.5647E+00
      6.140  0.7169E-01  0.5720E+00
      6.242  0.6690E-01  0.5789E+00
      6.345  0.7457E-01  0.5866E+00
      6.448  0.7347E-01  0.5941E+00
      6.551  0.6853E-01  0.6012E+00
      6.653  0.6456E-01  0.6078E+00
      6.756  0.6375E-01  0.6143E+00
      6.859  0.6945E-01  0.6215E+00
      6.961  0.6124E-01  0.6278E+00
      7.064  0.4407E-01  0.6323E+00
      7.167  0.2859E-01  0.6352E+00
      7.270  0.1327E-01  0.6366E+00
      7.372  0.9737E-02  0.6376E+00
      7.475  0.7105E-02  0.6383E+00
      7.578  0.4382E-02  0.6388E+00
      7.681  0.3255E-02  0.6391E+00
      7.783  0.2510E-02  0.6394E+00
      7.886  0.2403E-02  0.6396E+00
      7.989  0.2337E-02  0.6398E+00
      8.091  0.1038E-02  0.6400E+00
      8.194  0.3851E-03  0.6400E+00
      8.297  0.6046E-04  0.6400E+00
      8.400  0.2171E-05  0.6400E+00
      8.502  0.1343E-07  0.6400E+00
      8.605  0.1226E-10  0.6400E+00
      8.708  0.1515E-14  0.6400E+00
      8.810  0.1985E-19  0.6400E+00
      8.913  0.0000E+00  0.6400E+00
      9.016  0.0000E+00  0.6400E+00
      9.119  0.0000E+00  0.6400E+00
      9.221  0.0000E+00  0.6400E+00
      9.324  0.0000E+00  0.6400E+00
      9.427  0.0000E+00  0.6400E+00
      9.529  0.0000E+00  0.6400E+00
