<?xml version="1.0" encoding="ISO-8859-1"?>
<modeling>
 <generator>
  <i name="program" type="string">vasp </i>
  <i name="version" type="string">5.4.4.18Apr17-6-g9f103f2a35  </i>
  <i name="subversion" type="string">(build Mar 30 2023 15:39:25) complex            parallel </i>
  <i name="platform" type="string">LinuxIFC </i>
  <i name="date" type="string">2023 09 12 </i>
  <i name="time" type="string">03:44:00 </i>
 </generator>
 <incar>
  <i type="string" name="SYSTEM"> BC3</i>
  <i type="int" name="ISTART">     0</i>
  <i type="string" name="PREC">accurate</i>
  <i type="string" name="ALGO"> Normal</i>
  <i type="int" name="ISPIN">     1</i>
  <i type="int" name="ICHARG">     2</i>
  <i type="int" name="IBRION">     2</i>
  <i name="EDIFF">      0.00000100</i>
  <i name="EDIFFG">     -0.01000000</i>
  <i type="int" name="NSW">   100</i>
  <i type="int" name="ISIF">     2</i>
  <i name="ENCUT">    450.00000000</i>
  <i type="int" name="ISMEAR">     0</i>
  <i name="SIGMA">      0.10000000</i>
  <i type="logical" name="LWAVE"> F  </i>
  <i type="logical" name="LCHARG"> F  </i>
  <v type="int" name="KPOINT_BSE">    -1     0     0     0</v>
  <i type="string" name="GGA"> PE</i>
 </incar>
 <structure name="primitive_cell" >
  <crystal>
   <varray name="basis" >
    <v>       4.47648500       2.58450000       0.00000000 </v>
    <v>      -4.47648500       2.58450000       0.00000000 </v>
    <v>       0.00000000       0.00000000      15.00000000 </v>
   </varray>
   <i name="volume">    347.08426447 </i>
   <varray name="rec_basis" >
    <v>       0.11169478       0.19346102       0.00000000 </v>
    <v>      -0.11169478       0.19346102       0.00000000 </v>
    <v>       0.00000000       0.00000000       0.06666667 </v>
   </varray>
  </crystal>
  <varray name="positions" >
   <v>       0.33833034      -0.33083568       0.25000000 </v>
   <v>       0.16373946       0.31999962       0.25000000 </v>
   <v>       0.16376430      -0.15623616       0.25000000 </v>
   <v>      -0.31250150      -0.15627000       0.25000000 </v>
   <v>      -0.15373264      -0.31500406       0.25000000 </v>
   <v>       0.32250218       0.16126397       0.25000000 </v>
   <v>      -0.15376137       0.16123684       0.25000000 </v>
   <v>      -0.32834478       0.33584146       0.25000000 </v>
  </varray>
 </structure>
 <varray name="primitive_index" >
  <v type="int" >        1 </v>
  <v type="int" >        3 </v>
  <v type="int" >        5 </v>
  <v type="int" >        7 </v>
  <v type="int" >        8 </v>
  <v type="int" >        4 </v>
  <v type="int" >        6 </v>
  <v type="int" >        2 </v>
 </varray>
 <kpoints>
  <generation param="Gamma">
   <v type="int" name="divisions">      33       33        1 </v>
   <v name="usershift">      0.00000000       0.00000000       0.00000000 </v>
   <v name="genvec1">      0.03030303       0.00000000       0.00000000 </v>
   <v name="genvec2">      0.00000000       0.03030303       0.00000000 </v>
   <v name="genvec3">      0.00000000       0.00000000       1.00000000 </v>
   <v name="shift">      0.00000000       0.00000000       0.00000000 </v>
  </generation>
  <varray name="kpointlist" >
   <v>       0.00000000       0.00000000       0.00000000 </v>
   <v>       0.03030303       0.00000000       0.00000000 </v>
   <v>       0.06060606       0.00000000       0.00000000 </v>
   <v>       0.09090909       0.00000000       0.00000000 </v>
   <v>       0.12121212       0.00000000       0.00000000 </v>
   <v>       0.15151515       0.00000000       0.00000000 </v>
   <v>       0.18181818       0.00000000       0.00000000 </v>
   <v>       0.21212121       0.00000000       0.00000000 </v>
   <v>       0.24242424       0.00000000       0.00000000 </v>
   <v>       0.27272727       0.00000000       0.00000000 </v>
   <v>       0.30303030       0.00000000       0.00000000 </v>
   <v>       0.33333333       0.00000000       0.00000000 </v>
   <v>       0.36363636       0.00000000       0.00000000 </v>
   <v>       0.39393939       0.00000000       0.00000000 </v>
   <v>       0.42424242       0.00000000       0.00000000 </v>
   <v>       0.45454545       0.00000000       0.00000000 </v>
   <v>       0.48484848       0.00000000       0.00000000 </v>
   <v>       0.00000000       0.03030303       0.00000000 </v>
   <v>       0.03030303       0.03030303       0.00000000 </v>
   <v>       0.06060606       0.03030303       0.00000000 </v>
   <v>       0.09090909       0.03030303       0.00000000 </v>
   <v>       0.12121212       0.03030303       0.00000000 </v>
   <v>       0.15151515       0.03030303       0.00000000 </v>
   <v>       0.18181818       0.03030303       0.00000000 </v>
   <v>       0.21212121       0.03030303       0.00000000 </v>
   <v>       0.24242424       0.03030303       0.00000000 </v>
   <v>       0.27272727       0.03030303       0.00000000 </v>
   <v>       0.30303030       0.03030303       0.00000000 </v>
   <v>       0.33333333       0.03030303       0.00000000 </v>
   <v>       0.36363636       0.03030303       0.00000000 </v>
   <v>       0.39393939       0.03030303       0.00000000 </v>
   <v>       0.42424242       0.03030303       0.00000000 </v>
   <v>       0.45454545       0.03030303       0.00000000 </v>
   <v>       0.48484848       0.03030303       0.00000000 </v>
   <v>      -0.48484848       0.03030303       0.00000000 </v>
   <v>      -0.45454545       0.03030303       0.00000000 </v>
   <v>      -0.42424242       0.03030303       0.00000000 </v>
   <v>      -0.39393939       0.03030303       0.00000000 </v>
   <v>      -0.36363636       0.03030303       0.00000000 </v>
   <v>      -0.33333333       0.03030303       0.00000000 </v>
   <v>      -0.30303030       0.03030303       0.00000000 </v>
   <v>      -0.27272727       0.03030303       0.00000000 </v>
   <v>      -0.24242424       0.03030303       0.00000000 </v>
   <v>      -0.21212121       0.03030303       0.00000000 </v>
   <v>      -0.18181818       0.03030303       0.00000000 </v>
   <v>      -0.15151515       0.03030303       0.00000000 </v>
   <v>      -0.12121212       0.03030303       0.00000000 </v>
   <v>      -0.09090909       0.03030303       0.00000000 </v>
   <v>      -0.06060606       0.03030303       0.00000000 </v>
   <v>      -0.03030303       0.03030303       0.00000000 </v>
   <v>       0.00000000       0.06060606       0.00000000 </v>
   <v>       0.03030303       0.06060606       0.00000000 </v>
   <v>       0.06060606       0.06060606       0.00000000 </v>
   <v>       0.09090909       0.06060606       0.00000000 </v>
   <v>       0.12121212       0.06060606       0.00000000 </v>
   <v>       0.15151515       0.06060606       0.00000000 </v>
   <v>       0.18181818       0.06060606       0.00000000 </v>
   <v>       0.21212121       0.06060606       0.00000000 </v>
   <v>       0.24242424       0.06060606       0.00000000 </v>
   <v>       0.27272727       0.06060606       0.00000000 </v>
   <v>       0.30303030       0.06060606       0.00000000 </v>
   <v>       0.33333333       0.06060606       0.00000000 </v>
   <v>       0.36363636       0.06060606       0.00000000 </v>
   <v>       0.39393939       0.06060606       0.00000000 </v>
   <v>       0.42424242       0.06060606       0.00000000 </v>
   <v>       0.45454545       0.06060606       0.00000000 </v>
   <v>       0.48484848       0.06060606       0.00000000 </v>
   <v>      -0.48484848       0.06060606       0.00000000 </v>
   <v>      -0.45454545       0.06060606       0.00000000 </v>
   <v>      -0.42424242       0.06060606       0.00000000 </v>
   <v>      -0.39393939       0.06060606       0.00000000 </v>
   <v>      -0.36363636       0.06060606       0.00000000 </v>
   <v>      -0.33333333       0.06060606       0.00000000 </v>
   <v>      -0.30303030       0.06060606       0.00000000 </v>
   <v>      -0.27272727       0.06060606       0.00000000 </v>
   <v>      -0.24242424       0.06060606       0.00000000 </v>
   <v>      -0.21212121       0.06060606       0.00000000 </v>
   <v>      -0.18181818       0.06060606       0.00000000 </v>
   <v>      -0.15151515       0.06060606       0.00000000 </v>
   <v>      -0.12121212       0.06060606       0.00000000 </v>
   <v>      -0.09090909       0.06060606       0.00000000 </v>
   <v>      -0.06060606       0.06060606       0.00000000 </v>
   <v>      -0.03030303       0.06060606       0.00000000 </v>
   <v>       0.00000000       0.09090909       0.00000000 </v>
   <v>       0.03030303       0.09090909       0.00000000 </v>
   <v>       0.06060606       0.09090909       0.00000000 </v>
   <v>       0.09090909       0.09090909       0.00000000 </v>
   <v>       0.12121212       0.09090909       0.00000000 </v>
   <v>       0.15151515       0.09090909       0.00000000 </v>
   <v>       0.18181818       0.09090909       0.00000000 </v>
   <v>       0.21212121       0.09090909       0.00000000 </v>
   <v>       0.24242424       0.09090909       0.00000000 </v>
   <v>       0.27272727       0.09090909       0.00000000 </v>
   <v>       0.30303030       0.09090909       0.00000000 </v>
   <v>       0.33333333       0.09090909       0.00000000 </v>
   <v>       0.36363636       0.09090909       0.00000000 </v>
   <v>       0.39393939       0.09090909       0.00000000 </v>
   <v>       0.42424242       0.09090909       0.00000000 </v>
   <v>       0.45454545       0.09090909       0.00000000 </v>
   <v>       0.48484848       0.09090909       0.00000000 </v>
   <v>      -0.48484848       0.09090909       0.00000000 </v>
   <v>      -0.45454545       0.09090909       0.00000000 </v>
   <v>      -0.42424242       0.09090909       0.00000000 </v>
   <v>      -0.39393939       0.09090909       0.00000000 </v>
   <v>      -0.36363636       0.09090909       0.00000000 </v>
   <v>      -0.33333333       0.09090909       0.00000000 </v>
   <v>      -0.30303030       0.09090909       0.00000000 </v>
   <v>      -0.27272727       0.09090909       0.00000000 </v>
   <v>      -0.24242424       0.09090909       0.00000000 </v>
   <v>      -0.21212121       0.09090909       0.00000000 </v>
   <v>      -0.18181818       0.09090909       0.00000000 </v>
   <v>      -0.15151515       0.09090909       0.00000000 </v>
   <v>      -0.12121212       0.09090909       0.00000000 </v>
   <v>      -0.09090909       0.09090909       0.00000000 </v>
   <v>      -0.06060606       0.09090909       0.00000000 </v>
   <v>      -0.03030303       0.09090909       0.00000000 </v>
   <v>       0.00000000       0.12121212       0.00000000 </v>
   <v>       0.03030303       0.12121212       0.00000000 </v>
   <v>       0.06060606       0.12121212       0.00000000 </v>
   <v>       0.09090909       0.12121212       0.00000000 </v>
   <v>       0.12121212       0.12121212       0.00000000 </v>
   <v>       0.15151515       0.12121212       0.00000000 </v>
   <v>       0.18181818       0.12121212       0.00000000 </v>
   <v>       0.21212121       0.12121212       0.00000000 </v>
   <v>       0.24242424       0.12121212       0.00000000 </v>
   <v>       0.27272727       0.12121212       0.00000000 </v>
   <v>       0.30303030       0.12121212       0.00000000 </v>
   <v>       0.33333333       0.12121212       0.00000000 </v>
   <v>       0.36363636       0.12121212       0.00000000 </v>
   <v>       0.39393939       0.12121212       0.00000000 </v>
   <v>       0.42424242       0.12121212       0.00000000 </v>
   <v>       0.45454545       0.12121212       0.00000000 </v>
   <v>       0.48484848       0.12121212       0.00000000 </v>
   <v>      -0.48484848       0.12121212       0.00000000 </v>
   <v>      -0.45454545       0.12121212       0.00000000 </v>
   <v>      -0.42424242       0.12121212       0.00000000 </v>
   <v>      -0.39393939       0.12121212       0.00000000 </v>
   <v>      -0.36363636       0.12121212       0.00000000 </v>
   <v>      -0.33333333       0.12121212       0.00000000 </v>
   <v>      -0.30303030       0.12121212       0.00000000 </v>
   <v>      -0.27272727       0.12121212       0.00000000 </v>
   <v>      -0.24242424       0.12121212       0.00000000 </v>
   <v>      -0.21212121       0.12121212       0.00000000 </v>
   <v>      -0.18181818       0.12121212       0.00000000 </v>
   <v>      -0.15151515       0.12121212       0.00000000 </v>
   <v>      -0.12121212       0.12121212       0.00000000 </v>
   <v>      -0.09090909       0.12121212       0.00000000 </v>
   <v>      -0.06060606       0.12121212       0.00000000 </v>
   <v>      -0.03030303       0.12121212       0.00000000 </v>
   <v>       0.00000000       0.15151515       0.00000000 </v>
   <v>       0.03030303       0.15151515       0.00000000 </v>
   <v>       0.06060606       0.15151515       0.00000000 </v>
   <v>       0.09090909       0.15151515       0.00000000 </v>
   <v>       0.12121212       0.15151515       0.00000000 </v>
   <v>       0.15151515       0.15151515       0.00000000 </v>
   <v>       0.18181818       0.15151515       0.00000000 </v>
   <v>       0.21212121       0.15151515       0.00000000 </v>
   <v>       0.24242424       0.15151515       0.00000000 </v>
   <v>       0.27272727       0.15151515       0.00000000 </v>
   <v>       0.30303030       0.15151515       0.00000000 </v>
   <v>       0.33333333       0.15151515       0.00000000 </v>
   <v>       0.36363636       0.15151515       0.00000000 </v>
   <v>       0.39393939       0.15151515       0.00000000 </v>
   <v>       0.42424242       0.15151515       0.00000000 </v>
   <v>       0.45454545       0.15151515       0.00000000 </v>
   <v>       0.48484848       0.15151515       0.00000000 </v>
   <v>      -0.48484848       0.15151515       0.00000000 </v>
   <v>      -0.45454545       0.15151515       0.00000000 </v>
   <v>      -0.42424242       0.15151515       0.00000000 </v>
   <v>      -0.39393939       0.15151515       0.00000000 </v>
   <v>      -0.36363636       0.15151515       0.00000000 </v>
   <v>      -0.33333333       0.15151515       0.00000000 </v>
   <v>      -0.30303030       0.15151515       0.00000000 </v>
   <v>      -0.27272727       0.15151515       0.00000000 </v>
   <v>      -0.24242424       0.15151515       0.00000000 </v>
   <v>      -0.21212121       0.15151515       0.00000000 </v>
   <v>      -0.18181818       0.15151515       0.00000000 </v>
   <v>      -0.15151515       0.15151515       0.00000000 </v>
   <v>      -0.12121212       0.15151515       0.00000000 </v>
   <v>      -0.09090909       0.15151515       0.00000000 </v>
   <v>      -0.06060606       0.15151515       0.00000000 </v>
   <v>      -0.03030303       0.15151515       0.00000000 </v>
   <v>       0.00000000       0.18181818       0.00000000 </v>
   <v>       0.03030303       0.18181818       0.00000000 </v>
   <v>       0.06060606       0.18181818       0.00000000 </v>
   <v>       0.09090909       0.18181818       0.00000000 </v>
   <v>       0.12121212       0.18181818       0.00000000 </v>
   <v>       0.15151515       0.18181818       0.00000000 </v>
   <v>       0.18181818       0.18181818       0.00000000 </v>
   <v>       0.21212121       0.18181818       0.00000000 </v>
   <v>       0.24242424       0.18181818       0.00000000 </v>
   <v>       0.27272727       0.18181818       0.00000000 </v>
   <v>       0.30303030       0.18181818       0.00000000 </v>
   <v>       0.33333333       0.18181818       0.00000000 </v>
   <v>       0.36363636       0.18181818       0.00000000 </v>
   <v>       0.39393939       0.18181818       0.00000000 </v>
   <v>       0.42424242       0.18181818       0.00000000 </v>
   <v>       0.45454545       0.18181818       0.00000000 </v>
   <v>       0.48484848       0.18181818       0.00000000 </v>
   <v>      -0.48484848       0.18181818       0.00000000 </v>
   <v>      -0.45454545       0.18181818       0.00000000 </v>
   <v>      -0.42424242       0.18181818       0.00000000 </v>
   <v>      -0.39393939       0.18181818       0.00000000 </v>
   <v>      -0.36363636       0.18181818       0.00000000 </v>
   <v>      -0.33333333       0.18181818       0.00000000 </v>
   <v>      -0.30303030       0.18181818       0.00000000 </v>
   <v>      -0.27272727       0.18181818       0.00000000 </v>
   <v>      -0.24242424       0.18181818       0.00000000 </v>
   <v>      -0.21212121       0.18181818       0.00000000 </v>
   <v>      -0.18181818       0.18181818       0.00000000 </v>
   <v>      -0.15151515       0.18181818       0.00000000 </v>
   <v>      -0.12121212       0.18181818       0.00000000 </v>
   <v>      -0.09090909       0.18181818       0.00000000 </v>
   <v>      -0.06060606       0.18181818       0.00000000 </v>
   <v>      -0.03030303       0.18181818       0.00000000 </v>
   <v>       0.00000000       0.21212121       0.00000000 </v>
   <v>       0.03030303       0.21212121       0.00000000 </v>
   <v>       0.06060606       0.21212121       0.00000000 </v>
   <v>       0.09090909       0.21212121       0.00000000 </v>
   <v>       0.12121212       0.21212121       0.00000000 </v>
   <v>       0.15151515       0.21212121       0.00000000 </v>
   <v>       0.18181818       0.21212121       0.00000000 </v>
   <v>       0.21212121       0.21212121       0.00000000 </v>
   <v>       0.24242424       0.21212121       0.00000000 </v>
   <v>       0.27272727       0.21212121       0.00000000 </v>
   <v>       0.30303030       0.21212121       0.00000000 </v>
   <v>       0.33333333       0.21212121       0.00000000 </v>
   <v>       0.36363636       0.21212121       0.00000000 </v>
   <v>       0.39393939       0.21212121       0.00000000 </v>
   <v>       0.42424242       0.21212121       0.00000000 </v>
   <v>       0.45454545       0.21212121       0.00000000 </v>
   <v>       0.48484848       0.21212121       0.00000000 </v>
   <v>      -0.48484848       0.21212121       0.00000000 </v>
   <v>      -0.45454545       0.21212121       0.00000000 </v>
   <v>      -0.42424242       0.21212121       0.00000000 </v>
   <v>      -0.39393939       0.21212121       0.00000000 </v>
   <v>      -0.36363636       0.21212121       0.00000000 </v>
   <v>      -0.33333333       0.21212121       0.00000000 </v>
   <v>      -0.30303030       0.21212121       0.00000000 </v>
   <v>      -0.27272727       0.21212121       0.00000000 </v>
   <v>      -0.24242424       0.21212121       0.00000000 </v>
   <v>      -0.21212121       0.21212121       0.00000000 </v>
   <v>      -0.18181818       0.21212121       0.00000000 </v>
   <v>      -0.15151515       0.21212121       0.00000000 </v>
   <v>      -0.12121212       0.21212121       0.00000000 </v>
   <v>      -0.09090909       0.21212121       0.00000000 </v>
   <v>      -0.06060606       0.21212121       0.00000000 </v>
   <v>      -0.03030303       0.21212121       0.00000000 </v>
   <v>       0.00000000       0.24242424       0.00000000 </v>
   <v>       0.03030303       0.24242424       0.00000000 </v>
   <v>       0.06060606       0.24242424       0.00000000 </v>
   <v>       0.09090909       0.24242424       0.00000000 </v>
   <v>       0.12121212       0.24242424       0.00000000 </v>
   <v>       0.15151515       0.24242424       0.00000000 </v>
   <v>       0.18181818       0.24242424       0.00000000 </v>
   <v>       0.21212121       0.24242424       0.00000000 </v>
   <v>       0.24242424       0.24242424       0.00000000 </v>
   <v>       0.27272727       0.24242424       0.00000000 </v>
   <v>       0.30303030       0.24242424       0.00000000 </v>
   <v>       0.33333333       0.24242424       0.00000000 </v>
   <v>       0.36363636       0.24242424       0.00000000 </v>
   <v>       0.39393939       0.24242424       0.00000000 </v>
   <v>       0.42424242       0.24242424       0.00000000 </v>
   <v>       0.45454545       0.24242424       0.00000000 </v>
   <v>       0.48484848       0.24242424       0.00000000 </v>
   <v>      -0.48484848       0.24242424       0.00000000 </v>
   <v>      -0.45454545       0.24242424       0.00000000 </v>
   <v>      -0.42424242       0.24242424       0.00000000 </v>
   <v>      -0.39393939       0.24242424       0.00000000 </v>
   <v>      -0.36363636       0.24242424       0.00000000 </v>
   <v>      -0.33333333       0.24242424       0.00000000 </v>
   <v>      -0.30303030       0.24242424       0.00000000 </v>
   <v>      -0.27272727       0.24242424       0.00000000 </v>
   <v>      -0.24242424       0.24242424       0.00000000 </v>
   <v>      -0.21212121       0.24242424       0.00000000 </v>
   <v>      -0.18181818       0.24242424       0.00000000 </v>
   <v>      -0.15151515       0.24242424       0.00000000 </v>
   <v>      -0.12121212       0.24242424       0.00000000 </v>
   <v>      -0.09090909       0.24242424       0.00000000 </v>
   <v>      -0.06060606       0.24242424       0.00000000 </v>
   <v>      -0.03030303       0.24242424       0.00000000 </v>
   <v>       0.00000000       0.27272727       0.00000000 </v>
   <v>       0.03030303       0.27272727       0.00000000 </v>
   <v>       0.06060606       0.27272727       0.00000000 </v>
   <v>       0.09090909       0.27272727       0.00000000 </v>
   <v>       0.12121212       0.27272727       0.00000000 </v>
   <v>       0.15151515       0.27272727       0.00000000 </v>
   <v>       0.18181818       0.27272727       0.00000000 </v>
   <v>       0.21212121       0.27272727       0.00000000 </v>
   <v>       0.24242424       0.27272727       0.00000000 </v>
   <v>       0.27272727       0.27272727       0.00000000 </v>
   <v>       0.30303030       0.27272727       0.00000000 </v>
   <v>       0.33333333       0.27272727       0.00000000 </v>
   <v>       0.36363636       0.27272727       0.00000000 </v>
   <v>       0.39393939       0.27272727       0.00000000 </v>
   <v>       0.42424242       0.27272727       0.00000000 </v>
   <v>       0.45454545       0.27272727       0.00000000 </v>
   <v>       0.48484848       0.27272727       0.00000000 </v>
   <v>      -0.48484848       0.27272727       0.00000000 </v>
   <v>      -0.45454545       0.27272727       0.00000000 </v>
   <v>      -0.42424242       0.27272727       0.00000000 </v>
   <v>      -0.39393939       0.27272727       0.00000000 </v>
   <v>      -0.36363636       0.27272727       0.00000000 </v>
   <v>      -0.33333333       0.27272727       0.00000000 </v>
   <v>      -0.30303030       0.27272727       0.00000000 </v>
   <v>      -0.27272727       0.27272727       0.00000000 </v>
   <v>      -0.24242424       0.27272727       0.00000000 </v>
   <v>      -0.21212121       0.27272727       0.00000000 </v>
   <v>      -0.18181818       0.27272727       0.00000000 </v>
   <v>      -0.15151515       0.27272727       0.00000000 </v>
   <v>      -0.12121212       0.27272727       0.00000000 </v>
   <v>      -0.09090909       0.27272727       0.00000000 </v>
   <v>      -0.06060606       0.27272727       0.00000000 </v>
   <v>      -0.03030303       0.27272727       0.00000000 </v>
   <v>       0.00000000       0.30303030       0.00000000 </v>
   <v>       0.03030303       0.30303030       0.00000000 </v>
   <v>       0.06060606       0.30303030       0.00000000 </v>
   <v>       0.09090909       0.30303030       0.00000000 </v>
   <v>       0.12121212       0.30303030       0.00000000 </v>
   <v>       0.15151515       0.30303030       0.00000000 </v>
   <v>       0.18181818       0.30303030       0.00000000 </v>
   <v>       0.21212121       0.30303030       0.00000000 </v>
   <v>       0.24242424       0.30303030       0.00000000 </v>
   <v>       0.27272727       0.30303030       0.00000000 </v>
   <v>       0.30303030       0.30303030       0.00000000 </v>
   <v>       0.33333333       0.30303030       0.00000000 </v>
   <v>       0.36363636       0.30303030       0.00000000 </v>
   <v>       0.39393939       0.30303030       0.00000000 </v>
   <v>       0.42424242       0.30303030       0.00000000 </v>
   <v>       0.45454545       0.30303030       0.00000000 </v>
   <v>       0.48484848       0.30303030       0.00000000 </v>
   <v>      -0.48484848       0.30303030       0.00000000 </v>
   <v>      -0.45454545       0.30303030       0.00000000 </v>
   <v>      -0.42424242       0.30303030       0.00000000 </v>
   <v>      -0.39393939       0.30303030       0.00000000 </v>
   <v>      -0.36363636       0.30303030       0.00000000 </v>
   <v>      -0.33333333       0.30303030       0.00000000 </v>
   <v>      -0.30303030       0.30303030       0.00000000 </v>
   <v>      -0.27272727       0.30303030       0.00000000 </v>
   <v>      -0.24242424       0.30303030       0.00000000 </v>
   <v>      -0.21212121       0.30303030       0.00000000 </v>
   <v>      -0.18181818       0.30303030       0.00000000 </v>
   <v>      -0.15151515       0.30303030       0.00000000 </v>
   <v>      -0.12121212       0.30303030       0.00000000 </v>
   <v>      -0.09090909       0.30303030       0.00000000 </v>
   <v>      -0.06060606       0.30303030       0.00000000 </v>
   <v>      -0.03030303       0.30303030       0.00000000 </v>
   <v>       0.00000000       0.33333333       0.00000000 </v>
   <v>       0.03030303       0.33333333       0.00000000 </v>
   <v>       0.06060606       0.33333333       0.00000000 </v>
   <v>       0.09090909       0.33333333       0.00000000 </v>
   <v>       0.12121212       0.33333333       0.00000000 </v>
   <v>       0.15151515       0.33333333       0.00000000 </v>
   <v>       0.18181818       0.33333333       0.00000000 </v>
   <v>       0.21212121       0.33333333       0.00000000 </v>
   <v>       0.24242424       0.33333333       0.00000000 </v>
   <v>       0.27272727       0.33333333       0.00000000 </v>
   <v>       0.30303030       0.33333333       0.00000000 </v>
   <v>       0.33333333       0.33333333       0.00000000 </v>
   <v>       0.36363636       0.33333333       0.00000000 </v>
   <v>       0.39393939       0.33333333       0.00000000 </v>
   <v>       0.42424242       0.33333333       0.00000000 </v>
   <v>       0.45454545       0.33333333       0.00000000 </v>
   <v>       0.48484848       0.33333333       0.00000000 </v>
   <v>      -0.48484848       0.33333333       0.00000000 </v>
   <v>      -0.45454545       0.33333333       0.00000000 </v>
   <v>      -0.42424242       0.33333333       0.00000000 </v>
   <v>      -0.39393939       0.33333333       0.00000000 </v>
   <v>      -0.36363636       0.33333333       0.00000000 </v>
   <v>      -0.33333333       0.33333333       0.00000000 </v>
   <v>      -0.30303030       0.33333333       0.00000000 </v>
   <v>      -0.27272727       0.33333333       0.00000000 </v>
   <v>      -0.24242424       0.33333333       0.00000000 </v>
   <v>      -0.21212121       0.33333333       0.00000000 </v>
   <v>      -0.18181818       0.33333333       0.00000000 </v>
   <v>      -0.15151515       0.33333333       0.00000000 </v>
   <v>      -0.12121212       0.33333333       0.00000000 </v>
   <v>      -0.09090909       0.33333333       0.00000000 </v>
   <v>      -0.06060606       0.33333333       0.00000000 </v>
   <v>      -0.03030303       0.33333333       0.00000000 </v>
   <v>       0.00000000       0.36363636       0.00000000 </v>
   <v>       0.03030303       0.36363636       0.00000000 </v>
   <v>       0.06060606       0.36363636       0.00000000 </v>
   <v>       0.09090909       0.36363636       0.00000000 </v>
   <v>       0.12121212       0.36363636       0.00000000 </v>
   <v>       0.15151515       0.36363636       0.00000000 </v>
   <v>       0.18181818       0.36363636       0.00000000 </v>
   <v>       0.21212121       0.36363636       0.00000000 </v>
   <v>       0.24242424       0.36363636       0.00000000 </v>
   <v>       0.27272727       0.36363636       0.00000000 </v>
   <v>       0.30303030       0.36363636       0.00000000 </v>
   <v>       0.33333333       0.36363636       0.00000000 </v>
   <v>       0.36363636       0.36363636       0.00000000 </v>
   <v>       0.39393939       0.36363636       0.00000000 </v>
   <v>       0.42424242       0.36363636       0.00000000 </v>
   <v>       0.45454545       0.36363636       0.00000000 </v>
   <v>       0.48484848       0.36363636       0.00000000 </v>
   <v>      -0.48484848       0.36363636       0.00000000 </v>
   <v>      -0.45454545       0.36363636       0.00000000 </v>
   <v>      -0.42424242       0.36363636       0.00000000 </v>
   <v>      -0.39393939       0.36363636       0.00000000 </v>
   <v>      -0.36363636       0.36363636       0.00000000 </v>
   <v>      -0.33333333       0.36363636       0.00000000 </v>
   <v>      -0.30303030       0.36363636       0.00000000 </v>
   <v>      -0.27272727       0.36363636       0.00000000 </v>
   <v>      -0.24242424       0.36363636       0.00000000 </v>
   <v>      -0.21212121       0.36363636       0.00000000 </v>
   <v>      -0.18181818       0.36363636       0.00000000 </v>
   <v>      -0.15151515       0.36363636       0.00000000 </v>
   <v>      -0.12121212       0.36363636       0.00000000 </v>
   <v>      -0.09090909       0.36363636       0.00000000 </v>
   <v>      -0.06060606       0.36363636       0.00000000 </v>
   <v>      -0.03030303       0.36363636       0.00000000 </v>
   <v>       0.00000000       0.39393939       0.00000000 </v>
   <v>       0.03030303       0.39393939       0.00000000 </v>
   <v>       0.06060606       0.39393939       0.00000000 </v>
   <v>       0.09090909       0.39393939       0.00000000 </v>
   <v>       0.12121212       0.39393939       0.00000000 </v>
   <v>       0.15151515       0.39393939       0.00000000 </v>
   <v>       0.18181818       0.39393939       0.00000000 </v>
   <v>       0.21212121       0.39393939       0.00000000 </v>
   <v>       0.24242424       0.39393939       0.00000000 </v>
   <v>       0.27272727       0.39393939       0.00000000 </v>
   <v>       0.30303030       0.39393939       0.00000000 </v>
   <v>       0.33333333       0.39393939       0.00000000 </v>
   <v>       0.36363636       0.39393939       0.00000000 </v>
   <v>       0.39393939       0.39393939       0.00000000 </v>
   <v>       0.42424242       0.39393939       0.00000000 </v>
   <v>       0.45454545       0.39393939       0.00000000 </v>
   <v>       0.48484848       0.39393939       0.00000000 </v>
   <v>      -0.48484848       0.39393939       0.00000000 </v>
   <v>      -0.45454545       0.39393939       0.00000000 </v>
   <v>      -0.42424242       0.39393939       0.00000000 </v>
   <v>      -0.39393939       0.39393939       0.00000000 </v>
   <v>      -0.36363636       0.39393939       0.00000000 </v>
   <v>      -0.33333333       0.39393939       0.00000000 </v>
   <v>      -0.30303030       0.39393939       0.00000000 </v>
   <v>      -0.27272727       0.39393939       0.00000000 </v>
   <v>      -0.24242424       0.39393939       0.00000000 </v>
   <v>      -0.21212121       0.39393939       0.00000000 </v>
   <v>      -0.18181818       0.39393939       0.00000000 </v>
   <v>      -0.15151515       0.39393939       0.00000000 </v>
   <v>      -0.12121212       0.39393939       0.00000000 </v>
   <v>      -0.09090909       0.39393939       0.00000000 </v>
   <v>      -0.06060606       0.39393939       0.00000000 </v>
   <v>      -0.03030303       0.39393939       0.00000000 </v>
   <v>       0.00000000       0.42424242       0.00000000 </v>
   <v>       0.03030303       0.42424242       0.00000000 </v>
   <v>       0.06060606       0.42424242       0.00000000 </v>
   <v>       0.09090909       0.42424242       0.00000000 </v>
   <v>       0.12121212       0.42424242       0.00000000 </v>
   <v>       0.15151515       0.42424242       0.00000000 </v>
   <v>       0.18181818       0.42424242       0.00000000 </v>
   <v>       0.21212121       0.42424242       0.00000000 </v>
   <v>       0.24242424       0.42424242       0.00000000 </v>
   <v>       0.27272727       0.42424242       0.00000000 </v>
   <v>       0.30303030       0.42424242       0.00000000 </v>
   <v>       0.33333333       0.42424242       0.00000000 </v>
   <v>       0.36363636       0.42424242       0.00000000 </v>
   <v>       0.39393939       0.42424242       0.00000000 </v>
   <v>       0.42424242       0.42424242       0.00000000 </v>
   <v>       0.45454545       0.42424242       0.00000000 </v>
   <v>       0.48484848       0.42424242       0.00000000 </v>
   <v>      -0.48484848       0.42424242       0.00000000 </v>
   <v>      -0.45454545       0.42424242       0.00000000 </v>
   <v>      -0.42424242       0.42424242       0.00000000 </v>
   <v>      -0.39393939       0.42424242       0.00000000 </v>
   <v>      -0.36363636       0.42424242       0.00000000 </v>
   <v>      -0.33333333       0.42424242       0.00000000 </v>
   <v>      -0.30303030       0.42424242       0.00000000 </v>
   <v>      -0.27272727       0.42424242       0.00000000 </v>
   <v>      -0.24242424       0.42424242       0.00000000 </v>
   <v>      -0.21212121       0.42424242       0.00000000 </v>
   <v>      -0.18181818       0.42424242       0.00000000 </v>
   <v>      -0.15151515       0.42424242       0.00000000 </v>
   <v>      -0.12121212       0.42424242       0.00000000 </v>
   <v>      -0.09090909       0.42424242       0.00000000 </v>
   <v>      -0.06060606       0.42424242       0.00000000 </v>
   <v>      -0.03030303       0.42424242       0.00000000 </v>
   <v>       0.00000000       0.45454545       0.00000000 </v>
   <v>       0.03030303       0.45454545       0.00000000 </v>
   <v>       0.06060606       0.45454545       0.00000000 </v>
   <v>       0.09090909       0.45454545       0.00000000 </v>
   <v>       0.12121212       0.45454545       0.00000000 </v>
   <v>       0.15151515       0.45454545       0.00000000 </v>
   <v>       0.18181818       0.45454545       0.00000000 </v>
   <v>       0.21212121       0.45454545       0.00000000 </v>
   <v>       0.24242424       0.45454545       0.00000000 </v>
   <v>       0.27272727       0.45454545       0.00000000 </v>
   <v>       0.30303030       0.45454545       0.00000000 </v>
   <v>       0.33333333       0.45454545       0.00000000 </v>
   <v>       0.36363636       0.45454545       0.00000000 </v>
   <v>       0.39393939       0.45454545       0.00000000 </v>
   <v>       0.42424242       0.45454545       0.00000000 </v>
   <v>       0.45454545       0.45454545       0.00000000 </v>
   <v>       0.48484848       0.45454545       0.00000000 </v>
   <v>      -0.48484848       0.45454545       0.00000000 </v>
   <v>      -0.45454545       0.45454545       0.00000000 </v>
   <v>      -0.42424242       0.45454545       0.00000000 </v>
   <v>      -0.39393939       0.45454545       0.00000000 </v>
   <v>      -0.36363636       0.45454545       0.00000000 </v>
   <v>      -0.33333333       0.45454545       0.00000000 </v>
   <v>      -0.30303030       0.45454545       0.00000000 </v>
   <v>      -0.27272727       0.45454545       0.00000000 </v>
   <v>      -0.24242424       0.45454545       0.00000000 </v>
   <v>      -0.21212121       0.45454545       0.00000000 </v>
   <v>      -0.18181818       0.45454545       0.00000000 </v>
   <v>      -0.15151515       0.45454545       0.00000000 </v>
   <v>      -0.12121212       0.45454545       0.00000000 </v>
   <v>      -0.09090909       0.45454545       0.00000000 </v>
   <v>      -0.06060606       0.45454545       0.00000000 </v>
   <v>      -0.03030303       0.45454545       0.00000000 </v>
   <v>       0.00000000       0.48484848       0.00000000 </v>
   <v>       0.03030303       0.48484848       0.00000000 </v>
   <v>       0.06060606       0.48484848       0.00000000 </v>
   <v>       0.09090909       0.48484848       0.00000000 </v>
   <v>       0.12121212       0.48484848       0.00000000 </v>
   <v>       0.15151515       0.48484848       0.00000000 </v>
   <v>       0.18181818       0.48484848       0.00000000 </v>
   <v>       0.21212121       0.48484848       0.00000000 </v>
   <v>       0.24242424       0.48484848       0.00000000 </v>
   <v>       0.27272727       0.48484848       0.00000000 </v>
   <v>       0.30303030       0.48484848       0.00000000 </v>
   <v>       0.33333333       0.48484848       0.00000000 </v>
   <v>       0.36363636       0.48484848       0.00000000 </v>
   <v>       0.39393939       0.48484848       0.00000000 </v>
   <v>       0.42424242       0.48484848       0.00000000 </v>
   <v>       0.45454545       0.48484848       0.00000000 </v>
   <v>       0.48484848       0.48484848       0.00000000 </v>
   <v>      -0.48484848       0.48484848       0.00000000 </v>
   <v>      -0.45454545       0.48484848       0.00000000 </v>
   <v>      -0.42424242       0.48484848       0.00000000 </v>
   <v>      -0.39393939       0.48484848       0.00000000 </v>
   <v>      -0.36363636       0.48484848       0.00000000 </v>
   <v>      -0.33333333       0.48484848       0.00000000 </v>
   <v>      -0.30303030       0.48484848       0.00000000 </v>
   <v>      -0.27272727       0.48484848       0.00000000 </v>
   <v>      -0.24242424       0.48484848       0.00000000 </v>
   <v>      -0.21212121       0.48484848       0.00000000 </v>
   <v>      -0.18181818       0.48484848       0.00000000 </v>
   <v>      -0.15151515       0.48484848       0.00000000 </v>
   <v>      -0.12121212       0.48484848       0.00000000 </v>
   <v>      -0.09090909       0.48484848       0.00000000 </v>
   <v>      -0.06060606       0.48484848       0.00000000 </v>
   <v>      -0.03030303       0.48484848       0.00000000 </v>
  </varray>
  <varray name="weights" >
   <v>       0.00091827 </v>
   <v>       0.00183655 </v>
   <v>       0.00183655 </v>
   <v>       0.00183655 </v>
   <v>       0.00183655 </v>
   <v>       0.00183655 </v>
   <v>       0.00183655 </v>
   <v>       0.00183655 </v>
   <v>       0.00183655 </v>
   <v>       0.00183655 </v>
   <v>       0.00183655 </v>
   <v>       0.00183655 </v>
   <v>       0.00183655 </v>
   <v>       0.00183655 </v>
   <v>       0.00183655 </v>
   <v>       0.00183655 </v>
   <v>       0.00183655 </v>
   <v>       0.00183655 </v>
   <v>       0.00183655 </v>
   <v>       0.00183655 </v>
   <v>       0.00183655 </v>
   <v>       0.00183655 </v>
   <v>       0.00183655 </v>
   <v>       0.00183655 </v>
   <v>       0.00183655 </v>
   <v>       0.00183655 </v>
   <v>       0.00183655 </v>
   <v>       0.00183655 </v>
   <v>       0.00183655 </v>
   <v>       0.00183655 </v>
   <v>       0.00183655 </v>
   <v>       0.00183655 </v>
   <v>       0.00183655 </v>
   <v>       0.00183655 </v>
   <v>       0.00183655 </v>
   <v>       0.00183655 </v>
   <v>       0.00183655 </v>
   <v>       0.00183655 </v>
   <v>       0.00183655 </v>
   <v>       0.00183655 </v>
   <v>       0.00183655 </v>
   <v>       0.00183655 </v>
   <v>       0.00183655 </v>
   <v>       0.00183655 </v>
   <v>       0.00183655 </v>
   <v>       0.00183655 </v>
   <v>       0.00183655 </v>
   <v>       0.00183655 </v>
   <v>       0.00183655 </v>
   <v>       0.00183655 </v>
   <v>       0.00183655 </v>
   <v>       0.00183655 </v>
   <v>       0.00183655 </v>
   <v>       0.00183655 </v>
   <v>       0.00183655 </v>
   <v>       0.00183655 </v>
   <v>       0.00183655 </v>
   <v>       0.00183655 </v>
   <v>       0.00183655 </v>
   <v>       0.00183655 </v>
   <v>       0.00183655 </v>
   <v>       0.00183655 </v>
   <v>       0.00183655 </v>
   <v>       0.00183655 </v>
   <v>       0.00183655 </v>
   <v>       0.00183655 </v>
   <v>       0.00183655 </v>
   <v>       0.00183655 </v>
   <v>       0.00183655 </v>
   <v>       0.00183655 </v>
   <v>       0.00183655 </v>
   <v>       0.00183655 </v>
   <v>       0.00183655 </v>
   <v>       0.00183655 </v>
   <v>       0.00183655 </v>
   <v>       0.00183655 </v>
   <v>       0.00183655 </v>
   <v>       0.00183655 </v>
   <v>       0.00183655 </v>
   <v>       0.00183655 </v>
   <v>       0.00183655 </v>
   <v>       0.00183655 </v>
   <v>       0.00183655 </v>
   <v>       0.00183655 </v>
   <v>       0.00183655 </v>
   <v>       0.00183655 </v>
   <v>       0.00183655 </v>
   <v>       0.00183655 </v>
   <v>       0.00183655 </v>
   <v>       0.00183655 </v>
   <v>       0.00183655 </v>
   <v>       0.00183655 </v>
   <v>       0.00183655 </v>
   <v>       0.00183655 </v>
   <v>       0.00183655 </v>
   <v>       0.00183655 </v>
   <v>       0.00183655 </v>
   <v>       0.00183655 </v>
   <v>       0.00183655 </v>
   <v>       0.00183655 </v>
   <v>       0.00183655 </v>
   <v>       0.00183655 </v>
   <v>       0.00183655 </v>
   <v>       0.00183655 </v>
   <v>       0.00183655 </v>
   <v>       0.00183655 </v>
   <v>       0.00183655 </v>
   <v>       0.00183655 </v>
   <v>       0.00183655 </v>
   <v>       0.00183655 </v>
   <v>       0.00183655 </v>
   <v>       0.00183655 </v>
   <v>       0.00183655 </v>
   <v>       0.00183655 </v>
   <v>       0.00183655 </v>
   <v>       0.00183655 </v>
   <v>       0.00183655 </v>
   <v>       0.00183655 </v>
   <v>       0.00183655 </v>
   <v>       0.00183655 </v>
   <v>       0.00183655 </v>
   <v>       0.00183655 </v>
   <v>       0.00183655 </v>
   <v>       0.00183655 </v>
   <v>       0.00183655 </v>
   <v>       0.00183655 </v>
   <v>       0.00183655 </v>
   <v>       0.00183655 </v>
   <v>       0.00183655 </v>
   <v>       0.00183655 </v>
   <v>       0.00183655 </v>
   <v>       0.00183655 </v>
   <v>       0.00183655 </v>
   <v>       0.00183655 </v>
   <v>       0.00183655 </v>
   <v>       0.00183655 </v>
   <v>       0.00183655 </v>
   <v>       0.00183655 </v>
   <v>       0.00183655 </v>
   <v>       0.00183655 </v>
   <v>       0.00183655 </v>
   <v>       0.00183655 </v>
   <v>       0.00183655 </v>
   <v>       0.00183655 </v>
   <v>       0.00183655 </v>
   <v>       0.00183655 </v>
   <v>       0.00183655 </v>
   <v>       0.00183655 </v>
   <v>       0.00183655 </v>
   <v>       0.00183655 </v>
   <v>       0.00183655 </v>
   <v>       0.00183655 </v>
   <v>       0.00183655 </v>
   <v>       0.00183655 </v>
   <v>       0.00183655 </v>
   <v>       0.00183655 </v>
   <v>       0.00183655 </v>
   <v>       0.00183655 </v>
   <v>       0.00183655 </v>
   <v>       0.00183655 </v>
   <v>       0.00183655 </v>
   <v>       0.00183655 </v>
   <v>       0.00183655 </v>
   <v>       0.00183655 </v>
   <v>       0.00183655 </v>
   <v>       0.00183655 </v>
   <v>       0.00183655 </v>
   <v>       0.00183655 </v>
   <v>       0.00183655 </v>
   <v>       0.00183655 </v>
   <v>       0.00183655 </v>
   <v>       0.00183655 </v>
   <v>       0.00183655 </v>
   <v>       0.00183655 </v>
   <v>       0.00183655 </v>
   <v>       0.00183655 </v>
   <v>       0.00183655 </v>
   <v>       0.00183655 </v>
   <v>       0.00183655 </v>
   <v>       0.00183655 </v>
   <v>       0.00183655 </v>
   <v>       0.00183655 </v>
   <v>       0.00183655 </v>
   <v>       0.00183655 </v>
   <v>       0.00183655 </v>
   <v>       0.00183655 </v>
   <v>       0.00183655 </v>
   <v>       0.00183655 </v>
   <v>       0.00183655 </v>
   <v>       0.00183655 </v>
   <v>       0.00183655 </v>
   <v>       0.00183655 </v>
   <v>       0.00183655 </v>
   <v>       0.00183655 </v>
   <v>       0.00183655 </v>
   <v>       0.00183655 </v>
   <v>       0.00183655 </v>
   <v>       0.00183655 </v>
   <v>       0.00183655 </v>
   <v>       0.00183655 </v>
   <v>       0.00183655 </v>
   <v>       0.00183655 </v>
   <v>       0.00183655 </v>
   <v>       0.00183655 </v>
   <v>       0.00183655 </v>
   <v>       0.00183655 </v>
   <v>       0.00183655 </v>
   <v>       0.00183655 </v>
   <v>       0.00183655 </v>
   <v>       0.00183655 </v>
   <v>       0.00183655 </v>
   <v>       0.00183655 </v>
   <v>       0.00183655 </v>
   <v>       0.00183655 </v>
   <v>       0.00183655 </v>
   <v>       0.00183655 </v>
   <v>       0.00183655 </v>
   <v>       0.00183655 </v>
   <v>       0.00183655 </v>
   <v>       0.00183655 </v>
   <v>       0.00183655 </v>
   <v>       0.00183655 </v>
   <v>       0.00183655 </v>
   <v>       0.00183655 </v>
   <v>       0.00183655 </v>
   <v>       0.00183655 </v>
   <v>       0.00183655 </v>
   <v>       0.00183655 </v>
   <v>       0.00183655 </v>
   <v>       0.00183655 </v>
   <v>       0.00183655 </v>
   <v>       0.00183655 </v>
   <v>       0.00183655 </v>
   <v>       0.00183655 </v>
   <v>       0.00183655 </v>
   <v>       0.00183655 </v>
   <v>       0.00183655 </v>
   <v>       0.00183655 </v>
   <v>       0.00183655 </v>
   <v>       0.00183655 </v>
   <v>       0.00183655 </v>
   <v>       0.00183655 </v>
   <v>       0.00183655 </v>
   <v>       0.00183655 </v>
   <v>       0.00183655 </v>
   <v>       0.00183655 </v>
   <v>       0.00183655 </v>
   <v>       0.00183655 </v>
   <v>       0.00183655 </v>
   <v>       0.00183655 </v>
   <v>       0.00183655 </v>
   <v>       0.00183655 </v>
   <v>       0.00183655 </v>
   <v>       0.00183655 </v>
   <v>       0.00183655 </v>
   <v>       0.00183655 </v>
   <v>       0.00183655 </v>
   <v>       0.00183655 </v>
   <v>       0.00183655 </v>
   <v>       0.00183655 </v>
   <v>       0.00183655 </v>
   <v>       0.00183655 </v>
   <v>       0.00183655 </v>
   <v>       0.00183655 </v>
   <v>       0.00183655 </v>
   <v>       0.00183655 </v>
   <v>       0.00183655 </v>
   <v>       0.00183655 </v>
   <v>       0.00183655 </v>
   <v>       0.00183655 </v>
   <v>       0.00183655 </v>
   <v>       0.00183655 </v>
   <v>       0.00183655 </v>
   <v>       0.00183655 </v>
   <v>       0.00183655 </v>
   <v>       0.00183655 </v>
   <v>       0.00183655 </v>
   <v>       0.00183655 </v>
   <v>       0.00183655 </v>
   <v>       0.00183655 </v>
   <v>       0.00183655 </v>
   <v>       0.00183655 </v>
   <v>       0.00183655 </v>
   <v>       0.00183655 </v>
   <v>       0.00183655 </v>
   <v>       0.00183655 </v>
   <v>       0.00183655 </v>
   <v>       0.00183655 </v>
   <v>       0.00183655 </v>
   <v>       0.00183655 </v>
   <v>       0.00183655 </v>
   <v>       0.00183655 </v>
   <v>       0.00183655 </v>
   <v>       0.00183655 </v>
   <v>       0.00183655 </v>
   <v>       0.00183655 </v>
   <v>       0.00183655 </v>
   <v>       0.00183655 </v>
   <v>       0.00183655 </v>
   <v>       0.00183655 </v>
   <v>       0.00183655 </v>
   <v>       0.00183655 </v>
   <v>       0.00183655 </v>
   <v>       0.00183655 </v>
   <v>       0.00183655 </v>
   <v>       0.00183655 </v>
   <v>       0.00183655 </v>
   <v>       0.00183655 </v>
   <v>       0.00183655 </v>
   <v>       0.00183655 </v>
   <v>       0.00183655 </v>
   <v>       0.00183655 </v>
   <v>       0.00183655 </v>
   <v>       0.00183655 </v>
   <v>       0.00183655 </v>
   <v>       0.00183655 </v>
   <v>       0.00183655 </v>
   <v>       0.00183655 </v>
   <v>       0.00183655 </v>
   <v>       0.00183655 </v>
   <v>       0.00183655 </v>
   <v>       0.00183655 </v>
   <v>       0.00183655 </v>
   <v>       0.00183655 </v>
   <v>       0.00183655 </v>
   <v>       0.00183655 </v>
   <v>       0.00183655 </v>
   <v>       0.00183655 </v>
   <v>       0.00183655 </v>
   <v>       0.00183655 </v>
   <v>       0.00183655 </v>
   <v>       0.00183655 </v>
   <v>       0.00183655 </v>
   <v>       0.00183655 </v>
   <v>       0.00183655 </v>
   <v>       0.00183655 </v>
   <v>       0.00183655 </v>
   <v>       0.00183655 </v>
   <v>       0.00183655 </v>
   <v>       0.00183655 </v>
   <v>       0.00183655 </v>
   <v>       0.00183655 </v>
   <v>       0.00183655 </v>
   <v>       0.00183655 </v>
   <v>       0.00183655 </v>
   <v>       0.00183655 </v>
   <v>       0.00183655 </v>
   <v>       0.00183655 </v>
   <v>       0.00183655 </v>
   <v>       0.00183655 </v>
   <v>       0.00183655 </v>
   <v>       0.00183655 </v>
   <v>       0.00183655 </v>
   <v>       0.00183655 </v>
   <v>       0.00183655 </v>
   <v>       0.00183655 </v>
   <v>       0.00183655 </v>
   <v>       0.00183655 </v>
   <v>       0.00183655 </v>
   <v>       0.00183655 </v>
   <v>       0.00183655 </v>
   <v>       0.00183655 </v>
   <v>       0.00183655 </v>
   <v>       0.00183655 </v>
   <v>       0.00183655 </v>
   <v>       0.00183655 </v>
   <v>       0.00183655 </v>
   <v>       0.00183655 </v>
   <v>       0.00183655 </v>
   <v>       0.00183655 </v>
   <v>       0.00183655 </v>
   <v>       0.00183655 </v>
   <v>       0.00183655 </v>
   <v>       0.00183655 </v>
   <v>       0.00183655 </v>
   <v>       0.00183655 </v>
   <v>       0.00183655 </v>
   <v>       0.00183655 </v>
   <v>       0.00183655 </v>
   <v>       0.00183655 </v>
   <v>       0.00183655 </v>
   <v>       0.00183655 </v>
   <v>       0.00183655 </v>
   <v>       0.00183655 </v>
   <v>       0.00183655 </v>
   <v>       0.00183655 </v>
   <v>       0.00183655 </v>
   <v>       0.00183655 </v>
   <v>       0.00183655 </v>
   <v>       0.00183655 </v>
   <v>       0.00183655 </v>
   <v>       0.00183655 </v>
   <v>       0.00183655 </v>
   <v>       0.00183655 </v>
   <v>       0.00183655 </v>
   <v>       0.00183655 </v>
   <v>       0.00183655 </v>
   <v>       0.00183655 </v>
   <v>       0.00183655 </v>
   <v>       0.00183655 </v>
   <v>       0.00183655 </v>
   <v>       0.00183655 </v>
   <v>       0.00183655 </v>
   <v>       0.00183655 </v>
   <v>       0.00183655 </v>
   <v>       0.00183655 </v>
   <v>       0.00183655 </v>
   <v>       0.00183655 </v>
   <v>       0.00183655 </v>
   <v>       0.00183655 </v>
   <v>       0.00183655 </v>
   <v>       0.00183655 </v>
   <v>       0.00183655 </v>
   <v>       0.00183655 </v>
   <v>       0.00183655 </v>
   <v>       0.00183655 </v>
   <v>       0.00183655 </v>
   <v>       0.00183655 </v>
   <v>       0.00183655 </v>
   <v>       0.00183655 </v>
   <v>       0.00183655 </v>
   <v>       0.00183655 </v>
   <v>       0.00183655 </v>
   <v>       0.00183655 </v>
   <v>       0.00183655 </v>
   <v>       0.00183655 </v>
   <v>       0.00183655 </v>
   <v>       0.00183655 </v>
   <v>       0.00183655 </v>
   <v>       0.00183655 </v>
   <v>       0.00183655 </v>
   <v>       0.00183655 </v>
   <v>       0.00183655 </v>
   <v>       0.00183655 </v>
   <v>       0.00183655 </v>
   <v>       0.00183655 </v>
   <v>       0.00183655 </v>
   <v>       0.00183655 </v>
   <v>       0.00183655 </v>
   <v>       0.00183655 </v>
   <v>       0.00183655 </v>
   <v>       0.00183655 </v>
   <v>       0.00183655 </v>
   <v>       0.00183655 </v>
   <v>       0.00183655 </v>
   <v>       0.00183655 </v>
   <v>       0.00183655 </v>
   <v>       0.00183655 </v>
   <v>       0.00183655 </v>
   <v>       0.00183655 </v>
   <v>       0.00183655 </v>
   <v>       0.00183655 </v>
   <v>       0.00183655 </v>
   <v>       0.00183655 </v>
   <v>       0.00183655 </v>
   <v>       0.00183655 </v>
   <v>       0.00183655 </v>
   <v>       0.00183655 </v>
   <v>       0.00183655 </v>
   <v>       0.00183655 </v>
   <v>       0.00183655 </v>
   <v>       0.00183655 </v>
   <v>       0.00183655 </v>
   <v>       0.00183655 </v>
   <v>       0.00183655 </v>
   <v>       0.00183655 </v>
   <v>       0.00183655 </v>
   <v>       0.00183655 </v>
   <v>       0.00183655 </v>
   <v>       0.00183655 </v>
   <v>       0.00183655 </v>
   <v>       0.00183655 </v>
   <v>       0.00183655 </v>
   <v>       0.00183655 </v>
   <v>       0.00183655 </v>
   <v>       0.00183655 </v>
   <v>       0.00183655 </v>
   <v>       0.00183655 </v>
   <v>       0.00183655 </v>
   <v>       0.00183655 </v>
   <v>       0.00183655 </v>
   <v>       0.00183655 </v>
   <v>       0.00183655 </v>
   <v>       0.00183655 </v>
   <v>       0.00183655 </v>
   <v>       0.00183655 </v>
   <v>       0.00183655 </v>
   <v>       0.00183655 </v>
   <v>       0.00183655 </v>
   <v>       0.00183655 </v>
   <v>       0.00183655 </v>
   <v>       0.00183655 </v>
   <v>       0.00183655 </v>
   <v>       0.00183655 </v>
   <v>       0.00183655 </v>
   <v>       0.00183655 </v>
   <v>       0.00183655 </v>
   <v>       0.00183655 </v>
   <v>       0.00183655 </v>
   <v>       0.00183655 </v>
   <v>       0.00183655 </v>
   <v>       0.00183655 </v>
   <v>       0.00183655 </v>
   <v>       0.00183655 </v>
   <v>       0.00183655 </v>
   <v>       0.00183655 </v>
   <v>       0.00183655 </v>
   <v>       0.00183655 </v>
   <v>       0.00183655 </v>
   <v>       0.00183655 </v>
   <v>       0.00183655 </v>
   <v>       0.00183655 </v>
   <v>       0.00183655 </v>
   <v>       0.00183655 </v>
   <v>       0.00183655 </v>
   <v>       0.00183655 </v>
   <v>       0.00183655 </v>
   <v>       0.00183655 </v>
   <v>       0.00183655 </v>
   <v>       0.00183655 </v>
   <v>       0.00183655 </v>
   <v>       0.00183655 </v>
   <v>       0.00183655 </v>
   <v>       0.00183655 </v>
   <v>       0.00183655 </v>
   <v>       0.00183655 </v>
   <v>       0.00183655 </v>
   <v>       0.00183655 </v>
   <v>       0.00183655 </v>
   <v>       0.00183655 </v>
   <v>       0.00183655 </v>
   <v>       0.00183655 </v>
   <v>       0.00183655 </v>
   <v>       0.00183655 </v>
   <v>       0.00183655 </v>
   <v>       0.00183655 </v>
   <v>       0.00183655 </v>
   <v>       0.00183655 </v>
   <v>       0.00183655 </v>
   <v>       0.00183655 </v>
   <v>       0.00183655 </v>
   <v>       0.00183655 </v>
   <v>       0.00183655 </v>
   <v>       0.00183655 </v>
   <v>       0.00183655 </v>
  </varray>
 </kpoints>
 <parameters>
  <separator name="general" >
   <i type="string" name="SYSTEM">BC3</i>
   <i type="logical" name="LCOMPAT"> F  </i>
  </separator>
  <separator name="electronic" >
   <i type="string" name="PREC">accura</i>
   <i name="ENMAX">    450.00000000</i>
   <i name="ENAUG">    644.87300000</i>
   <i name="EDIFF">      0.00000100</i>
   <i type="int" name="IALGO">    38</i>
   <i type="int" name="IWAVPR">    11</i>
   <i type="int" name="NBANDS">    32</i>
   <i name="NELECT">     30.00000000</i>
   <i type="int" name="TURBO">     0</i>
   <i type="int" name="IRESTART">     0</i>
   <i type="int" name="NREBOOT">     0</i>
   <i type="int" name="NMIN">     0</i>
   <i name="EREF">      0.00000000</i>
   <separator name="electronic smearing" >
    <i type="int" name="ISMEAR">     0</i>
    <i name="SIGMA">      0.10000000</i>
    <i name="KSPACING">      0.50000000</i>
    <i type="logical" name="KGAMMA"> T  </i>
   </separator>
   <separator name="electronic projectors" >
    <i type="logical" name="LREAL"> F  </i>
    <v name="ROPT">      0.00000000      0.00000000</v>
    <i type="int" name="LMAXPAW">  -100</i>
    <i type="int" name="LMAXMIX">     2</i>
    <i type="logical" name="NLSPLINE"> F  </i>
   </separator>
   <separator name="electronic startup" >
    <i type="int" name="ISTART">     0</i>
    <i type="int" name="ICHARG">     2</i>
    <i type="int" name="INIWAV">     1</i>
   </separator>
   <separator name="electronic spin" >
    <i type="int" name="ISPIN">     1</i>
    <i type="logical" name="LNONCOLLINEAR"> F  </i>
    <v name="MAGMOM">      1.00000000      1.00000000      1.00000000      1.00000000      1.00000000      1.00000000      1.00000000      1.00000000</v>
    <i name="NUPDOWN">     -1.00000000</i>
    <i type="logical" name="LSORBIT"> F  </i>
    <v name="SAXIS">      0.00000000      0.00000000      1.00000000</v>
    <i type="logical" name="LSPIRAL"> F  </i>
    <v name="QSPIRAL">      0.00000000      0.00000000      0.00000000</v>
    <i type="logical" name="LZEROZ"> F  </i>
   </separator>
   <separator name="electronic exchange-correlation" >
    <i type="logical" name="LASPH"> F  </i>
    <i type="logical" name="LMETAGGA"> F  </i>
   </separator>
   <separator name="electronic convergence" >
    <i type="int" name="NELM">    60</i>
    <i type="int" name="NELMDL">    -5</i>
    <i type="int" name="NELMIN">     2</i>
    <i name="ENINI">    450.00000000</i>
    <separator name="electronic convergence detail" >
     <i type="logical" name="LDIAG"> T  </i>
     <i type="logical" name="LSUBROT"> F  </i>
     <i name="WEIMIN">      0.00100000</i>
     <i name="EBREAK">      0.00000001</i>
     <i name="DEPER">      0.30000000</i>
     <i type="int" name="NRMM">     4</i>
     <i name="TIME">      0.40000000</i>
    </separator>
   </separator>
   <separator name="electronic mixer" >
    <i name="AMIX">      0.40000000</i>
    <i name="BMIX">      1.00000000</i>
    <i name="AMIN">      0.10000000</i>
    <i name="AMIX_MAG">      1.60000000</i>
    <i name="BMIX_MAG">      1.00000000</i>
    <separator name="electronic mixer details" >
     <i type="int" name="IMIX">     4</i>
     <i type="logical" name="MIXFIRST"> F  </i>
     <i type="int" name="MAXMIX">   -45</i>
     <i name="WC">    100.00000000</i>
     <i type="int" name="INIMIX">     1</i>
     <i type="int" name="MIXPRE">     1</i>
     <i type="int" name="MREMOVE">     5</i>
    </separator>
   </separator>
   <separator name="electronic dipolcorrection" >
    <i type="logical" name="LDIPOL"> F  </i>
    <i type="logical" name="LMONO"> F  </i>
    <i type="int" name="IDIPOL">     0</i>
    <i name="EPSILON">      1.00000000</i>
    <v name="DIPOL">   -100.00000000   -100.00000000   -100.00000000</v>
    <i name="EFIELD">      0.00000000</i>
   </separator>
  </separator>
  <separator name="grids" >
   <i type="int" name="NGX">    36</i>
   <i type="int" name="NGY">    36</i>
   <i type="int" name="NGZ">   108</i>
   <i type="int" name="NGXF">    72</i>
   <i type="int" name="NGYF">    72</i>
   <i type="int" name="NGZF">   216</i>
   <i type="logical" name="ADDGRID"> F  </i>
  </separator>
  <separator name="ionic" >
   <i type="int" name="NSW">   100</i>
   <i type="int" name="IBRION">     2</i>
   <i type="int" name="MDALGO">     0</i>
   <i type="int" name="ISIF">     2</i>
   <i name="PSTRESS">      0.00000000</i>
   <i name="EDIFFG">     -0.01000000</i>
   <i type="int" name="NFREE">     1</i>
   <i name="POTIM">      0.50000000</i>
   <i name="SMASS">     -3.00000000</i>
   <i name="SCALEE">      1.00000000</i>
  </separator>
  <separator name="ionic md" >
   <i name="TEBEG">      0.00010000</i>
   <i name="TEEND">      0.00010000</i>
   <i type="int" name="NBLOCK">     1</i>
   <i type="int" name="KBLOCK">   100</i>
   <i type="int" name="NPACO">   256</i>
   <i name="APACO">     16.00000000</i>
  </separator>
  <separator name="symmetry" >
   <i type="int" name="ISYM">     2</i>
   <i name="SYMPREC">      0.00001000</i>
  </separator>
  <separator name="dos" >
   <i type="int" name="LORBIT">     0</i>
   <v name="RWIGS">     -1.00000000     -1.00000000</v>
   <i type="int" name="NEDOS">   301</i>
   <i name="EMIN">     10.00000000</i>
   <i name="EMAX">    -10.00000000</i>
   <i name="EFERMI">      0.00000000</i>
  </separator>
  <separator name="writing" >
   <i type="int" name="NWRITE">     2</i>
   <i type="logical" name="LWAVE"> F  </i>
   <i type="logical" name="LDOWNSAMPLE"> F  </i>
   <i type="logical" name="LCHARG"> F  </i>
   <i type="logical" name="LPARD"> F  </i>
   <i type="logical" name="LVTOT"> F  </i>
   <i type="logical" name="LVHAR"> F  </i>
   <i type="logical" name="LELF"> F  </i>
   <i type="logical" name="LOPTICS"> F  </i>
   <v name="STM">      0.00000000      0.00000000      0.00000000      0.00000000      0.00000000      0.00000000      0.00000000</v>
  </separator>
  <separator name="performance" >
   <i type="int" name="NPAR">    16</i>
   <i type="int" name="NSIM">     4</i>
   <i type="int" name="NBLK">    -1</i>
   <i type="logical" name="LPLANE"> T  </i>
   <i type="logical" name="LSCALAPACK"> T  </i>
   <i type="logical" name="LSCAAWARE"> F  </i>
   <i type="logical" name="LSCALU"> F  </i>
   <i type="logical" name="LASYNC"> F  </i>
   <i type="logical" name="LORBITALREAL"> F  </i>
  </separator>
  <separator name="miscellaneous" >
   <i type="int" name="IDIOT">     3</i>
   <i type="int" name="ISPECIAL">     0</i>
   <i type="logical" name="LMUSIC"> F  </i>
   <v name="POMASS">     10.81100000     12.01100000</v>
   <v name="DARWINR">      0.00000000      0.00000000</v>
   <v name="DARWINV">      1.00000000      1.00000000</v>
   <i type="logical" name="LCORR"> T  </i>
  </separator>
  <i type="logical" name="GGA_COMPAT"> T  </i>
  <i type="logical" name="LBERRY"> F  </i>
  <i type="int" name="ICORELEVEL">     0</i>
  <i type="logical" name="LDAU"> F  </i>
  <i type="int" name="I_CONSTRAINED_M">     0</i>
  <separator name="electronic exchange-correlation" >
   <i type="string" name="GGA">PE</i>
   <i type="int" name="VOSKOWN">     0</i>
   <i type="logical" name="LHFCALC"> F  </i>
   <i type="string" name="PRECFOCK"></i>
   <i type="logical" name="LSYMGRAD"> F  </i>
   <i type="logical" name="LHFONE"> F  </i>
   <i type="logical" name="LRHFCALC"> F  </i>
   <i type="logical" name="LTHOMAS"> F  </i>
   <i type="logical" name="LMODELHF"> F  </i>
   <i name="ENCUT4O">     -1.00000000</i>
   <i type="int" name="EXXOEP">     0</i>
   <i type="int" name="FOURORBIT">     0</i>
   <i name="AEXX">      0.00000000</i>
   <i name="HFALPHA">      0.00000000</i>
   <i name="MCALPHA">      0.00000000</i>
   <i name="ALDAX">      1.00000000</i>
   <i name="AGGAX">      1.00000000</i>
   <i name="ALDAC">      1.00000000</i>
   <i name="AGGAC">      1.00000000</i>
   <i type="int" name="NKREDX">     1</i>
   <i type="int" name="NKREDY">     1</i>
   <i type="int" name="NKREDZ">     1</i>
   <i type="logical" name="SHIFTRED"> F  </i>
   <i type="logical" name="ODDONLY"> F  </i>
   <i type="logical" name="EVENONLY"> F  </i>
   <i type="int" name="LMAXFOCK">     0</i>
   <i type="int" name="NMAXFOCKAE">     0</i>
   <i type="logical" name="LFOCKAEDFT"> F  </i>
   <i name="HFSCREEN">      0.00000000</i>
   <i name="HFSCREENC">      0.00000000</i>
   <i type="int" name="NBANDSGWLOW">     0</i>
  </separator>
  <separator name="vdW DFT" >
   <i type="logical" name="LUSE_VDW"> F  </i>
   <i name="Zab_VDW">     -0.84910000</i>
   <i name="PARAM1">      0.12340000</i>
   <i name="PARAM2">      1.00000000</i>
   <i name="PARAM3">      0.00000000</i>
  </separator>
  <separator name="model GW" >
   <i type="int" name="MODEL_GW">     0</i>
   <i name="MODEL_EPS0">     26.03131984</i>
   <i name="MODEL_ALPHA">      1.00000000</i>
  </separator>
  <separator name="linear response parameters" >
   <i type="logical" name="LEPSILON"> F  </i>
   <i type="logical" name="LRPA"> F  </i>
   <i type="logical" name="LNABLA"> F  </i>
   <i type="logical" name="LVEL"> F  </i>
   <i type="int" name="KINTER">     0</i>
   <i name="CSHIFT">      0.10000000</i>
   <i name="OMEGAMAX">     -1.00000000</i>
   <i name="DEG_THRESHOLD">      0.00200000</i>
   <i name="RTIME">     -0.10000000</i>
   <i name="WPLASMAI">      0.00000000</i>
   <v name="DFIELD">      0.00000000      0.00000000      0.00000000</v>
   <v name="WPLASMA">      0.00000000      0.00000000      0.00000000      0.00000000      0.00000000      0.00000000      0.00000000      0.00000000      0.00000000</v>
  </separator>
  <separator name="orbital magnetization" >
   <i type="logical" name="NUCIND"> F  </i>
   <v name="MAGPOS">      0.00000000      0.00000000      0.00000000</v>
   <i type="logical" name="LNICSALL"> T  </i>
   <i type="logical" name="ORBITALMAG"> F  </i>
   <i type="logical" name="LMAGBLOCH"> F  </i>
   <i type="logical" name="LCHIMAG"> F  </i>
   <i type="logical" name="LGAUGE"> T  </i>
   <i type="int" name="MAGATOM">     0</i>
   <v name="MAGDIPOL">      0.00000000      0.00000000      0.00000000</v>
   <v name="AVECCONST">      0.00000000      0.00000000      0.00000000</v>
  </separator>
  <separator name="response functions" >
   <i type="logical" name="LADDER"> F  </i>
   <i type="logical" name="LRPAFORCE"> F  </i>
   <i type="logical" name="LFXC"> F  </i>
   <i type="logical" name="LHARTREE"> T  </i>
   <i type="int" name="IBSE">     0</i>
   <v type="int" name="KPOINT">    -1     0     0     0</v>
   <i type="logical" name="LTCTE"> F  </i>
   <i type="logical" name="LTETE"> F  </i>
   <i type="logical" name="LTRIPLET"> F  </i>
   <i type="logical" name="LFXCEPS"> F  </i>
   <i type="logical" name="LFXHEG"> F  </i>
   <i type="int" name="NATURALO">     2</i>
   <i type="logical" name="L2ORDER"> F  </i>
   <i type="logical" name="LMP2LT"> F  </i>
   <i type="logical" name="LUSEW"> F  </i>
   <i name="ENCUTGW">     -2.00000000</i>
   <i name="ENCUTGWSOFT">     -2.00000000</i>
   <i name="ENCUTLF">     -1.00000000</i>
   <i type="int" name="LMAXMP2">    -1</i>
   <i name="SCISSOR">      0.00000000</i>
   <i type="int" name="NOMEGA">     0</i>
   <i type="int" name="NOMEGAR">     0</i>
   <i type="int" name="NBANDSGW">    -1</i>
   <i type="int" name="NBANDSO">    -1</i>
   <i type="int" name="NBANDSV">    -1</i>
   <i type="int" name="NELM">     1</i>
   <i type="int" name="NELMHF">     1</i>
   <i type="int" name="DIM">     3</i>
   <i type="int" name="ANTIRES">     0</i>
   <i name="OMEGAMAX">    -30.00000000</i>
   <i name="OMEGAMIN">    -30.00000000</i>
   <i name="OMEGATL">   -200.00000000</i>
   <i type="int" name="OMEGAGRID">   140</i>
   <i name="CSHIFT">     -0.10000000</i>
   <i type="logical" name="SELFENERGY"> F  </i>
   <i type="logical" name="LSPECTRAL"> F  </i>
   <i type="logical" name="LSPECTRALGW"> F  </i>
   <i type="logical" name="LSINGLES"> F  </i>
   <i type="logical" name="LFERMIGW"> F  </i>
   <i type="logical" name="ODDONLYGW"> F  </i>
   <i type="logical" name="EVENONLYGW"> F  </i>
   <i type="int" name="NKREDLFX">     1</i>
   <i type="int" name="NKREDLFY">     1</i>
   <i type="int" name="NKREDLFZ">     1</i>
   <i type="int" name="MAXMEM">  2800</i>
   <i type="int" name="TELESCOPE">     0</i>
   <i type="int" name="TAUPAR">     1</i>
   <i type="int" name="OMEGAPAR">    -1</i>
   <i name="LAMBDA">      1.00000000</i>
  </separator>
  <separator name="External order field" >
   <i name="OFIELD_KAPPA">      0.00000000</i>
   <v name="OFIELD_K">      0.00000000      0.00000000      0.00000000</v>
   <i name="OFIELD_Q6_NEAR">      0.00000000</i>
   <i name="OFIELD_Q6_FAR">      0.00000000</i>
   <i name="OFIELD_A">      0.00000000</i>
  </separator>
 </parameters>
 <atominfo>
  <atoms>       8 </atoms>
  <types>       2 </types>
  <array name="atoms" >
   <dimension dim="1">ion</dimension>
   <field type="string">element</field>
   <field type="int">atomtype</field>
   <set>
    <rc><c>B </c><c>   1</c></rc>
    <rc><c>B </c><c>   1</c></rc>
    <rc><c>C </c><c>   2</c></rc>
    <rc><c>C </c><c>   2</c></rc>
    <rc><c>C </c><c>   2</c></rc>
    <rc><c>C </c><c>   2</c></rc>
    <rc><c>C </c><c>   2</c></rc>
    <rc><c>C </c><c>   2</c></rc>
   </set>
  </array>
  <array name="atomtypes" >
   <dimension dim="1">type</dimension>
   <field type="int">atomspertype</field>
   <field type="string">element</field>
   <field>mass</field>
   <field>valence</field>
   <field type="string">pseudopotential</field>
   <set>
    <rc><c>   2</c><c>B </c><c>     10.81100000</c><c>      3.00000000</c><c>  PAW_PBE B 06Sep2000                   </c></rc>
    <rc><c>   6</c><c>C </c><c>     12.01100000</c><c>      4.00000000</c><c>  PAW_PBE C 08Apr2002                   </c></rc>
   </set>
  </array>
 </atominfo>
 <structure name="initialpos" >
  <crystal>
   <varray name="basis" >
    <v>       4.47648500       2.58450000       0.00000000 </v>
    <v>      -4.47648500       2.58450000       0.00000000 </v>
    <v>       0.00000000       0.00000000      15.00000000 </v>
   </varray>
   <i name="volume">    347.08426447 </i>
   <varray name="rec_basis" >
    <v>       0.11169478       0.19346102       0.00000000 </v>
    <v>      -0.11169478       0.19346102       0.00000000 </v>
    <v>       0.00000000       0.00000000       0.06666667 </v>
   </varray>
  </crystal>
  <varray name="positions" >
   <v>       0.33833034       0.66916432       0.25000000 </v>
   <v>       0.67165522       0.33584146       0.25000000 </v>
   <v>       0.16373946       0.31999962       0.25000000 </v>
   <v>       0.32250218       0.16126397       0.25000000 </v>
   <v>       0.16376430       0.84376384       0.25000000 </v>
   <v>       0.84623863       0.16123684       0.25000000 </v>
   <v>       0.68749850       0.84373000       0.25000000 </v>
   <v>       0.84626736       0.68499594       0.25000000 </v>
  </varray>
 </structure>
 <calculation>
  <scstep>
   <time name="dav">   39.30   39.63</time>
   <time name="total">   39.39   39.73</time>
   <energy>
    <i name="alphaZ">     14.61461864 </i>
    <i name="ewald">   2603.47533640 </i>
    <i name="hartreedc">  -3361.43975615 </i>
    <i name="XCdc">     91.18491800 </i>
    <i name="pawpsdc">    738.13200929 </i>
    <i name="pawaedc">   -739.83780425 </i>
    <i name="eentropy">     -0.01559489 </i>
    <i name="bandstr">   -190.19579322 </i>
    <i name="atom">   1025.20389953 </i>
    <i name="e_fr_energy">    181.12183334 </i>
    <i name="e_wo_entrp">    181.13742824 </i>
    <i name="e_0_energy">    181.12963079 </i>
   </energy>
  </scstep>
  <scstep>
   <time name="dav">   57.45   57.48</time>
   <time name="total">   57.46   57.49</time>
   <energy>
    <i name="e_fr_energy">    -50.44762902 </i>
    <i name="e_wo_entrp">    -50.44755107 </i>
    <i name="e_0_energy">    -50.44759004 </i>
   </energy>
  </scstep>
  <scstep>
   <time name="dav">   49.45   49.47</time>
   <time name="total">   49.46   49.47</time>
   <energy>
    <i name="e_fr_energy">    -72.93255699 </i>
    <i name="e_wo_entrp">    -72.93255699 </i>
    <i name="e_0_energy">    -72.93255699 </i>
   </energy>
  </scstep>
  <scstep>
   <time name="dav">   49.20   49.21</time>
   <time name="total">   49.20   49.21</time>
   <energy>
    <i name="e_fr_energy">    -73.46949323 </i>
    <i name="e_wo_entrp">    -73.46949323 </i>
    <i name="e_0_energy">    -73.46949323 </i>
   </energy>
  </scstep>
  <scstep>
   <time name="dav">   46.08   46.09</time>
   <time name="total">   47.66   47.67</time>
   <energy>
    <i name="e_fr_energy">    -73.48149001 </i>
    <i name="e_wo_entrp">    -73.48149001 </i>
    <i name="e_0_energy">    -73.48149001 </i>
   </energy>
  </scstep>
  <scstep>
   <time name="dav">   50.24   50.25</time>
   <time name="total">   51.88   51.89</time>
   <energy>
    <i name="e_fr_energy">    -68.97505604 </i>
    <i name="e_wo_entrp">    -68.97505604 </i>
    <i name="e_0_energy">    -68.97505604 </i>
   </energy>
  </scstep>
  <scstep>
   <time name="dav">   50.50   50.52</time>
   <time name="total">   52.15   52.16</time>
   <energy>
    <i name="e_fr_energy">    -67.33140058 </i>
    <i name="e_wo_entrp">    -67.33140058 </i>
    <i name="e_0_energy">    -67.33140058 </i>
   </energy>
  </scstep>
  <scstep>
   <time name="dav">   48.16   48.17</time>
   <time name="total">   49.80   49.81</time>
   <energy>
    <i name="e_fr_energy">    -67.25185711 </i>
    <i name="e_wo_entrp">    -67.25185711 </i>
    <i name="e_0_energy">    -67.25185711 </i>
   </energy>
  </scstep>
  <scstep>
   <time name="dav">   46.77   46.79</time>
   <time name="total">   48.41   48.43</time>
   <energy>
    <i name="e_fr_energy">    -67.23691598 </i>
    <i name="e_wo_entrp">    -67.23691597 </i>
    <i name="e_0_energy">    -67.23691597 </i>
   </energy>
  </scstep>
  <scstep>
   <time name="dav">   46.56   46.56</time>
   <time name="total">   48.20   48.21</time>
   <energy>
    <i name="e_fr_energy">    -67.22592704 </i>
    <i name="e_wo_entrp">    -67.22592701 </i>
    <i name="e_0_energy">    -67.22592703 </i>
   </energy>
  </scstep>
  <scstep>
   <time name="dav">   46.64   46.65</time>
   <time name="total">   48.28   48.29</time>
   <energy>
    <i name="e_fr_energy">    -67.22521524 </i>
    <i name="e_wo_entrp">    -67.22521520 </i>
    <i name="e_0_energy">    -67.22521522 </i>
   </energy>
  </scstep>
  <scstep>
   <time name="dav">   40.15   40.16</time>
   <time name="total">   41.79   41.80</time>
   <energy>
    <i name="e_fr_energy">    -67.22316929 </i>
    <i name="e_wo_entrp">    -67.22316924 </i>
    <i name="e_0_energy">    -67.22316926 </i>
   </energy>
  </scstep>
  <scstep>
   <time name="dav">   45.07   45.08</time>
   <time name="total">   46.71   46.72</time>
   <energy>
    <i name="e_fr_energy">    -67.22590706 </i>
    <i name="e_wo_entrp">    -67.22590701 </i>
    <i name="e_0_energy">    -67.22590704 </i>
   </energy>
  </scstep>
  <scstep>
   <time name="dav">   46.62   46.63</time>
   <time name="total">   48.26   48.27</time>
   <energy>
    <i name="e_fr_energy">    -67.22881947 </i>
    <i name="e_wo_entrp">    -67.22881943 </i>
    <i name="e_0_energy">    -67.22881945 </i>
   </energy>
  </scstep>
  <scstep>
   <time name="dav">   47.23   47.25</time>
   <time name="total">   48.87   48.89</time>
   <energy>
    <i name="e_fr_energy">    -67.22903345 </i>
    <i name="e_wo_entrp">    -67.22903341 </i>
    <i name="e_0_energy">    -67.22903343 </i>
   </energy>
  </scstep>
  <scstep>
   <time name="dav">   44.00   44.01</time>
   <time name="total">   45.64   45.65</time>
   <energy>
    <i name="e_fr_energy">    -67.22961152 </i>
    <i name="e_wo_entrp">    -67.22961148 </i>
    <i name="e_0_energy">    -67.22961150 </i>
   </energy>
  </scstep>
  <scstep>
   <time name="dav">   43.37   43.38</time>
   <time name="total">   45.02   45.02</time>
   <energy>
    <i name="e_fr_energy">    -67.22966888 </i>
    <i name="e_wo_entrp">    -67.22966884 </i>
    <i name="e_0_energy">    -67.22966886 </i>
   </energy>
  </scstep>
  <scstep>
   <time name="dav">   40.47   40.48</time>
   <time name="total">   42.11   42.12</time>
   <energy>
    <i name="e_fr_energy">    -67.22969347 </i>
    <i name="e_wo_entrp">    -67.22969342 </i>
    <i name="e_0_energy">    -67.22969344 </i>
   </energy>
  </scstep>
  <scstep>
   <time name="dav">   40.34   40.35</time>
   <time name="total">   41.98   41.98</time>
   <energy>
    <i name="e_fr_energy">    -67.22969502 </i>
    <i name="e_wo_entrp">    -67.22969498 </i>
    <i name="e_0_energy">    -67.22969500 </i>
   </energy>
  </scstep>
  <scstep>
   <time name="dav">   33.84   33.84</time>
   <time name="total">   35.48   35.49</time>
   <energy>
    <i name="e_fr_energy">    -67.22969613 </i>
    <i name="e_wo_entrp">    -67.22969608 </i>
    <i name="e_0_energy">    -67.22969610 </i>
   </energy>
  </scstep>
  <scstep>
   <time name="dav">   37.30   37.31</time>
   <time name="total">   37.35   37.37</time>
   <energy>
    <i name="alphaZ">     14.61461864 </i>
    <i name="ewald">   2603.47533640 </i>
    <i name="hartreedc">  -3498.85854651 </i>
    <i name="XCdc">     96.07904841 </i>
    <i name="pawpsdc">   2906.44198556 </i>
    <i name="pawaedc">  -2908.97448945 </i>
    <i name="eentropy">     -0.00000004 </i>
    <i name="bandstr">   -305.21154877 </i>
    <i name="atom">   1025.20389953 </i>
    <i name="e_fr_energy">    -67.22969623 </i>
    <i name="e_wo_entrp">    -67.22969619 </i>
    <i name="e_0_energy">    -67.22969621 </i>
   </energy>
  </scstep>
  <structure>
   <crystal>
    <varray name="basis" >
     <v>       4.47648500       2.58450000       0.00000000 </v>
     <v>      -4.47648500       2.58450000       0.00000000 </v>
     <v>       0.00000000       0.00000000      15.00000000 </v>
    </varray>
    <i name="volume">    347.08426447 </i>
    <varray name="rec_basis" >
     <v>       0.11169478       0.19346102       0.00000000 </v>
     <v>      -0.11169478       0.19346102       0.00000000 </v>
     <v>       0.00000000       0.00000000       0.06666667 </v>
    </varray>
   </crystal>
   <varray name="positions" >
    <v>       0.33833034       0.66916432       0.25000000 </v>
    <v>       0.67165522       0.33584146       0.25000000 </v>
    <v>       0.16373946       0.31999962       0.25000000 </v>
    <v>       0.32250218       0.16126397       0.25000000 </v>
    <v>       0.16376430       0.84376384       0.25000000 </v>
    <v>       0.84623863       0.16123684       0.25000000 </v>
    <v>       0.68749850       0.84373000       0.25000000 </v>
    <v>       0.84626736       0.68499594       0.25000000 </v>
   </varray>
  </structure>
  <varray name="forces" >
   <v>       0.00031602       0.00043598       0.00000000 </v>
   <v>       0.00425112       0.00025216       0.00000000 </v>
   <v>      -0.00014474       0.00013040       0.00000000 </v>
   <v>      -0.00002420      -0.00081790       0.00000000 </v>
   <v>       0.00116450      -0.00037444       0.00000000 </v>
   <v>      -0.00185801      -0.00022395       0.00000000 </v>
   <v>      -0.00142550       0.00138471       0.00000000 </v>
   <v>      -0.00227917      -0.00078697       0.00000000 </v>
  </varray>
  <varray name="stress" >
   <v>      -0.78619874       0.00227550       0.00000000 </v>
   <v>       0.00227551      -0.78155789       0.00000000 </v>
   <v>       0.00000000       0.00000000      -0.86912726 </v>
  </varray>
  <energy>
   <i name="e_fr_energy">    -67.90773302 </i>
   <i name="e_wo_entrp">    -67.90773300 </i>
   <i name="e_0_energy">     -0.00000004 </i>
  </energy>
  <time name="totalsc"> 1012.98 1013.61</time>
  <eigenvalues>
   <array>
    <dimension dim="1">band</dimension>
    <dimension dim="2">kpoint</dimension>
    <dimension dim="3">spin</dimension>
    <field>eigene</field>
    <field>occ</field>
    <set>
     <set comment="spin 1">
      <set comment="kpoint 1">
       <r>  -19.8849    1.0000 </r>
       <r>  -15.9833    1.0000 </r>
       <r>  -15.9831    1.0000 </r>
       <r>  -13.6419    1.0000 </r>
       <r>  -13.6418    1.0000 </r>
       <r>  -12.5734    1.0000 </r>
       <r>  -11.2501    1.0000 </r>
       <r>   -8.6888    1.0000 </r>
       <r>   -8.4567    1.0000 </r>
       <r>   -6.3045    1.0000 </r>
       <r>   -6.3041    1.0000 </r>
       <r>   -4.4808    1.0000 </r>
       <r>   -4.4807    1.0000 </r>
       <r>   -3.7922    1.0000 </r>
       <r>   -3.7917    1.0000 </r>
       <r>   -1.9639    0.0000 </r>
       <r>   -0.2278    0.0000 </r>
       <r>   -0.2277    0.0000 </r>
       <r>    0.4316    0.0000 </r>
       <r>    0.8394    0.0000 </r>
       <r>    1.8422    0.0000 </r>
       <r>    2.2415    0.0000 </r>
       <r>    4.2252    0.0000 </r>
       <r>    4.8432    0.0000 </r>
       <r>    5.0087    0.0000 </r>
       <r>    5.0092    0.0000 </r>
       <r>    6.2958    0.0000 </r>
       <r>    6.7700    0.0000 </r>
       <r>    6.7707    0.0000 </r>
       <r>    7.8736    0.0000 </r>
       <r>    8.0492    0.0000 </r>
       <r>    8.1287    0.0000 </r>
      </set>
      <set comment="kpoint 2">
       <r>  -19.8813    1.0000 </r>
       <r>  -16.0017    1.0000 </r>
       <r>  -15.9891    1.0000 </r>
       <r>  -13.6467    1.0000 </r>
       <r>  -13.6284    1.0000 </r>
       <r>  -12.5555    1.0000 </r>
       <r>  -11.2281    1.0000 </r>
       <r>   -8.6833    1.0000 </r>
       <r>   -8.4642    1.0000 </r>
       <r>   -6.3210    1.0000 </r>
       <r>   -6.3075    1.0000 </r>
       <r>   -4.4975    1.0000 </r>
       <r>   -4.4836    1.0000 </r>
       <r>   -3.8113    1.0000 </r>
       <r>   -3.8010    1.0000 </r>
       <r>   -1.9965    0.0000 </r>
       <r>   -0.2197    0.0000 </r>
       <r>   -0.1797    0.0000 </r>
       <r>    0.4466    0.0000 </r>
       <r>    0.8463    0.0000 </r>
       <r>    1.8496    0.0000 </r>
       <r>    2.2484    0.0000 </r>
       <r>    4.2320    0.0000 </r>
       <r>    4.8506    0.0000 </r>
       <r>    5.0190    0.0000 </r>
       <r>    5.0307    0.0000 </r>
       <r>    6.3029    0.0000 </r>
       <r>    6.7727    0.0000 </r>
       <r>    6.7915    0.0000 </r>
       <r>    7.6706    0.0000 </r>
       <r>    7.8889    0.0000 </r>
       <r>    7.9096    0.0000 </r>
      </set>
      <set comment="kpoint 3">
       <r>  -19.8704    1.0000 </r>
       <r>  -16.0555    1.0000 </r>
       <r>  -16.0064    1.0000 </r>
       <r>  -13.6619    1.0000 </r>
       <r>  -13.5888    1.0000 </r>
       <r>  -12.5017    1.0000 </r>
       <r>  -11.1638    1.0000 </r>
       <r>   -8.6669    1.0000 </r>
[...]
       <r>  -19.3282    1.0000 </r>
       <r>  -17.5337    1.0000 </r>
       <r>  -16.5660    1.0000 </r>
       <r>  -13.9991    1.0000 </r>
       <r>  -12.0911    1.0000 </r>
       <r>  -10.1383    1.0000 </r>
       <r>   -9.8380    1.0000 </r>
       <r>   -8.8144    1.0000 </r>
       <r>   -7.9525    1.0000 </r>
       <r>   -7.6657    1.0000 </r>
       <r>   -6.8196    1.0000 </r>
       <r>   -6.4781    1.0000 </r>
       <r>   -6.2200    1.0000 </r>
       <r>   -5.0768    1.0000 </r>
       <r>   -4.9848    1.0000 </r>
       <r>   -2.8787    0.0000 </r>
       <r>    0.2430    0.0000 </r>
       <r>    2.0061    0.0000 </r>
       <r>    2.3089    0.0000 </r>
       <r>    3.1937    0.0000 </r>
       <r>    3.1960    0.0000 </r>
       <r>    3.7275    0.0000 </r>
       <r>    4.0027    0.0000 </r>
       <r>    4.4803    0.0000 </r>
       <r>    4.6270    0.0000 </r>
       <r>    5.3379    0.0000 </r>
       <r>    5.6446    0.0000 </r>
       <r>    5.8445    0.0000 </r>
       <r>    5.8668    0.0000 </r>
       <r>    6.2887    0.0000 </r>
       <r>    6.3202    0.0000 </r>
       <r>    6.6536    0.0000 </r>
      </set>
      <set comment="kpoint 544">
       <r>  -19.3225    1.0000 </r>
       <r>  -17.5715    1.0000 </r>
       <r>  -16.5065    1.0000 </r>
       <r>  -14.0983    1.0000 </r>
       <r>  -11.9762    1.0000 </r>
       <r>  -10.0696    1.0000 </r>
       <r>   -9.8581    1.0000 </r>
       <r>   -8.9562    1.0000 </r>
       <r>   -7.8665    1.0000 </r>
       <r>   -7.6422    1.0000 </r>
       <r>   -6.9548    1.0000 </r>
       <r>   -6.5499    1.0000 </r>
       <r>   -6.1587    1.0000 </r>
       <r>   -5.0341    1.0000 </r>
       <r>   -4.8671    1.0000 </r>
       <r>   -3.0198    0.0000 </r>
       <r>    0.4565    0.0000 </r>
       <r>    1.8019    0.0000 </r>
       <r>    2.3825    0.0000 </r>
       <r>    3.0462    0.0000 </r>
       <r>    3.2630    0.0000 </r>
       <r>    3.8023    0.0000 </r>
       <r>    3.8867    0.0000 </r>
       <r>    4.4769    0.0000 </r>
       <r>    4.6518    0.0000 </r>
       <r>    5.5188    0.0000 </r>
       <r>    5.6464    0.0000 </r>
       <r>    5.8165    0.0000 </r>
       <r>    5.8792    0.0000 </r>
       <r>    6.3581    0.0000 </r>
       <r>    6.4499    0.0000 </r>
       <r>    6.5642    0.0000 </r>
      </set>
      <set comment="kpoint 545">
       <r>  -19.3171    1.0000 </r>
       <r>  -17.5980    1.0000 </r>
       <r>  -16.4679    1.0000 </r>
       <r>  -14.1625    1.0000 </r>
       <r>  -11.8979    1.0000 </r>
       <r>  -10.0125    1.0000 </r>
       <r>   -9.8548    1.0000 </r>
       <r>   -9.0881    1.0000 </r>
       <r>   -7.7510    1.0000 </r>
       <r>   -7.6205    1.0000 </r>
       <r>   -7.0994    1.0000 </r>
       <r>   -6.6026    1.0000 </r>
       <r>   -6.1141    1.0000 </r>
       <r>   -5.0105    1.0000 </r>
       <r>   -4.7849    1.0000 </r>
       <r>   -3.1188    0.0000 </r>
       <r>    0.6332    0.0000 </r>
       <r>    1.6364    0.0000 </r>
       <r>    2.4696    0.0000 </r>
       <r>    2.9120    0.0000 </r>
       <r>    3.3448    0.0000 </r>
       <r>    3.7673    0.0000 </r>
       <r>    3.8907    0.0000 </r>
       <r>    4.3405    0.0000 </r>
       <r>    4.8288    0.0000 </r>
       <r>    5.5445    0.0000 </r>
       <r>    5.5621    0.0000 </r>
       <r>    5.8619    0.0000 </r>
       <r>    6.0730    0.0000 </r>
       <r>    6.3805    0.0000 </r>
       <r>    6.3944    0.0000 </r>
       <r>    6.6870    0.0000 </r>
      </set>
     </set>
    </set>
   </array>
  </eigenvalues>
  <separator name="orbital magnetization" >
   <v name="MAGDIPOLOUT">      0.00000000      0.00000000      0.00000000</v>
  </separator>
  <dos>
   <i name="efermi">     -3.47654143 </i>
   <total>
    <array>
     <dimension dim="1">gridpoints</dimension>
     <dimension dim="2">spin</dimension>
     <field>energy</field>
     <field>total</field>
     <field>integrated</field>
     <set>
      <set comment="spin 1">
       <r>   -21.2855     0.0000     0.0000 </r>
       <r>   -21.1828     0.0000     0.0000 </r>
       <r>   -21.0801     0.0000     0.0000 </r>
       <r>   -20.9774     0.0000     0.0000 </r>
       <r>   -20.8747     0.0000     0.0000 </r>
       <r>   -20.7720     0.0000     0.0000 </r>
       <r>   -20.6693     0.0000     0.0000 </r>
       <r>   -20.5665     0.0000     0.0000 </r>
       <r>   -20.4638     0.0000     0.0000 </r>
       <r>   -20.3611     0.0000     0.0000 </r>
       <r>   -20.2584     0.0000     0.0000 </r>
       <r>   -20.1557     0.0000     0.0000 </r>
       <r>   -20.0530     0.0037     0.0004 </r>
       <r>   -19.9502     0.1199     0.0127 </r>
       <r>   -19.8475     0.8108     0.0960 </r>
       <r>   -19.7448     1.7138     0.2720 </r>
       <r>   -19.6421     2.0797     0.4856 </r>
       <r>   -19.5394     2.3428     0.7263 </r>
       <r>   -19.4367     2.8791     1.0220 </r>
       <r>   -19.3339     3.9945     1.4323 </r>
       <r>   -19.2312     3.9245     1.8354 </r>
       <r>   -19.1285     1.4558     1.9850 </r>
       <r>   -19.0258     0.1436     1.9997 </r>
       <r>   -18.9231     0.0029     2.0000 </r>
       <r>   -18.8204     0.0000     2.0000 </r>
       <r>   -18.7176     0.0000     2.0000 </r>
       <r>   -18.6149     0.0000     2.0000 </r>
       <r>   -18.5122     0.0000     2.0000 </r>
       <r>   -18.4095     0.0000     2.0000 </r>
       <r>   -18.3068     0.0000     2.0000 </r>
       <r>   -18.2041     0.0000     2.0000 </r>
       <r>   -18.1013     0.0000     2.0000 </r>
       <r>   -17.9986     0.0000     2.0000 </r>
       <r>   -17.8959     0.0000     2.0000 </r>
       <r>   -17.7932     0.0036     2.0004 </r>
       <r>   -17.6905     0.1360     2.0143 </r>
       <r>   -17.5878     1.0587     2.1231 </r>
       <r>   -17.4850     2.5279     2.3828 </r>
       <r>   -17.3823     3.2262     2.7141 </r>
       <r>   -17.2796     2.7292     2.9945 </r>
       <r>   -17.1769     1.9703     3.1969 </r>
       <r>   -17.0742     1.8459     3.3865 </r>
       <r>   -16.9715     1.9117     3.5828 </r>
       <r>   -16.8687     2.0101     3.7893 </r>
       <r>   -16.7660     2.1477     4.0099 </r>
       <r>   -16.6633     2.3616     4.2525 </r>
       <r>   -16.5606     2.7749     4.5375 </r>
       <r>   -16.4579     3.4452     4.8914 </r>
       <r>   -16.3552     3.3952     5.2401 </r>
       <r>   -16.2524     2.5968     5.5069 </r>
       <r>   -16.1497     2.0548     5.7179 </r>
       <r>   -16.0470     1.6434     5.8867 </r>
       <r>   -15.9443     0.9084     5.9800 </r>
       <r>   -15.8416     0.1856     5.9991 </r>
       <r>   -15.7389     0.0087     6.0000 </r>
       <r>   -15.6361     0.0001     6.0000 </r>
       <r>   -15.5334     0.0000     6.0000 </r>
       <r>   -15.4307     0.0000     6.0000 </r>
       <r>   -15.3280     0.0000     6.0000 </r>
       <r>   -15.2253     0.0000     6.0000 </r>
       <r>   -15.1226     0.0000     6.0000 </r>
       <r>   -15.0198     0.0000     6.0000 </r>
       <r>   -14.9171     0.0000     6.0000 </r>
       <r>   -14.8144     0.0000     6.0000 </r>
       <r>   -14.7117     0.0000     6.0000 </r>
       <r>   -14.6090     0.0000     6.0000 </r>
       <r>   -14.5063     0.0000     6.0000 </r>
       <r>   -14.4035     0.0004     6.0000 </r>
       <r>   -14.3008     0.0302     6.0031 </r>
       <r>   -14.1981     0.4133     6.0456 </r>
       <r>   -14.0954     1.4277     6.1923 </r>
       <r>   -13.9927     2.1036     6.4083 </r>
       <r>   -13.8900     2.4322     6.6581 </r>
       <r>   -13.7872     2.9932     6.9656 </r>
       <r>   -13.6845     3.5363     7.3288 </r>
       <r>   -13.5818     2.7520     7.6115 </r>
       <r>   -13.4791     1.8342     7.7999 </r>
       <r>   -13.3764     1.5654     7.9607 </r>
       <r>   -13.2737     1.4452     8.1092 </r>
       <r>   -13.1709     1.3806     8.2510 </r>
       <r>   -13.0682     1.3299     8.3876 </r>
       <r>   -12.9655     1.2808     8.5191 </r>
       <r>   -12.8628     1.2655     8.6491 </r>
       <r>   -12.7601     1.4452     8.7976 </r>
       <r>   -12.6574     1.8576     8.9884 </r>
       <r>   -12.5546     1.9931     9.1931 </r>
       <r>   -12.4519     1.8883     9.3871 </r>
       <r>   -12.3492     1.7399     9.5658 </r>
       <r>   -12.2465     1.6117     9.7313 </r>
       <r>   -12.1438     1.5115     9.8866 </r>
       <r>   -12.0411     1.4259    10.0330 </r>
       <r>   -11.9383     1.3091    10.1675 </r>
       <r>   -11.8356     1.0142    10.2717 </r>
       <r>   -11.7329     0.5792    10.3312 </r>
       <r>   -11.6302     0.4598    10.3784 </r>
       <r>   -11.5275     0.4493    10.4246 </r>
       <r>   -11.4248     0.4829    10.4742 </r>
       <r>   -11.3220     0.4808    10.5235 </r>
       <r>   -11.2193     0.6526    10.5906 </r>
       <r>   -11.1166     0.7408    10.6667 </r>
       <r>   -11.0139     0.9202    10.7612 </r>
       <r>   -10.9112     0.9241    10.8561 </r>
       <r>   -10.8085     1.3655    10.9964 </r>
       <r>   -10.7057     1.4824    11.1486 </r>
       <r>   -10.6030     1.6794    11.3211 </r>
       <r>   -10.5003     1.7702    11.5030 </r>
       <r>   -10.3976     1.9224    11.7004 </r>
       <r>   -10.2949     2.2749    11.9341 </r>
       <r>   -10.1922     2.2207    12.1622 </r>
       <r>   -10.0894     1.7068    12.3375 </r>
       <r>    -9.9867     1.2993    12.4710 </r>
       <r>    -9.8840     1.6786    12.6434 </r>
       <r>    -9.7813     2.6177    12.9123 </r>
       <r>    -9.6786     2.6903    13.1886 </r>
       <r>    -9.5759     2.2270    13.4173 </r>
       <r>    -9.4731     2.0767    13.6307 </r>
       <r>    -9.3704     1.8396    13.8196 </r>
       <r>    -9.2677     1.9058    14.0154 </r>
       <r>    -9.1650     1.9502    14.2157 </r>
       <r>    -9.0623     2.1783    14.4394 </r>
       <r>    -8.9596     2.4566    14.6918 </r>
       <r>    -8.8568     2.6024    14.9591 </r>
       <r>    -8.7541     2.5004    15.2159 </r>
       <r>    -8.6514     2.6408    15.4872 </r>
       <r>    -8.5487     3.0021    15.7955 </r>
       <r>    -8.4460     2.8205    16.0852 </r>
       <r>    -8.3433     2.3254    16.3241 </r>
       <r>    -8.2405     2.0628    16.5360 </r>
       <r>    -8.1378     1.9972    16.7411 </r>
       <r>    -8.0351     2.4709    16.9949 </r>
       <r>    -7.9324     3.1592    17.3194 </r>
       <r>    -7.8297     4.0025    17.7305 </r>
       <r>    -7.7270     4.3952    18.1820 </r>
       <r>    -7.6242     4.3542    18.6293 </r>
       <r>    -7.5215     3.8843    19.0282 </r>
       <r>    -7.4188     2.5899    19.2943 </r>
       <r>    -7.3161     1.7332    19.4723 </r>
       <r>    -7.2134     2.0035    19.6781 </r>
       <r>    -7.1107     2.0910    19.8929 </r>
       <r>    -7.0080     1.7502    20.0726 </r>
       <r>    -6.9052     1.6161    20.2386 </r>
       <r>    -6.8025     1.6293    20.4060 </r>
       <r>    -6.6998     1.8492    20.5959 </r>
       <r>    -6.5971     2.6930    20.8726 </r>
       <r>    -6.4944     4.2118    21.3052 </r>
       <r>    -6.3917     6.8036    22.0040 </r>
       <r>    -6.2889     7.9464    22.8202 </r>
       <r>    -6.1862     5.7998    23.4160 </r>
       <r>    -6.0835     3.9437    23.8211 </r>
       <r>    -5.9808     2.6975    24.0982 </r>
       <r>    -5.8781     2.3292    24.3374 </r>
       <r>    -5.7754     2.3691    24.5807 </r>
       <r>    -5.6726     2.4221    24.8295 </r>
       <r>    -5.5699     2.5465    25.0911 </r>
       <r>    -5.4672     2.6266    25.3609 </r>
       <r>    -5.3645     2.7965    25.6482 </r>
       <r>    -5.2618     2.9682    25.9530 </r>
       <r>    -5.1591     3.2577    26.2876 </r>
       <r>    -5.0563     3.7055    26.6683 </r>
       <r>    -4.9536     4.1876    27.0984 </r>
       <r>    -4.8509     4.3414    27.5443 </r>
       <r>    -4.7482     4.7369    28.0309 </r>
       <r>    -4.6455     4.6200    28.5054 </r>
       <r>    -4.5428     3.9518    28.9114 </r>
       <r>    -4.4400     2.7999    29.1990 </r>
       <r>    -4.3373     1.6060    29.3639 </r>
       <r>    -4.2346     1.2702    29.4944 </r>
       <r>    -4.1319     1.2057    29.6182 </r>
       <r>    -4.0292     1.1636    29.7378 </r>
       <r>    -3.9265     1.1171    29.8525 </r>
       <r>    -3.8237     0.9430    29.9494 </r>
       <r>    -3.7210     0.4318    29.9937 </r>
       <r>    -3.6183     0.0595    29.9998 </r>
       <r>    -3.5156     0.0017    30.0000 </r>
       <r>    -3.4129     0.0000    30.0000 </r>
       <r>    -3.3102     0.0050    30.0005 </r>
       <r>    -3.2074     0.1267    30.0135 </r>
       <r>    -3.1047     0.7018    30.0856 </r>
       <r>    -3.0020     1.3334    30.2226 </r>
       <r>    -2.8993     1.6001    30.3870 </r>
       <r>    -2.7966     1.8458    30.5765 </r>
       <r>    -2.6939     2.3150    30.8143 </r>
       <r>    -2.5911     2.6874    31.0904 </r>
       <r>    -2.4884     2.2722    31.3238 </r>
       <r>    -2.3857     1.5864    31.4867 </r>
       <r>    -2.2830     1.2664    31.6168 </r>
       <r>    -2.1803     0.9968    31.7192 </r>
       <r>    -2.0776     0.8409    31.8056 </r>
       <r>    -1.9748     0.6374    31.8710 </r>
       <r>    -1.8721     0.4454    31.9168 </r>
       <r>    -1.7694     0.2972    31.9473 </r>
       <r>    -1.6667     0.2286    31.9708 </r>
       <r>    -1.5640     0.1542    31.9866 </r>
       <r>    -1.4613     0.0908    31.9960 </r>
       <r>    -1.3585     0.0451    32.0006 </r>
       <r>    -1.2558     0.0489    32.0056 </r>
       <r>    -1.1531     0.1128    32.0172 </r>
       <r>    -1.0504     0.1685    32.0345 </r>
       <r>    -0.9477     0.2561    32.0608 </r>
       <r>    -0.8450     0.3118    32.0928 </r>
       <r>    -0.7422     0.4212    32.1361 </r>
       <r>    -0.6395     0.4809    32.1855 </r>
       <r>    -0.5368     0.6353    32.2507 </r>
       <r>    -0.4341     0.7136    32.3240 </r>
       <r>    -0.3314     0.9954    32.4263 </r>
       <r>    -0.2287     1.5120    32.5816 </r>
       <r>    -0.1259     2.8040    32.8696 </r>
       <r>    -0.0232     2.9019    33.1677 </r>
       <r>     0.0795     2.2127    33.3950 </r>
       <r>     0.1822     1.6568    33.5651 </r>
       <r>     0.2849     1.5044    33.7197 </r>
       <r>     0.3876     1.3265    33.8559 </r>
       <r>     0.4904     1.4786    34.0078 </r>
       <r>     0.5931     1.4885    34.1607 </r>
       <r>     0.6958     1.3756    34.3020 </r>
       <r>     0.7985     1.1291    34.4180 </r>
       <r>     0.9012     1.3795    34.5597 </r>
       <r>     1.0039     1.7756    34.7421 </r>
       <r>     1.1067     1.8773    34.9349 </r>
       <r>     1.2094     1.9400    35.1341 </r>
       <r>     1.3121     2.0115    35.3408 </r>
       <r>     1.4148     2.1126    35.5578 </r>
       <r>     1.5175     2.2715    35.7911 </r>
       <r>     1.6202     2.4417    36.0419 </r>
       <r>     1.7230     2.3441    36.2827 </r>
       <r>     1.8257     2.4398    36.5333 </r>
       <r>     1.9284     2.7512    36.8159 </r>
       <r>     2.0311     3.0116    37.1252 </r>
       <r>     2.1338     3.0266    37.4361 </r>
       <r>     2.2365     3.1513    37.7598 </r>
       <r>     2.3393     3.7045    38.1403 </r>
       <r>     2.4420     3.8190    38.5326 </r>
       <r>     2.5447     3.8928    38.9324 </r>
       <r>     2.6474     3.8818    39.3312 </r>
       <r>     2.7501     3.8001    39.7215 </r>
       <r>     2.8528     3.8840    40.1204 </r>
       <r>     2.9556     3.7971    40.5105 </r>
       <r>     3.0583     3.8002    40.9008 </r>
       <r>     3.1610     3.8604    41.2973 </r>
       <r>     3.2637     3.7190    41.6793 </r>
       <r>     3.3664     3.8794    42.0778 </r>
       <r>     3.4691     3.7330    42.4613 </r>
       <r>     3.5719     3.8367    42.8553 </r>
       <r>     3.6746     3.7413    43.2396 </r>
       <r>     3.7773     3.8230    43.6323 </r>
       <r>     3.8800     3.9043    44.0333 </r>
       <r>     3.9827     4.0082    44.4451 </r>
       <r>     4.0854     3.9646    44.8523 </r>
       <r>     4.1882     3.1990    45.1809 </r>
       <r>     4.2909     3.3088    45.5207 </r>
       <r>     4.3936     4.3653    45.9691 </r>
       <r>     4.4963     4.8413    46.4664 </r>
       <r>     4.5990     4.8878    46.9685 </r>
       <r>     4.7017     4.7039    47.4516 </r>
       <r>     4.8045     5.0311    47.9684 </r>
       <r>     4.9072     5.4493    48.5281 </r>
       <r>     5.0099     5.8740    49.1315 </r>
       <r>     5.1126     6.1650    49.7648 </r>
       <r>     5.2153     6.5685    50.4394 </r>
       <r>     5.3180     7.1465    51.1735 </r>
       <r>     5.4208     7.4429    51.9380 </r>
       <r>     5.5235     8.2531    52.7857 </r>
       <r>     5.6262     7.3803    53.5438 </r>
       <r>     5.7289     6.0018    54.1603 </r>
       <r>     5.8316     6.7492    54.8536 </r>
       <r>     5.9343     7.8548    55.6604 </r>
       <r>     6.0371     7.8610    56.4678 </r>
       <r>     6.1398     7.1694    57.2042 </r>
       <r>     6.2425     6.6895    57.8914 </r>
       <r>     6.3452     7.4572    58.6573 </r>
       <r>     6.4479     7.3467    59.4120 </r>
       <r>     6.5506     6.8535    60.1159 </r>
       <r>     6.6534     6.4562    60.7791 </r>
       <r>     6.7561     6.3746    61.4339 </r>
       <r>     6.8588     6.9451    62.1472 </r>
       <r>     6.9615     6.1240    62.7763 </r>
       <r>     7.0642     4.4066    63.2289 </r>
       <r>     7.1669     2.8590    63.5226 </r>
       <r>     7.2696     1.3266    63.6588 </r>
       <r>     7.3724     0.9737    63.7588 </r>
       <r>     7.4751     0.7105    63.8318 </r>
       <r>     7.5778     0.4382    63.8768 </r>
       <r>     7.6805     0.3255    63.9103 </r>
       <r>     7.7832     0.2510    63.9360 </r>
       <r>     7.8859     0.2403    63.9607 </r>
       <r>     7.9887     0.2337    63.9847 </r>
       <r>     8.0914     0.1038    63.9954 </r>
       <r>     8.1941     0.0385    63.9994 </r>
       <r>     8.2968     0.0060    64.0000 </r>
       <r>     8.3995     0.0002    64.0000 </r>
       <r>     8.5022     0.0000    64.0000 </r>
       <r>     8.6050     0.0000    64.0000 </r>
       <r>     8.7077     0.0000    64.0000 </r>
       <r>     8.8104     0.0000    64.0000 </r>
       <r>     8.9131     0.0000    64.0000 </r>
       <r>     9.0158     0.0000    64.0000 </r>
       <r>     9.1185     0.0000    64.0000 </r>
       <r>     9.2213     0.0000    64.0000 </r>
       <r>     9.3240     0.0000    64.0000 </r>
       <r>     9.4267     0.0000    64.0000 </r>
       <r>     9.5294     0.0000    64.0000 </r>
      </set>
     </set>
    </array>
   </total>
  </dos>
 </calculation>
 <structure name="finalpos" >
  <crystal>
   <varray name="basis" >
    <v>       4.47648500       2.58450000       0.00000000 </v>
    <v>      -4.47648500       2.58450000       0.00000000 </v>
    <v>       0.00000000       0.00000000      15.00000000 </v>
   </varray>
   <i name="volume">    347.08426447 </i>
   <varray name="rec_basis" >
    <v>       0.11169478       0.19346102       0.00000000 </v>
    <v>      -0.11169478       0.19346102       0.00000000 </v>
    <v>       0.00000000       0.00000000       0.06666667 </v>
   </varray>
  </crystal>
  <varray name="positions" >
   <v>       0.33833034       0.66916432       0.25000000 </v>
   <v>       0.67165522       0.33584146       0.25000000 </v>
   <v>       0.16373946       0.31999962       0.25000000 </v>
   <v>       0.32250218       0.16126397       0.25000000 </v>
   <v>       0.16376430       0.84376384       0.25000000 </v>
   <v>       0.84623863       0.16123684       0.25000000 </v>
   <v>       0.68749850       0.84373000       0.25000000 </v>
   <v>       0.84626736       0.68499594       0.25000000 </v>
  </varray>
 </structure>
</modeling>
