 vasp.6.3.2 27Jun22 (build Dec 22 2022 13:13:19) complex                        
  
 executed on             LinuxIFC date 2023.11.02  05:08:46
 running   48 mpi-ranks, with    1 threads/rank
 distrk:  each k-point on   48 cores,    1 groups
 distr:  one band on NCORE=   1 cores,   48 groups


--------------------------------------------------------------------------------------------------------


 INCAR:
   SYSTEM = PDoS
   ISTART = 1
   ICHARG = 11
   PREC = Accurate
   LORBIT = 11
   NEDOS = 4000
   ENCUT = 450
   LCHARG = .FALSE.
   LWAVE = .FALSE.
   ALGO = Normal
   EDIFF = 1E-6
   EDIFFG = -1E-3
   SIGMA = 0.1
   ISMEAR = 0
   SYMPREC = 1E-6
   NSW = 0
   IBRION = -1
   POTIM = .5

 POTCAR:    PAW_PBE B 06Sep2000                   
 POTCAR:    PAW_PBE C 08Apr2002                   
 POTCAR:    PAW_PBE B 06Sep2000                   
   SHA256 =  a32ced30f5ae56fd4d10b4325ff17eb3e4e38ee0f4288bc219fb012fddfa6e97 B/POTCAR              
   COPYR  = (c) Copyright 06Sep2000 Georg Kresse                                                    
   COPYR  = This file is part of the software VASP. Any use, copying, and all other rights are regul
   COPYR  = If you do not have a valid VASP license, you may not use, copy or distribute this file. 
   VRHFIN =B: s2p1                                                                                  
   LEXCH  = PE                                                                                      
   EATOM  =    71.1703 eV,    5.2309 Ry                                                             
                                                                                                    
   TITEL  = PAW_PBE B 06Sep2000                                                                     
   LULTRA =        F    use ultrasoft PP ?                                                          
   IUNSCR =        1    unscreen: 0-lin 1-nonlin 2-no                                               
   RPACOR =    1.200    partial core radius                                                         
   POMASS =   10.811; ZVAL   =    3.000    mass and valenz                                          
   RCORE  =    1.700    outmost cutoff radius                                                       
   RWIGS  =    1.710; RWIGS  =    0.905    wigner-seitz radius (au A)                               
   ENMAX  =  318.614; ENMIN  =  238.960 eV                                                          
   ICORE  =        2    local potential                                                             
   LCOR   =        T    correct aug charges                                                         
   LPAW   =        T    paw PP                                                                      
   EAUG   =  535.514                                                                                
   DEXC   =    0.000                                                                                
   RMAX   =    1.732    core radius for proj-oper                                                   
   RAUG   =    1.300    factor for augmentation sphere                                              
   RDEP   =    1.757    radius for radial grids                                                     
   RDEPT  =    1.436    core radius for aug-charge                                                  
                                                                                                    
   Atomic configuration                                                                             
    4 entries                                                                                       
     n  l   j            E        occ.                                                              
     1  0  0.50      -180.5896   2.0000                                                             
     2  0  0.50        -9.4431   2.0000                                                             
     2  1  0.50        -3.6068   1.0000                                                             
     3  2  1.50        -4.0817   0.0000                                                             
   Description                                                                                      
     l       E           TYP  RCUT    TYP  RCUT                                                     
     0     -9.4430752     23  1.500                                                                 
     0      0.8675899     23  1.500                                                                 
     1     -3.6067955     23  1.700                                                                 
     1      6.1086146     23  1.700                                                                 
     2     -4.0817478      7  1.700                                                                 
  local pseudopotential read in
  partial core-charges read in
  partial kinetic energy density read in
  atomic valenz-charges read in
  non local Contribution for L=           0  read in
    real space projection operators read in
  non local Contribution for L=           0  read in
    real space projection operators read in
  non local Contribution for L=           1  read in
    real space projection operators read in
  non local Contribution for L=           1  read in
    real space projection operators read in
    PAW grid and wavefunctions read in
 
   number of l-projection  operators is LMAX  =           4
   number of lm-projection operators is LMMAX =           8
 
 POTCAR:    PAW_PBE C 08Apr2002                   
   SHA256 =  253f7b50bb8d59471dbedb8285d89021f4a42ed1a2c5d38a03a736e69125dd95 C/POTCAR              
   COPYR  = (c) Copyright 08Apr2002 Georg Kresse                                                    
   COPYR  = This file is part of the software VASP. Any use, copying, and all other rights are regul
   COPYR  = If you do not have a valid VASP license, you may not use, copy or distribute this file. 
   VRHFIN =C: s2p2                                                                                  
   LEXCH  = PE                                                                                      
   EATOM  =   147.1560 eV,   10.8157 Ry                                                             
                                                                                                    
   TITEL  = PAW_PBE C 08Apr2002                                                                     
   LULTRA =        F    use ultrasoft PP ?                                                          
   IUNSCR =        1    unscreen: 0-lin 1-nonlin 2-no                                               
   RPACOR =    1.200    partial core radius                                                         
   POMASS =   12.011; ZVAL   =    4.000    mass and valenz                                          
   RCORE  =    1.500    outmost cutoff radius                                                       
   RWIGS  =    1.630; RWIGS  =    0.863    wigner-seitz radius (au A)                               
   ENMAX  =  400.000; ENMIN  =  300.000 eV                                                          
   ICORE  =        2    local potential                                                             
   LCOR   =        T    correct aug charges                                                         
   LPAW   =        T    paw PP                                                                      
   EAUG   =  644.873                                                                                
   DEXC   =    0.000                                                                                
   RMAX   =    1.529    core radius for proj-oper                                                   
   RAUG   =    1.300    factor for augmentation sphere                                              
   RDEP   =    1.501    radius for radial grids                                                     
   RDEPT  =    1.300    core radius for aug-charge                                                  
                                                                                                    
   Atomic configuration                                                                             
    4 entries                                                                                       
     n  l   j            E        occ.                                                              
     1  0  0.50      -273.3789   2.0000                                                             
     2  0  0.50       -13.7508   2.0000                                                             
     2  1  0.50        -5.2854   2.0000                                                             
     3  2  1.50        -5.4423   0.0000                                                             
   Description                                                                                      
     l       E           TYP  RCUT    TYP  RCUT                                                     
     0    -13.7508458     23  1.200                                                                 
     0     -8.2022199     23  1.200                                                                 
     1     -5.2854383     23  1.500                                                                 
     1     34.0145650     23  1.500                                                                 
     2     -5.4423304      7  1.500                                                                 
  local pseudopotential read in
  partial core-charges read in
  partial kinetic energy density read in
  atomic valenz-charges read in
  non local Contribution for L=           0  read in
    real space projection operators read in
  non local Contribution for L=           0  read in
    real space projection operators read in
  non local Contribution for L=           1  read in
    real space projection operators read in
  non local Contribution for L=           1  read in
    real space projection operators read in
    PAW grid and wavefunctions read in
 
   number of l-projection  operators is LMAX  =           4
   number of lm-projection operators is LMMAX =           8
 
  PAW_PBE B 06Sep2000                   :
 energy of atom  1       EATOM=  -71.1703
 kinetic energy error for atom=    0.0015 (will be added to EATOM!!)
  PAW_PBE C 08Apr2002                   :
 energy of atom  2       EATOM= -147.1560
 kinetic energy error for atom=    0.0116 (will be added to EATOM!!)
 
 
 POSCAR: Graphene-B4C3 Top with lattice parameter
  positions in direct lattice
  velocities in cartesian coordinates
 exchange correlation table for  LEXCH =        8
   RHO(1)=    0.500       N(1)  =     2000
   RHO(2)=  100.500       N(2)  =     4000

 VTST: version 4.2, (08/11/21)

 CHAIN: initializing optimizer
 
 OPT: Using VASP Dynamics algorithm
 CHAIN: Read ICHAIN            0
 
 POSCAR: Graphene-B4C3 Top with lattice parameter
  positions in direct lattice
  velocities in cartesian coordinates
 


--------------------------------------------------------------------------------------------------------


 ion  position               nearest neighbor table
   1  0.004  0.003  0.102-   5 1.57   6 1.57   7 1.57   3 1.72   2 1.72   4 1.72
   2  0.359  0.003  0.101-   6 1.56   5 1.65   7 1.65   1 1.72
   3  0.004  0.358  0.101-   7 1.56   6 1.65   5 1.65   1 1.72
   4  0.649  0.648  0.101-   5 1.56   7 1.65   6 1.65   1 1.72
   5  0.328  0.326  0.101-   4 1.56   1 1.57   2 1.65   3 1.65
   6  0.681  0.003  0.101-   2 1.56   1 1.57   3 1.65   4 1.65
   7  0.004  0.679  0.101-   3 1.56   1 1.57   4 1.65   2 1.65
   8  0.000  0.500  0.335-   9 1.40  11 1.40  13 1.40
   9  0.167  0.333  0.335-   8 1.40  12 1.40  10 1.40
  10  0.000  0.000  0.335-  11 1.40   9 1.40  15 1.40
  11  0.167  0.833  0.335-  14 1.40   8 1.40  10 1.40
  12  0.500  0.500  0.335-  15 1.40   9 1.40  13 1.40
  13  0.667  0.333  0.335-  12 1.40   8 1.40  14 1.40
  14  0.500  0.000  0.335-  11 1.40  15 1.40  13 1.40
  15  0.667  0.833  0.335-  12 1.40  14 1.40  10 1.40
 
  LATTYP: Found a hexagonal cell.
 ALAT       =     4.8460000000
 C/A-ratio  =     3.0953363599
  
  Lattice vectors:
  
 A1 = (   4.1967591067,   2.4230000000,   0.0000000000)
 A2 = (  -4.1967591067,   2.4230000000,   0.0000000000)
 A3 = (   0.0000000000,   0.0000000000,  15.0000000000)


Analysis of symmetry for initial positions (statically):
=====================================================================
 Subroutine PRICEL returns:
 Original cell was already a primitive cell.
 

 Routine SETGRP: Setting up the symmetry group for a 
 hexagonal supercell.


 Subroutine GETGRP returns: Found  1 space group operations
 (whereof  1 operations were pure point group operations)
 out of a pool of 24 trial point group operations.


The static configuration has the point symmetry C_1 .


Analysis of symmetry for dynamics (positions and initial velocities):
=====================================================================
 Subroutine PRICEL returns:
 Original cell was already a primitive cell.
 

 Routine SETGRP: Setting up the symmetry group for a 
 hexagonal supercell.


 Subroutine GETGRP returns: Found  1 space group operations
 (whereof  1 operations were pure point group operations)
 out of a pool of 24 trial point group operations.


The dynamic configuration has the point symmetry C_1 .


 Subroutine INISYM returns: Found  1 space group operations
 (whereof  1 operations are pure point group operations),
 and found     1 'primitive' translations


----------------------------------------------------------------------------------------

                                     Primitive cell                                     

  volume of cell :     305.0624

  direct lattice vectors                    reciprocal lattice vectors
     4.196759107  2.423000000  0.000000000     0.119139552  0.206355757  0.000000000
    -4.196759107  2.423000000  0.000000000    -0.119139552  0.206355757  0.000000000
     0.000000000  0.000000000 15.000000000     0.000000000  0.000000000  0.066666667

  length of vectors
     4.846000000  4.846000000 15.000000000     0.238279104  0.238279104  0.066666667

  position of ions in fractional coordinates (direct lattice)
     0.004056526  0.002697343  0.101501060
     0.359245494  0.002978704  0.100711409
     0.003767832  0.357599513  0.100712169
     0.649148177  0.647506274  0.100708602
     0.327784757  0.326144145  0.100730862
     0.680601878  0.002974890  0.100730542
     0.003770558  0.678959212  0.100727858
     0.000132595  0.500063036  0.335115331
     0.166783864  0.333452843  0.335150012
     0.000115386  0.000071038  0.335075930
     0.166825953  0.833402697  0.335153906
     0.500125878  0.500099855  0.335118110
     0.666781160  0.333405941  0.335013099
     0.500087443  0.000053650  0.335113676
     0.666733165  0.833358192  0.335150101

  ion indices of the primitive-cell ions
   primitive index   ion index
                 1           1
                 2           2
                 3           3
                 4           4
                 5           5
                 6           6
                 7           7
                 8           8
                 9           9
                10          10
                11          11
                12          12
                13          13
                14          14
                15          15

----------------------------------------------------------------------------------------

 
 
 KPOINTS: k-points                                

Automatic generation of k-mesh.
 Grid dimensions read from file:
 generate k-points for:   41   41    1

 Generating k-lattice:

  Cartesian coordinates                     Fractional coordinates (reciprocal lattice)
     0.002905843  0.005033067  0.000000000     0.024390244 -0.000000000  0.000000000
    -0.002905843  0.005033067  0.000000000    -0.000000000  0.024390244  0.000000000
     0.000000000  0.000000000  0.066666667     0.000000000  0.000000000  1.000000000

  Length of vectors
     0.005811685  0.005811685  0.066666667

  Shift w.r.t. Gamma in fractional coordinates (k-lattice)
     0.000000000  0.000000000  0.000000000

 
 Subroutine IBZKPT returns following result:
 ===========================================
 
 Found    841 irreducible k-points:
 
 Following reciprocal coordinates:
            Coordinates               Weight
  0.000000  0.000000  0.000000      1.000000
  0.024390  0.000000  0.000000      2.000000
  0.000000  0.024390  0.000000      2.000000
 -0.024390  0.024390  0.000000      2.000000
  0.048780  0.000000  0.000000      2.000000
  0.000000  0.048780  0.000000      2.000000
 -0.048780  0.048780  0.000000      2.000000
  0.073171  0.000000  0.000000      2.000000
  0.000000  0.073171  0.000000      2.000000
 -0.073171  0.073171  0.000000      2.000000
  0.097561  0.000000  0.000000      2.000000
  0.000000  0.097561  0.000000      2.000000
 -0.097561  0.097561  0.000000      2.000000
  0.121951 -0.000000  0.000000      2.000000
 -0.000000  0.121951  0.000000      2.000000
 -0.121951  0.121951  0.000000      2.000000
  0.146341  0.000000  0.000000      2.000000
  0.000000  0.146341  0.000000      2.000000
 -0.146341  0.146341  0.000000      2.000000
  0.170732  0.000000  0.000000      2.000000
  0.000000  0.170732  0.000000      2.000000
 -0.170732  0.170732  0.000000      2.000000
  0.195122  0.000000  0.000000      2.000000
  0.000000  0.195122  0.000000      2.000000
 -0.195122  0.195122  0.000000      2.000000
  0.219512 -0.000000  0.000000      2.000000
 -0.000000  0.219512  0.000000      2.000000
 -0.219512  0.219512  0.000000      2.000000
  0.243902 -0.000000  0.000000      2.000000
  0.000000  0.243902  0.000000      2.000000
 -0.243902  0.243902  0.000000      2.000000
  0.268293  0.000000  0.000000      2.000000
  0.000000  0.268293  0.000000      2.000000
 -0.268293  0.268293  0.000000      2.000000
  0.292683 -0.000000  0.000000      2.000000
 -0.000000  0.292683  0.000000      2.000000
 -0.292683  0.292683  0.000000      2.000000
  0.317073  0.000000  0.000000      2.000000
  0.000000  0.317073  0.000000      2.000000
 -0.317073  0.317073  0.000000      2.000000
  0.341463  0.000000  0.000000      2.000000
  0.000000  0.341463  0.000000      2.000000
 -0.341463  0.341463  0.000000      2.000000
  0.365854  0.000000  0.000000      2.000000
  0.000000  0.365854  0.000000      2.000000
 -0.365854  0.365854  0.000000      2.000000
  0.390244  0.000000  0.000000      2.000000
  0.000000  0.390244  0.000000      2.000000
 -0.390244  0.390244  0.000000      2.000000
  0.414634 -0.000000  0.000000      2.000000
  0.000000  0.414634  0.000000      2.000000
 -0.414634  0.414634  0.000000      2.000000
  0.439024 -0.000000  0.000000      2.000000
 -0.000000  0.439024  0.000000      2.000000
 -0.439024  0.439024  0.000000      2.000000
  0.463415 -0.000000  0.000000      2.000000
  0.000000  0.463415  0.000000      2.000000
 -0.463415  0.463415  0.000000      2.000000
  0.487805 -0.000000  0.000000      2.000000
  0.000000  0.487805  0.000000      2.000000
 -0.487805  0.487805  0.000000      2.000000
  0.024390  0.024390  0.000000      2.000000
 -0.024390  0.048780  0.000000      2.000000
 -0.048780  0.024390  0.000000      2.000000
  0.048780  0.024390  0.000000      2.000000
 -0.024390  0.073171  0.000000      2.000000
 -0.073171  0.048780  0.000000      2.000000
 -0.048780  0.073171  0.000000      2.000000
  0.024390  0.048780  0.000000      2.000000
  0.073171 -0.024390  0.000000      2.000000
  0.073171  0.024390  0.000000      2.000000
 -0.024390  0.097561  0.000000      2.000000
 -0.097561  0.073171  0.000000      2.000000
 -0.073171  0.097561  0.000000      2.000000
  0.024390  0.073171  0.000000      2.000000
  0.097561 -0.024390  0.000000      2.000000
  0.097561  0.024390  0.000000      2.000000
 -0.024390  0.121951  0.000000      2.000000
 -0.121951  0.097561  0.000000      2.000000
 -0.097561  0.121951  0.000000      2.000000
  0.024390  0.097561  0.000000      2.000000
  0.121951 -0.024390  0.000000      2.000000
  0.121951  0.024390  0.000000      2.000000
 -0.024390  0.146341  0.000000      2.000000
 -0.146341  0.121951  0.000000      2.000000
 -0.121951  0.146341  0.000000      2.000000
  0.024390  0.121951  0.000000      2.000000
  0.146341 -0.024390  0.000000      2.000000
  0.146341  0.024390  0.000000      2.000000
 -0.024390  0.170732  0.000000      2.000000
 -0.170732  0.146341  0.000000      2.000000
 -0.146341  0.170732  0.000000      2.000000
  0.024390  0.146341  0.000000      2.000000
  0.170732 -0.024390  0.000000      2.000000
  0.170732  0.024390  0.000000      2.000000
 -0.024390  0.195122  0.000000      2.000000
 -0.195122  0.170732  0.000000      2.000000
 -0.170732  0.195122  0.000000      2.000000
  0.024390  0.170732  0.000000      2.000000
  0.195122 -0.024390  0.000000      2.000000
  0.195122  0.024390  0.000000      2.000000
 -0.024390  0.219512  0.000000      2.000000
 -0.219512  0.195122  0.000000      2.000000
 -0.195122  0.219512  0.000000      2.000000
  0.024390  0.195122  0.000000      2.000000
  0.219512 -0.024390  0.000000      2.000000
  0.219512  0.024390  0.000000      2.000000
 -0.024390  0.243902  0.000000      2.000000
 -0.243902  0.219512  0.000000      2.000000
 -0.219512  0.243902  0.000000      2.000000
  0.024390  0.219512  0.000000      2.000000
  0.243902 -0.024390  0.000000      2.000000
  0.243902  0.024390  0.000000      2.000000
 -0.024390  0.268293  0.000000      2.000000
 -0.268293  0.243902  0.000000      2.000000
 -0.243902  0.268293  0.000000      2.000000
  0.024390  0.243902  0.000000      2.000000
  0.268293 -0.024390  0.000000      2.000000
  0.268293  0.024390  0.000000      2.000000
 -0.024390  0.292683  0.000000      2.000000
 -0.292683  0.268293  0.000000      2.000000
 -0.268293  0.292683  0.000000      2.000000
  0.024390  0.268293  0.000000      2.000000
  0.292683 -0.024390  0.000000      2.000000
  0.292683  0.024390  0.000000      2.000000
 -0.024390  0.317073  0.000000      2.000000
 -0.317073  0.292683  0.000000      2.000000
 -0.292683  0.317073  0.000000      2.000000
  0.024390  0.292683  0.000000      2.000000
  0.317073 -0.024390  0.000000      2.000000
  0.317073  0.024390  0.000000      2.000000
 -0.024390  0.341463  0.000000      2.000000
 -0.341463  0.317073  0.000000      2.000000
 -0.317073  0.341463  0.000000      2.000000
  0.024390  0.317073  0.000000      2.000000
  0.341463 -0.024390  0.000000      2.000000
  0.341463  0.024390  0.000000      2.000000
 -0.024390  0.365854  0.000000      2.000000
 -0.365854  0.341463  0.000000      2.000000
 -0.341463  0.365854  0.000000      2.000000
  0.024390  0.341463  0.000000      2.000000
  0.365854 -0.024390  0.000000      2.000000
  0.365854  0.024390  0.000000      2.000000
 -0.024390  0.390244  0.000000      2.000000
 -0.390244  0.365854  0.000000      2.000000
 -0.365854  0.390244  0.000000      2.000000
  0.024390  0.365854  0.000000      2.000000
  0.390244 -0.024390  0.000000      2.000000
  0.390244  0.024390  0.000000      2.000000
 -0.024390  0.414634  0.000000      2.000000
 -0.414634  0.390244  0.000000      2.000000
 -0.390244  0.414634  0.000000      2.000000
  0.024390  0.390244  0.000000      2.000000
  0.414634 -0.024390  0.000000      2.000000
  0.414634  0.024390  0.000000      2.000000
 -0.024390  0.439024  0.000000      2.000000
 -0.439024  0.414634  0.000000      2.000000
 -0.414634  0.439024  0.000000      2.000000
  0.024390  0.414634  0.000000      2.000000
  0.439024 -0.024390  0.000000      2.000000
  0.439024  0.024390  0.000000      2.000000
 -0.024390  0.463415  0.000000      2.000000
 -0.463415  0.439024  0.000000      2.000000
 -0.439024  0.463415  0.000000      2.000000
  0.024390  0.439024  0.000000      2.000000
  0.463415 -0.024390  0.000000      2.000000
  0.463415  0.024390  0.000000      2.000000
 -0.024390  0.487805  0.000000      2.000000
 -0.487805  0.463415  0.000000      2.000000
 -0.463415  0.487805  0.000000      2.000000
  0.024390  0.463415  0.000000      2.000000
  0.487805 -0.024390  0.000000      2.000000
  0.487805  0.024390  0.000000      2.000000
 -0.024390 -0.487805  0.000000      2.000000
  0.487805  0.487805  0.000000      2.000000
  0.048780  0.048780  0.000000      2.000000
 -0.048780  0.097561  0.000000      2.000000
 -0.097561  0.048780  0.000000      2.000000
  0.073171  0.048780  0.000000      2.000000
 -0.048780  0.121951  0.000000      2.000000
 -0.121951  0.073171  0.000000      2.000000
 -0.073171  0.121951  0.000000      2.000000
  0.048780  0.073171  0.000000      2.000000
  0.121951 -0.048780  0.000000      2.000000
  0.097561  0.048780  0.000000      2.000000
 -0.048780  0.146341  0.000000      2.000000
 -0.146341  0.097561  0.000000      2.000000
 -0.097561  0.146341  0.000000      2.000000
  0.048780  0.097561  0.000000      2.000000
  0.146341 -0.048780  0.000000      2.000000
  0.121951  0.048780  0.000000      2.000000
 -0.048780  0.170732  0.000000      2.000000
 -0.170732  0.121951  0.000000      2.000000
 -0.121951  0.170732  0.000000      2.000000
  0.048780  0.121951  0.000000      2.000000
  0.170732 -0.048780  0.000000      2.000000
  0.146341  0.048780  0.000000      2.000000
 -0.048780  0.195122  0.000000      2.000000
 -0.195122  0.146341  0.000000      2.000000
 -0.146341  0.195122  0.000000      2.000000
  0.048780  0.146341  0.000000      2.000000
  0.195122 -0.048780  0.000000      2.000000
  0.170732  0.048780  0.000000      2.000000
 -0.048780  0.219512  0.000000      2.000000
 -0.219512  0.170732  0.000000      2.000000
 -0.170732  0.219512  0.000000      2.000000
  0.048780  0.170732  0.000000      2.000000
  0.219512 -0.048780  0.000000      2.000000
  0.195122  0.048780  0.000000      2.000000
 -0.048780  0.243902  0.000000      2.000000
 -0.243902  0.195122  0.000000      2.000000
 -0.195122  0.243902  0.000000      2.000000
  0.048780  0.195122  0.000000      2.000000
  0.243902 -0.048780  0.000000      2.000000
  0.219512  0.048780  0.000000      2.000000
 -0.048780  0.268293  0.000000      2.000000
 -0.268293  0.219512  0.000000      2.000000
 -0.219512  0.268293  0.000000      2.000000
  0.048780  0.219512  0.000000      2.000000
  0.268293 -0.048780  0.000000      2.000000
  0.243902  0.048780  0.000000      2.000000
 -0.048780  0.292683  0.000000      2.000000
 -0.292683  0.243902  0.000000      2.000000
 -0.243902  0.292683  0.000000      2.000000
  0.048780  0.243902  0.000000      2.000000
  0.292683 -0.048780  0.000000      2.000000
  0.268293  0.048780  0.000000      2.000000
 -0.048780  0.317073  0.000000      2.000000
 -0.317073  0.268293  0.000000      2.000000
 -0.268293  0.317073  0.000000      2.000000
  0.048780  0.268293  0.000000      2.000000
  0.317073 -0.048780  0.000000      2.000000
  0.292683  0.048780  0.000000      2.000000
 -0.048780  0.341463  0.000000      2.000000
 -0.341463  0.292683  0.000000      2.000000
 -0.292683  0.341463  0.000000      2.000000
  0.048780  0.292683  0.000000      2.000000
  0.341463 -0.048780  0.000000      2.000000
  0.317073  0.048780  0.000000      2.000000
 -0.048780  0.365854  0.000000      2.000000
 -0.365854  0.317073  0.000000      2.000000
 -0.317073  0.365854  0.000000      2.000000
  0.048780  0.317073  0.000000      2.000000
  0.365854 -0.048780  0.000000      2.000000
  0.341463  0.048780  0.000000      2.000000
 -0.048780  0.390244  0.000000      2.000000
 -0.390244  0.341463  0.000000      2.000000
 -0.341463  0.390244  0.000000      2.000000
  0.048780  0.341463  0.000000      2.000000
  0.390244 -0.048780  0.000000      2.000000
  0.365854  0.048780  0.000000      2.000000
 -0.048780  0.414634  0.000000      2.000000
 -0.414634  0.365854  0.000000      2.000000
 -0.365854  0.414634  0.000000      2.000000
  0.048780  0.365854  0.000000      2.000000
  0.414634 -0.048780  0.000000      2.000000
  0.390244  0.048780  0.000000      2.000000
 -0.048780  0.439024  0.000000      2.000000
 -0.439024  0.390244  0.000000      2.000000
 -0.390244  0.439024  0.000000      2.000000
  0.048780  0.390244  0.000000      2.000000
  0.439024 -0.048780  0.000000      2.000000
  0.414634  0.048780  0.000000      2.000000
 -0.048780  0.463415  0.000000      2.000000
 -0.463415  0.414634  0.000000      2.000000
 -0.414634  0.463415  0.000000      2.000000
  0.048780  0.414634  0.000000      2.000000
  0.463415 -0.048780  0.000000      2.000000
  0.439024  0.048780  0.000000      2.000000
 -0.048780  0.487805  0.000000      2.000000
 -0.487805  0.439024  0.000000      2.000000
 -0.439024  0.487805  0.000000      2.000000
  0.048780  0.439024  0.000000      2.000000
  0.487805 -0.048780  0.000000      2.000000
  0.463415  0.048780  0.000000      2.000000
 -0.048780 -0.487805  0.000000      2.000000
  0.487805  0.463415  0.000000      2.000000
 -0.463415 -0.487805  0.000000      2.000000
  0.048780  0.463415  0.000000      2.000000
 -0.487805 -0.048780  0.000000      2.000000
  0.073171  0.073171  0.000000      2.000000
 -0.073171  0.146341  0.000000      2.000000
 -0.146341  0.073171  0.000000      2.000000
  0.097561  0.073171  0.000000      2.000000
 -0.073171  0.170732  0.000000      2.000000
 -0.170732  0.097561  0.000000      2.000000
 -0.097561  0.170732  0.000000      2.000000
  0.073171  0.097561  0.000000      2.000000
  0.170732 -0.073171  0.000000      2.000000
  0.121951  0.073171  0.000000      2.000000
 -0.073171  0.195122  0.000000      2.000000
 -0.195122  0.121951  0.000000      2.000000
 -0.121951  0.195122  0.000000      2.000000
  0.073171  0.121951  0.000000      2.000000
  0.195122 -0.073171  0.000000      2.000000
  0.146341  0.073171  0.000000      2.000000
 -0.073171  0.219512  0.000000      2.000000
 -0.219512  0.146341  0.000000      2.000000
 -0.146341  0.219512  0.000000      2.000000
  0.073171  0.146341  0.000000      2.000000
  0.219512 -0.073171  0.000000      2.000000
  0.170732  0.073171  0.000000      2.000000
 -0.073171  0.243902  0.000000      2.000000
 -0.243902  0.170732  0.000000      2.000000
 -0.170732  0.243902  0.000000      2.000000
  0.073171  0.170732  0.000000      2.000000
  0.243902 -0.073171  0.000000      2.000000
  0.195122  0.073171  0.000000      2.000000
 -0.073171  0.268293  0.000000      2.000000
 -0.268293  0.195122  0.000000      2.000000
 -0.195122  0.268293  0.000000      2.000000
  0.073171  0.195122  0.000000      2.000000
  0.268293 -0.073171  0.000000      2.000000
  0.219512  0.073171  0.000000      2.000000
 -0.073171  0.292683  0.000000      2.000000
 -0.292683  0.219512  0.000000      2.000000
 -0.219512  0.292683  0.000000      2.000000
  0.073171  0.219512  0.000000      2.000000
  0.292683 -0.073171  0.000000      2.000000
  0.243902  0.073171  0.000000      2.000000
 -0.073171  0.317073  0.000000      2.000000
 -0.317073  0.243902  0.000000      2.000000
 -0.243902  0.317073  0.000000      2.000000
  0.073171  0.243902  0.000000      2.000000
  0.317073 -0.073171  0.000000      2.000000
  0.268293  0.073171  0.000000      2.000000
 -0.073171  0.341463  0.000000      2.000000
 -0.341463  0.268293  0.000000      2.000000
 -0.268293  0.341463  0.000000      2.000000
  0.073171  0.268293  0.000000      2.000000
  0.341463 -0.073171  0.000000      2.000000
  0.292683  0.073171  0.000000      2.000000
 -0.073171  0.365854  0.000000      2.000000
 -0.365854  0.292683  0.000000      2.000000
 -0.292683  0.365854  0.000000      2.000000
  0.073171  0.292683  0.000000      2.000000
  0.365854 -0.073171  0.000000      2.000000
  0.317073  0.073171  0.000000      2.000000
 -0.073171  0.390244  0.000000      2.000000
 -0.390244  0.317073  0.000000      2.000000
 -0.317073  0.390244  0.000000      2.000000
  0.073171  0.317073  0.000000      2.000000
  0.390244 -0.073171  0.000000      2.000000
  0.341463  0.073171  0.000000      2.000000
 -0.073171  0.414634  0.000000      2.000000
 -0.414634  0.341463  0.000000      2.000000
 -0.341463  0.414634  0.000000      2.000000
  0.073171  0.341463  0.000000      2.000000
  0.414634 -0.073171  0.000000      2.000000
  0.365854  0.073171  0.000000      2.000000
 -0.073171  0.439024  0.000000      2.000000
 -0.439024  0.365854  0.000000      2.000000
 -0.365854  0.439024  0.000000      2.000000
  0.073171  0.365854  0.000000      2.000000
  0.439024 -0.073171  0.000000      2.000000
  0.390244  0.073171  0.000000      2.000000
 -0.073171  0.463415  0.000000      2.000000
 -0.463415  0.390244  0.000000      2.000000
 -0.390244  0.463415  0.000000      2.000000
  0.073171  0.390244  0.000000      2.000000
  0.463415 -0.073171  0.000000      2.000000
  0.414634  0.073171  0.000000      2.000000
 -0.073171  0.487805  0.000000      2.000000
 -0.487805  0.414634  0.000000      2.000000
 -0.414634  0.487805  0.000000      2.000000
  0.073171  0.414634  0.000000      2.000000
  0.487805 -0.073171  0.000000      2.000000
  0.439024  0.073171  0.000000      2.000000
 -0.073171 -0.487805  0.000000      2.000000
  0.487805  0.439024  0.000000      2.000000
 -0.439024 -0.487805  0.000000      2.000000
  0.073171  0.439024  0.000000      2.000000
 -0.487805 -0.073171  0.000000      2.000000
  0.463415  0.073171  0.000000      2.000000
 -0.073171 -0.463415  0.000000      2.000000
  0.463415  0.463415  0.000000      2.000000
  0.097561  0.097561  0.000000      2.000000
 -0.097561  0.195122  0.000000      2.000000
 -0.195122  0.097561  0.000000      2.000000
  0.121951  0.097561  0.000000      2.000000
 -0.097561  0.219512  0.000000      2.000000
 -0.219512  0.121951  0.000000      2.000000
 -0.121951  0.219512  0.000000      2.000000
  0.097561  0.121951  0.000000      2.000000
  0.219512 -0.097561  0.000000      2.000000
  0.146341  0.097561  0.000000      2.000000
 -0.097561  0.243902  0.000000      2.000000
 -0.243902  0.146341  0.000000      2.000000
 -0.146341  0.243902  0.000000      2.000000
  0.097561  0.146341  0.000000      2.000000
  0.243902 -0.097561  0.000000      2.000000
  0.170732  0.097561  0.000000      2.000000
 -0.097561  0.268293  0.000000      2.000000
 -0.268293  0.170732  0.000000      2.000000
 -0.170732  0.268293  0.000000      2.000000
  0.097561  0.170732  0.000000      2.000000
  0.268293 -0.097561  0.000000      2.000000
  0.195122  0.097561  0.000000      2.000000
 -0.097561  0.292683  0.000000      2.000000
 -0.292683  0.195122  0.000000      2.000000
 -0.195122  0.292683  0.000000      2.000000
  0.097561  0.195122  0.000000      2.000000
  0.292683 -0.097561  0.000000      2.000000
  0.219512  0.097561  0.000000      2.000000
 -0.097561  0.317073  0.000000      2.000000
 -0.317073  0.219512  0.000000      2.000000
 -0.219512  0.317073  0.000000      2.000000
  0.097561  0.219512  0.000000      2.000000
  0.317073 -0.097561  0.000000      2.000000
  0.243902  0.097561  0.000000      2.000000
 -0.097561  0.341463  0.000000      2.000000
 -0.341463  0.243902  0.000000      2.000000
 -0.243902  0.341463  0.000000      2.000000
  0.097561  0.243902  0.000000      2.000000
  0.341463 -0.097561  0.000000      2.000000
  0.268293  0.097561  0.000000      2.000000
 -0.097561  0.365854  0.000000      2.000000
 -0.365854  0.268293  0.000000      2.000000
 -0.268293  0.365854  0.000000      2.000000
  0.097561  0.268293  0.000000      2.000000
  0.365854 -0.097561  0.000000      2.000000
  0.292683  0.097561  0.000000      2.000000
 -0.097561  0.390244  0.000000      2.000000
 -0.390244  0.292683  0.000000      2.000000
 -0.292683  0.390244  0.000000      2.000000
  0.097561  0.292683  0.000000      2.000000
  0.390244 -0.097561  0.000000      2.000000
  0.317073  0.097561  0.000000      2.000000
 -0.097561  0.414634  0.000000      2.000000
 -0.414634  0.317073  0.000000      2.000000
 -0.317073  0.414634  0.000000      2.000000
  0.097561  0.317073  0.000000      2.000000
  0.414634 -0.097561  0.000000      2.000000
  0.341463  0.097561  0.000000      2.000000
 -0.097561  0.439024  0.000000      2.000000
 -0.439024  0.341463  0.000000      2.000000
 -0.341463  0.439024  0.000000      2.000000
  0.097561  0.341463  0.000000      2.000000
  0.439024 -0.097561  0.000000      2.000000
  0.365854  0.097561  0.000000      2.000000
 -0.097561  0.463415  0.000000      2.000000
 -0.463415  0.365854  0.000000      2.000000
 -0.365854  0.463415  0.000000      2.000000
  0.097561  0.365854  0.000000      2.000000
  0.463415 -0.097561  0.000000      2.000000
  0.390244  0.097561  0.000000      2.000000
 -0.097561  0.487805  0.000000      2.000000
 -0.487805  0.390244  0.000000      2.000000
 -0.390244  0.487805  0.000000      2.000000
  0.097561  0.390244  0.000000      2.000000
  0.487805 -0.097561  0.000000      2.000000
  0.414634  0.097561  0.000000      2.000000
 -0.097561 -0.487805  0.000000      2.000000
  0.487805  0.414634  0.000000      2.000000
 -0.414634 -0.487805  0.000000      2.000000
  0.097561  0.414634  0.000000      2.000000
 -0.487805 -0.097561  0.000000      2.000000
  0.439024  0.097561  0.000000      2.000000
 -0.097561 -0.463415  0.000000      2.000000
  0.463415  0.439024  0.000000      2.000000
 -0.439024 -0.463415  0.000000      2.000000
  0.097561  0.439024  0.000000      2.000000
 -0.463415 -0.097561  0.000000      2.000000
  0.121951  0.121951  0.000000      2.000000
 -0.121951  0.243902  0.000000      2.000000
 -0.243902  0.121951  0.000000      2.000000
  0.146341  0.121951  0.000000      2.000000
 -0.121951  0.268293  0.000000      2.000000
 -0.268293  0.146341  0.000000      2.000000
 -0.146341  0.268293  0.000000      2.000000
  0.121951  0.146341  0.000000      2.000000
  0.268293 -0.121951  0.000000      2.000000
  0.170732  0.121951  0.000000      2.000000
 -0.121951  0.292683  0.000000      2.000000
 -0.292683  0.170732  0.000000      2.000000
 -0.170732  0.292683  0.000000      2.000000
  0.121951  0.170732  0.000000      2.000000
  0.292683 -0.121951  0.000000      2.000000
  0.195122  0.121951  0.000000      2.000000
 -0.121951  0.317073  0.000000      2.000000
 -0.317073  0.195122  0.000000      2.000000
 -0.195122  0.317073  0.000000      2.000000
  0.121951  0.195122  0.000000      2.000000
  0.317073 -0.121951  0.000000      2.000000
  0.219512  0.121951  0.000000      2.000000
 -0.121951  0.341463  0.000000      2.000000
 -0.341463  0.219512  0.000000      2.000000
 -0.219512  0.341463  0.000000      2.000000
  0.121951  0.219512  0.000000      2.000000
  0.341463 -0.121951  0.000000      2.000000
  0.243902  0.121951  0.000000      2.000000
 -0.121951  0.365854  0.000000      2.000000
 -0.365854  0.243902  0.000000      2.000000
 -0.243902  0.365854  0.000000      2.000000
  0.121951  0.243902  0.000000      2.000000
  0.365854 -0.121951  0.000000      2.000000
  0.268293  0.121951  0.000000      2.000000
 -0.121951  0.390244  0.000000      2.000000
 -0.390244  0.268293  0.000000      2.000000
 -0.268293  0.390244  0.000000      2.000000
  0.121951  0.268293  0.000000      2.000000
  0.390244 -0.121951  0.000000      2.000000
  0.292683  0.121951  0.000000      2.000000
 -0.121951  0.414634  0.000000      2.000000
 -0.414634  0.292683  0.000000      2.000000
 -0.292683  0.414634  0.000000      2.000000
  0.121951  0.292683  0.000000      2.000000
  0.414634 -0.121951  0.000000      2.000000
  0.317073  0.121951  0.000000      2.000000
 -0.121951  0.439024  0.000000      2.000000
 -0.439024  0.317073  0.000000      2.000000
 -0.317073  0.439024  0.000000      2.000000
  0.121951  0.317073  0.000000      2.000000
  0.439024 -0.121951  0.000000      2.000000
  0.341463  0.121951  0.000000      2.000000
 -0.121951  0.463415  0.000000      2.000000
 -0.463415  0.341463  0.000000      2.000000
 -0.341463  0.463415  0.000000      2.000000
  0.121951  0.341463  0.000000      2.000000
  0.463415 -0.121951  0.000000      2.000000
  0.365854  0.121951  0.000000      2.000000
 -0.121951  0.487805  0.000000      2.000000
 -0.487805  0.365854  0.000000      2.000000
 -0.365854  0.487805  0.000000      2.000000
  0.121951  0.365854  0.000000      2.000000
  0.487805 -0.121951  0.000000      2.000000
  0.390244  0.121951  0.000000      2.000000
 -0.121951 -0.487805  0.000000      2.000000
  0.487805  0.390244  0.000000      2.000000
 -0.390244 -0.487805  0.000000      2.000000
  0.121951  0.390244  0.000000      2.000000
 -0.487805 -0.121951  0.000000      2.000000
  0.414634  0.121951  0.000000      2.000000
 -0.121951 -0.463415  0.000000      2.000000
  0.463415  0.414634  0.000000      2.000000
 -0.414634 -0.463415  0.000000      2.000000
  0.121951  0.414634  0.000000      2.000000
 -0.463415 -0.121951  0.000000      2.000000
  0.439024  0.121951  0.000000      2.000000
 -0.121951 -0.439024  0.000000      2.000000
  0.439024  0.439024  0.000000      2.000000
  0.146341  0.146341  0.000000      2.000000
 -0.146341  0.292683  0.000000      2.000000
 -0.292683  0.146341  0.000000      2.000000
  0.170732  0.146341  0.000000      2.000000
 -0.146341  0.317073  0.000000      2.000000
 -0.317073  0.170732  0.000000      2.000000
 -0.170732  0.317073  0.000000      2.000000
  0.146341  0.170732  0.000000      2.000000
  0.317073 -0.146341  0.000000      2.000000
  0.195122  0.146341  0.000000      2.000000
 -0.146341  0.341463  0.000000      2.000000
 -0.341463  0.195122  0.000000      2.000000
 -0.195122  0.341463  0.000000      2.000000
  0.146341  0.195122  0.000000      2.000000
  0.341463 -0.146341  0.000000      2.000000
  0.219512  0.146341  0.000000      2.000000
 -0.146341  0.365854  0.000000      2.000000
 -0.365854  0.219512  0.000000      2.000000
 -0.219512  0.365854  0.000000      2.000000
  0.146341  0.219512  0.000000      2.000000
  0.365854 -0.146341  0.000000      2.000000
  0.243902  0.146341  0.000000      2.000000
 -0.146341  0.390244  0.000000      2.000000
 -0.390244  0.243902  0.000000      2.000000
 -0.243902  0.390244  0.000000      2.000000
  0.146341  0.243902  0.000000      2.000000
  0.390244 -0.146341  0.000000      2.000000
  0.268293  0.146341  0.000000      2.000000
 -0.146341  0.414634  0.000000      2.000000
 -0.414634  0.268293  0.000000      2.000000
 -0.268293  0.414634  0.000000      2.000000
  0.146341  0.268293  0.000000      2.000000
  0.414634 -0.146341  0.000000      2.000000
  0.292683  0.146341  0.000000      2.000000
 -0.146341  0.439024  0.000000      2.000000
 -0.439024  0.292683  0.000000      2.000000
 -0.292683  0.439024  0.000000      2.000000
  0.146341  0.292683  0.000000      2.000000
  0.439024 -0.146341  0.000000      2.000000
  0.317073  0.146341  0.000000      2.000000
 -0.146341  0.463415  0.000000      2.000000
 -0.463415  0.317073  0.000000      2.000000
 -0.317073  0.463415  0.000000      2.000000
  0.146341  0.317073  0.000000      2.000000
  0.463415 -0.146341  0.000000      2.000000
  0.341463  0.146341  0.000000      2.000000
 -0.146341  0.487805  0.000000      2.000000
 -0.487805  0.341463  0.000000      2.000000
 -0.341463  0.487805  0.000000      2.000000
  0.146341  0.341463  0.000000      2.000000
  0.487805 -0.146341  0.000000      2.000000
  0.365854  0.146341  0.000000      2.000000
 -0.146341 -0.487805  0.000000      2.000000
  0.487805  0.365854  0.000000      2.000000
 -0.365854 -0.487805  0.000000      2.000000
  0.146341  0.365854  0.000000      2.000000
 -0.487805 -0.146341  0.000000      2.000000
  0.390244  0.146341  0.000000      2.000000
 -0.146341 -0.463415  0.000000      2.000000
  0.463415  0.390244  0.000000      2.000000
 -0.390244 -0.463415  0.000000      2.000000
  0.146341  0.390244  0.000000      2.000000
 -0.463415 -0.146341  0.000000      2.000000
  0.414634  0.146341  0.000000      2.000000
 -0.146341 -0.439024  0.000000      2.000000
  0.439024  0.414634  0.000000      2.000000
 -0.414634 -0.439024  0.000000      2.000000
  0.146341  0.414634  0.000000      2.000000
 -0.439024 -0.146341  0.000000      2.000000
  0.170732  0.170732  0.000000      2.000000
 -0.170732  0.341463  0.000000      2.000000
 -0.341463  0.170732  0.000000      2.000000
  0.195122  0.170732  0.000000      2.000000
 -0.170732  0.365854  0.000000      2.000000
 -0.365854  0.195122  0.000000      2.000000
 -0.195122  0.365854  0.000000      2.000000
  0.170732  0.195122  0.000000      2.000000
  0.365854 -0.170732  0.000000      2.000000
  0.219512  0.170732  0.000000      2.000000
 -0.170732  0.390244  0.000000      2.000000
 -0.390244  0.219512  0.000000      2.000000
 -0.219512  0.390244  0.000000      2.000000
  0.170732  0.219512  0.000000      2.000000
  0.390244 -0.170732  0.000000      2.000000
  0.243902  0.170732  0.000000      2.000000
 -0.170732  0.414634  0.000000      2.000000
 -0.414634  0.243902  0.000000      2.000000
 -0.243902  0.414634  0.000000      2.000000
  0.170732  0.243902  0.000000      2.000000
  0.414634 -0.170732  0.000000      2.000000
  0.268293  0.170732  0.000000      2.000000
 -0.170732  0.439024  0.000000      2.000000
 -0.439024  0.268293  0.000000      2.000000
 -0.268293  0.439024  0.000000      2.000000
  0.170732  0.268293  0.000000      2.000000
  0.439024 -0.170732  0.000000      2.000000
  0.292683  0.170732  0.000000      2.000000
 -0.170732  0.463415  0.000000      2.000000
 -0.463415  0.292683  0.000000      2.000000
 -0.292683  0.463415  0.000000      2.000000
  0.170732  0.292683  0.000000      2.000000
  0.463415 -0.170732  0.000000      2.000000
  0.317073  0.170732  0.000000      2.000000
 -0.170732  0.487805  0.000000      2.000000
 -0.487805  0.317073  0.000000      2.000000
 -0.317073  0.487805  0.000000      2.000000
  0.170732  0.317073  0.000000      2.000000
  0.487805 -0.170732  0.000000      2.000000
  0.341463  0.170732  0.000000      2.000000
 -0.170732 -0.487805  0.000000      2.000000
  0.487805  0.341463  0.000000      2.000000
 -0.341463 -0.487805  0.000000      2.000000
  0.170732  0.341463  0.000000      2.000000
 -0.487805 -0.170732  0.000000      2.000000
  0.365854  0.170732  0.000000      2.000000
 -0.170732 -0.463415  0.000000      2.000000
  0.463415  0.365854  0.000000      2.000000
 -0.365854 -0.463415  0.000000      2.000000
  0.170732  0.365854  0.000000      2.000000
 -0.463415 -0.170732  0.000000      2.000000
  0.390244  0.170732  0.000000      2.000000
 -0.170732 -0.439024  0.000000      2.000000
  0.439024  0.390244  0.000000      2.000000
 -0.390244 -0.439024  0.000000      2.000000
  0.170732  0.390244  0.000000      2.000000
 -0.439024 -0.170732  0.000000      2.000000
  0.414634  0.170732  0.000000      2.000000
 -0.170732 -0.414634  0.000000      2.000000
  0.414634  0.414634  0.000000      2.000000
  0.195122  0.195122  0.000000      2.000000
 -0.195122  0.390244  0.000000      2.000000
 -0.390244  0.195122  0.000000      2.000000
  0.219512  0.195122  0.000000      2.000000
 -0.195122  0.414634  0.000000      2.000000
 -0.414634  0.219512  0.000000      2.000000
 -0.219512  0.414634  0.000000      2.000000
  0.195122  0.219512  0.000000      2.000000
  0.414634 -0.195122  0.000000      2.000000
  0.243902  0.195122  0.000000      2.000000
 -0.195122  0.439024  0.000000      2.000000
 -0.439024  0.243902  0.000000      2.000000
 -0.243902  0.439024  0.000000      2.000000
  0.195122  0.243902  0.000000      2.000000
  0.439024 -0.195122  0.000000      2.000000
  0.268293  0.195122  0.000000      2.000000
 -0.195122  0.463415  0.000000      2.000000
 -0.463415  0.268293  0.000000      2.000000
 -0.268293  0.463415  0.000000      2.000000
  0.195122  0.268293  0.000000      2.000000
  0.463415 -0.195122  0.000000      2.000000
  0.292683  0.195122  0.000000      2.000000
 -0.195122  0.487805  0.000000      2.000000
 -0.487805  0.292683  0.000000      2.000000
 -0.292683  0.487805  0.000000      2.000000
  0.195122  0.292683  0.000000      2.000000
  0.487805 -0.195122  0.000000      2.000000
  0.317073  0.195122  0.000000      2.000000
 -0.195122 -0.487805  0.000000      2.000000
  0.487805  0.317073  0.000000      2.000000
 -0.317073 -0.487805  0.000000      2.000000
  0.195122  0.317073  0.000000      2.000000
 -0.487805 -0.195122  0.000000      2.000000
  0.341463  0.195122  0.000000      2.000000
 -0.195122 -0.463415  0.000000      2.000000
  0.463415  0.341463  0.000000      2.000000
 -0.341463 -0.463415  0.000000      2.000000
  0.195122  0.341463  0.000000      2.000000
 -0.463415 -0.195122  0.000000      2.000000
  0.365854  0.195122  0.000000      2.000000
 -0.195122 -0.439024  0.000000      2.000000
  0.439024  0.365854  0.000000      2.000000
 -0.365854 -0.439024  0.000000      2.000000
  0.195122  0.365854  0.000000      2.000000
 -0.439024 -0.195122  0.000000      2.000000
  0.390244  0.195122  0.000000      2.000000
 -0.195122 -0.414634  0.000000      2.000000
  0.414634  0.390244  0.000000      2.000000
 -0.390244 -0.414634  0.000000      2.000000
  0.195122  0.390244  0.000000      2.000000
 -0.414634 -0.195122  0.000000      2.000000
  0.219512  0.219512  0.000000      2.000000
 -0.219512  0.439024  0.000000      2.000000
 -0.439024  0.219512  0.000000      2.000000
  0.243902  0.219512  0.000000      2.000000
 -0.219512  0.463415  0.000000      2.000000
 -0.463415  0.243902  0.000000      2.000000
 -0.243902  0.463415  0.000000      2.000000
  0.219512  0.243902  0.000000      2.000000
  0.463415 -0.219512  0.000000      2.000000
  0.268293  0.219512  0.000000      2.000000
 -0.219512  0.487805  0.000000      2.000000
 -0.487805  0.268293  0.000000      2.000000
 -0.268293  0.487805  0.000000      2.000000
  0.219512  0.268293  0.000000      2.000000
  0.487805 -0.219512  0.000000      2.000000
  0.292683  0.219512  0.000000      2.000000
 -0.219512 -0.487805  0.000000      2.000000
  0.487805  0.292683  0.000000      2.000000
 -0.292683 -0.487805  0.000000      2.000000
  0.219512  0.292683  0.000000      2.000000
 -0.487805 -0.219512  0.000000      2.000000
  0.317073  0.219512  0.000000      2.000000
 -0.219512 -0.463415  0.000000      2.000000
  0.463415  0.317073  0.000000      2.000000
 -0.317073 -0.463415  0.000000      2.000000
  0.219512  0.317073  0.000000      2.000000
 -0.463415 -0.219512  0.000000      2.000000
  0.341463  0.219512  0.000000      2.000000
 -0.219512 -0.439024  0.000000      2.000000
  0.439024  0.341463  0.000000      2.000000
 -0.341463 -0.439024  0.000000      2.000000
  0.219512  0.341463  0.000000      2.000000
 -0.439024 -0.219512  0.000000      2.000000
  0.365854  0.219512  0.000000      2.000000
 -0.219512 -0.414634  0.000000      2.000000
  0.414634  0.365854  0.000000      2.000000
 -0.365854 -0.414634  0.000000      2.000000
  0.219512  0.365854  0.000000      2.000000
 -0.414634 -0.219512  0.000000      2.000000
  0.390244  0.219512  0.000000      2.000000
 -0.219512 -0.390244  0.000000      2.000000
  0.390244  0.390244  0.000000      2.000000
  0.243902  0.243902  0.000000      2.000000
 -0.243902  0.487805  0.000000      2.000000
 -0.487805  0.243902  0.000000      2.000000
  0.268293  0.243902  0.000000      2.000000
 -0.243902 -0.487805  0.000000      2.000000
  0.487805  0.268293  0.000000      2.000000
 -0.268293 -0.487805  0.000000      2.000000
  0.243902  0.268293  0.000000      2.000000
 -0.487805 -0.243902  0.000000      2.000000
  0.292683  0.243902  0.000000      2.000000
 -0.243902 -0.463415  0.000000      2.000000
  0.463415  0.292683  0.000000      2.000000
 -0.292683 -0.463415  0.000000      2.000000
  0.243902  0.292683  0.000000      2.000000
 -0.463415 -0.243902  0.000000      2.000000
  0.317073  0.243902  0.000000      2.000000
 -0.243902 -0.439024  0.000000      2.000000
  0.439024  0.317073  0.000000      2.000000
 -0.317073 -0.439024  0.000000      2.000000
  0.243902  0.317073  0.000000      2.000000
 -0.439024 -0.243902  0.000000      2.000000
  0.341463  0.243902  0.000000      2.000000
 -0.243902 -0.414634  0.000000      2.000000
  0.414634  0.341463  0.000000      2.000000
 -0.341463 -0.414634  0.000000      2.000000
  0.243902  0.341463  0.000000      2.000000
 -0.414634 -0.243902  0.000000      2.000000
  0.365854  0.243902  0.000000      2.000000
 -0.243902 -0.390244  0.000000      2.000000
  0.390244  0.365854  0.000000      2.000000
 -0.365854 -0.390244  0.000000      2.000000
  0.243902  0.365854  0.000000      2.000000
 -0.390244 -0.243902  0.000000      2.000000
  0.268293  0.268293  0.000000      2.000000
 -0.268293 -0.463415  0.000000      2.000000
  0.463415  0.268293  0.000000      2.000000
  0.292683  0.268293  0.000000      2.000000
 -0.268293 -0.439024  0.000000      2.000000
  0.439024  0.292683  0.000000      2.000000
 -0.292683 -0.439024  0.000000      2.000000
  0.268293  0.292683  0.000000      2.000000
 -0.439024 -0.268293  0.000000      2.000000
  0.317073  0.268293  0.000000      2.000000
 -0.268293 -0.414634  0.000000      2.000000
  0.414634  0.317073  0.000000      2.000000
 -0.317073 -0.414634  0.000000      2.000000
  0.268293  0.317073  0.000000      2.000000
 -0.414634 -0.268293  0.000000      2.000000
  0.341463  0.268293  0.000000      2.000000
 -0.268293 -0.390244  0.000000      2.000000
  0.390244  0.341463  0.000000      2.000000
 -0.341463 -0.390244  0.000000      2.000000
  0.268293  0.341463  0.000000      2.000000
 -0.390244 -0.268293  0.000000      2.000000
  0.365854  0.268293  0.000000      2.000000
 -0.268293 -0.365854  0.000000      2.000000
  0.365854  0.365854  0.000000      2.000000
  0.292683  0.292683  0.000000      2.000000
 -0.292683 -0.414634  0.000000      2.000000
  0.414634  0.292683  0.000000      2.000000
  0.317073  0.292683  0.000000      2.000000
 -0.292683 -0.390244  0.000000      2.000000
  0.390244  0.317073  0.000000      2.000000
 -0.317073 -0.390244  0.000000      2.000000
  0.292683  0.317073  0.000000      2.000000
 -0.390244 -0.292683  0.000000      2.000000
  0.341463  0.292683  0.000000      2.000000
 -0.292683 -0.365854  0.000000      2.000000
  0.365854  0.341463  0.000000      2.000000
 -0.341463 -0.365854  0.000000      2.000000
  0.292683  0.341463  0.000000      2.000000
 -0.365854 -0.292683  0.000000      2.000000
  0.317073  0.317073  0.000000      2.000000
 -0.317073 -0.365854  0.000000      2.000000
  0.365854  0.317073  0.000000      2.000000
  0.341463  0.317073  0.000000      2.000000
 -0.317073 -0.341463  0.000000      2.000000
  0.341463  0.341463  0.000000      2.000000
 
 Following cartesian coordinates:
            Coordinates               Weight
  0.000000  0.000000  0.000000      1.000000
  0.002906  0.005033  0.000000      2.000000
 -0.002906  0.005033  0.000000      2.000000
 -0.005812  0.000000  0.000000      2.000000
  0.005812  0.010066  0.000000      2.000000
 -0.005812  0.010066  0.000000      2.000000
 -0.011623  0.000000  0.000000      2.000000
  0.008718  0.015099  0.000000      2.000000
 -0.008718  0.015099  0.000000      2.000000
 -0.017435 -0.000000  0.000000      2.000000
  0.011623  0.020132  0.000000      2.000000
 -0.011623  0.020132  0.000000      2.000000
 -0.023247  0.000000  0.000000      2.000000
  0.014529  0.025165  0.000000      2.000000
 -0.014529  0.025165  0.000000      2.000000
 -0.029058  0.000000  0.000000      2.000000
  0.017435  0.030198  0.000000      2.000000
 -0.017435  0.030198  0.000000      2.000000
 -0.034870  0.000000  0.000000      2.000000
  0.020341  0.035231  0.000000      2.000000
 -0.020341  0.035231  0.000000      2.000000
 -0.040682 -0.000000  0.000000      2.000000
  0.023247  0.040265  0.000000      2.000000
 -0.023247  0.040265  0.000000      2.000000
 -0.046493  0.000000  0.000000      2.000000
  0.026153  0.045298  0.000000      2.000000
 -0.026153  0.045298  0.000000      2.000000
 -0.052305  0.000000  0.000000      2.000000
  0.029058  0.050331  0.000000      2.000000
 -0.029058  0.050331  0.000000      2.000000
 -0.058117 -0.000000  0.000000      2.000000
  0.031964  0.055364  0.000000      2.000000
 -0.031964  0.055364  0.000000      2.000000
 -0.063929  0.000000  0.000000      2.000000
  0.034870  0.060397  0.000000      2.000000
 -0.034870  0.060397  0.000000      2.000000
 -0.069740  0.000000  0.000000      2.000000
  0.037776  0.065430  0.000000      2.000000
 -0.037776  0.065430  0.000000      2.000000
 -0.075552 -0.000000  0.000000      2.000000
  0.040682  0.070463  0.000000      2.000000
 -0.040682  0.070463  0.000000      2.000000
 -0.081364 -0.000000  0.000000      2.000000
  0.043588  0.075496  0.000000      2.000000
 -0.043588  0.075496  0.000000      2.000000
 -0.087175  0.000000  0.000000      2.000000
  0.046493  0.080529  0.000000      2.000000
 -0.046493  0.080529  0.000000      2.000000
 -0.092987  0.000000  0.000000      2.000000
  0.049399  0.085562  0.000000      2.000000
 -0.049399  0.085562  0.000000      2.000000
 -0.098799 -0.000000  0.000000      2.000000
  0.052305  0.090595  0.000000      2.000000
 -0.052305  0.090595  0.000000      2.000000
 -0.104610  0.000000  0.000000      2.000000
  0.055211  0.095628  0.000000      2.000000
 -0.055211  0.095628  0.000000      2.000000
 -0.110422  0.000000  0.000000      2.000000
  0.058117  0.100661  0.000000      2.000000
 -0.058117  0.100661  0.000000      2.000000
 -0.116234 -0.000000  0.000000      2.000000
 -0.000000  0.010066  0.000000      2.000000
 -0.008718  0.005033  0.000000      2.000000
 -0.008718 -0.005033  0.000000      2.000000
  0.002906  0.015099  0.000000      2.000000
 -0.011623  0.010066  0.000000      2.000000
 -0.014529 -0.005033  0.000000      2.000000
 -0.014529  0.005033  0.000000      2.000000
 -0.002906  0.015099  0.000000      2.000000
  0.011623  0.010066  0.000000      2.000000
  0.005812  0.020132  0.000000      2.000000
 -0.014529  0.015099  0.000000      2.000000
 -0.020341 -0.005033  0.000000      2.000000
 -0.020341  0.005033  0.000000      2.000000
 -0.005812  0.020132  0.000000      2.000000
  0.014529  0.015099  0.000000      2.000000
  0.008718  0.025165  0.000000      2.000000
 -0.017435  0.020132  0.000000      2.000000
 -0.026153 -0.005033  0.000000      2.000000
 -0.026153  0.005033  0.000000      2.000000
 -0.008718  0.025165  0.000000      2.000000
  0.017435  0.020132  0.000000      2.000000
  0.011623  0.030198  0.000000      2.000000
 -0.020341  0.025165  0.000000      2.000000
 -0.031964 -0.005033  0.000000      2.000000
 -0.031964  0.005033  0.000000      2.000000
 -0.011623  0.030198  0.000000      2.000000
  0.020341  0.025165  0.000000      2.000000
  0.014529  0.035231  0.000000      2.000000
 -0.023247  0.030198  0.000000      2.000000
 -0.037776 -0.005033  0.000000      2.000000
 -0.037776  0.005033  0.000000      2.000000
 -0.014529  0.035231  0.000000      2.000000
  0.023247  0.030198  0.000000      2.000000
  0.017435  0.040265  0.000000      2.000000
 -0.026153  0.035231  0.000000      2.000000
 -0.043588 -0.005033  0.000000      2.000000
 -0.043588  0.005033  0.000000      2.000000
 -0.017435  0.040265  0.000000      2.000000
  0.026153  0.035231  0.000000      2.000000
  0.020341  0.045298  0.000000      2.000000
 -0.029058  0.040265  0.000000      2.000000
 -0.049399 -0.005033  0.000000      2.000000
 -0.049399  0.005033  0.000000      2.000000
 -0.020341  0.045298  0.000000      2.000000
  0.029058  0.040265  0.000000      2.000000
  0.023247  0.050331  0.000000      2.000000
 -0.031964  0.045298  0.000000      2.000000
 -0.055211 -0.005033  0.000000      2.000000
 -0.055211  0.005033  0.000000      2.000000
 -0.023247  0.050331  0.000000      2.000000
  0.031964  0.045298  0.000000      2.000000
  0.026153  0.055364  0.000000      2.000000
 -0.034870  0.050331  0.000000      2.000000
 -0.061023 -0.005033  0.000000      2.000000
 -0.061023  0.005033  0.000000      2.000000
 -0.026153  0.055364  0.000000      2.000000
  0.034870  0.050331  0.000000      2.000000
  0.029058  0.060397  0.000000      2.000000
 -0.037776  0.055364  0.000000      2.000000
 -0.066834 -0.005033  0.000000      2.000000
 -0.066834  0.005033  0.000000      2.000000
 -0.029058  0.060397  0.000000      2.000000
  0.037776  0.055364  0.000000      2.000000
  0.031964  0.065430  0.000000      2.000000
 -0.040682  0.060397  0.000000      2.000000
 -0.072646 -0.005033  0.000000      2.000000
 -0.072646  0.005033  0.000000      2.000000
 -0.031964  0.065430  0.000000      2.000000
  0.040682  0.060397  0.000000      2.000000
  0.034870  0.070463  0.000000      2.000000
 -0.043588  0.065430  0.000000      2.000000
 -0.078458 -0.005033  0.000000      2.000000
 -0.078458  0.005033  0.000000      2.000000
 -0.034870  0.070463  0.000000      2.000000
  0.043588  0.065430  0.000000      2.000000
  0.037776  0.075496  0.000000      2.000000
 -0.046493  0.070463  0.000000      2.000000
 -0.084269 -0.005033  0.000000      2.000000
 -0.084269  0.005033  0.000000      2.000000
 -0.037776  0.075496  0.000000      2.000000
  0.046493  0.070463  0.000000      2.000000
  0.040682  0.080529  0.000000      2.000000
 -0.049399  0.075496  0.000000      2.000000
 -0.090081 -0.005033  0.000000      2.000000
 -0.090081  0.005033  0.000000      2.000000
 -0.040682  0.080529  0.000000      2.000000
  0.049399  0.075496  0.000000      2.000000
  0.043588  0.085562  0.000000      2.000000
 -0.052305  0.080529  0.000000      2.000000
 -0.095893 -0.005033  0.000000      2.000000
 -0.095893  0.005033  0.000000      2.000000
 -0.043588  0.085562  0.000000      2.000000
  0.052305  0.080529  0.000000      2.000000
  0.046493  0.090595  0.000000      2.000000
 -0.055211  0.085562  0.000000      2.000000
 -0.101704 -0.005033  0.000000      2.000000
 -0.101704  0.005033  0.000000      2.000000
 -0.046493  0.090595  0.000000      2.000000
  0.055211  0.085562  0.000000      2.000000
  0.049399  0.095628  0.000000      2.000000
 -0.058117  0.090595  0.000000      2.000000
 -0.107516 -0.005033  0.000000      2.000000
 -0.107516  0.005033  0.000000      2.000000
 -0.049399  0.095628  0.000000      2.000000
  0.058117  0.090595  0.000000      2.000000
  0.052305  0.100661  0.000000      2.000000
 -0.061023  0.095628  0.000000      2.000000
 -0.113328 -0.005033  0.000000      2.000000
 -0.113328  0.005033  0.000000      2.000000
 -0.052305  0.100661  0.000000      2.000000
  0.061023  0.095628  0.000000      2.000000
  0.055211  0.105694  0.000000      2.000000
  0.055211 -0.105694  0.000000      2.000000
  0.000000  0.201323  0.000000      2.000000
 -0.000000  0.020132  0.000000      2.000000
 -0.017435  0.010066  0.000000      2.000000
 -0.017435 -0.010066  0.000000      2.000000
  0.002906  0.025165  0.000000      2.000000
 -0.020341  0.015099  0.000000      2.000000
 -0.023247 -0.010066  0.000000      2.000000
 -0.023247  0.010066  0.000000      2.000000
 -0.002906  0.025165  0.000000      2.000000
  0.020341  0.015099  0.000000      2.000000
  0.005812  0.030198  0.000000      2.000000
 -0.023247  0.020132  0.000000      2.000000
 -0.029058 -0.010066  0.000000      2.000000
 -0.029058  0.010066  0.000000      2.000000
 -0.005812  0.030198  0.000000      2.000000
  0.023247  0.020132  0.000000      2.000000
  0.008718  0.035231  0.000000      2.000000
 -0.026153  0.025165  0.000000      2.000000
 -0.034870 -0.010066  0.000000      2.000000
 -0.034870  0.010066  0.000000      2.000000
 -0.008718  0.035231  0.000000      2.000000
  0.026153  0.025165  0.000000      2.000000
  0.011623  0.040265  0.000000      2.000000
 -0.029058  0.030198  0.000000      2.000000
 -0.040682 -0.010066  0.000000      2.000000
 -0.040682  0.010066  0.000000      2.000000
 -0.011623  0.040265  0.000000      2.000000
  0.029058  0.030198  0.000000      2.000000
  0.014529  0.045298  0.000000      2.000000
 -0.031964  0.035231  0.000000      2.000000
 -0.046493 -0.010066  0.000000      2.000000
 -0.046493  0.010066  0.000000      2.000000
 -0.014529  0.045298  0.000000      2.000000
  0.031964  0.035231  0.000000      2.000000
  0.017435  0.050331  0.000000      2.000000
 -0.034870  0.040265  0.000000      2.000000
 -0.052305 -0.010066  0.000000      2.000000
 -0.052305  0.010066  0.000000      2.000000
 -0.017435  0.050331  0.000000      2.000000
  0.034870  0.040265  0.000000      2.000000
  0.020341  0.055364  0.000000      2.000000
 -0.037776  0.045298  0.000000      2.000000
 -0.058117 -0.010066  0.000000      2.000000
 -0.058117  0.010066  0.000000      2.000000
 -0.020341  0.055364  0.000000      2.000000
  0.037776  0.045298  0.000000      2.000000
  0.023247  0.060397  0.000000      2.000000
 -0.040682  0.050331  0.000000      2.000000
 -0.063929 -0.010066  0.000000      2.000000
 -0.063929  0.010066  0.000000      2.000000
 -0.023247  0.060397  0.000000      2.000000
  0.040682  0.050331  0.000000      2.000000
  0.026153  0.065430  0.000000      2.000000
 -0.043588  0.055364  0.000000      2.000000
 -0.069740 -0.010066  0.000000      2.000000
 -0.069740  0.010066  0.000000      2.000000
 -0.026153  0.065430  0.000000      2.000000
  0.043588  0.055364  0.000000      2.000000
  0.029058  0.070463  0.000000      2.000000
 -0.046493  0.060397  0.000000      2.000000
 -0.075552 -0.010066  0.000000      2.000000
 -0.075552  0.010066  0.000000      2.000000
 -0.029058  0.070463  0.000000      2.000000
  0.046493  0.060397  0.000000      2.000000
  0.031964  0.075496  0.000000      2.000000
 -0.049399  0.065430  0.000000      2.000000
 -0.081364 -0.010066  0.000000      2.000000
 -0.081364  0.010066  0.000000      2.000000
 -0.031964  0.075496  0.000000      2.000000
  0.049399  0.065430  0.000000      2.000000
  0.034870  0.080529  0.000000      2.000000
 -0.052305  0.070463  0.000000      2.000000
 -0.087175 -0.010066  0.000000      2.000000
 -0.087175  0.010066  0.000000      2.000000
 -0.034870  0.080529  0.000000      2.000000
  0.052305  0.070463  0.000000      2.000000
  0.037776  0.085562  0.000000      2.000000
 -0.055211  0.075496  0.000000      2.000000
 -0.092987 -0.010066  0.000000      2.000000
 -0.092987  0.010066  0.000000      2.000000
 -0.037776  0.085562  0.000000      2.000000
  0.055211  0.075496  0.000000      2.000000
  0.040682  0.090595  0.000000      2.000000
 -0.058117  0.080529  0.000000      2.000000
 -0.098799 -0.010066  0.000000      2.000000
 -0.098799  0.010066  0.000000      2.000000
 -0.040682  0.090595  0.000000      2.000000
  0.058117  0.080529  0.000000      2.000000
  0.043588  0.095628  0.000000      2.000000
 -0.061023  0.085562  0.000000      2.000000
 -0.104610 -0.010066  0.000000      2.000000
 -0.104610  0.010066  0.000000      2.000000
 -0.043588  0.095628  0.000000      2.000000
  0.061023  0.085562  0.000000      2.000000
  0.046493  0.100661  0.000000      2.000000
 -0.063929  0.090595  0.000000      2.000000
 -0.110422 -0.010066  0.000000      2.000000
 -0.110422  0.010066  0.000000      2.000000
 -0.046493  0.100661  0.000000      2.000000
  0.063929  0.090595  0.000000      2.000000
  0.049399  0.105694  0.000000      2.000000
  0.052305 -0.110727  0.000000      2.000000
  0.002906  0.196290  0.000000      2.000000
  0.002906 -0.196290  0.000000      2.000000
 -0.049399  0.105694  0.000000      2.000000
 -0.052305 -0.110727  0.000000      2.000000
  0.000000  0.030198  0.000000      2.000000
 -0.026153  0.015099  0.000000      2.000000
 -0.026153 -0.015099  0.000000      2.000000
  0.002906  0.035231  0.000000      2.000000
 -0.029058  0.020132  0.000000      2.000000
 -0.031964 -0.015099  0.000000      2.000000
 -0.031964  0.015099  0.000000      2.000000
 -0.002906  0.035231  0.000000      2.000000
  0.029058  0.020132  0.000000      2.000000
  0.005812  0.040265  0.000000      2.000000
 -0.031964  0.025165  0.000000      2.000000
 -0.037776 -0.015099  0.000000      2.000000
 -0.037776  0.015099  0.000000      2.000000
 -0.005812  0.040265  0.000000      2.000000
  0.031964  0.025165  0.000000      2.000000
  0.008718  0.045298  0.000000      2.000000
 -0.034870  0.030198  0.000000      2.000000
 -0.043588 -0.015099  0.000000      2.000000
 -0.043588  0.015099  0.000000      2.000000
 -0.008718  0.045298  0.000000      2.000000
  0.034870  0.030198  0.000000      2.000000
  0.011623  0.050331  0.000000      2.000000
 -0.037776  0.035231  0.000000      2.000000
 -0.049399 -0.015099  0.000000      2.000000
 -0.049399  0.015099  0.000000      2.000000
 -0.011623  0.050331  0.000000      2.000000
  0.037776  0.035231  0.000000      2.000000
  0.014529  0.055364  0.000000      2.000000
 -0.040682  0.040265  0.000000      2.000000
 -0.055211 -0.015099  0.000000      2.000000
 -0.055211  0.015099  0.000000      2.000000
 -0.014529  0.055364  0.000000      2.000000
  0.040682  0.040265  0.000000      2.000000
  0.017435  0.060397  0.000000      2.000000
 -0.043588  0.045298  0.000000      2.000000
 -0.061023 -0.015099  0.000000      2.000000
 -0.061023  0.015099  0.000000      2.000000
 -0.017435  0.060397  0.000000      2.000000
  0.043588  0.045298  0.000000      2.000000
  0.020341  0.065430  0.000000      2.000000
 -0.046493  0.050331  0.000000      2.000000
 -0.066834 -0.015099  0.000000      2.000000
 -0.066834  0.015099  0.000000      2.000000
 -0.020341  0.065430  0.000000      2.000000
  0.046493  0.050331  0.000000      2.000000
  0.023247  0.070463  0.000000      2.000000
 -0.049399  0.055364  0.000000      2.000000
 -0.072646 -0.015099  0.000000      2.000000
 -0.072646  0.015099  0.000000      2.000000
 -0.023247  0.070463  0.000000      2.000000
  0.049399  0.055364  0.000000      2.000000
  0.026153  0.075496  0.000000      2.000000
 -0.052305  0.060397  0.000000      2.000000
 -0.078458 -0.015099  0.000000      2.000000
 -0.078458  0.015099  0.000000      2.000000
 -0.026153  0.075496  0.000000      2.000000
  0.052305  0.060397  0.000000      2.000000
  0.029058  0.080529  0.000000      2.000000
 -0.055211  0.065430  0.000000      2.000000
 -0.084269 -0.015099  0.000000      2.000000
 -0.084269  0.015099  0.000000      2.000000
 -0.029058  0.080529  0.000000      2.000000
  0.055211  0.065430  0.000000      2.000000
  0.031964  0.085562  0.000000      2.000000
 -0.058117  0.070463  0.000000      2.000000
 -0.090081 -0.015099  0.000000      2.000000
 -0.090081  0.015099  0.000000      2.000000
 -0.031964  0.085562  0.000000      2.000000
  0.058117  0.070463  0.000000      2.000000
  0.034870  0.090595  0.000000      2.000000
 -0.061023  0.075496  0.000000      2.000000
 -0.095893 -0.015099  0.000000      2.000000
 -0.095893  0.015099  0.000000      2.000000
 -0.034870  0.090595  0.000000      2.000000
  0.061023  0.075496  0.000000      2.000000
  0.037776  0.095628  0.000000      2.000000
 -0.063929  0.080529  0.000000      2.000000
 -0.101704 -0.015099  0.000000      2.000000
 -0.101704  0.015099  0.000000      2.000000
 -0.037776  0.095628  0.000000      2.000000
  0.063929  0.080529  0.000000      2.000000
  0.040682  0.100661  0.000000      2.000000
 -0.066834  0.085562  0.000000      2.000000
 -0.107516 -0.015099  0.000000      2.000000
 -0.107516  0.015099  0.000000      2.000000
 -0.040682  0.100661  0.000000      2.000000
  0.066834  0.085562  0.000000      2.000000
  0.043588  0.105694  0.000000      2.000000
  0.049399 -0.115761  0.000000      2.000000
  0.005812  0.191257  0.000000      2.000000
  0.005812 -0.191257  0.000000      2.000000
 -0.043588  0.105694  0.000000      2.000000
 -0.049399 -0.115761  0.000000      2.000000
  0.046493  0.110727  0.000000      2.000000
  0.046493 -0.110727  0.000000      2.000000
  0.000000  0.191257  0.000000      2.000000
 -0.000000  0.040265  0.000000      2.000000
 -0.034870  0.020132  0.000000      2.000000
 -0.034870 -0.020132  0.000000      2.000000
  0.002906  0.045298  0.000000      2.000000
 -0.037776  0.025165  0.000000      2.000000
 -0.040682 -0.020132  0.000000      2.000000
 -0.040682  0.020132  0.000000      2.000000
 -0.002906  0.045298  0.000000      2.000000
  0.037776  0.025165  0.000000      2.000000
  0.005812  0.050331  0.000000      2.000000
 -0.040682  0.030198  0.000000      2.000000
 -0.046493 -0.020132  0.000000      2.000000
 -0.046493  0.020132  0.000000      2.000000
 -0.005812  0.050331  0.000000      2.000000
  0.040682  0.030198  0.000000      2.000000
  0.008718  0.055364  0.000000      2.000000
 -0.043588  0.035231  0.000000      2.000000
 -0.052305 -0.020132  0.000000      2.000000
 -0.052305  0.020132  0.000000      2.000000
 -0.008718  0.055364  0.000000      2.000000
  0.043588  0.035231  0.000000      2.000000
  0.011623  0.060397  0.000000      2.000000
 -0.046493  0.040265  0.000000      2.000000
 -0.058117 -0.020132  0.000000      2.000000
 -0.058117  0.020132  0.000000      2.000000
 -0.011623  0.060397  0.000000      2.000000
  0.046493  0.040265  0.000000      2.000000
  0.014529  0.065430  0.000000      2.000000
 -0.049399  0.045298  0.000000      2.000000
 -0.063929 -0.020132  0.000000      2.000000
 -0.063929  0.020132  0.000000      2.000000
 -0.014529  0.065430  0.000000      2.000000
  0.049399  0.045298  0.000000      2.000000
  0.017435  0.070463  0.000000      2.000000
 -0.052305  0.050331  0.000000      2.000000
 -0.069740 -0.020132  0.000000      2.000000
 -0.069740  0.020132  0.000000      2.000000
 -0.017435  0.070463  0.000000      2.000000
  0.052305  0.050331  0.000000      2.000000
  0.020341  0.075496  0.000000      2.000000
 -0.055211  0.055364  0.000000      2.000000
 -0.075552 -0.020132  0.000000      2.000000
 -0.075552  0.020132  0.000000      2.000000
 -0.020341  0.075496  0.000000      2.000000
  0.055211  0.055364  0.000000      2.000000
  0.023247  0.080529  0.000000      2.000000
 -0.058117  0.060397  0.000000      2.000000
 -0.081364 -0.020132  0.000000      2.000000
 -0.081364  0.020132  0.000000      2.000000
 -0.023247  0.080529  0.000000      2.000000
  0.058117  0.060397  0.000000      2.000000
  0.026153  0.085562  0.000000      2.000000
 -0.061023  0.065430  0.000000      2.000000
 -0.087175 -0.020132  0.000000      2.000000
 -0.087175  0.020132  0.000000      2.000000
 -0.026153  0.085562  0.000000      2.000000
  0.061023  0.065430  0.000000      2.000000
  0.029058  0.090595  0.000000      2.000000
 -0.063929  0.070463  0.000000      2.000000
 -0.092987 -0.020132  0.000000      2.000000
 -0.092987  0.020132  0.000000      2.000000
 -0.029058  0.090595  0.000000      2.000000
  0.063929  0.070463  0.000000      2.000000
  0.031964  0.095628  0.000000      2.000000
 -0.066834  0.075496  0.000000      2.000000
 -0.098799 -0.020132  0.000000      2.000000
 -0.098799  0.020132  0.000000      2.000000
 -0.031964  0.095628  0.000000      2.000000
  0.066834  0.075496  0.000000      2.000000
  0.034870  0.100661  0.000000      2.000000
 -0.069740  0.080529  0.000000      2.000000
 -0.104610 -0.020132  0.000000      2.000000
 -0.104610  0.020132  0.000000      2.000000
 -0.034870  0.100661  0.000000      2.000000
  0.069740  0.080529  0.000000      2.000000
  0.037776  0.105694  0.000000      2.000000
  0.046493 -0.120794  0.000000      2.000000
  0.008718  0.186223  0.000000      2.000000
  0.008718 -0.186223  0.000000      2.000000
 -0.037776  0.105694  0.000000      2.000000
 -0.046493 -0.120794  0.000000      2.000000
  0.040682  0.110727  0.000000      2.000000
  0.043588 -0.115761  0.000000      2.000000
  0.002906  0.186223  0.000000      2.000000
  0.002906 -0.186223  0.000000      2.000000
 -0.040682  0.110727  0.000000      2.000000
 -0.043588 -0.115761  0.000000      2.000000
 -0.000000  0.050331  0.000000      2.000000
 -0.043588  0.025165  0.000000      2.000000
 -0.043588 -0.025165  0.000000      2.000000
  0.002906  0.055364  0.000000      2.000000
 -0.046493  0.030198  0.000000      2.000000
 -0.049399 -0.025165  0.000000      2.000000
 -0.049399  0.025165  0.000000      2.000000
 -0.002906  0.055364  0.000000      2.000000
  0.046493  0.030198  0.000000      2.000000
  0.005812  0.060397  0.000000      2.000000
 -0.049399  0.035231  0.000000      2.000000
 -0.055211 -0.025165  0.000000      2.000000
 -0.055211  0.025165  0.000000      2.000000
 -0.005812  0.060397  0.000000      2.000000
  0.049399  0.035231  0.000000      2.000000
  0.008718  0.065430  0.000000      2.000000
 -0.052305  0.040265  0.000000      2.000000
 -0.061023 -0.025165  0.000000      2.000000
 -0.061023  0.025165  0.000000      2.000000
 -0.008718  0.065430  0.000000      2.000000
  0.052305  0.040265  0.000000      2.000000
  0.011623  0.070463  0.000000      2.000000
 -0.055211  0.045298  0.000000      2.000000
 -0.066834 -0.025165  0.000000      2.000000
 -0.066834  0.025165  0.000000      2.000000
 -0.011623  0.070463  0.000000      2.000000
  0.055211  0.045298  0.000000      2.000000
  0.014529  0.075496  0.000000      2.000000
 -0.058117  0.050331  0.000000      2.000000
 -0.072646 -0.025165  0.000000      2.000000
 -0.072646  0.025165  0.000000      2.000000
 -0.014529  0.075496  0.000000      2.000000
  0.058117  0.050331  0.000000      2.000000
  0.017435  0.080529  0.000000      2.000000
 -0.061023  0.055364  0.000000      2.000000
 -0.078458 -0.025165  0.000000      2.000000
 -0.078458  0.025165  0.000000      2.000000
 -0.017435  0.080529  0.000000      2.000000
  0.061023  0.055364  0.000000      2.000000
  0.020341  0.085562  0.000000      2.000000
 -0.063929  0.060397  0.000000      2.000000
 -0.084269 -0.025165  0.000000      2.000000
 -0.084269  0.025165  0.000000      2.000000
 -0.020341  0.085562  0.000000      2.000000
  0.063929  0.060397  0.000000      2.000000
  0.023247  0.090595  0.000000      2.000000
 -0.066834  0.065430  0.000000      2.000000
 -0.090081 -0.025165  0.000000      2.000000
 -0.090081  0.025165  0.000000      2.000000
 -0.023247  0.090595  0.000000      2.000000
  0.066834  0.065430  0.000000      2.000000
  0.026153  0.095628  0.000000      2.000000
 -0.069740  0.070463  0.000000      2.000000
 -0.095893 -0.025165  0.000000      2.000000
 -0.095893  0.025165  0.000000      2.000000
 -0.026153  0.095628  0.000000      2.000000
  0.069740  0.070463  0.000000      2.000000
  0.029058  0.100661  0.000000      2.000000
 -0.072646  0.075496  0.000000      2.000000
 -0.101704 -0.025165  0.000000      2.000000
 -0.101704  0.025165  0.000000      2.000000
 -0.029058  0.100661  0.000000      2.000000
  0.072646  0.075496  0.000000      2.000000
  0.031964  0.105694  0.000000      2.000000
  0.043588 -0.125827  0.000000      2.000000
  0.011623  0.181190  0.000000      2.000000
  0.011623 -0.181190  0.000000      2.000000
 -0.031964  0.105694  0.000000      2.000000
 -0.043588 -0.125827  0.000000      2.000000
  0.034870  0.110727  0.000000      2.000000
  0.040682 -0.120794  0.000000      2.000000
  0.005812  0.181190  0.000000      2.000000
  0.005812 -0.181190  0.000000      2.000000
 -0.034870  0.110727  0.000000      2.000000
 -0.040682 -0.120794  0.000000      2.000000
  0.037776  0.115761  0.000000      2.000000
  0.037776 -0.115761  0.000000      2.000000
 -0.000000  0.181190  0.000000      2.000000
  0.000000  0.060397  0.000000      2.000000
 -0.052305  0.030198  0.000000      2.000000
 -0.052305 -0.030198  0.000000      2.000000
  0.002906  0.065430  0.000000      2.000000
 -0.055211  0.035231  0.000000      2.000000
 -0.058117 -0.030198  0.000000      2.000000
 -0.058117  0.030198  0.000000      2.000000
 -0.002906  0.065430  0.000000      2.000000
  0.055211  0.035231  0.000000      2.000000
  0.005812  0.070463  0.000000      2.000000
 -0.058117  0.040265  0.000000      2.000000
 -0.063929 -0.030198  0.000000      2.000000
 -0.063929  0.030198  0.000000      2.000000
 -0.005812  0.070463  0.000000      2.000000
  0.058117  0.040265  0.000000      2.000000
  0.008718  0.075496  0.000000      2.000000
 -0.061023  0.045298  0.000000      2.000000
 -0.069740 -0.030198  0.000000      2.000000
 -0.069740  0.030198  0.000000      2.000000
 -0.008718  0.075496  0.000000      2.000000
  0.061023  0.045298  0.000000      2.000000
  0.011623  0.080529  0.000000      2.000000
 -0.063929  0.050331  0.000000      2.000000
 -0.075552 -0.030198  0.000000      2.000000
[...]
      5     -14.6731      2.00000
      6     -14.5480      2.00000
      7     -13.2049      2.00000
      8     -12.9117      2.00000
      9     -11.1944      2.00000
     10      -9.2944      2.00000
     11      -9.0788      2.00000
     12      -8.3007      2.00000
     13      -8.3004      2.00000
     14      -8.1612      2.00000
     15      -7.8216      2.00000
     16      -6.9654      2.00000
     17      -6.9649      2.00000
     18      -6.5857      2.00000
     19      -6.2429      2.00000
     20      -5.9411      2.00000
     21      -5.8309      2.00000
     22      -5.8100      2.00000
     23      -5.6408      2.00000
     24      -5.2306      2.00000
     25      -3.9063      2.00000
     26      -3.5242      2.00000
     27      -3.3432      2.00000
     28      -0.5541      1.99891
     29      -0.0942      0.00121
     30       2.6575      0.00000
     31       3.7321      0.00000
     32       3.8690      0.00000
     33       4.2535      0.00000
     34       4.5883      0.00000
     35       4.6855      0.00000
     36       5.3826      0.00000
     37       5.7487      0.00000
     38       5.8950      0.00000
     39       6.1109      0.00000
     40       6.1727      0.00000
     41       6.1915      0.00000
     42       6.4699      0.00000
     43       6.5732      0.00000
     44       6.7571      0.00000
     45       7.0250      0.00000
     46       7.2110      0.00000
     47       7.4959      0.00000
     48       7.5872      0.00000

 k-point   838 :       0.3659    0.3171    0.0000
  band No.  band energies     occupation 
      1     -18.4201      2.00000
      2     -18.1314      2.00000
      3     -18.1279      2.00000
      4     -16.6996      2.00000
      5     -14.6731      2.00000
      6     -14.5480      2.00000
      7     -13.2049      2.00000
      8     -12.9117      2.00000
      9     -11.1944      2.00000
     10      -9.2944      2.00000
     11      -9.0788      2.00000
     12      -8.3007      2.00000
     13      -8.3003      2.00000
     14      -8.1612      2.00000
     15      -7.8216      2.00000
     16      -6.9654      2.00000
     17      -6.9649      2.00000
     18      -6.5857      2.00000
     19      -6.2429      2.00000
     20      -5.9412      2.00000
     21      -5.8309      2.00000
     22      -5.8099      2.00000
     23      -5.6409      2.00000
     24      -5.2306      2.00000
     25      -3.9063      2.00000
     26      -3.5243      2.00000
     27      -3.3432      2.00000
     28      -0.5537      1.99889
     29      -0.0947      0.00124
     30       2.6574      0.00000
     31       3.7321      0.00000
     32       3.8699      0.00000
     33       4.2529      0.00000
     34       4.5882      0.00000
     35       4.6855      0.00000
     36       5.3826      0.00000
     37       5.7488      0.00000
     38       5.8950      0.00000
     39       6.1107      0.00000
     40       6.1729      0.00000
     41       6.1913      0.00000
     42       6.4696      0.00000
     43       6.5732      0.00000
     44       6.7581      0.00000
     45       7.0246      0.00000
     46       7.2109      0.00000
     47       7.4958      0.00000
     48       7.5873      0.00000

 k-point   839 :       0.3415    0.3171    0.0000
  band No.  band energies     occupation 
      1     -18.2801      2.00000
      2     -18.2765      2.00000
      3     -18.1332      2.00000
      4     -16.6967      2.00000
      5     -14.6483      2.00000
      6     -14.5810      2.00000
      7     -13.1335      2.00000
      8     -12.9591      2.00000
      9     -11.2254      2.00000
     10      -9.2412      2.00000
     11      -9.1081      2.00000
     12      -8.2742      2.00000
     13      -8.1828      2.00000
     14      -8.0556      2.00000
     15      -8.0550      2.00000
     16      -6.9863      2.00000
     17      -6.7810      2.00000
     18      -6.7801      2.00000
     19      -6.1468      2.00000
     20      -6.0017      2.00000
     21      -5.8694      2.00000
     22      -5.7719      2.00000
     23      -5.6852      2.00000
     24      -5.2258      2.00000
     25      -3.8971      2.00000
     26      -3.4944      2.00000
     27      -3.3917      2.00000
     28      -0.4428      1.90970
     29      -0.2033      0.09022
     30       2.6872      0.00000
     31       3.7257      0.00000
     32       3.9672      0.00000
     33       4.1262      0.00000
     34       4.5917      0.00000
     35       4.6609      0.00000
     36       5.4682      0.00000
     37       5.7031      0.00000
     38       5.8459      0.00000
     39       6.1802      0.00000
     40       6.2299      0.00000
     41       6.3774      0.00000
     42       6.4639      0.00000
     43       6.4878      0.00000
     44       6.5369      0.00000
     45       7.0588      0.00000
     46       7.3029      0.00000
     47       7.4010      0.00000
     48       7.5517      0.00000

 k-point   840 :      -0.3171   -0.3415    0.0000
  band No.  band energies     occupation 
      1     -18.2800      2.00000
      2     -18.2765      2.00000
      3     -18.1332      2.00000
      4     -16.6967      2.00000
      5     -14.6483      2.00000
      6     -14.5810      2.00000
      7     -13.1336      2.00000
      8     -12.9591      2.00000
      9     -11.2254      2.00000
     10      -9.2412      2.00000
     11      -9.1081      2.00000
     12      -8.2742      2.00000
     13      -8.1828      2.00000
     14      -8.0556      2.00000
     15      -8.0550      2.00000
     16      -6.9864      2.00000
     17      -6.7809      2.00000
     18      -6.7801      2.00000
     19      -6.1467      2.00000
     20      -6.0017      2.00000
     21      -5.8694      2.00000
     22      -5.7720      2.00000
     23      -5.6851      2.00000
     24      -5.2258      2.00000
     25      -3.8971      2.00000
     26      -3.4944      2.00000
     27      -3.3917      2.00000
     28      -0.4432      1.91068
     29      -0.2029      0.08916
     30       2.6873      0.00000
     31       3.7257      0.00000
     32       3.9662      0.00000
     33       4.1271      0.00000
     34       4.5918      0.00000
     35       4.6608      0.00000
     36       5.4682      0.00000
     37       5.7030      0.00000
     38       5.8459      0.00000
     39       6.1809      0.00000
     40       6.2295      0.00000
     41       6.3775      0.00000
     42       6.4634      0.00000
     43       6.4879      0.00000
     44       6.5368      0.00000
     45       7.0590      0.00000
     46       7.3029      0.00000
     47       7.4011      0.00000
     48       7.5517      0.00000

 k-point   841 :       0.3415    0.3415    0.0000
  band No.  band energies     occupation 
      1     -18.2801      2.00000
      2     -18.2765      2.00000
      3     -18.1332      2.00000
      4     -16.6967      2.00000
      5     -14.6483      2.00000
      6     -14.5810      2.00000
      7     -13.1336      2.00000
      8     -12.9591      2.00000
      9     -11.2254      2.00000
     10      -9.2412      2.00000
     11      -9.1082      2.00000
     12      -8.2742      2.00000
     13      -8.1828      2.00000
     14      -8.0557      2.00000
     15      -8.0550      2.00000
     16      -6.9864      2.00000
     17      -6.7809      2.00000
     18      -6.7801      2.00000
     19      -6.1467      2.00000
     20      -6.0017      2.00000
     21      -5.8694      2.00000
     22      -5.7720      2.00000
     23      -5.6851      2.00000
     24      -5.2258      2.00000
     25      -3.8971      2.00000
     26      -3.4944      2.00000
     27      -3.3917      2.00000
     28      -0.4431      1.91051
     29      -0.2029      0.08934
     30       2.6873      0.00000
     31       3.7257      0.00000
     32       3.9663      0.00000
     33       4.1269      0.00000
     34       4.5918      0.00000
     35       4.6608      0.00000
     36       5.4682      0.00000
     37       5.7031      0.00000
     38       5.8459      0.00000
     39       6.1807      0.00000
     40       6.2296      0.00000
     41       6.3775      0.00000
     42       6.4636      0.00000
     43       6.4879      0.00000
     44       6.5367      0.00000
     45       7.0590      0.00000
     46       7.3029      0.00000
     47       7.4011      0.00000
     48       7.5517      0.00000


--------------------------------------------------------------------------------------------------------


 soft charge-density along one line, spin component           1
         0         1         2         3         4         5         6         7         8         9
 total charge-density along one line
 
 pseudopotential strength for first ion, spin component:           1
  6.784  10.355   0.000  -0.000   0.000   0.000  -0.000   0.000
 10.355  15.802   0.000  -0.000   0.000   0.000  -0.000   0.000
  0.000   0.000  -2.350  -0.000   0.000  -4.043  -0.000   0.000
 -0.000  -0.000  -0.000  -2.343   0.000  -0.000  -4.026   0.000
  0.000   0.000   0.000   0.000  -2.350   0.000   0.000  -4.043
  0.000   0.000  -4.043  -0.000   0.000  -6.757  -0.000   0.000
 -0.000  -0.000  -0.000  -4.026   0.000  -0.000  -6.721   0.000
  0.000   0.000   0.000   0.000  -4.043   0.000   0.000  -6.757
 total augmentation occupancy for first ion, spin component:           1
  2.000   0.000   0.000   0.000   0.000   0.000   0.000   0.000
  0.000   0.000   0.000   0.000   0.000   0.000   0.000   0.000
  0.000   0.000   0.333   0.000   0.000   0.000   0.000   0.000
  0.000   0.000   0.000   0.333   0.000   0.000   0.000   0.000
  0.000   0.000   0.000   0.000   0.333   0.000   0.000   0.000
  0.000   0.000   0.000   0.000   0.000   0.000   0.000   0.000
  0.000   0.000   0.000   0.000   0.000   0.000   0.000   0.000
  0.000   0.000   0.000   0.000   0.000   0.000   0.000   0.000


------------------------ aborting loop because EDIFF is reached ----------------------------------------





 total charge

# of ion       s       p       d       tot
------------------------------------------
    1        0.665   1.384   0.000   2.049
    2        0.675   1.248   0.000   1.923
    3        0.675   1.248   0.000   1.923
    4        0.675   1.248   0.000   1.923
    5        0.830   1.711   0.000   2.541
    6        0.830   1.711   0.000   2.541
    7        0.830   1.711   0.000   2.541
    8        0.879   1.841   0.000   2.720
    9        0.879   1.841   0.000   2.719
   10        0.879   1.841   0.000   2.720
   11        0.879   1.841   0.000   2.719
   12        0.879   1.841   0.000   2.720
   13        0.879   1.840   0.000   2.719
   14        0.879   1.841   0.000   2.720
   15        0.879   1.841   0.000   2.719
--------------------------------------------------
tot         12.211  24.984   0.000  37.195
 
    CHARGE:  cpu time      1.3446: real time      1.3560
    FORLOC:  cpu time      0.0017: real time      0.0017
    FORNL :  cpu time      5.1908: real time      5.2078
    STRESS:  cpu time     34.2818: real time     34.3822
    FORCOR:  cpu time      0.0152: real time      0.0153
    FORHAR:  cpu time      0.0041: real time      0.0041
    OFIELD:  cpu time      0.0000: real time      0.0000

  FORCE on cell =-STRESS in cart. coord.  units (eV):
  Direction    XX          YY          ZZ          XY          YZ          ZX
  --------------------------------------------------------------------------------------
  Alpha Z    58.30707    58.30707    58.30707
  Ewald    6487.59908  6487.59009 -8244.85864    -0.00502     0.00052    -0.00251
  Hartree  6404.23990  6404.23797 -6321.44931    -0.00105     0.00018    -0.00103
  E(xc)    -201.77441  -201.77444  -208.81743    -0.00002    -0.00002    -0.00002
  Local  -13482.84176-13482.83216 13854.70532     0.00551    -0.00055     0.00336
  n-local   -43.25933   -43.25943   -42.65836    -0.00006    -0.00012    -0.00007
  augment    -4.12478    -4.12470    -3.67938    -0.00002     0.00001     0.00002
  Kinetic   781.88424   781.88610   909.16341     0.00119     0.00151     0.00085
  Fock        0.00000     0.00000     0.00000     0.00000     0.00000     0.00000
  -------------------------------------------------------------------------------------
  Total       0.03000     0.03050     0.71269     0.00053     0.00152     0.00059
  in kB       0.15756     0.16016     3.74301     0.00279     0.00797     0.00312
  external pressure =        1.35 kB  Pullay stress =        0.00 kB


 VOLUME and BASIS-vectors are now :
 -----------------------------------------------------------------------------
  energy-cutoff  :      450.00
  volume of cell :      305.06
      direct lattice vectors                 reciprocal lattice vectors
     4.196759107  2.423000000  0.000000000     0.119139552  0.206355757  0.000000000
    -4.196759107  2.423000000  0.000000000    -0.119139552  0.206355757  0.000000000
     0.000000000  0.000000000 15.000000000     0.000000000  0.000000000  0.066666667

  length of vectors
     4.846000000  4.846000000 15.000000000     0.238279104  0.238279104  0.066666667


 FORCES acting on ions
    electron-ion (+dipol)            ewald-force                    non-local-force                 convergence-correction
 -----------------------------------------------------------------------------------------------
   -.126E-02 0.237E-02 0.224E+03   0.168E-02 -.196E-02 -.224E+03   0.749E-04 -.192E-03 -.840E-01   -.441E-03 -.293E-03 -.112E-02
   -.199E+02 -.111E+02 0.227E+03   0.226E+02 0.127E+02 -.227E+03   -.274E+01 -.162E+01 0.130E-02   0.310E-03 0.152E-03 -.954E-03
   0.195E+02 -.117E+02 0.227E+03   -.223E+02 0.132E+02 -.227E+03   0.277E+01 -.156E+01 0.147E-02   0.243E-03 -.340E-03 -.107E-02
   0.354E+00 0.228E+02 0.227E+03   -.324E+00 -.259E+02 -.227E+03   -.296E-01 0.318E+01 0.102E-02   -.269E-03 0.292E-03 -.128E-02
   0.356E+00 -.368E+02 0.303E+03   -.344E+00 0.431E+02 -.303E+03   -.124E-01 -.629E+01 0.710E-01   -.471E-03 0.385E-05 -.163E-02
   0.317E+02 0.187E+02 0.303E+03   -.371E+02 -.218E+02 -.303E+03   0.545E+01 0.313E+01 0.709E-01   0.399E-03 0.378E-04 -.223E-02
   -.320E+02 0.181E+02 0.303E+03   0.375E+02 -.212E+02 -.303E+03   -.544E+01 0.316E+01 0.715E-01   -.482E-03 -.227E-03 -.160E-02
   0.552E-01 0.567E-01 -.227E+03   -.619E-01 -.492E-01 0.227E+03   0.740E-02 -.703E-02 0.467E-01   -.289E-03 -.205E-03 0.135E-02
   0.385E+00 -.685E+00 -.228E+03   -.387E+00 0.708E+00 0.228E+03   0.238E-02 -.224E-01 0.272E-01   -.172E-03 -.307E-03 0.993E-03
   0.888E-02 0.158E-01 -.228E+03   -.885E-02 -.164E-01 0.228E+03   -.237E-04 0.594E-03 0.724E-02   -.129E-03 -.144E-03 0.567E-03
   -.788E+00 0.242E-01 -.228E+03   0.808E+00 -.328E-01 0.228E+03   -.204E-01 0.958E-02 0.273E-01   0.520E-04 -.408E-03 0.470E-03
   -.639E-01 0.204E-02 -.227E+03   0.610E-01 -.114E-01 0.227E+03   0.222E-02 0.929E-02 0.464E-01   -.113E-05 0.160E-03 0.109E-02
   -.712E-02 -.100E-01 -.225E+03   0.659E-02 0.975E-02 0.225E+03   0.216E-03 -.987E-05 0.538E-01   0.471E-03 0.409E-03 0.993E-03
   0.158E-02 -.717E-01 -.227E+03   0.737E-02 0.736E-01 0.227E+03   -.970E-02 -.284E-02 0.464E-01   0.551E-03 0.185E-03 0.132E-03
   0.408E+00 0.669E+00 -.227E+03   -.425E+00 -.682E+00 0.227E+03   0.180E-01 0.131E-01 0.282E-01   -.330E-03 0.286E-03 0.708E-03
 -----------------------------------------------------------------------------------------------
   0.350E-03 0.507E-03 -.412E+00   0.494E-14 -.422E-14 -.171E-12   0.256E-03 0.243E-04 0.416E+00   -.559E-03 -.399E-03 -.358E-02
 
 
 POSITION                                       TOTAL-FORCE (eV/Angst)
 -----------------------------------------------------------------------------------
      0.00570      0.01636      1.52252         0.000048     -0.000083     -0.046964
      1.49517      0.87767      1.51067        -0.005459     -0.003374     -0.047644
     -1.48495      0.87559      1.51068         0.005308     -0.003037     -0.047645
      0.00689      3.14179      1.51063        -0.000083      0.006089     -0.047640
      0.00689      1.58447      1.51096         0.000018     -0.006524     -0.039944
      2.84384      1.65631      1.51096         0.005708      0.003133     -0.039888
     -2.83360      1.65425      1.51092        -0.005649      0.003422     -0.039983
     -2.09809      1.21197      5.02673         0.000417      0.000233      0.038455
     -0.69947      1.21207      5.02725        -0.000261      0.000432      0.038594
      0.00019      0.00045      5.02614        -0.000134     -0.000177      0.039007
     -2.79746      2.42355      5.02731         0.000522      0.000558      0.038649
      0.00011      2.42355      5.02677        -0.000686      0.000102      0.038476
      1.39910      2.42345      5.02520         0.000151      0.000136      0.039276
      2.09852      1.21184      5.02671        -0.000198     -0.000734      0.038607
     -0.69929      3.63472      5.02725         0.000298     -0.000177      0.038644
 -----------------------------------------------------------------------------------
    total drift:                                0.000047      0.000132      0.000796


--------------------------------------------------------------------------------------------------------



  FREE ENERGIE OF THE ION-ELECTRON SYSTEM (eV)
  ---------------------------------------------------
  free  energy   TOTEN  =      -125.54929019 eV

  energy  without entropy=     -125.54919271  energy(sigma->0) =     -125.54924145
 


--------------------------------------------------------------------------------------------------------


    POTLOK:  cpu time      0.0190: real time      0.0193


--------------------------------------------------------------------------------------------------------


 stress matrix after NEB project (eV)
      0.03000      0.00053      0.00059
      0.00053      0.03050      0.00152
      0.00059      0.00152      0.71269
  FORCES: max atom, RMS     0.048074    0.041663
  FORCE total and by dimension    0.161361    0.047645
  Stress total and by dimension    0.713975    0.712688
     LOOP+:  cpu time    333.6753: real time    335.5145
    4ORBIT:  cpu time      0.0000: real time      0.0000



 total charge

# of ion       s       p       d       tot
------------------------------------------
    1        0.665   1.384   0.000   2.049
    2        0.675   1.248   0.000   1.923
    3        0.675   1.248   0.000   1.923
    4        0.675   1.248   0.000   1.923
    5        0.830   1.711   0.000   2.541
    6        0.830   1.711   0.000   2.541
    7        0.830   1.711   0.000   2.541
    8        0.879   1.841   0.000   2.720
    9        0.879   1.841   0.000   2.719
   10        0.879   1.841   0.000   2.720
   11        0.879   1.841   0.000   2.719
   12        0.879   1.841   0.000   2.720
   13        0.879   1.840   0.000   2.719
   14        0.879   1.841   0.000   2.720
   15        0.879   1.841   0.000   2.719
--------------------------------------------------
tot         12.211  24.984   0.000  37.195
 

 total amount of memory used by VASP MPI-rank0   850522. kBytes
=======================================================================

   base      :      30000. kBytes
   nonl-proj :     719828. kBytes
   fftplans  :       1560. kBytes
   grid      :       7372. kBytes
   one-center:         46. kBytes
   wavefun   :      91716. kBytes
 
  
  
 General timing and accounting informations for this job:
 ========================================================
  
                  Total CPU time used (sec):      362.822
                            User time (sec):      356.671
                          System time (sec):        6.151
                         Elapsed time (sec):      371.128
  
                   Maximum memory used (kb):     1554256.
                   Average memory used (kb):          N/A
  
                          Minor page faults:      2189665
                          Major page faults:         2132
                 Voluntary context switches:         9873
