<?xml version="1.0" encoding="ISO-8859-1"?>
<modeling>
 <generator>
  <i name="program" type="string">vasp </i>
  <i name="version" type="string">6.3.2  </i>
  <i name="subversion" type="string">27Jun22 (build Dec 22 2022 13:13:19) complex                          parallel </i>
  <i name="platform" type="string">LinuxIFC </i>
  <i name="date" type="string">2023 09 12 </i>
  <i name="time" type="string">17:21:17 </i>
 </generator>
 <incar>
  <i type="string" name="SYSTEM">Lattice</i>
  <i type="int" name="ISTART">     0</i>
  <i type="string" name="PREC">Accurate</i>
  <i type="string" name="ALGO">Normal</i>
  <i type="int" name="ISPIN">     1</i>
  <i type="int" name="ICHARG">     2</i>
  <i type="int" name="NELM">    64</i>
  <i type="int" name="IBRION">     2</i>
  <i name="EDIFF">      0.00000100</i>
  <i name="EDIFFG">     -0.00100000</i>
  <i type="int" name="NSW">   128</i>
  <i type="int" name="ISIF">     2</i>
  <i name="ENCUT">    450.00000000</i>
  <i name="POTIM">      0.50000000</i>
  <i type="int" name="ISMEAR">     0</i>
  <i name="SIGMA">      0.10000000</i>
  <i type="logical" name="LWAVE"> F  </i>
  <i type="logical" name="LCHARG"> F  </i>
  <i type="string" name="GGA">PE</i>
  <i type="int" name="IVDW">    12</i>
 </incar>
 <primitive_cell>
  <structure name="primitive_cell" >
   <crystal>
    <varray name="basis" >
     <v>       4.47648500       2.58450000       0.00000000 </v>
     <v>      -4.47648500       2.58450000       0.00000000 </v>
     <v>       0.00000000       0.00000000      15.00000000 </v>
    </varray>
    <i name="volume">    347.08426447 </i>
    <varray name="rec_basis" >
     <v>       0.11169478       0.19346102       0.00000000 </v>
     <v>      -0.11169478       0.19346102       0.00000000 </v>
     <v>       0.00000000       0.00000000       0.06666667 </v>
    </varray>
   </crystal>
   <varray name="positions" >
    <v>       0.33835568       0.66919338       0.25000000 </v>
    <v>       0.67168550       0.33578412       0.25000000 </v>
    <v>       0.16393418       0.32096121       0.25000000 </v>
    <v>       0.32344383       0.16194918       0.25000000 </v>
    <v>       0.16445142       0.84350783       0.25000000 </v>
    <v>       0.84555675       0.16147694       0.25000000 </v>
    <v>       0.68650730       0.84304996       0.25000000 </v>
    <v>       0.84606136       0.68407339       0.25000000 </v>
   </varray>
  </structure>
  <varray name="primitive_index" >
   <v type="int" >        1 </v>
   <v type="int" >        2 </v>
   <v type="int" >        3 </v>
   <v type="int" >        4 </v>
   <v type="int" >        5 </v>
   <v type="int" >        6 </v>
   <v type="int" >        7 </v>
   <v type="int" >        8 </v>
  </varray>
 </primitive_cell>
 <kpoints>
  <generation param="Gamma">
   <v type="int" name="divisions">      21       21        1 </v>
   <v name="usershift">      0.00000000       0.00000000       0.00000000 </v>
   <v name="genvec1">      0.04761905       0.00000000       0.00000000 </v>
   <v name="genvec2">      0.00000000       0.04761905       0.00000000 </v>
   <v name="genvec3">      0.00000000       0.00000000       1.00000000 </v>
   <v name="shift">      0.00000000       0.00000000       0.00000000 </v>
  </generation>
  <varray name="kpointlist" >
   <v>       0.00000000       0.00000000       0.00000000 </v>
   <v>       0.04761905      -0.00000000       0.00000000 </v>
   <v>      -0.00000000       0.04761905       0.00000000 </v>
   <v>      -0.04761905       0.04761905       0.00000000 </v>
   <v>       0.09523810       0.00000000       0.00000000 </v>
   <v>       0.00000000       0.09523810       0.00000000 </v>
   <v>      -0.09523810       0.09523810       0.00000000 </v>
   <v>       0.14285714       0.00000000       0.00000000 </v>
   <v>       0.00000000       0.14285714       0.00000000 </v>
   <v>      -0.14285714       0.14285714       0.00000000 </v>
   <v>       0.19047619       0.00000000       0.00000000 </v>
   <v>       0.00000000       0.19047619       0.00000000 </v>
   <v>      -0.19047619       0.19047619       0.00000000 </v>
   <v>       0.23809524       0.00000000       0.00000000 </v>
   <v>       0.00000000       0.23809524       0.00000000 </v>
   <v>      -0.23809524       0.23809524       0.00000000 </v>
   <v>       0.28571429       0.00000000       0.00000000 </v>
   <v>       0.00000000       0.28571429       0.00000000 </v>
   <v>      -0.28571429       0.28571429       0.00000000 </v>
   <v>       0.33333333      -0.00000000       0.00000000 </v>
   <v>      -0.00000000       0.33333333       0.00000000 </v>
   <v>      -0.33333333       0.33333333       0.00000000 </v>
   <v>       0.38095238       0.00000000       0.00000000 </v>
   <v>       0.00000000       0.38095238       0.00000000 </v>
   <v>      -0.38095238       0.38095238       0.00000000 </v>
   <v>       0.42857143       0.00000000       0.00000000 </v>
   <v>       0.00000000       0.42857143       0.00000000 </v>
   <v>      -0.42857143       0.42857143       0.00000000 </v>
   <v>       0.47619048       0.00000000       0.00000000 </v>
   <v>       0.00000000       0.47619048       0.00000000 </v>
   <v>      -0.47619048       0.47619048       0.00000000 </v>
   <v>       0.04761905       0.04761905       0.00000000 </v>
   <v>      -0.04761905       0.09523810       0.00000000 </v>
   <v>      -0.09523810       0.04761905       0.00000000 </v>
   <v>       0.09523810       0.04761905       0.00000000 </v>
   <v>      -0.04761905       0.14285714       0.00000000 </v>
   <v>      -0.14285714       0.09523810       0.00000000 </v>
   <v>      -0.09523810       0.14285714       0.00000000 </v>
   <v>       0.04761905       0.09523810       0.00000000 </v>
   <v>       0.14285714      -0.04761905       0.00000000 </v>
   <v>       0.14285714       0.04761905       0.00000000 </v>
   <v>      -0.04761905       0.19047619       0.00000000 </v>
   <v>      -0.19047619       0.14285714       0.00000000 </v>
   <v>      -0.14285714       0.19047619       0.00000000 </v>
   <v>       0.04761905       0.14285714       0.00000000 </v>
   <v>       0.19047619      -0.04761905       0.00000000 </v>
   <v>       0.19047619       0.04761905       0.00000000 </v>
   <v>      -0.04761905       0.23809524       0.00000000 </v>
   <v>      -0.23809524       0.19047619       0.00000000 </v>
   <v>      -0.19047619       0.23809524       0.00000000 </v>
   <v>       0.04761905       0.19047619       0.00000000 </v>
   <v>       0.23809524      -0.04761905       0.00000000 </v>
   <v>       0.23809524       0.04761905       0.00000000 </v>
   <v>      -0.04761905       0.28571429       0.00000000 </v>
   <v>      -0.28571429       0.23809524       0.00000000 </v>
   <v>      -0.23809524       0.28571429       0.00000000 </v>
   <v>       0.04761905       0.23809524       0.00000000 </v>
   <v>       0.28571429      -0.04761905       0.00000000 </v>
   <v>       0.28571429       0.04761905       0.00000000 </v>
   <v>      -0.04761905       0.33333333       0.00000000 </v>
   <v>      -0.33333333       0.28571429       0.00000000 </v>
   <v>      -0.28571429       0.33333333       0.00000000 </v>
   <v>       0.04761905       0.28571429       0.00000000 </v>
   <v>       0.33333333      -0.04761905       0.00000000 </v>
   <v>       0.33333333       0.04761905       0.00000000 </v>
   <v>      -0.04761905       0.38095238       0.00000000 </v>
   <v>      -0.38095238       0.33333333       0.00000000 </v>
   <v>      -0.33333333       0.38095238       0.00000000 </v>
   <v>       0.04761905       0.33333333       0.00000000 </v>
   <v>       0.38095238      -0.04761905       0.00000000 </v>
   <v>       0.38095238       0.04761905       0.00000000 </v>
   <v>      -0.04761905       0.42857143       0.00000000 </v>
   <v>      -0.42857143       0.38095238       0.00000000 </v>
   <v>      -0.38095238       0.42857143       0.00000000 </v>
   <v>       0.04761905       0.38095238       0.00000000 </v>
   <v>       0.42857143      -0.04761905       0.00000000 </v>
   <v>       0.42857143       0.04761905       0.00000000 </v>
   <v>      -0.04761905       0.47619048       0.00000000 </v>
   <v>      -0.47619048       0.42857143       0.00000000 </v>
   <v>      -0.42857143       0.47619048       0.00000000 </v>
   <v>       0.04761905       0.42857143       0.00000000 </v>
   <v>       0.47619048      -0.04761905       0.00000000 </v>
   <v>       0.47619048       0.04761905       0.00000000 </v>
   <v>      -0.04761905      -0.47619048       0.00000000 </v>
   <v>       0.47619048       0.47619048       0.00000000 </v>
   <v>       0.09523810       0.09523810       0.00000000 </v>
   <v>      -0.09523810       0.19047619       0.00000000 </v>
   <v>      -0.19047619       0.09523810       0.00000000 </v>
   <v>       0.14285714       0.09523810       0.00000000 </v>
   <v>      -0.09523810       0.23809524       0.00000000 </v>
   <v>      -0.23809524       0.14285714       0.00000000 </v>
   <v>      -0.14285714       0.23809524       0.00000000 </v>
   <v>       0.09523810       0.14285714       0.00000000 </v>
   <v>       0.23809524      -0.09523810       0.00000000 </v>
   <v>       0.19047619       0.09523810       0.00000000 </v>
   <v>      -0.09523810       0.28571429       0.00000000 </v>
   <v>      -0.28571429       0.19047619       0.00000000 </v>
   <v>      -0.19047619       0.28571429       0.00000000 </v>
   <v>       0.09523810       0.19047619       0.00000000 </v>
   <v>       0.28571429      -0.09523810       0.00000000 </v>
   <v>       0.23809524       0.09523810       0.00000000 </v>
   <v>      -0.09523810       0.33333333       0.00000000 </v>
   <v>      -0.33333333       0.23809524       0.00000000 </v>
   <v>      -0.23809524       0.33333333       0.00000000 </v>
   <v>       0.09523810       0.23809524       0.00000000 </v>
   <v>       0.33333333      -0.09523810       0.00000000 </v>
   <v>       0.28571429       0.09523810       0.00000000 </v>
   <v>      -0.09523810       0.38095238       0.00000000 </v>
   <v>      -0.38095238       0.28571429       0.00000000 </v>
   <v>      -0.28571429       0.38095238       0.00000000 </v>
   <v>       0.09523810       0.28571429       0.00000000 </v>
   <v>       0.38095238      -0.09523810       0.00000000 </v>
   <v>       0.33333333       0.09523810       0.00000000 </v>
   <v>      -0.09523810       0.42857143       0.00000000 </v>
   <v>      -0.42857143       0.33333333       0.00000000 </v>
   <v>      -0.33333333       0.42857143       0.00000000 </v>
   <v>       0.09523810       0.33333333       0.00000000 </v>
   <v>       0.42857143      -0.09523810       0.00000000 </v>
   <v>       0.38095238       0.09523810       0.00000000 </v>
   <v>      -0.09523810       0.47619048       0.00000000 </v>
   <v>      -0.47619048       0.38095238       0.00000000 </v>
   <v>      -0.38095238       0.47619048       0.00000000 </v>
   <v>       0.09523810       0.38095238       0.00000000 </v>
   <v>       0.47619048      -0.09523810       0.00000000 </v>
   <v>       0.42857143       0.09523810       0.00000000 </v>
   <v>      -0.09523810      -0.47619048       0.00000000 </v>
   <v>       0.47619048       0.42857143       0.00000000 </v>
   <v>      -0.42857143      -0.47619048       0.00000000 </v>
   <v>       0.09523810       0.42857143       0.00000000 </v>
   <v>      -0.47619048      -0.09523810       0.00000000 </v>
   <v>       0.14285714       0.14285714       0.00000000 </v>
   <v>      -0.14285714       0.28571429       0.00000000 </v>
   <v>      -0.28571429       0.14285714       0.00000000 </v>
   <v>       0.19047619       0.14285714       0.00000000 </v>
   <v>      -0.14285714       0.33333333       0.00000000 </v>
   <v>      -0.33333333       0.19047619       0.00000000 </v>
   <v>      -0.19047619       0.33333333       0.00000000 </v>
   <v>       0.14285714       0.19047619       0.00000000 </v>
   <v>       0.33333333      -0.14285714       0.00000000 </v>
   <v>       0.23809524       0.14285714       0.00000000 </v>
   <v>      -0.14285714       0.38095238       0.00000000 </v>
   <v>      -0.38095238       0.23809524       0.00000000 </v>
   <v>      -0.23809524       0.38095238       0.00000000 </v>
   <v>       0.14285714       0.23809524       0.00000000 </v>
   <v>       0.38095238      -0.14285714       0.00000000 </v>
   <v>       0.28571429       0.14285714       0.00000000 </v>
   <v>      -0.14285714       0.42857143       0.00000000 </v>
   <v>      -0.42857143       0.28571429       0.00000000 </v>
   <v>      -0.28571429       0.42857143       0.00000000 </v>
   <v>       0.14285714       0.28571429       0.00000000 </v>
   <v>       0.42857143      -0.14285714       0.00000000 </v>
   <v>       0.33333333       0.14285714       0.00000000 </v>
   <v>      -0.14285714       0.47619048       0.00000000 </v>
   <v>      -0.47619048       0.33333333       0.00000000 </v>
   <v>      -0.33333333       0.47619048       0.00000000 </v>
   <v>       0.14285714       0.33333333       0.00000000 </v>
   <v>       0.47619048      -0.14285714       0.00000000 </v>
   <v>       0.38095238       0.14285714       0.00000000 </v>
   <v>      -0.14285714      -0.47619048       0.00000000 </v>
   <v>       0.47619048       0.38095238       0.00000000 </v>
   <v>      -0.38095238      -0.47619048       0.00000000 </v>
   <v>       0.14285714       0.38095238       0.00000000 </v>
   <v>      -0.47619048      -0.14285714       0.00000000 </v>
   <v>       0.42857143       0.14285714       0.00000000 </v>
   <v>      -0.14285714      -0.42857143       0.00000000 </v>
   <v>       0.42857143       0.42857143       0.00000000 </v>
   <v>       0.19047619       0.19047619       0.00000000 </v>
   <v>      -0.19047619       0.38095238       0.00000000 </v>
   <v>      -0.38095238       0.19047619       0.00000000 </v>
   <v>       0.23809524       0.19047619       0.00000000 </v>
   <v>      -0.19047619       0.42857143       0.00000000 </v>
   <v>      -0.42857143       0.23809524       0.00000000 </v>
   <v>      -0.23809524       0.42857143       0.00000000 </v>
   <v>       0.19047619       0.23809524       0.00000000 </v>
   <v>       0.42857143      -0.19047619       0.00000000 </v>
   <v>       0.28571429       0.19047619       0.00000000 </v>
   <v>      -0.19047619       0.47619048       0.00000000 </v>
   <v>      -0.47619048       0.28571429       0.00000000 </v>
   <v>      -0.28571429       0.47619048       0.00000000 </v>
   <v>       0.19047619       0.28571429       0.00000000 </v>
   <v>       0.47619048      -0.19047619       0.00000000 </v>
   <v>       0.33333333       0.19047619       0.00000000 </v>
   <v>      -0.19047619      -0.47619048       0.00000000 </v>
   <v>       0.47619048       0.33333333       0.00000000 </v>
   <v>      -0.33333333      -0.47619048       0.00000000 </v>
   <v>       0.19047619       0.33333333       0.00000000 </v>
   <v>      -0.47619048      -0.19047619       0.00000000 </v>
   <v>       0.38095238       0.19047619       0.00000000 </v>
   <v>      -0.19047619      -0.42857143       0.00000000 </v>
   <v>       0.42857143       0.38095238       0.00000000 </v>
   <v>      -0.38095238      -0.42857143       0.00000000 </v>
   <v>       0.19047619       0.38095238       0.00000000 </v>
   <v>      -0.42857143      -0.19047619       0.00000000 </v>
   <v>       0.23809524       0.23809524       0.00000000 </v>
   <v>      -0.23809524       0.47619048       0.00000000 </v>
   <v>      -0.47619048       0.23809524       0.00000000 </v>
   <v>       0.28571429       0.23809524       0.00000000 </v>
   <v>      -0.23809524      -0.47619048       0.00000000 </v>
   <v>       0.47619048       0.28571429       0.00000000 </v>
   <v>      -0.28571429      -0.47619048       0.00000000 </v>
   <v>       0.23809524       0.28571429       0.00000000 </v>
   <v>      -0.47619048      -0.23809524       0.00000000 </v>
   <v>       0.33333333       0.23809524       0.00000000 </v>
   <v>      -0.23809524      -0.42857143       0.00000000 </v>
   <v>       0.42857143       0.33333333       0.00000000 </v>
   <v>      -0.33333333      -0.42857143       0.00000000 </v>
   <v>       0.23809524       0.33333333       0.00000000 </v>
   <v>      -0.42857143      -0.23809524       0.00000000 </v>
   <v>       0.38095238       0.23809524       0.00000000 </v>
   <v>      -0.23809524      -0.38095238       0.00000000 </v>
   <v>       0.38095238       0.38095238       0.00000000 </v>
   <v>       0.28571429       0.28571429       0.00000000 </v>
   <v>      -0.28571429      -0.42857143       0.00000000 </v>
   <v>       0.42857143       0.28571429       0.00000000 </v>
   <v>       0.33333333       0.28571429       0.00000000 </v>
   <v>      -0.28571429      -0.38095238       0.00000000 </v>
   <v>       0.38095238       0.33333333       0.00000000 </v>
   <v>      -0.33333333      -0.38095238       0.00000000 </v>
   <v>       0.28571429       0.33333333       0.00000000 </v>
   <v>      -0.38095238      -0.28571429       0.00000000 </v>
   <v>       0.33333333       0.33333333       0.00000000 </v>
  </varray>
  <varray name="weights" >
   <v>       0.00226757 </v>
   <v>       0.00453515 </v>
   <v>       0.00453515 </v>
   <v>       0.00453515 </v>
   <v>       0.00453515 </v>
   <v>       0.00453515 </v>
   <v>       0.00453515 </v>
   <v>       0.00453515 </v>
   <v>       0.00453515 </v>
   <v>       0.00453515 </v>
   <v>       0.00453515 </v>
   <v>       0.00453515 </v>
   <v>       0.00453515 </v>
   <v>       0.00453515 </v>
   <v>       0.00453515 </v>
   <v>       0.00453515 </v>
   <v>       0.00453515 </v>
   <v>       0.00453515 </v>
   <v>       0.00453515 </v>
   <v>       0.00453515 </v>
   <v>       0.00453515 </v>
   <v>       0.00453515 </v>
   <v>       0.00453515 </v>
   <v>       0.00453515 </v>
   <v>       0.00453515 </v>
   <v>       0.00453515 </v>
   <v>       0.00453515 </v>
   <v>       0.00453515 </v>
   <v>       0.00453515 </v>
   <v>       0.00453515 </v>
   <v>       0.00453515 </v>
   <v>       0.00453515 </v>
   <v>       0.00453515 </v>
   <v>       0.00453515 </v>
   <v>       0.00453515 </v>
   <v>       0.00453515 </v>
   <v>       0.00453515 </v>
   <v>       0.00453515 </v>
   <v>       0.00453515 </v>
   <v>       0.00453515 </v>
   <v>       0.00453515 </v>
   <v>       0.00453515 </v>
   <v>       0.00453515 </v>
   <v>       0.00453515 </v>
   <v>       0.00453515 </v>
   <v>       0.00453515 </v>
   <v>       0.00453515 </v>
   <v>       0.00453515 </v>
   <v>       0.00453515 </v>
   <v>       0.00453515 </v>
   <v>       0.00453515 </v>
   <v>       0.00453515 </v>
   <v>       0.00453515 </v>
   <v>       0.00453515 </v>
   <v>       0.00453515 </v>
   <v>       0.00453515 </v>
   <v>       0.00453515 </v>
   <v>       0.00453515 </v>
   <v>       0.00453515 </v>
   <v>       0.00453515 </v>
   <v>       0.00453515 </v>
   <v>       0.00453515 </v>
   <v>       0.00453515 </v>
   <v>       0.00453515 </v>
   <v>       0.00453515 </v>
   <v>       0.00453515 </v>
   <v>       0.00453515 </v>
   <v>       0.00453515 </v>
   <v>       0.00453515 </v>
   <v>       0.00453515 </v>
   <v>       0.00453515 </v>
   <v>       0.00453515 </v>
   <v>       0.00453515 </v>
   <v>       0.00453515 </v>
   <v>       0.00453515 </v>
   <v>       0.00453515 </v>
   <v>       0.00453515 </v>
   <v>       0.00453515 </v>
   <v>       0.00453515 </v>
   <v>       0.00453515 </v>
   <v>       0.00453515 </v>
   <v>       0.00453515 </v>
   <v>       0.00453515 </v>
   <v>       0.00453515 </v>
   <v>       0.00453515 </v>
   <v>       0.00453515 </v>
   <v>       0.00453515 </v>
   <v>       0.00453515 </v>
   <v>       0.00453515 </v>
   <v>       0.00453515 </v>
   <v>       0.00453515 </v>
   <v>       0.00453515 </v>
   <v>       0.00453515 </v>
   <v>       0.00453515 </v>
   <v>       0.00453515 </v>
   <v>       0.00453515 </v>
   <v>       0.00453515 </v>
   <v>       0.00453515 </v>
   <v>       0.00453515 </v>
   <v>       0.00453515 </v>
   <v>       0.00453515 </v>
   <v>       0.00453515 </v>
   <v>       0.00453515 </v>
   <v>       0.00453515 </v>
   <v>       0.00453515 </v>
   <v>       0.00453515 </v>
   <v>       0.00453515 </v>
   <v>       0.00453515 </v>
   <v>       0.00453515 </v>
   <v>       0.00453515 </v>
   <v>       0.00453515 </v>
   <v>       0.00453515 </v>
   <v>       0.00453515 </v>
   <v>       0.00453515 </v>
   <v>       0.00453515 </v>
   <v>       0.00453515 </v>
   <v>       0.00453515 </v>
   <v>       0.00453515 </v>
   <v>       0.00453515 </v>
   <v>       0.00453515 </v>
   <v>       0.00453515 </v>
   <v>       0.00453515 </v>
   <v>       0.00453515 </v>
   <v>       0.00453515 </v>
   <v>       0.00453515 </v>
   <v>       0.00453515 </v>
   <v>       0.00453515 </v>
   <v>       0.00453515 </v>
   <v>       0.00453515 </v>
   <v>       0.00453515 </v>
   <v>       0.00453515 </v>
   <v>       0.00453515 </v>
   <v>       0.00453515 </v>
   <v>       0.00453515 </v>
   <v>       0.00453515 </v>
   <v>       0.00453515 </v>
   <v>       0.00453515 </v>
   <v>       0.00453515 </v>
   <v>       0.00453515 </v>
   <v>       0.00453515 </v>
   <v>       0.00453515 </v>
   <v>       0.00453515 </v>
   <v>       0.00453515 </v>
   <v>       0.00453515 </v>
   <v>       0.00453515 </v>
   <v>       0.00453515 </v>
   <v>       0.00453515 </v>
   <v>       0.00453515 </v>
   <v>       0.00453515 </v>
   <v>       0.00453515 </v>
   <v>       0.00453515 </v>
   <v>       0.00453515 </v>
   <v>       0.00453515 </v>
   <v>       0.00453515 </v>
   <v>       0.00453515 </v>
   <v>       0.00453515 </v>
   <v>       0.00453515 </v>
   <v>       0.00453515 </v>
   <v>       0.00453515 </v>
   <v>       0.00453515 </v>
   <v>       0.00453515 </v>
   <v>       0.00453515 </v>
   <v>       0.00453515 </v>
   <v>       0.00453515 </v>
   <v>       0.00453515 </v>
   <v>       0.00453515 </v>
   <v>       0.00453515 </v>
   <v>       0.00453515 </v>
   <v>       0.00453515 </v>
   <v>       0.00453515 </v>
   <v>       0.00453515 </v>
   <v>       0.00453515 </v>
   <v>       0.00453515 </v>
   <v>       0.00453515 </v>
   <v>       0.00453515 </v>
   <v>       0.00453515 </v>
   <v>       0.00453515 </v>
   <v>       0.00453515 </v>
   <v>       0.00453515 </v>
   <v>       0.00453515 </v>
   <v>       0.00453515 </v>
   <v>       0.00453515 </v>
   <v>       0.00453515 </v>
   <v>       0.00453515 </v>
   <v>       0.00453515 </v>
   <v>       0.00453515 </v>
   <v>       0.00453515 </v>
   <v>       0.00453515 </v>
   <v>       0.00453515 </v>
   <v>       0.00453515 </v>
   <v>       0.00453515 </v>
   <v>       0.00453515 </v>
   <v>       0.00453515 </v>
   <v>       0.00453515 </v>
   <v>       0.00453515 </v>
   <v>       0.00453515 </v>
   <v>       0.00453515 </v>
   <v>       0.00453515 </v>
   <v>       0.00453515 </v>
   <v>       0.00453515 </v>
   <v>       0.00453515 </v>
   <v>       0.00453515 </v>
   <v>       0.00453515 </v>
   <v>       0.00453515 </v>
   <v>       0.00453515 </v>
   <v>       0.00453515 </v>
   <v>       0.00453515 </v>
   <v>       0.00453515 </v>
   <v>       0.00453515 </v>
   <v>       0.00453515 </v>
   <v>       0.00453515 </v>
   <v>       0.00453515 </v>
   <v>       0.00453515 </v>
   <v>       0.00453515 </v>
   <v>       0.00453515 </v>
   <v>       0.00453515 </v>
   <v>       0.00453515 </v>
   <v>       0.00453515 </v>
   <v>       0.00453515 </v>
   <v>       0.00453515 </v>
   <v>       0.00453515 </v>
  </varray>
 </kpoints>
 <parameters>
  <separator name="general" >
   <i type="string" name="SYSTEM">Lattice</i>
   <i type="logical" name="LCOMPAT"> F  </i>
  </separator>
  <separator name="electronic" >
   <i type="string" name="PREC">accura</i>
   <i name="ENMAX">    450.00000000</i>
   <i name="ENAUG">    644.87300000</i>
   <i name="EDIFF">      0.00000100</i>
   <i type="int" name="IALGO">    38</i>
   <i type="int" name="IWAVPR">    11</i>
   <i type="int" name="NBANDS">    24</i>
   <i type="int" name="NBANDSLOW">    -1</i>
   <i type="int" name="NBANDSHIGH">    -1</i>
   <i name="NELECT">     30.00000000</i>
   <i type="int" name="TURBO">     0</i>
   <i type="int" name="IRESTART">     0</i>
   <i type="int" name="NREBOOT">     0</i>
   <i type="int" name="NMIN">     0</i>
   <i name="EREF">      0.00000000</i>
   <separator name="electronic smearing" >
    <i type="int" name="ISMEAR">     0</i>
    <i name="SIGMA">      0.10000000</i>
    <i name="KSPACING">      0.50000000</i>
    <i type="logical" name="KGAMMA"> T  </i>
    <i type="logical" name="KBLOWUP"> T  </i>
   </separator>
   <separator name="electronic projectors" >
    <i type="logical" name="LREAL"> F  </i>
    <v name="ROPT">      0.00000000      0.00000000</v>
    <i type="int" name="LMAXPAW">  -100</i>
    <i type="int" name="LMAXMIX">     2</i>
    <i type="logical" name="NLSPLINE"> F  </i>
   </separator>
   <separator name="electronic startup" >
    <i type="int" name="ISTART">     0</i>
    <i type="int" name="ICHARG">     2</i>
    <i type="int" name="INIWAV">     1</i>
   </separator>
   <separator name="electronic spin" >
    <i type="int" name="ISPIN">     1</i>
    <i type="logical" name="LNONCOLLINEAR"> F  </i>
    <v name="MAGMOM">      1.00000000      1.00000000      1.00000000      1.00000000      1.00000000      1.00000000      1.00000000      1.00000000</v>
    <i name="NUPDOWN">     -1.00000000</i>
    <i type="logical" name="LSORBIT"> F  </i>
    <v name="SAXIS">      0.00000000      0.00000000      1.00000000</v>
    <i type="logical" name="LSPIRAL"> F  </i>
    <v name="QSPIRAL">      0.00000000      0.00000000      0.00000000</v>
    <i type="logical" name="LZEROZ"> F  </i>
   </separator>
   <separator name="electronic exchange-correlation" >
    <i type="logical" name="LASPH"> F  </i>
    <i type="logical" name="LMETAGGA"> F  </i>
   </separator>
   <separator name="electronic convergence" >
    <i type="int" name="NELM">    64</i>
    <i type="int" name="NELMDL">    -5</i>
    <i type="int" name="NELMIN">     2</i>
    <i name="ENINI">    450.00000000</i>
    <separator name="electronic convergence detail" >
     <i type="logical" name="LDIAG"> T  </i>
     <i type="logical" name="LSUBROT"> F  </i>
     <i name="WEIMIN">      0.00100000</i>
     <i name="EBREAK">      0.00000001</i>
     <i name="DEPER">      0.30000000</i>
     <i type="int" name="NRMM">     4</i>
     <i name="TIME">      0.40000000</i>
    </separator>
   </separator>
   <separator name="electronic mixer" >
    <i name="AMIX">      0.40000000</i>
    <i name="BMIX">      1.00000000</i>
    <i name="AMIN">      0.10000000</i>
    <i name="AMIX_MAG">      1.60000000</i>
    <i name="BMIX_MAG">      1.00000000</i>
    <separator name="electronic mixer details" >
     <i type="int" name="IMIX">     4</i>
     <i type="logical" name="MIXFIRST"> F  </i>
     <i type="int" name="MAXMIX">   -45</i>
     <i name="WC">    100.00000000</i>
     <i type="int" name="INIMIX">     1</i>
     <i type="int" name="MIXPRE">     1</i>
     <i type="int" name="MREMOVE">     5</i>
    </separator>
   </separator>
   <separator name="electronic dipolcorrection" >
    <i type="logical" name="LDIPOL"> F  </i>
    <i type="logical" name="LMONO"> F  </i>
    <i type="int" name="IDIPOL">     0</i>
    <i name="EPSILON">      1.00000000</i>
    <v name="DIPOL">   -100.00000000   -100.00000000   -100.00000000</v>
    <i name="EFIELD">      0.00000000</i>
   </separator>
  </separator>
  <separator name="grids" >
   <i type="int" name="NGX">    36</i>
   <i type="int" name="NGY">    36</i>
   <i type="int" name="NGZ">   108</i>
   <i type="int" name="NGXF">    72</i>
   <i type="int" name="NGYF">    72</i>
   <i type="int" name="NGZF">   216</i>
   <i type="logical" name="ADDGRID"> F  </i>
  </separator>
  <separator name="ionic" >
   <i type="int" name="NSW">   128</i>
   <i type="int" name="IBRION">     2</i>
   <i type="int" name="MDALGO">     0</i>
   <i type="int" name="ISIF">     2</i>
   <i name="PSTRESS">      0.00000000</i>
   <i name="EDIFFG">     -0.00100000</i>
   <i type="int" name="NFREE">     1</i>
   <i name="POTIM">      0.50000000</i>
   <i name="SMASS">     -3.00000000</i>
   <i name="SCALEE">      1.00000000</i>
  </separator>
  <separator name="ionic md" >
   <i name="TEBEG">      0.00010000</i>
   <i name="TEEND">      0.00010000</i>
   <i type="int" name="NBLOCK">     1</i>
   <i type="int" name="KBLOCK">   128</i>
   <i type="int" name="NPACO">   256</i>
   <i name="APACO">     10.00000000</i>
  </separator>
  <separator name="symmetry" >
   <i type="int" name="ISYM">     2</i>
   <i name="SYMPREC">      0.00001000</i>
  </separator>
  <separator name="dos" >
   <i type="int" name="LORBIT">     0</i>
   <v name="RWIGS">     -1.00000000     -1.00000000</v>
   <i type="int" name="NEDOS">   301</i>
   <i name="EMIN">     10.00000000</i>
   <i name="EMAX">    -10.00000000</i>
   <i name="EFERMI">      0.00000000</i>
  </separator>
  <separator name="writing" >
   <i type="int" name="NWRITE">     2</i>
   <i type="logical" name="LWAVE"> F  </i>
   <i type="logical" name="LDOWNSAMPLE"> F  </i>
   <i type="logical" name="LCHARG"> F  </i>
   <i type="logical" name="LPARD"> F  </i>
   <i type="logical" name="LVTOT"> F  </i>
   <i type="logical" name="LVHAR"> F  </i>
   <i type="logical" name="LELF"> F  </i>
   <i type="logical" name="LOPTICS"> F  </i>
   <v name="STM">      0.00000000      0.00000000      0.00000000      0.00000000      0.00000000      0.00000000      0.00000000</v>
  </separator>
  <separator name="performance" >
   <i type="int" name="NPAR">    24</i>
   <i type="int" name="NSIM">     4</i>
   <i type="int" name="NBLK">    -1</i>
   <i type="logical" name="LPLANE"> T  </i>
   <i type="logical" name="LSCALAPACK"> T  </i>
   <i type="logical" name="LSCAAWARE"> F  </i>
   <i type="logical" name="LSCALU"> F  </i>
   <i type="logical" name="LASYNC"> F  </i>
   <i type="logical" name="LORBITALREAL"> F  </i>
  </separator>
  <separator name="miscellaneous" >
   <i type="int" name="IDIOT">     3</i>
   <i type="int" name="PHON_NSTRUCT">    -1</i>
   <i type="logical" name="LMUSIC"> F  </i>
   <v name="POMASS">     10.81100000     12.01100000</v>
   <v name="DARWINR">      0.00000000      0.00000000</v>
   <v name="DARWINV">      1.00000000      1.00000000</v>
   <i type="logical" name="LCORR"> T  </i>
  </separator>
  <i type="logical" name="GGA_COMPAT"> T  </i>
  <i type="logical" name="LBERRY"> F  </i>
  <i type="int" name="ICORELEVEL">     0</i>
  <i type="logical" name="LDAU"> F  </i>
  <i type="int" name="I_CONSTRAINED_M">     0</i>
  <separator name="electronic exchange-correlation" >
   <i type="string" name="GGA">PE</i>
   <i type="int" name="VOSKOWN">     0</i>
   <i type="logical" name="LHFCALC"> F  </i>
   <i type="string" name="PRECFOCK"></i>
   <i type="logical" name="LSYMGRAD"> F  </i>
   <i type="logical" name="LHFONE"> F  </i>
   <i type="logical" name="LRHFCALC"> F  </i>
   <i type="logical" name="LTHOMAS"> F  </i>
   <i type="logical" name="LMODELHF"> F  </i>
   <i type="logical" name="LFOCKACE"> F  </i>
   <i name="ENCUT4O">     -1.00000000</i>
   <i type="int" name="EXXOEP">     0</i>
   <i type="int" name="FOURORBIT">     0</i>
   <i name="AEXX">      0.00000000</i>
   <i name="HFALPHA">      0.00000000</i>
   <i name="MCALPHA">      0.00000000</i>
   <i name="ALDAX">      1.00000000</i>
   <i name="AGGAX">      1.00000000</i>
   <i name="ALDAC">      1.00000000</i>
   <i name="AGGAC">      1.00000000</i>
   <i type="int" name="NKREDX">     1</i>
   <i type="int" name="NKREDY">     1</i>
   <i type="int" name="NKREDZ">     1</i>
   <i type="logical" name="SHIFTRED"> F  </i>
   <i type="logical" name="ODDONLY"> F  </i>
   <i type="logical" name="EVENONLY"> F  </i>
   <i type="int" name="LMAXFOCK">     0</i>
   <i type="int" name="NMAXFOCKAE">     0</i>
   <i type="logical" name="LFOCKAEDFT"> F  </i>
   <i name="HFSCREEN">      0.00000000</i>
   <i name="HFSCREENC">      0.00000000</i>
   <i type="int" name="NBANDSGWLOW">     0</i>
  </separator>
  <separator name="vdW DFT" >
   <i type="logical" name="LUSE_VDW"> F  </i>
   <i name="Zab_VDW">     -0.84910000</i>
   <i name="PARAM1">      0.12340000</i>
   <i name="PARAM2">      1.00000000</i>
   <i name="PARAM3">      0.00000000</i>
  </separator>
  <separator name="model GW" >
   <i type="int" name="MODEL_GW">     0</i>
   <i name="MODEL_EPS0">     26.03131984</i>
   <i name="MODEL_ALPHA">      1.00000000</i>
  </separator>
  <separator name="linear response parameters" >
   <i type="logical" name="LEPSILON"> F  </i>
   <i type="logical" name="LRPA"> F  </i>
   <i type="logical" name="LNABLA"> F  </i>
   <i type="logical" name="LVEL"> F  </i>
   <i name="CSHIFT">      0.10000000</i>
   <i name="OMEGAMAX">     -1.00000000</i>
   <i name="DEG_THRESHOLD">      0.00200000</i>
   <i name="RTIME">     -0.10000000</i>
   <i name="WPLASMAI">      0.00000000</i>
   <v name="DFIELD">      0.00000000      0.00000000      0.00000000</v>
   <v name="WPLASMA">      0.00000000      0.00000000      0.00000000      0.00000000      0.00000000      0.00000000      0.00000000      0.00000000      0.00000000</v>
  </separator>
  <separator name="orbital magnetization" >
   <i type="logical" name="NUCIND"> F  </i>
   <v name="MAGPOS">      0.00000000      0.00000000      0.00000000</v>
   <i type="logical" name="LNICSALL"> T  </i>
   <i type="logical" name="ORBITALMAG"> F  </i>
   <i type="logical" name="LMAGBLOCH"> F  </i>
   <i type="logical" name="LCHIMAG"> F  </i>
   <i type="logical" name="LGAUGE"> T  </i>
   <i type="int" name="MAGATOM">     0</i>
   <v name="MAGDIPOL">      0.00000000      0.00000000      0.00000000</v>
   <v name="AVECCONST">      0.00000000      0.00000000      0.00000000</v>
  </separator>
  <separator name="response functions" >
   <i type="logical" name="LFINITE_TEMPERATURE"> F  </i>
   <i type="logical" name="LADDER"> F  </i>
   <i type="logical" name="LRPAFORCE"> F  </i>
   <i type="logical" name="LFXC"> F  </i>
   <i type="logical" name="LHARTREE"> T  </i>
   <i type="int" name="IBSE">     0</i>
   <v type="int" name="KPOINT">    -1     0     0     0</v>
   <i type="logical" name="LTCTC"> F  </i>
   <i type="logical" name="LTCTE"> F  </i>
   <i type="logical" name="LTETE"> F  </i>
   <i type="logical" name="LTRIPLET"> F  </i>
   <i type="logical" name="LFXCEPS"> F  </i>
   <i type="logical" name="LFXHEG"> F  </i>
   <i type="int" name="NATURALO">     2</i>
   <i type="logical" name="LHOLEGF"> F  </i>
   <i type="logical" name="L2ORDER"> F  </i>
   <i type="logical" name="LDMP1"> F  </i>
   <i type="logical" name="LMP2LT"> F  </i>
   <i type="logical" name="LSMP2LT"> F  </i>
   <i type="logical" name="LGWLF"> F  </i>
   <i name="ENCUTGW">     -2.00000000</i>
   <i name="ENCUTGWSOFT">     -2.00000000</i>
   <i name="ENCUTLF">     -1.00000000</i>
   <i type="logical" name="LESF_SPLINES"> F  </i>
   <i type="int" name="LMAXMP2">    -1</i>
   <i name="SCISSOR">      0.00000000</i>
   <i type="int" name="NOMEGA">     0</i>
   <i type="int" name="NOMEGAR">     0</i>
   <i type="int" name="NBANDSGW">    -1</i>
   <i type="int" name="NBANDSO">    -1</i>
   <i type="int" name="NBANDSV">    -1</i>
   <i type="int" name="NELMGW">     1</i>
   <i type="int" name="NELMHF">     1</i>
   <i type="int" name="DIM">     3</i>
   <i type="int" name="IESPILON">     4</i>
   <i type="int" name="ANTIRES">     0</i>
   <i name="OMEGAMAX">    -30.00000000</i>
   <i name="OMEGAMIN">    -30.00000000</i>
   <i name="OMEGATL">   -200.00000000</i>
   <i type="int" name="OMEGAGRID">     0</i>
   <i name="CSHIFT">     -0.10000000</i>
   <i type="logical" name="LSELFENERGY"> F  </i>
   <i type="logical" name="LSPECTRAL"> F  </i>
   <i type="logical" name="LSPECTRALGW"> F  </i>
   <i type="logical" name="LSINGLES"> F  </i>
   <i type="logical" name="LFERMIGW"> F  </i>
   <i type="logical" name="ODDONLYGW"> F  </i>
   <i type="logical" name="EVENONLYGW"> F  </i>
   <i type="int" name="NKREDLFX">     1</i>
   <i type="int" name="NKREDLFY">     1</i>
   <i type="int" name="NKREDLFZ">     1</i>
   <i type="int" name="MAXMEM">  2800</i>
   <i type="int" name="TELESCOPE">     0</i>
   <i type="int" name="NTAUPAR">    -1</i>
   <i type="int" name="NOMEGAPAR">    -1</i>
   <i name="DAMP_NEWTON">      0.80000001</i>
   <i name="LAMBDA">      1.00000000</i>
  </separator>
  <separator name="External order field" >
   <i name="OFIELD_KAPPA">      0.00000000</i>
   <v name="OFIELD_K">      0.00000000      0.00000000      0.00000000</v>
   <i name="OFIELD_Q6_NEAR">      0.00000000</i>
   <i name="OFIELD_Q6_FAR">      0.00000000</i>
   <i name="OFIELD_A">      0.00000000</i>
  </separator>
  <separator name="optional k-points parameters" >
   <i type="int" name="KPOINTS_OPT_MODE">     1</i>
   <i type="logical" name="LKPOINTS_OPT"> F  </i>
  </separator>
  <separator name="solvation model" >
   <i type="logical" name="LSOL"> F  </i>
  </separator>
 </parameters>
 <atominfo>
  <atoms>       8 </atoms>
  <types>       2 </types>
  <array name="atoms" >
   <dimension dim="1">ion</dimension>
   <field type="string">element</field>
   <field type="int">atomtype</field>
   <set>
    <rc><c>B </c><c>   1</c></rc>
    <rc><c>B </c><c>   1</c></rc>
    <rc><c>C </c><c>   2</c></rc>
    <rc><c>C </c><c>   2</c></rc>
    <rc><c>C </c><c>   2</c></rc>
    <rc><c>C </c><c>   2</c></rc>
    <rc><c>C </c><c>   2</c></rc>
    <rc><c>C </c><c>   2</c></rc>
   </set>
  </array>
  <array name="atomtypes" >
   <dimension dim="1">type</dimension>
   <field type="int">atomspertype</field>
   <field type="string">element</field>
   <field>mass</field>
   <field>valence</field>
   <field type="string">pseudopotential</field>
   <set>
    <rc><c>   2</c><c>B </c><c>     10.81100000</c><c>      3.00000000</c><c>  PAW_PBE B 06Sep2000                   </c></rc>
    <rc><c>   6</c><c>C </c><c>     12.01100000</c><c>      4.00000000</c><c>  PAW_PBE C 08Apr2002                   </c></rc>
   </set>
  </array>
 </atominfo>
 <structure name="initialpos" >
  <crystal>
   <varray name="basis" >
    <v>       4.47648500       2.58450000       0.00000000 </v>
    <v>      -4.47648500       2.58450000       0.00000000 </v>
    <v>       0.00000000       0.00000000      15.00000000 </v>
   </varray>
   <i name="volume">    347.08426447 </i>
   <varray name="rec_basis" >
    <v>       0.11169478       0.19346102       0.00000000 </v>
    <v>      -0.11169478       0.19346102       0.00000000 </v>
    <v>       0.00000000       0.00000000       0.06666667 </v>
   </varray>
  </crystal>
  <varray name="positions" >
   <v>       0.33835568       0.66919338       0.25000000 </v>
   <v>       0.67168550       0.33578412       0.25000000 </v>
   <v>       0.16393418       0.32096121       0.25000000 </v>
   <v>       0.32344383       0.16194918       0.25000000 </v>
   <v>       0.16445142       0.84350783       0.25000000 </v>
   <v>       0.84555675       0.16147694       0.25000000 </v>
   <v>       0.68650730       0.84304996       0.25000000 </v>
   <v>       0.84606136       0.68407339       0.25000000 </v>
  </varray>
 </structure>
 <calculation>
  <scstep>
   <time name="dav">    6.05    6.05</time>
   <time name="total">    6.08    6.08</time>
   <energy>
    <i name="alphaZ">     14.61461864 </i>
    <i name="ewald">   2602.09786459 </i>
    <i name="hartreedc">  -3360.46115414 </i>
    <i name="XCdc">     91.16088409 </i>
    <i name="pawpsdc">    738.13200929 </i>
    <i name="pawaedc">   -739.83780425 </i>
    <i name="eentropy">     -0.01560838 </i>
    <i name="bandstr">   -187.05117526 </i>
    <i name="atom">   1025.20389953 </i>
    <i name="e_fr_energy">    183.84353412 </i>
    <i name="e_wo_entrp">    183.85914251 </i>
    <i name="e_0_energy">    183.85133832 </i>
   </energy>
  </scstep>
  <scstep>
   <time name="dav">    8.93    8.93</time>
   <time name="total">    8.93    8.93</time>
   <energy>
    <i name="e_fr_energy">    -56.23582407 </i>
    <i name="e_wo_entrp">    -56.23465631 </i>
    <i name="e_0_energy">    -56.23524019 </i>
   </energy>
  </scstep>
  <scstep>
   <time name="dav">    8.99    8.99</time>
   <time name="total">    8.99    8.99</time>
   <energy>
    <i name="e_fr_energy">    -73.29800360 </i>
    <i name="e_wo_entrp">    -73.29800360 </i>
    <i name="e_0_energy">    -73.29800360 </i>
   </energy>
  </scstep>
  <scstep>
   <time name="dav">    9.03    9.03</time>
   <time name="total">    9.03    9.03</time>
   <energy>
    <i name="e_fr_energy">    -73.43103454 </i>
    <i name="e_wo_entrp">    -73.43103454 </i>
    <i name="e_0_energy">    -73.43103454 </i>
   </energy>
  </scstep>
  <scstep>
   <time name="dav">    8.71    8.71</time>
   <time name="total">    9.10    9.10</time>
   <energy>
    <i name="e_fr_energy">    -73.43125727 </i>
    <i name="e_wo_entrp">    -73.43125727 </i>
    <i name="e_0_energy">    -73.43125727 </i>
   </energy>
  </scstep>
  <scstep>
   <time name="dav">   10.52   10.52</time>
   <time name="total">   10.93   10.93</time>
   <energy>
    <i name="e_fr_energy">    -68.99278622 </i>
    <i name="e_wo_entrp">    -68.99278622 </i>
    <i name="e_0_energy">    -68.99278622 </i>
   </energy>
  </scstep>
  <scstep>
   <time name="dav">   10.50   10.50</time>
   <time name="total">   10.91   10.91</time>
   <energy>
    <i name="e_fr_energy">    -67.33342238 </i>
    <i name="e_wo_entrp">    -67.33342238 </i>
    <i name="e_0_energy">    -67.33342238 </i>
   </energy>
  </scstep>
  <scstep>
   <time name="dav">    8.67    8.67</time>
   <time name="total">    9.07    9.08</time>
   <energy>
    <i name="e_fr_energy">    -67.25033236 </i>
    <i name="e_wo_entrp">    -67.25033234 </i>
    <i name="e_0_energy">    -67.25033235 </i>
   </energy>
  </scstep>
  <scstep>
   <time name="dav">    8.46    8.47</time>
   <time name="total">    8.88    8.88</time>
   <energy>
    <i name="e_fr_energy">    -67.23093627 </i>
    <i name="e_wo_entrp">    -67.23093625 </i>
    <i name="e_0_energy">    -67.23093626 </i>
   </energy>
  </scstep>
  <scstep>
   <time name="dav">    8.06    8.06</time>
   <time name="total">    8.46    8.46</time>
   <energy>
    <i name="e_fr_energy">    -67.22190655 </i>
    <i name="e_wo_entrp">    -67.22190650 </i>
    <i name="e_0_energy">    -67.22190652 </i>
   </energy>
  </scstep>
  <scstep>
   <time name="dav">    7.55    7.55</time>
   <time name="total">    7.95    7.95</time>
   <energy>
    <i name="e_fr_energy">    -67.21957955 </i>
    <i name="e_wo_entrp">    -67.21957946 </i>
    <i name="e_0_energy">    -67.21957950 </i>
   </energy>
  </scstep>
  <scstep>
   <time name="dav">    6.53    6.53</time>
   <time name="total">    6.93    6.93</time>
   <energy>
    <i name="e_fr_energy">    -67.22024795 </i>
    <i name="e_wo_entrp">    -67.22024785 </i>
    <i name="e_0_energy">    -67.22024790 </i>
   </energy>
  </scstep>
  <scstep>
   <time name="dav">    9.17    9.17</time>
   <time name="total">    9.57    9.57</time>
   <energy>
    <i name="e_fr_energy">    -67.22323883 </i>
    <i name="e_wo_entrp">    -67.22323874 </i>
    <i name="e_0_energy">    -67.22323878 </i>
   </energy>
  </scstep>
  <scstep>
   <time name="dav">    7.35    7.35</time>
   <time name="total">    7.75    7.75</time>
   <energy>
    <i name="e_fr_energy">    -67.22485098 </i>
    <i name="e_wo_entrp">    -67.22485089 </i>
    <i name="e_0_energy">    -67.22485093 </i>
   </energy>
  </scstep>
  <scstep>
   <time name="dav">    7.93    7.93</time>
   <time name="total">    8.32    8.32</time>
   <energy>
    <i name="e_fr_energy">    -67.22557181 </i>
    <i name="e_wo_entrp">    -67.22557172 </i>
    <i name="e_0_energy">    -67.22557177 </i>
   </energy>
  </scstep>
  <scstep>
   <time name="dav">    6.80    6.80</time>
   <time name="total">    7.20    7.20</time>
   <energy>
    <i name="e_fr_energy">    -67.22582668 </i>
    <i name="e_wo_entrp">    -67.22582659 </i>
    <i name="e_0_energy">    -67.22582663 </i>
   </energy>
  </scstep>
  <scstep>
   <time name="dav">    6.32    6.32</time>
   <time name="total">    6.72    6.72</time>
   <energy>
    <i name="e_fr_energy">    -67.22590108 </i>
    <i name="e_wo_entrp">    -67.22590099 </i>
    <i name="e_0_energy">    -67.22590103 </i>
   </energy>
  </scstep>
  <scstep>
   <time name="dav">    8.20    8.20</time>
   <time name="total">    8.60    8.60</time>
   <energy>
    <i name="e_fr_energy">    -67.22590619 </i>
    <i name="e_wo_entrp">    -67.22590610 </i>
    <i name="e_0_energy">    -67.22590614 </i>
   </energy>
  </scstep>
  <scstep>
   <time name="dav">    6.55    6.55</time>
   <time name="total">    6.95    6.95</time>
   <energy>
    <i name="e_fr_energy">    -67.22590821 </i>
    <i name="e_wo_entrp">    -67.22590812 </i>
    <i name="e_0_energy">    -67.22590816 </i>
   </energy>
  </scstep>
  <scstep>
   <time name="dav">    7.76    7.76</time>
   <time name="total">    7.78    7.78</time>
   <energy>
    <i name="alphaZ">     14.61461864 </i>
    <i name="ewald">   2602.09786459 </i>
    <i name="hartreedc">  -3497.45751506 </i>
    <i name="XCdc">     96.04099037 </i>
    <i name="pawpsdc">   2899.55058898 </i>
    <i name="pawaedc">  -2902.08055318 </i>
    <i name="eentropy">     -0.00000009 </i>
    <i name="bandstr">   -305.19580234 </i>
    <i name="atom">   1025.20389953 </i>
    <i name="e_fr_energy">    -67.22590856 </i>
    <i name="e_wo_entrp">    -67.22590847 </i>
    <i name="e_0_energy">    -67.22590852 </i>
   </energy>
  </scstep>
  <structure>
   <crystal>
    <varray name="basis" >
     <v>       4.47648500       2.58450000       0.00000000 </v>
     <v>      -4.47648500       2.58450000       0.00000000 </v>
     <v>       0.00000000       0.00000000      15.00000000 </v>
    </varray>
    <i name="volume">    347.08426447 </i>
    <varray name="rec_basis" >
     <v>       0.11169478       0.19346102       0.00000000 </v>
     <v>      -0.11169478       0.19346102       0.00000000 </v>
     <v>       0.00000000       0.00000000       0.06666667 </v>
    </varray>
   </crystal>
   <varray name="positions" >
    <v>       0.33835568       0.66919338       0.25000000 </v>
    <v>       0.67168550       0.33578412       0.25000000 </v>
    <v>       0.16393418       0.32096121       0.25000000 </v>
    <v>       0.32344383       0.16194918       0.25000000 </v>
    <v>       0.16445142       0.84350783       0.25000000 </v>
    <v>       0.84555675       0.16147694       0.25000000 </v>
    <v>       0.68650730       0.84304996       0.25000000 </v>
    <v>       0.84606136       0.68407339       0.25000000 </v>
   </varray>
  </structure>
  <varray name="forces" >
   <v>      -0.00364006      -0.00804755      -0.00000000 </v>
   <v>      -0.01138336       0.00494480       0.00000000 </v>
   <v>       0.16623313      -0.21599786      -0.00000000 </v>
   <v>      -0.13191421      -0.23667397       0.00000000 </v>
   <v>      -0.26697197      -0.00574627       0.00000000 </v>
   <v>       0.25945504       0.00646136      -0.00000000 </v>
   <v>       0.14447730       0.24485268      -0.00000000 </v>
   <v>      -0.15625588       0.21020681       0.00000000 </v>
  </varray>
  <varray name="stress" >
   <v>      -2.00354603       0.03463673       0.00000000 </v>
   <v>       0.03463673      -1.87922770       0.00000000 </v>
   <v>       0.00000000       0.00000000      -0.87116379 </v>
  </varray>
  <energy>
   <i name="e_fr_energy">    -67.90424513 </i>
   <i name="e_wo_entrp">    -67.90424504 </i>
   <i name="e_0_energy">    -67.90424509 </i>
  </energy>
  <time name="totalsc">  177.00  177.03</time>
 </calculation>
 <calculation>
  <scstep>
   <time name="dav">    6.07    6.07</time>
   <time name="total">    6.48    6.48</time>
   <energy>
    <i name="alphaZ">     14.61461864 </i>
    <i name="ewald">   2606.47009820 </i>
    <i name="hartreedc">  -3500.53888845 </i>
    <i name="XCdc">     96.10941224 </i>
    <i name="pawpsdc">   2899.55174210 </i>
    <i name="pawaedc">  -2902.08170418 </i>
    <i name="eentropy">     -0.00000000 </i>
    <i name="bandstr">   -306.55118869 </i>
    <i name="atom">   1025.20389953 </i>
    <i name="e_fr_energy">    -67.22201061 </i>
    <i name="e_wo_entrp">    -67.22201061 </i>
    <i name="e_0_energy">    -67.22201061 </i>
   </energy>
  </scstep>
  <scstep>
   <time name="dav">    9.59    9.59</time>
   <time name="total">    9.98    9.98</time>
   <energy>
    <i name="e_fr_energy">    -67.21639916 </i>
    <i name="e_wo_entrp">    -67.21639914 </i>
    <i name="e_0_energy">    -67.21639915 </i>
   </energy>
  </scstep>
  <scstep>
   <time name="dav">    7.33    7.33</time>
   <time name="total">    7.74    7.74</time>
   <energy>
    <i name="e_fr_energy">    -67.21562918 </i>
    <i name="e_wo_entrp">    -67.21562916 </i>
    <i name="e_0_energy">    -67.21562917 </i>
   </energy>
  </scstep>
  <scstep>
   <time name="dav">    7.71    7.71</time>
   <time name="total">    8.11    8.11</time>
   <energy>
    <i name="e_fr_energy">    -67.21562611 </i>
    <i name="e_wo_entrp">    -67.21562609 </i>
    <i name="e_0_energy">    -67.21562610 </i>
   </energy>
  </scstep>
  <scstep>
   <time name="dav">    6.50    6.50</time>
   <time name="total">    6.90    6.90</time>
   <energy>
    <i name="e_fr_energy">    -67.21563219 </i>
    <i name="e_wo_entrp">    -67.21563217 </i>
    <i name="e_0_energy">    -67.21563218 </i>
   </energy>
  </scstep>
  <scstep>
   <time name="dav">    6.46    6.46</time>
   <time name="total">    6.86    6.86</time>
   <energy>
    <i name="e_fr_energy">    -67.21563304 </i>
    <i name="e_wo_entrp">    -67.21563303 </i>
    <i name="e_0_energy">    -67.21563303 </i>
   </energy>
  </scstep>
  <scstep>
   <time name="dav">    6.30    6.30</time>
   <time name="total">    6.70    6.70</time>
   <energy>
    <i name="e_fr_energy">    -67.21563499 </i>
    <i name="e_wo_entrp">    -67.21563497 </i>
    <i name="e_0_energy">    -67.21563498 </i>
   </energy>
  </scstep>
  <scstep>
   <time name="dav">    6.68    6.68</time>
   <time name="total">    7.07    7.07</time>
   <energy>
    <i name="e_fr_energy">    -67.21563619 </i>
    <i name="e_wo_entrp">    -67.21563617 </i>
    <i name="e_0_energy">    -67.21563618 </i>
   </energy>
  </scstep>
  <scstep>
   <time name="dav">    6.27    6.27</time>
   <time name="total">    6.67    6.67</time>
   <energy>
    <i name="e_fr_energy">    -67.21563780 </i>
    <i name="e_wo_entrp">    -67.21563778 </i>
    <i name="e_0_energy">    -67.21563779 </i>
   </energy>
  </scstep>
  <scstep>
   <time name="dav">    8.51    8.51</time>
   <time name="total">    8.91    8.91</time>
   <energy>
    <i name="e_fr_energy">    -67.21563884 </i>
    <i name="e_wo_entrp">    -67.21563882 </i>
    <i name="e_0_energy">    -67.21563883 </i>
   </energy>
  </scstep>
  <scstep>
   <time name="dav">    8.18    8.18</time>
   <time name="total">    8.20    8.20</time>
   <energy>
    <i name="alphaZ">     14.61461864 </i>
    <i name="ewald">   2606.47009820 </i>
    <i name="hartreedc">  -3501.87048487 </i>
    <i name="XCdc">     96.16083512 </i>
    <i name="pawpsdc">   2922.30899347 </i>
    <i name="pawaedc">  -2924.84742985 </i>
    <i name="eentropy">     -0.00000002 </i>
    <i name="bandstr">   -305.25616996 </i>
    <i name="atom">   1025.20389953 </i>
    <i name="e_fr_energy">    -67.21563974 </i>
    <i name="e_wo_entrp">    -67.21563972 </i>
    <i name="e_0_energy">    -67.21563973 </i>
   </energy>
  </scstep>
  <structure>
   <crystal>
    <varray name="basis" >
     <v>       4.47648500       2.58450000       0.00000000 </v>
     <v>      -4.47648500       2.58450000       0.00000000 </v>
     <v>       0.00000000       0.00000000      15.00000000 </v>
    </varray>
    <i name="volume">    347.08426447 </i>
    <varray name="rec_basis" >
     <v>       0.11169478       0.19346102       0.00000000 </v>
     <v>      -0.11169478       0.19346102       0.00000000 </v>
     <v>       0.00000000       0.00000000       0.06666667 </v>
    </varray>
   </crystal>
   <varray name="positions" >
    <v>       0.33826096       0.66913789       0.25000000 </v>
    <v>       0.67167031       0.33589161       0.25000000 </v>
    <v>       0.16281399       0.31804955       0.25000000 </v>
    <v>       0.32052412       0.16045110       0.25000000 </v>
    <v>       0.16295922       0.84489276       0.25000000 </v>
    <v>       0.84701511       0.16013918       0.25000000 </v>
    <v>       0.68957104       0.84455668       0.25000000 </v>
    <v>       0.84718126       0.68687724       0.25000000 </v>
   </varray>
  </structure>
  <varray name="forces" >
   <v>       0.01744864       0.02019026      -0.00000000 </v>
   <v>       0.00449236      -0.01534640       0.00000000 </v>
   <v>      -0.34195661       0.45028889       0.00000000 </v>
   <v>       0.32742032       0.48439343       0.00000000 </v>
   <v>       0.54084741      -0.03919041      -0.00000000 </v>
   <v>      -0.52326161       0.03878561      -0.00000000 </v>
   <v>      -0.35068758      -0.50099823       0.00000000 </v>
   <v>       0.32569706      -0.43812315      -0.00000000 </v>
  </varray>
  <varray name="stress" >
   <v>       2.16925619      -0.14188850       0.00000000 </v>
   <v>      -0.14188850       1.65090408       0.00000000 </v>
   <v>       0.00000000       0.00000000      -0.86723290 </v>
  </varray>
  <energy>
   <i name="e_fr_energy">    -67.89298323 </i>
   <i name="e_wo_entrp">    -67.89298321 </i>
   <i name="e_0_energy">    -67.89298322 </i>
  </energy>
  <time name="totalsc">   92.48   92.50</time>
 </calculation>
 <calculation>
  <scstep>
   <time name="dav">    6.04    6.04</time>
   <time name="total">    6.43    6.43</time>
   <energy>
    <i name="alphaZ">     14.61461864 </i>
    <i name="ewald">   2603.47472124 </i>
    <i name="hartreedc">  -3499.74147382 </i>
    <i name="XCdc">     96.11322158 </i>
    <i name="pawpsdc">   2922.32377406 </i>
    <i name="pawaedc">  -2924.86221110 </i>
    <i name="eentropy">     -0.00000012 </i>
    <i name="bandstr">   -304.35910179 </i>
    <i name="atom">   1025.20389953 </i>
    <i name="e_fr_energy">    -67.23255178 </i>
    <i name="e_wo_entrp">    -67.23255166 </i>
    <i name="e_0_energy">    -67.23255172 </i>
   </energy>
  </scstep>
  <scstep>
   <time name="dav">    8.52    8.52</time>
   <time name="total">    8.91    8.91</time>
   <energy>
    <i name="e_fr_energy">    -67.22994783 </i>
    <i name="e_wo_entrp">    -67.22994777 </i>
    <i name="e_0_energy">    -67.22994780 </i>
   </energy>
  </scstep>
  <scstep>
   <time name="dav">    9.07    9.07</time>
   <time name="total">    9.46    9.46</time>
   <energy>
    <i name="e_fr_energy">    -67.22964419 </i>
    <i name="e_wo_entrp">    -67.22964414 </i>
    <i name="e_0_energy">    -67.22964416 </i>
   </energy>
  </scstep>
  <scstep>
   <time name="dav">    7.04    7.04</time>
   <time name="total">    7.44    7.44</time>
   <energy>
    <i name="e_fr_energy">    -67.22964069 </i>
    <i name="e_wo_entrp">    -67.22964064 </i>
    <i name="e_0_energy">    -67.22964067 </i>
   </energy>
  </scstep>
  <scstep>
   <time name="dav">    7.55    7.55</time>
   <time name="total">    7.95    7.95</time>
   <energy>
    <i name="e_fr_energy">    -67.22964585 </i>
    <i name="e_wo_entrp">    -67.22964580 </i>
    <i name="e_0_energy">    -67.22964582 </i>
   </energy>
  </scstep>
  <scstep>
   <time name="dav">    6.83    6.83</time>
   <time name="total">    6.85    6.85</time>
   <energy>
    <i name="alphaZ">     14.61461864 </i>
    <i name="ewald">   2603.47472124 </i>
    <i name="hartreedc">  -3498.90310862 </i>
    <i name="XCdc">     96.07942433 </i>
    <i name="pawpsdc">   2906.30832725 </i>
    <i name="pawaedc">  -2908.84065215 </i>
    <i name="eentropy">     -0.00000005 </i>
    <i name="bandstr">   -305.16687699 </i>
    <i name="atom">   1025.20389953 </i>
    <i name="e_fr_energy">    -67.22964683 </i>
    <i name="e_wo_entrp">    -67.22964678 </i>
    <i name="e_0_energy">    -67.22964680 </i>
   </energy>
  </scstep>
  <structure>
   <crystal>
    <varray name="basis" >
     <v>       4.47648500       2.58450000       0.00000000 </v>
     <v>      -4.47648500       2.58450000       0.00000000 </v>
     <v>       0.00000000       0.00000000      15.00000000 </v>
    </varray>
    <i name="volume">    347.08426447 </i>
    <varray name="rec_basis" >
     <v>       0.11169478       0.19346102       0.00000000 </v>
     <v>      -0.11169478       0.19346102       0.00000000 </v>
     <v>       0.00000000       0.00000000       0.06666667 </v>
    </varray>
   </crystal>
   <varray name="positions" >
    <v>       0.33832471       0.66917523       0.25000000 </v>
    <v>       0.67168053       0.33581927       0.25000000 </v>
    <v>       0.16356789       0.32000912       0.25000000 </v>
    <v>       0.32248911       0.16145932       0.25000000 </v>
    <v>       0.16396348       0.84396069       0.25000000 </v>
    <v>       0.84603362       0.16103951       0.25000000 </v>
    <v>       0.68750912       0.84354264       0.25000000 </v>
    <v>       0.84642755       0.68499022       0.25000000 </v>
   </varray>
  </structure>
  <varray name="forces" >
   <v>       0.00350030       0.00153103      -0.00000000 </v>
   <v>      -0.00612490      -0.00192129      -0.00000000 </v>
   <v>       0.00295715      -0.00006235      -0.00000000 </v>
   <v>       0.01583254      -0.00339105       0.00000000 </v>
   <v>      -0.00558785      -0.01605492      -0.00000000 </v>
   <v>       0.00604127       0.01645347      -0.00000000 </v>
   <v>      -0.01499533       0.00307622       0.00000000 </v>
   <v>      -0.00162318       0.00036890      -0.00000000 </v>
  </varray>
  <varray name="stress" >
   <v>      -0.74431761      -0.02041520       0.00000000 </v>
   <v>      -0.02041519      -0.81297005       0.00000000 </v>
   <v>       0.00000000       0.00000000      -0.87281288 </v>
  </varray>
  <energy>
   <i name="e_fr_energy">    -67.90768363 </i>
   <i name="e_wo_entrp">    -67.90768358 </i>
   <i name="e_0_energy">    -67.90768361 </i>
  </energy>
  <time name="totalsc">   55.88   55.89</time>
 </calculation>
 <calculation>
  <scstep>
   <time name="dav">    6.35    6.35</time>
   <time name="total">    6.75    6.75</time>
   <energy>
    <i name="alphaZ">     14.61461864 </i>
    <i name="ewald">   2603.47925873 </i>
    <i name="hartreedc">  -3498.89650676 </i>
    <i name="XCdc">     96.07940272 </i>
    <i name="pawpsdc">   2906.34573197 </i>
    <i name="pawaedc">  -2908.87820546 </i>
    <i name="eentropy">     -0.00000005 </i>
    <i name="bandstr">   -305.17784882 </i>
    <i name="atom">   1025.20389953 </i>
    <i name="e_fr_energy">    -67.22964951 </i>
    <i name="e_wo_entrp">    -67.22964945 </i>
    <i name="e_0_energy">    -67.22964948 </i>
   </energy>
  </scstep>
  <scstep>
   <time name="dav">    8.46    8.46</time>
   <time name="total">    8.48    8.48</time>
   <energy>
    <i name="alphaZ">     14.61461864 </i>
    <i name="ewald">   2603.47925873 </i>
    <i name="hartreedc">  -3498.89328990 </i>
    <i name="XCdc">     96.07940589 </i>
    <i name="pawpsdc">   2906.38268176 </i>
    <i name="pawaedc">  -2908.91517006 </i>
    <i name="eentropy">     -0.00000005 </i>
    <i name="bandstr">   -305.18105462 </i>
    <i name="atom">   1025.20389953 </i>
    <i name="e_fr_energy">    -67.22965008 </i>
    <i name="e_wo_entrp">    -67.22965003 </i>
    <i name="e_0_energy">    -67.22965005 </i>
   </energy>
  </scstep>
  <structure>
   <crystal>
    <varray name="basis" >
     <v>       4.47648500       2.58450000       0.00000000 </v>
     <v>      -4.47648500       2.58450000       0.00000000 </v>
     <v>       0.00000000       0.00000000      15.00000000 </v>
    </varray>
    <i name="volume">    347.08426447 </i>
    <varray name="rec_basis" >
     <v>       0.11169478       0.19346102       0.00000000 </v>
     <v>      -0.11169478       0.19346102       0.00000000 </v>
     <v>       0.00000000       0.00000000       0.06666667 </v>
    </varray>
   </crystal>
   <varray name="positions" >
    <v>       0.33832461       0.66917518       0.25000000 </v>
    <v>       0.67168052       0.33581938       0.25000000 </v>
    <v>       0.16356670       0.32000604       0.25000000 </v>
    <v>       0.32248602       0.16145773       0.25000000 </v>
    <v>       0.16396190       0.84396215       0.25000000 </v>
    <v>       0.84603516       0.16103809       0.25000000 </v>
    <v>       0.68751236       0.84354424       0.25000000 </v>
    <v>       0.84642874       0.68499319       0.25000000 </v>
   </varray>
  </structure>
  <varray name="forces" >
   <v>       0.00350474       0.00157417       0.00000000 </v>
   <v>      -0.00604858      -0.00194482      -0.00000000 </v>
   <v>       0.00188381       0.00136265       0.00000000 </v>
   <v>       0.01682020      -0.00186230      -0.00000000 </v>
   <v>      -0.00384272      -0.01611210       0.00000000 </v>
   <v>       0.00432960       0.01650311       0.00000000 </v>
   <v>      -0.01605323       0.00151967      -0.00000000 </v>
   <v>      -0.00059383      -0.00104038       0.00000000 </v>
  </varray>
  <varray name="stress" >
   <v>      -0.74382121      -0.02150263       0.00000000 </v>
   <v>      -0.02150263      -0.81527698       0.00000000 </v>
   <v>       0.00000000       0.00000000      -0.88045221 </v>
  </varray>
  <energy>
   <i name="e_fr_energy">    -67.90768588 </i>
   <i name="e_wo_entrp">    -67.90768583 </i>
   <i name="e_0_energy">    -67.90768585 </i>
  </energy>
  <time name="totalsc">   24.10   24.11</time>
 </calculation>
 <calculation>
  <scstep>
   <time name="dav">    7.36    7.36</time>
   <time name="total">    7.76    7.76</time>
   <energy>
    <i name="alphaZ">     14.61461864 </i>
    <i name="ewald">   2603.47697403 </i>
    <i name="hartreedc">  -3498.88551572 </i>
    <i name="XCdc">     96.07932176 </i>
    <i name="pawpsdc">   2906.42784663 </i>
    <i name="pawaedc">  -2908.96034479 </i>
    <i name="eentropy">     -0.00000005 </i>
    <i name="bandstr">   -305.18645041 </i>
    <i name="atom">   1025.20389953 </i>
    <i name="e_fr_energy">    -67.22965039 </i>
    <i name="e_wo_entrp">    -67.22965034 </i>
    <i name="e_0_energy">    -67.22965036 </i>
   </energy>
  </scstep>
  <scstep>
   <time name="dav">    9.26    9.26</time>
   <time name="total">    9.28    9.28</time>
   <energy>
    <i name="alphaZ">     14.61461864 </i>
    <i name="ewald">   2603.47697403 </i>
    <i name="hartreedc">  -3498.88210364 </i>
    <i name="XCdc">     96.07926764 </i>
    <i name="pawpsdc">   2906.43115425 </i>
    <i name="pawaedc">  -2908.96364917 </i>
    <i name="eentropy">     -0.00000005 </i>
    <i name="bandstr">   -305.18981190 </i>
    <i name="atom">   1025.20389953 </i>
    <i name="e_fr_energy">    -67.22965068 </i>
    <i name="e_wo_entrp">    -67.22965063 </i>
    <i name="e_0_energy">    -67.22965065 </i>
   </energy>
  </scstep>
  <structure>
   <crystal>
    <varray name="basis" >
     <v>       4.47648500       2.58450000       0.00000000 </v>
     <v>      -4.47648500       2.58450000       0.00000000 </v>
     <v>       0.00000000       0.00000000      15.00000000 </v>
    </varray>
    <i name="volume">    347.08426447 </i>
    <varray name="rec_basis" >
     <v>       0.11169478       0.19346102       0.00000000 </v>
     <v>      -0.11169478       0.19346102       0.00000000 </v>
     <v>       0.00000000       0.00000000       0.06666667 </v>
    </varray>
   </crystal>
   <varray name="positions" >
    <v>       0.33832466       0.66917521       0.25000000 </v>
    <v>       0.67168052       0.33581932       0.25000000 </v>
    <v>       0.16356730       0.32000759       0.25000000 </v>
    <v>       0.32248757       0.16145853       0.25000000 </v>
    <v>       0.16396270       0.84396142       0.25000000 </v>
    <v>       0.84603438       0.16103880       0.25000000 </v>
    <v>       0.68751073       0.84354343       0.25000000 </v>
    <v>       0.84642814       0.68499169       0.25000000 </v>
   </varray>
  </structure>
  <varray name="forces" >
   <v>       0.00349477       0.00155898       0.00000000 </v>
   <v>      -0.00606114      -0.00193456       0.00000000 </v>
   <v>       0.00212571       0.00106110       0.00000000 </v>
   <v>       0.01660565      -0.00219205      -0.00000000 </v>
   <v>      -0.00421271      -0.01609518       0.00000000 </v>
   <v>       0.00468728       0.01648741      -0.00000000 </v>
   <v>      -0.01581835       0.00186329      -0.00000000 </v>
   <v>      -0.00082122      -0.00074900       0.00000000 </v>
  </varray>
  <varray name="stress" >
   <v>      -0.74729195      -0.02145898       0.00000000 </v>
   <v>      -0.02145897      -0.81855924       0.00000000 </v>
   <v>       0.00000000       0.00000000      -0.87937605 </v>
  </varray>
  <energy>
   <i name="e_fr_energy">    -67.90768698 </i>
   <i name="e_wo_entrp">    -67.90768693 </i>
   <i name="e_0_energy">    -67.90768696 </i>
  </energy>
  <time name="totalsc">   25.89   25.90</time>
 </calculation>
 <calculation>
  <scstep>
   <time name="dav">    7.78    7.78</time>
   <time name="total">    8.17    8.17</time>
   <energy>
    <i name="alphaZ">     14.61461864 </i>
    <i name="ewald">   2603.47614549 </i>
    <i name="hartreedc">  -3498.87711979 </i>
    <i name="XCdc">     96.07920397 </i>
    <i name="pawpsdc">   2906.43743641 </i>
    <i name="pawaedc">  -2908.96992923 </i>
    <i name="eentropy">     -0.00000005 </i>
    <i name="bandstr">   -305.19390588 </i>
    <i name="atom">   1025.20389953 </i>
    <i name="e_fr_energy">    -67.22965091 </i>
    <i name="e_wo_entrp">    -67.22965086 </i>
    <i name="e_0_energy">    -67.22965088 </i>
   </energy>
  </scstep>
  <scstep>
   <time name="dav">    9.13    9.13</time>
   <time name="total">    9.15    9.15</time>
   <energy>
    <i name="alphaZ">     14.61461864 </i>
    <i name="ewald">   2603.47614549 </i>
    <i name="hartreedc">  -3498.87502860 </i>
    <i name="XCdc">     96.07918214 </i>
    <i name="pawpsdc">   2906.43736531 </i>
    <i name="pawaedc">  -2908.96985844 </i>
    <i name="eentropy">     -0.00000005 </i>
    <i name="bandstr">   -305.19597511 </i>
    <i name="atom">   1025.20389953 </i>
    <i name="e_fr_energy">    -67.22965109 </i>
    <i name="e_wo_entrp">    -67.22965104 </i>
    <i name="e_0_energy">    -67.22965107 </i>
   </energy>
  </scstep>
  <structure>
   <crystal>
    <varray name="basis" >
     <v>       4.47648500       2.58450000       0.00000000 </v>
     <v>      -4.47648500       2.58450000       0.00000000 </v>
     <v>       0.00000000       0.00000000      15.00000000 </v>
    </varray>
    <i name="volume">    347.08426447 </i>
    <varray name="rec_basis" >
     <v>       0.11169478       0.19346102       0.00000000 </v>
     <v>      -0.11169478       0.19346102       0.00000000 </v>
     <v>       0.00000000       0.00000000       0.06666667 </v>
    </varray>
   </crystal>
   <varray name="positions" >
    <v>       0.33832467       0.66917522       0.25000000 </v>
    <v>       0.67168053       0.33581930       0.25000000 </v>
    <v>       0.16356751       0.32000815       0.25000000 </v>
    <v>       0.32248814       0.16145882       0.25000000 </v>
    <v>       0.16396299       0.84396115       0.25000000 </v>
    <v>       0.84603410       0.16103906       0.25000000 </v>
    <v>       0.68751013       0.84354314       0.25000000 </v>
    <v>       0.84642793       0.68499115       0.25000000 </v>
   </varray>
  </structure>
  <varray name="forces" >
   <v>       0.00349047       0.00155337      -0.00000000 </v>
   <v>      -0.00606428      -0.00193061      -0.00000000 </v>
   <v>       0.00223880       0.00090548       0.00000000 </v>
   <v>       0.01650125      -0.00235798       0.00000000 </v>
   <v>      -0.00439943      -0.01608826      -0.00000000 </v>
   <v>       0.00486922       0.01648068      -0.00000000 </v>
   <v>      -0.01570679       0.00203430      -0.00000000 </v>
   <v>      -0.00092924      -0.00059698      -0.00000000 </v>
  </varray>
  <varray name="stress" >
   <v>      -0.74781545      -0.02140984       0.00000000 </v>
   <v>      -0.02140985      -0.81892317       0.00000000 </v>
   <v>       0.00000000       0.00000000      -0.87571260 </v>
  </varray>
  <energy>
   <i name="e_fr_energy">    -67.90768758 </i>
   <i name="e_wo_entrp">    -67.90768753 </i>
   <i name="e_0_energy">    -67.90768756 </i>
  </energy>
  <time name="totalsc">   26.16   26.17</time>
 </calculation>
 <calculation>
  <scstep>
   <time name="dav">    7.49    7.49</time>
   <time name="total">    7.88    7.88</time>
   <energy>
    <i name="alphaZ">     14.61461864 </i>
    <i name="ewald">   2603.47512070 </i>
    <i name="hartreedc">  -3498.86709083 </i>
    <i name="XCdc">     96.07910205 </i>
    <i name="pawpsdc">   2906.43869805 </i>
    <i name="pawaedc">  -2908.97119332 </i>
    <i name="eentropy">     -0.00000005 </i>
    <i name="bandstr">   -305.20280625 </i>
    <i name="atom">   1025.20389953 </i>
    <i name="e_fr_energy">    -67.22965148 </i>
    <i name="e_wo_entrp">    -67.22965143 </i>
    <i name="e_0_energy">    -67.22965146 </i>
   </energy>
  </scstep>
  <scstep>
   <time name="dav">   10.28   10.28</time>
   <time name="total">   10.30   10.30</time>
   <energy>
    <i name="alphaZ">     14.61461864 </i>
    <i name="ewald">   2603.47512070 </i>
    <i name="hartreedc">  -3498.86603232 </i>
    <i name="XCdc">     96.07908901 </i>
    <i name="pawpsdc">   2906.43637443 </i>
    <i name="pawaedc">  -2908.96886927 </i>
    <i name="eentropy">     -0.00000005 </i>
    <i name="bandstr">   -305.20385220 </i>
    <i name="atom">   1025.20389953 </i>
    <i name="e_fr_energy">    -67.22965153 </i>
    <i name="e_wo_entrp">    -67.22965148 </i>
    <i name="e_0_energy">    -67.22965150 </i>
   </energy>
  </scstep>
  <structure>
   <crystal>
    <varray name="basis" >
     <v>       4.47648500       2.58450000       0.00000000 </v>
     <v>      -4.47648500       2.58450000       0.00000000 </v>
     <v>       0.00000000       0.00000000      15.00000000 </v>
    </varray>
    <i name="volume">    347.08426447 </i>
    <varray name="rec_basis" >
     <v>       0.11169478       0.19346102       0.00000000 </v>
     <v>      -0.11169478       0.19346102       0.00000000 </v>
     <v>       0.00000000       0.00000000       0.06666667 </v>
    </varray>
   </crystal>
   <varray name="positions" >
    <v>       0.33832470       0.66917523       0.25000000 </v>
    <v>       0.67168053       0.33581928       0.25000000 </v>
    <v>       0.16356778       0.32000885       0.25000000 </v>
    <v>       0.32248883       0.16145918       0.25000000 </v>
    <v>       0.16396334       0.84396082       0.25000000 </v>
    <v>       0.84603375       0.16103938       0.25000000 </v>
    <v>       0.68750940       0.84354278       0.25000000 </v>
    <v>       0.84642766       0.68499048       0.25000000 </v>
   </varray>
  </structure>
  <varray name="forces" >
   <v>       0.00348518       0.00154638      -0.00000000 </v>
   <v>      -0.00606804      -0.00192560      -0.00000000 </v>
   <v>       0.00236082       0.00074483       0.00000000 </v>
   <v>       0.01639070      -0.00253177      -0.00000000 </v>
   <v>      -0.00459384      -0.01608022      -0.00000000 </v>
   <v>       0.00505786       0.01647288       0.00000000 </v>
   <v>      -0.01558764       0.00221425       0.00000000 </v>
   <v>      -0.00104504      -0.00044076      -0.00000000 </v>
  </varray>
  <varray name="stress" >
   <v>      -0.74894039      -0.02135993       0.00000000 </v>
   <v>      -0.02135996      -0.81987565       0.00000000 </v>
   <v>       0.00000000       0.00000000      -0.87256383 </v>
  </varray>
  <energy>
   <i name="e_fr_energy">    -67.90768824 </i>
   <i name="e_wo_entrp">    -67.90768819 </i>
   <i name="e_0_energy">    -67.90768822 </i>
  </energy>
  <time name="totalsc">   27.06   27.07</time>
 </calculation>
 <calculation>
  <scstep>
   <time name="dav">    6.08    6.08</time>
   <time name="total">    6.48    6.48</time>
   <energy>
    <i name="alphaZ">     14.61461864 </i>
    <i name="ewald">   2603.48336003 </i>
    <i name="hartreedc">  -3498.87027271 </i>
    <i name="XCdc">     96.07920704 </i>
    <i name="pawpsdc">   2906.43533419 </i>
    <i name="pawaedc">  -2908.96782883 </i>
    <i name="eentropy">     -0.00000005 </i>
    <i name="bandstr">   -305.20797295 </i>
    <i name="atom">   1025.20389953 </i>
    <i name="e_fr_energy">    -67.22965511 </i>
    <i name="e_wo_entrp">    -67.22965506 </i>
    <i name="e_0_energy">    -67.22965509 </i>
   </energy>
  </scstep>
  <scstep>
   <time name="dav">    6.52    6.52</time>
   <time name="total">    6.92    6.92</time>
   <energy>
    <i name="e_fr_energy">    -67.22965804 </i>
    <i name="e_wo_entrp">    -67.22965799 </i>
    <i name="e_0_energy">    -67.22965802 </i>
   </energy>
  </scstep>
  <scstep>
   <time name="dav">    6.43    6.43</time>
   <time name="total">    6.45    6.45</time>
   <energy>
    <i name="alphaZ">     14.61461864 </i>
    <i name="ewald">   2603.48336003 </i>
    <i name="hartreedc">  -3498.87120475 </i>
    <i name="XCdc">     96.07930302 </i>
    <i name="pawpsdc">   2906.44538496 </i>
    <i name="pawaedc">  -2908.97790141 </i>
    <i name="eentropy">     -0.00000005 </i>
    <i name="bandstr">   -305.20711760 </i>
    <i name="atom">   1025.20389953 </i>
    <i name="e_fr_energy">    -67.22965763 </i>
    <i name="e_wo_entrp">    -67.22965758 </i>
    <i name="e_0_energy">    -67.22965760 </i>
   </energy>
  </scstep>
  <structure>
   <crystal>
    <varray name="basis" >
     <v>       4.47648500       2.58450000       0.00000000 </v>
     <v>      -4.47648500       2.58450000       0.00000000 </v>
     <v>       0.00000000       0.00000000      15.00000000 </v>
    </varray>
    <i name="volume">    347.08426447 </i>
    <varray name="rec_basis" >
     <v>       0.11169478       0.19346102       0.00000000 </v>
     <v>      -0.11169478       0.19346102       0.00000000 </v>
     <v>       0.00000000       0.00000000       0.06666667 </v>
    </varray>
   </crystal>
   <varray name="positions" >
    <v>       0.33835318       0.66917132       0.25000000 </v>
    <v>       0.67163664       0.33583231       0.25000000 </v>
    <v>       0.16358178       0.31999599       0.25000000 </v>
    <v>       0.32253693       0.16135825       0.25000000 </v>
    <v>       0.16380801       0.84385610       0.25000000 </v>
    <v>       0.84619433       0.16114523       0.25000000 </v>
    <v>       0.68746287       0.84363742       0.25000000 </v>
    <v>       0.84642225       0.68499937       0.25000000 </v>
   </varray>
  </structure>
  <varray name="forces" >
   <v>      -0.00909670      -0.00614282      -0.00000000 </v>
   <v>       0.01218786       0.00655904       0.00000000 </v>
   <v>       0.02925996       0.02013887      -0.00000000 </v>
   <v>      -0.01467687      -0.01079878       0.00000000 </v>
   <v>       0.01964585       0.01071270       0.00000000 </v>
   <v>      -0.01999956      -0.01134846      -0.00000000 </v>
   <v>       0.01386215       0.01130946      -0.00000000 </v>
   <v>      -0.03118269      -0.02043001       0.00000000 </v>
  </varray>
  <varray name="stress" >
   <v>      -0.86856962       0.06292875       0.00000000 </v>
   <v>       0.06292875      -0.68594556       0.00000000 </v>
   <v>       0.00000000       0.00000000      -0.87177747 </v>
  </varray>
  <energy>
   <i name="e_fr_energy">    -67.90769262 </i>
   <i name="e_wo_entrp">    -67.90769257 </i>
   <i name="e_0_energy">    -67.90769259 </i>
  </energy>
  <time name="totalsc">   28.79   29.09</time>
 </calculation>
 <calculation>
  <scstep>
   <time name="dav">    6.07    6.07</time>
   <time name="total">    6.47    6.47</time>
   <energy>
    <i name="alphaZ">     14.61461864 </i>
    <i name="ewald">   2603.47961769 </i>
    <i name="hartreedc">  -3498.86763370 </i>
    <i name="XCdc">     96.07923022 </i>
    <i name="pawpsdc">   2906.46631341 </i>
    <i name="pawaedc">  -2908.99882789 </i>
    <i name="eentropy">     -0.00000005 </i>
    <i name="bandstr">   -305.20688317 </i>
    <i name="atom">   1025.20389953 </i>
    <i name="e_fr_energy">    -67.22966532 </i>
    <i name="e_wo_entrp">    -67.22966527 </i>
    <i name="e_0_energy">    -67.22966530 </i>
   </energy>
  </scstep>
  <scstep>
   <time name="dav">    6.27    6.27</time>
   <time name="total">    6.67    6.67</time>
   <energy>
    <i name="e_fr_energy">    -67.22966602 </i>
    <i name="e_wo_entrp">    -67.22966597 </i>
    <i name="e_0_energy">    -67.22966600 </i>
   </energy>
  </scstep>
  <scstep>
   <time name="dav">    6.94    6.94</time>
   <time name="total">    6.96    6.96</time>
   <energy>
    <i name="alphaZ">     14.61461864 </i>
    <i name="ewald">   2603.47961769 </i>
    <i name="hartreedc">  -3498.86571082 </i>
    <i name="XCdc">     96.07917771 </i>
    <i name="pawpsdc">   2906.47188152 </i>
    <i name="pawaedc">  -2909.00438514 </i>
    <i name="eentropy">     -0.00000005 </i>
    <i name="bandstr">   -305.20876500 </i>
    <i name="atom">   1025.20389953 </i>
    <i name="e_fr_energy">    -67.22966594 </i>
    <i name="e_wo_entrp">    -67.22966589 </i>
    <i name="e_0_energy">    -67.22966592 </i>
   </energy>
  </scstep>
  <structure>
   <crystal>
    <varray name="basis" >
     <v>       4.47648500       2.58450000       0.00000000 </v>
     <v>      -4.47648500       2.58450000       0.00000000 </v>
     <v>       0.00000000       0.00000000      15.00000000 </v>
    </varray>
    <i name="volume">    347.08426447 </i>
    <varray name="rec_basis" >
     <v>       0.11169478       0.19346102       0.00000000 </v>
     <v>      -0.11169478       0.19346102       0.00000000 </v>
     <v>       0.00000000       0.00000000       0.06666667 </v>
    </varray>
   </crystal>
   <varray name="positions" >
    <v>       0.33834031       0.66917309       0.25000000 </v>
    <v>       0.67165648       0.33582642       0.25000000 </v>
    <v>       0.16357545       0.32000180       0.25000000 </v>
    <v>       0.32251520       0.16140386       0.25000000 </v>
    <v>       0.16387821       0.84390343       0.25000000 </v>
    <v>       0.84612176       0.16109739       0.25000000 </v>
    <v>       0.68748390       0.84359465       0.25000000 </v>
    <v>       0.84642469       0.68499535       0.25000000 </v>
   </varray>
  </structure>
  <varray name="forces" >
   <v>      -0.00374440      -0.00288695       0.00000000 </v>
   <v>       0.00427676       0.00292686      -0.00000000 </v>
   <v>       0.01710637       0.01134637       0.00000000 </v>
   <v>      -0.00069574      -0.00731271       0.00000000 </v>
   <v>       0.00874796      -0.00148078      -0.00000000 </v>
   <v>      -0.00879911       0.00128949       0.00000000 </v>
   <v>       0.00059406       0.00739904      -0.00000000 </v>
   <v>      -0.01748590      -0.01128132       0.00000000 </v>
  </varray>
  <varray name="stress" >
   <v>      -0.82869937       0.03395797       0.00000000 </v>
   <v>       0.03395795      -0.73194713       0.00000000 </v>
   <v>       0.00000000       0.00000000      -0.87041598 </v>
  </varray>
  <energy>
   <i name="e_fr_energy">    -67.90770171 </i>
   <i name="e_wo_entrp">    -67.90770166 </i>
   <i name="e_0_energy">    -67.90770169 </i>
  </energy>
  <time name="totalsc">   28.98   28.99</time>
 </calculation>
 <calculation>
  <scstep>
   <time name="dav">    6.05    6.05</time>
[...]
       <r>  -17.1634    1.0000 </r>
       <r>  -13.0604    1.0000 </r>
       <r>  -12.6712    1.0000 </r>
       <r>  -10.8327    1.0000 </r>
       <r>   -8.6987    1.0000 </r>
       <r>   -8.2773    1.0000 </r>
       <r>   -7.9082    1.0000 </r>
       <r>   -7.4074    1.0000 </r>
       <r>   -7.2281    1.0000 </r>
       <r>   -6.3806    1.0000 </r>
       <r>   -6.2784    1.0000 </r>
       <r>   -5.9900    1.0000 </r>
       <r>   -5.9708    1.0000 </r>
       <r>   -1.6940    0.0000 </r>
       <r>   -1.0505    0.0000 </r>
       <r>    2.9611    0.0000 </r>
       <r>    3.3086    0.0000 </r>
       <r>    3.5900    0.0000 </r>
       <r>    3.6556    0.0000 </r>
       <r>    3.9347    0.0000 </r>
       <r>    4.2276    0.0000 </r>
       <r>    4.2854    0.0000 </r>
      </set>
      <set comment="kpoint 219">
       <r>  -19.2249    1.0000 </r>
       <r>  -17.3728    1.0000 </r>
       <r>  -17.1636    1.0000 </r>
       <r>  -13.0604    1.0000 </r>
       <r>  -12.6712    1.0000 </r>
       <r>  -10.8327    1.0000 </r>
       <r>   -8.6985    1.0000 </r>
       <r>   -8.2775    1.0000 </r>
       <r>   -7.9082    1.0000 </r>
       <r>   -7.4074    1.0000 </r>
       <r>   -7.2281    1.0000 </r>
       <r>   -6.3806    1.0000 </r>
       <r>   -6.2783    1.0000 </r>
       <r>   -5.9901    1.0000 </r>
       <r>   -5.9709    1.0000 </r>
       <r>   -1.6939    0.0000 </r>
       <r>   -1.0506    0.0000 </r>
       <r>    2.9611    0.0000 </r>
       <r>    3.3086    0.0000 </r>
       <r>    3.5900    0.0000 </r>
       <r>    3.6556    0.0000 </r>
       <r>    3.9347    0.0000 </r>
       <r>    4.2275    0.0000 </r>
       <r>    4.2854    0.0000 </r>
      </set>
      <set comment="kpoint 220">
       <r>  -19.2249    1.0000 </r>
       <r>  -17.3729    1.0000 </r>
       <r>  -17.1635    1.0000 </r>
       <r>  -13.0604    1.0000 </r>
       <r>  -12.6712    1.0000 </r>
       <r>  -10.8327    1.0000 </r>
       <r>   -8.6987    1.0000 </r>
       <r>   -8.2773    1.0000 </r>
       <r>   -7.9082    1.0000 </r>
       <r>   -7.4074    1.0000 </r>
       <r>   -7.2281    1.0000 </r>
       <r>   -6.3806    1.0000 </r>
       <r>   -6.2784    1.0000 </r>
       <r>   -5.9901    1.0000 </r>
       <r>   -5.9708    1.0000 </r>
       <r>   -1.6940    0.0000 </r>
       <r>   -1.0505    0.0000 </r>
       <r>    2.9611    0.0000 </r>
       <r>    3.3086    0.0000 </r>
       <r>    3.5900    0.0000 </r>
       <r>    3.6556    0.0000 </r>
       <r>    3.9347    0.0000 </r>
       <r>    4.2276    0.0000 </r>
       <r>    4.2853    0.0000 </r>
      </set>
      <set comment="kpoint 221">
       <r>  -19.2150    1.0000 </r>
       <r>  -17.2843    1.0000 </r>
       <r>  -17.2841    1.0000 </r>
       <r>  -12.8451    1.0000 </r>
       <r>  -12.8451    1.0000 </r>
       <r>  -10.8936    1.0000 </r>
       <r>   -8.3791    1.0000 </r>
       <r>   -8.3789    1.0000 </r>
       <r>   -8.0199    1.0000 </r>
       <r>   -7.3773    1.0000 </r>
       <r>   -7.2390    1.0000 </r>
       <r>   -6.2295    1.0000 </r>
       <r>   -6.2295    1.0000 </r>
       <r>   -6.1553    1.0000 </r>
       <r>   -6.1551    1.0000 </r>
       <r>   -1.3716    0.0000 </r>
       <r>   -1.3715    0.0000 </r>
       <r>    3.2743    0.0000 </r>
       <r>    3.3014    0.0000 </r>
       <r>    3.3015    0.0000 </r>
       <r>    3.9133    0.0000 </r>
       <r>    3.9133    0.0000 </r>
       <r>    4.1018    0.0000 </r>
       <r>    4.3831    0.0000 </r>
      </set>
     </set>
    </set>
   </array>
  </eigenvalues>
  <separator name="orbital magnetization" >
   <v name="MAGDIPOLOUT">      0.00000000      0.00000000      0.00000000</v>
  </separator>
  <dos>
   <i name="efermi">     -3.47844516 </i>
   <total>
    <array>
     <dimension dim="1">gridpoints</dimension>
     <dimension dim="2">spin</dimension>
     <field>energy</field>
     <field>total</field>
     <field>integrated</field>
     <set>
      <set comment="spin 1">
       <r>   -21.1446     0.0000     0.0000 </r>
       <r>   -21.0522     0.0000     0.0000 </r>
       <r>   -20.9598     0.0000     0.0000 </r>
       <r>   -20.8674     0.0000     0.0000 </r>
       <r>   -20.7750     0.0000     0.0000 </r>
       <r>   -20.6827     0.0000     0.0000 </r>
       <r>   -20.5903     0.0000     0.0000 </r>
       <r>   -20.4979     0.0000     0.0000 </r>
       <r>   -20.4055     0.0000     0.0000 </r>
       <r>   -20.3131     0.0000     0.0000 </r>
       <r>   -20.2208     0.0000     0.0000 </r>
       <r>   -20.1284     0.0001     0.0000 </r>
       <r>   -20.0360     0.0082     0.0008 </r>
       <r>   -19.9436     0.1545     0.0150 </r>
       <r>   -19.8512     0.8222     0.0910 </r>
       <r>   -19.7589     1.6635     0.2447 </r>
       <r>   -19.6665     2.0358     0.4327 </r>
       <r>   -19.5741     2.2523     0.6408 </r>
       <r>   -19.4817     2.6074     0.8817 </r>
       <r>   -19.3893     3.3925     1.1951 </r>
       <r>   -19.2970     4.3385     1.5959 </r>
       <r>   -19.2046     3.2852     1.8994 </r>
       <r>   -19.1122     0.9916     1.9910 </r>
       <r>   -19.0198     0.0953     1.9998 </r>
       <r>   -18.9274     0.0024     2.0000 </r>
       <r>   -18.8351     0.0000     2.0000 </r>
       <r>   -18.7427     0.0000     2.0000 </r>
       <r>   -18.6503     0.0000     2.0000 </r>
       <r>   -18.5579     0.0000     2.0000 </r>
       <r>   -18.4655     0.0000     2.0000 </r>
       <r>   -18.3732     0.0000     2.0000 </r>
       <r>   -18.2808     0.0000     2.0000 </r>
       <r>   -18.1884     0.0000     2.0000 </r>
       <r>   -18.0960     0.0000     2.0000 </r>
       <r>   -18.0036     0.0000     2.0000 </r>
       <r>   -17.9113     0.0000     2.0000 </r>
       <r>   -17.8189     0.0012     2.0001 </r>
       <r>   -17.7265     0.0508     2.0048 </r>
       <r>   -17.6341     0.5401     2.0547 </r>
       <r>   -17.5417     1.8320     2.2239 </r>
       <r>   -17.4494     2.9359     2.4952 </r>
       <r>   -17.3570     3.2182     2.7925 </r>
       <r>   -17.2646     2.5398     3.0271 </r>
       <r>   -17.1722     1.9306     3.2054 </r>
       <r>   -17.0798     1.8432     3.3757 </r>
       <r>   -16.9875     1.9058     3.5518 </r>
       <r>   -16.8951     1.9826     3.7349 </r>
       <r>   -16.8027     2.1039     3.9293 </r>
       <r>   -16.7103     2.2566     4.1377 </r>
       <r>   -16.6179     2.5241     4.3709 </r>
       <r>   -16.5256     3.0305     4.6509 </r>
       <r>   -16.4332     3.5711     4.9808 </r>
       <r>   -16.3408     3.2613     5.2821 </r>
       <r>   -16.2484     2.5317     5.5159 </r>
       <r>   -16.1560     2.0569     5.7059 </r>
       <r>   -16.0637     1.7018     5.8632 </r>
       <r>   -15.9713     1.0994     5.9647 </r>
       <r>   -15.8789     0.3456     5.9967 </r>
       <r>   -15.7865     0.0353     5.9999 </r>
       <r>   -15.6941     0.0009     6.0000 </r>
       <r>   -15.6018     0.0000     6.0000 </r>
       <r>   -15.5094     0.0000     6.0000 </r>
       <r>   -15.4170     0.0000     6.0000 </r>
       <r>   -15.3246     0.0000     6.0000 </r>
       <r>   -15.2322     0.0000     6.0000 </r>
       <r>   -15.1399     0.0000     6.0000 </r>
       <r>   -15.0475     0.0000     6.0000 </r>
       <r>   -14.9551     0.0000     6.0000 </r>
       <r>   -14.8627     0.0000     6.0000 </r>
       <r>   -14.7703     0.0000     6.0000 </r>
       <r>   -14.6780     0.0000     6.0000 </r>
       <r>   -14.5856     0.0000     6.0000 </r>
       <r>   -14.4932     0.0000     6.0000 </r>
       <r>   -14.4008     0.0005     6.0000 </r>
       <r>   -14.3084     0.0256     6.0024 </r>
       <r>   -14.2161     0.3164     6.0316 </r>
       <r>   -14.1237     1.1951     6.1421 </r>
       <r>   -14.0313     1.9436     6.3216 </r>
       <r>   -13.9389     2.3323     6.5371 </r>
       <r>   -13.8465     2.5663     6.7741 </r>
       <r>   -13.7542     3.3659     7.0851 </r>
       <r>   -13.6618     3.4390     7.4028 </r>
       <r>   -13.5694     2.4752     7.6314 </r>
       <r>   -13.4770     1.9580     7.8123 </r>
       <r>   -13.3846     1.4021     7.9418 </r>
       <r>   -13.2923     1.5365     8.0838 </r>
       <r>   -13.1999     1.4168     8.2147 </r>
       <r>   -13.1075     1.2647     8.3315 </r>
       <r>   -13.0151     1.4007     8.4609 </r>
       <r>   -12.9227     1.1571     8.5678 </r>
       <r>   -12.8304     1.3885     8.6960 </r>
       <r>   -12.7380     1.5156     8.8360 </r>
       <r>   -12.6456     1.8297     9.0051 </r>
       <r>   -12.5532     2.1607     9.2047 </r>
       <r>   -12.4608     1.7417     9.3656 </r>
       <r>   -12.3685     1.8075     9.5326 </r>
       <r>   -12.2761     1.6889     9.6886 </r>
       <r>   -12.1837     1.4775     9.8251 </r>
       <r>   -12.0913     1.4732     9.9612 </r>
       <r>   -11.9989     1.4140    10.0918 </r>
       <r>   -11.9066     1.2526    10.2075 </r>
       <r>   -11.8142     0.7794    10.2795 </r>
       <r>   -11.7218     0.6491    10.3395 </r>
       <r>   -11.6294     0.5037    10.3860 </r>
       <r>   -11.5370     0.2932    10.4131 </r>
       <r>   -11.4447     0.4749    10.4570 </r>
       <r>   -11.3523     0.6970    10.5214 </r>
       <r>   -11.2599     0.4778    10.5655 </r>
       <r>   -11.1675     0.5094    10.6125 </r>
       <r>   -11.0751     0.9661    10.7018 </r>
       <r>   -10.9828     1.1034    10.8037 </r>
       <r>   -10.8904     0.8888    10.8858 </r>
       <r>   -10.7980     1.1216    10.9894 </r>
       <r>   -10.7056     1.7063    11.1471 </r>
       <r>   -10.6132     1.9629    11.3284 </r>
       <r>   -10.5209     1.4432    11.4617 </r>
       <r>   -10.4285     1.6818    11.6171 </r>
       <r>   -10.3361     2.4487    11.8433 </r>
       <r>   -10.2437     2.4002    12.0650 </r>
       <r>   -10.1513     1.8331    12.2344 </r>
       <r>   -10.0590     1.5211    12.3749 </r>
       <r>    -9.9666     1.3564    12.5002 </r>
       <r>    -9.8742     1.7210    12.6592 </r>
       <r>    -9.7818     2.7843    12.9164 </r>
       <r>    -9.6894     2.7689    13.1722 </r>
       <r>    -9.5971     2.0326    13.3600 </r>
       <r>    -9.5047     2.1783    13.5612 </r>
       <r>    -9.4123     2.0398    13.7496 </r>
       <r>    -9.3199     1.8847    13.9237 </r>
       <r>    -9.2275     1.8206    14.0919 </r>
       <r>    -9.1352     1.8515    14.2629 </r>
       <r>    -9.0428     2.4176    14.4863 </r>
       <r>    -8.9504     2.6290    14.7292 </r>
       <r>    -8.8580     2.4723    14.9575 </r>
       <r>    -8.7656     2.2945    15.1695 </r>
       <r>    -8.6733     2.8491    15.4327 </r>
       <r>    -8.5809     2.9444    15.7047 </r>
       <r>    -8.4885     2.8331    15.9664 </r>
       <r>    -8.3961     2.5836    16.2051 </r>
       <r>    -8.3037     2.2012    16.4085 </r>
       <r>    -8.2114     2.0065    16.5938 </r>
       <r>    -8.1190     2.0445    16.7827 </r>
       <r>    -8.0266     2.5330    17.0167 </r>
       <r>    -7.9342     3.2523    17.3171 </r>
       <r>    -7.8418     3.8758    17.6752 </r>
       <r>    -7.7495     4.3836    18.0801 </r>
       <r>    -7.6571     4.4710    18.4932 </r>
       <r>    -7.5647     4.0881    18.8708 </r>
       <r>    -7.4723     3.2478    19.1708 </r>
       <r>    -7.3799     2.1342    19.3680 </r>
       <r>    -7.2876     1.6781    19.5230 </r>
       <r>    -7.1952     2.0897    19.7161 </r>
       <r>    -7.1028     2.1325    19.9131 </r>
       <r>    -7.0104     1.5996    20.0608 </r>
       <r>    -6.9181     1.7602    20.2234 </r>
       <r>    -6.8257     1.5669    20.3682 </r>
       <r>    -6.7333     1.6771    20.5231 </r>
       <r>    -6.6409     2.3857    20.7435 </r>
       <r>    -6.5485     3.3428    21.0523 </r>
       <r>    -6.4562     5.1248    21.5258 </r>
       <r>    -6.3638     7.7001    22.2371 </r>
       <r>    -6.2714     7.5825    22.9376 </r>
       <r>    -6.1790     5.5444    23.4498 </r>
       <r>    -6.0866     3.9271    23.8125 </r>
       <r>    -5.9943     2.7108    24.0630 </r>
       <r>    -5.9019     2.4123    24.2858 </r>
       <r>    -5.8095     2.2392    24.4927 </r>
       <r>    -5.7171     2.5675    24.7298 </r>
       <r>    -5.6247     2.3254    24.9447 </r>
       <r>    -5.5324     2.5662    25.1817 </r>
       <r>    -5.4400     2.9259    25.4520 </r>
       <r>    -5.3476     2.5116    25.6841 </r>
       <r>    -5.2552     3.1143    25.9718 </r>
       <r>    -5.1628     3.3825    26.2842 </r>
       <r>    -5.0705     3.4997    26.6075 </r>
       <r>    -4.9781     4.1497    26.9909 </r>
       <r>    -4.8857     4.3599    27.3937 </r>
       <r>    -4.7933     4.5424    27.8133 </r>
       <r>    -4.7009     4.7773    28.2546 </r>
       <r>    -4.6086     4.3658    28.6579 </r>
       <r>    -4.5162     3.7636    29.0056 </r>
       <r>    -4.4238     2.3829    29.2257 </r>
       <r>    -4.3314     1.6063    29.3741 </r>
       <r>    -4.2390     1.2426    29.4889 </r>
       <r>    -4.1467     1.2006    29.5998 </r>
       <r>    -4.0543     1.1890    29.7097 </r>
       <r>    -3.9619     1.1218    29.8133 </r>
       <r>    -3.8695     1.0549    29.9107 </r>
       <r>    -3.7771     0.7163    29.9769 </r>
       <r>    -3.6848     0.2267    29.9979 </r>
       <r>    -3.5924     0.0226    29.9999 </r>
       <r>    -3.5000     0.0006    30.0000 </r>
       <r>    -3.4076     0.0001    30.0000 </r>
       <r>    -3.3152     0.0050    30.0005 </r>
       <r>    -3.2229     0.0937    30.0091 </r>
       <r>    -3.1305     0.5430    30.0593 </r>
       <r>    -3.0381     1.2287    30.1728 </r>
       <r>    -2.9457     1.4389    30.3057 </r>
       <r>    -2.8533     1.7635    30.4686 </r>
       <r>    -2.7610     2.0753    30.6603 </r>
       <r>    -2.6686     2.2402    30.8673 </r>
       <r>    -2.5762     2.9113    31.1362 </r>
       <r>    -2.4838     2.1855    31.3381 </r>
       <r>    -2.3914     1.4119    31.4686 </r>
       <r>    -2.2991     1.4202    31.5998 </r>
       <r>    -2.2067     1.1051    31.7018 </r>
       <r>    -2.1143     0.7626    31.7723 </r>
       <r>    -2.0219     0.7326    31.8400 </r>
       <r>    -1.9295     0.6346    31.8986 </r>
       <r>    -1.8372     0.3310    31.9292 </r>
       <r>    -1.7448     0.2107    31.9486 </r>
       <r>    -1.6524     0.2937    31.9758 </r>
       <r>    -1.5600     0.1477    31.9894 </r>
       <r>    -1.4676     0.0331    31.9925 </r>
       <r>    -1.3753     0.0774    31.9996 </r>
       <r>    -1.2829     0.0820    32.0072 </r>
       <r>    -1.1905     0.0334    32.0103 </r>
       <r>    -1.0981     0.1347    32.0227 </r>
       <r>    -1.0057     0.2944    32.0499 </r>
       <r>    -0.9134     0.2203    32.0703 </r>
       <r>    -0.8210     0.2875    32.0968 </r>
       <r>    -0.7286     0.5128    32.1442 </r>
       <r>    -0.6362     0.5544    32.1954 </r>
       <r>    -0.5438     0.4449    32.2365 </r>
       <r>    -0.4515     0.7530    32.3061 </r>
       <r>    -0.3591     1.1285    32.4103 </r>
       <r>    -0.2667     1.0545    32.5077 </r>
       <r>    -0.1743     2.1309    32.7046 </r>
       <r>    -0.0819     3.4183    33.0204 </r>
       <r>     0.0104     2.5338    33.2545 </r>
       <r>     0.1028     1.8183    33.4224 </r>
       <r>     0.1952     1.8172    33.5903 </r>
       <r>     0.2876     1.5002    33.7289 </r>
       <r>     0.3800     1.2130    33.8409 </r>
       <r>     0.4723     1.5007    33.9796 </r>
       <r>     0.5647     1.5452    34.1223 </r>
       <r>     0.6571     1.3680    34.2487 </r>
       <r>     0.7495     1.2444    34.3637 </r>
       <r>     0.8419     1.1816    34.4728 </r>
       <r>     0.9342     1.5521    34.6162 </r>
       <r>     1.0266     1.7373    34.7767 </r>
       <r>     1.1190     2.0246    34.9637 </r>
       <r>     1.2114     1.8191    35.1318 </r>
       <r>     1.3038     2.0895    35.3248 </r>
       <r>     1.3961     2.1098    35.5197 </r>
       <r>     1.4885     2.1454    35.7179 </r>
       <r>     1.5809     2.4488    35.9441 </r>
       <r>     1.6733     2.3415    36.1604 </r>
       <r>     1.7657     2.5323    36.3944 </r>
       <r>     1.8580     2.4378    36.6196 </r>
       <r>     1.9504     2.6743    36.8666 </r>
       <r>     2.0428     3.0799    37.1511 </r>
       <r>     2.1352     3.2781    37.4540 </r>
       <r>     2.2276     3.0327    37.7341 </r>
       <r>     2.3199     3.1128    38.0217 </r>
       <r>     2.4123     4.0180    38.3929 </r>
       <r>     2.5047     4.1159    38.7731 </r>
       <r>     2.5971     3.7348    39.1181 </r>
       <r>     2.6895     3.7398    39.4636 </r>
       <r>     2.7818     3.8017    39.8148 </r>
       <r>     2.8742     3.9454    40.1793 </r>
       <r>     2.9666     3.9365    40.5429 </r>
       <r>     3.0590     3.6599    40.8810 </r>
       <r>     3.1514     3.8742    41.2389 </r>
       <r>     3.2437     3.6104    41.5725 </r>
       <r>     3.3361     3.9232    41.9349 </r>
       <r>     3.4285     4.0872    42.3125 </r>
       <r>     3.5209     3.4373    42.6300 </r>
       <r>     3.6133     3.6802    42.9700 </r>
       <r>     3.7056     4.1270    43.3512 </r>
       <r>     3.7980     3.7095    43.6939 </r>
       <r>     3.8904     3.8242    44.0472 </r>
       <r>     3.9828     4.1131    44.4272 </r>
       <r>     4.0752     3.8436    44.7822 </r>
       <r>     4.1675     3.5100    45.1065 </r>
       <r>     4.2599     3.0632    45.3895 </r>
       <r>     4.3523     3.3201    45.6962 </r>
       <r>     4.4447     3.8408    46.0510 </r>
       <r>     4.5371     3.6079    46.3843 </r>
       <r>     4.6294     3.0183    46.6631 </r>
       <r>     4.7218     2.2573    46.8716 </r>
       <r>     4.8142     2.2608    47.0805 </r>
       <r>     4.9066     2.7227    47.3320 </r>
       <r>     4.9990     2.6031    47.5725 </r>
       <r>     5.0913     2.0717    47.7639 </r>
       <r>     5.1837     1.4653    47.8992 </r>
       <r>     5.2761     0.7591    47.9694 </r>
       <r>     5.3685     0.2657    47.9939 </r>
       <r>     5.4609     0.0610    47.9996 </r>
       <r>     5.5532     0.0048    48.0000 </r>
       <r>     5.6456     0.0001    48.0000 </r>
       <r>     5.7380     0.0000    48.0000 </r>
       <r>     5.8304     0.0000    48.0000 </r>
       <r>     5.9228     0.0000    48.0000 </r>
       <r>     6.0151     0.0000    48.0000 </r>
       <r>     6.1075     0.0000    48.0000 </r>
       <r>     6.1999     0.0000    48.0000 </r>
       <r>     6.2923     0.0000    48.0000 </r>
       <r>     6.3847     0.0000    48.0000 </r>
       <r>     6.4770     0.0000    48.0000 </r>
       <r>     6.5694     0.0000    48.0000 </r>
      </set>
     </set>
    </array>
   </total>
  </dos>
 </calculation>
 <structure name="finalpos" >
  <crystal>
   <varray name="basis" >
    <v>       4.47648500       2.58450000       0.00000000 </v>
    <v>      -4.47648500       2.58450000       0.00000000 </v>
    <v>       0.00000000       0.00000000      15.00000000 </v>
   </varray>
   <i name="volume">    347.08426447 </i>
   <varray name="rec_basis" >
    <v>       0.11169478       0.19346102       0.00000000 </v>
    <v>      -0.11169478       0.19346102       0.00000000 </v>
    <v>       0.00000000       0.00000000       0.06666667 </v>
   </varray>
  </crystal>
  <varray name="positions" >
   <v>       0.33833424       0.66916511       0.25000000 </v>
   <v>       0.67166629       0.33583186       0.25000000 </v>
   <v>       0.16374578       0.31999920       0.25000000 </v>
   <v>       0.32249928       0.16125012       0.25000000 </v>
   <v>       0.16375402       0.84374921       0.25000000 </v>
   <v>       0.84624443       0.16125055       0.25000000 </v>
   <v>       0.68750025       0.84375028       0.25000000 </v>
   <v>       0.84625171       0.68499966       0.25000000 </v>
  </varray>
 </structure>
</modeling>
