Lattice                                 
           1
     4.476485    2.584500    0.000000
    -4.476485    2.584500    0.000000
     0.000000    0.000000   15.000000
   B    C 
     2     6
Direct configuration=     1
   0.33835568  0.66919338  0.25000000
   0.67168550  0.33578412  0.25000000
   0.16393418  0.32096121  0.25000000
   0.32344383  0.16194918  0.25000000
   0.16445142  0.84350783  0.25000000
   0.84555675  0.16147694  0.25000000
   0.68650730  0.84304996  0.25000000
   0.84606136  0.68407339  0.25000000
Direct configuration=     2
   0.33826096  0.66913789  0.25000000
   0.67167031  0.33589161  0.25000000
   0.16281399  0.31804955  0.25000000
   0.32052412  0.16045110  0.25000000
   0.16295922  0.84489276  0.25000000
   0.84701511  0.16013918  0.25000000
   0.68957104  0.84455668  0.25000000
   0.84718126  0.68687724  0.25000000
Direct configuration=     3
   0.33832471  0.66917523  0.25000000
   0.67168053  0.33581927  0.25000000
   0.16356789  0.32000912  0.25000000
   0.32248911  0.16145932  0.25000000
   0.16396348  0.84396069  0.25000000
   0.84603362  0.16103951  0.25000000
   0.68750912  0.84354264  0.25000000
   0.84642755  0.68499022  0.25000000
Direct configuration=     4
   0.33832461  0.66917518  0.25000000
   0.67168052  0.33581938  0.25000000
   0.16356670  0.32000604  0.25000000
   0.32248602  0.16145773  0.25000000
   0.16396190  0.84396215  0.25000000
   0.84603516  0.16103809  0.25000000
   0.68751236  0.84354424  0.25000000
   0.84642874  0.68499319  0.25000000
Direct configuration=     5
   0.33832466  0.66917521  0.25000000
   0.67168052  0.33581932  0.25000000
   0.16356730  0.32000759  0.25000000
   0.32248757  0.16145853  0.25000000
   0.16396270  0.84396142  0.25000000
   0.84603438  0.16103880  0.25000000
   0.68751073  0.84354343  0.25000000
   0.84642814  0.68499169  0.25000000
Direct configuration=     6
   0.33832467  0.66917522  0.25000000
   0.67168053  0.33581930  0.25000000
   0.16356751  0.32000815  0.25000000
   0.32248814  0.16145882  0.25000000
   0.16396299  0.84396115  0.25000000
   0.84603410  0.16103906  0.25000000
   0.68751013  0.84354314  0.25000000
   0.84642793  0.68499115  0.25000000
Direct configuration=     7
   0.33832470  0.66917523  0.25000000
   0.67168053  0.33581928  0.25000000
   0.16356778  0.32000885  0.25000000
   0.32248883  0.16145918  0.25000000
   0.16396334  0.84396082  0.25000000
   0.84603375  0.16103938  0.25000000
   0.68750940  0.84354278  0.25000000
   0.84642766  0.68499048  0.25000000
Direct configuration=     8
   0.33835318  0.66917132  0.25000000
   0.67163664  0.33583231  0.25000000
   0.16358178  0.31999599  0.25000000
   0.32253693  0.16135825  0.25000000
   0.16380801  0.84385610  0.25000000
   0.84619433  0.16114523  0.25000000
   0.68746287  0.84363742  0.25000000
   0.84642225  0.68499937  0.25000000
Direct configuration=     9
   0.33834031  0.66917309  0.25000000
   0.67165648  0.33582642  0.25000000
   0.16357545  0.32000180  0.25000000
   0.32251520  0.16140386  0.25000000
   0.16387821  0.84390343  0.25000000
   0.84612176  0.16109739  0.25000000
   0.68748390  0.84359465  0.25000000
   0.84642469  0.68499535  0.25000000
Direct configuration=    10
   0.33833489  0.66916867  0.25000000
   0.67165615  0.33583401  0.25000000
   0.16365907  0.32000131  0.25000000
   0.32250900  0.16133280  0.25000000
   0.16382055  0.84383202  0.25000000
   0.84618100  0.16116872  0.25000000
   0.68749092  0.84366338  0.25000000
   0.84634443  0.68499508  0.25000000
Direct configuration=    11
   0.33832880  0.66916370  0.25000000
   0.67165579  0.33584255  0.25000000
   0.16375301  0.32000075  0.25000000
   0.32250203  0.16125296  0.25000000
   0.16375577  0.84375180  0.25000000
   0.84624756  0.16124887  0.25000000
   0.68749880  0.84374060  0.25000000
   0.84625425  0.68499477  0.25000000
Direct configuration=    12
   0.33833424  0.66916511  0.25000000
   0.67166629  0.33583186  0.25000000
   0.16374578  0.31999920  0.25000000
   0.32249928  0.16125012  0.25000000
   0.16375402  0.84374921  0.25000000
   0.84624443  0.16125055  0.25000000
   0.68750025  0.84375028  0.25000000
   0.84625171  0.68499966  0.25000000
