 ----------------------------------------------------
    OOO  PPPP  EEEEE N   N M   M PPPP
   O   O P   P E     NN  N MM MM P   P
   O   O PPPP  EEEEE N N N M M M PPPP   -- VERSION
   O   O P     E     N  NN M   M P
    OOO  P     EEEEE N   N M   M P
 ----------------------------------------------------
 running   48 mpi-ranks, with    1 threads/rank
 distrk:  each k-point on   48 cores,    1 groups
 distr:  one band on    1 cores,   48 groups
 vasp.6.3.2 27Jun22 (build Dec 22 2022 13:13:19) complex                        
  
 POSCAR found type information on POSCAR B C 
 POSCAR found :  2 types and      15 ions
 Reading from existing POTCAR
 -----------------------------------------------------------------------------
|                                                                             |
|           W    W    AA    RRRRR   N    N  II  N    N   GGGG   !!!           |
|           W    W   A  A   R    R  NN   N  II  NN   N  G    G  !!!           |
|           W    W  A    A  R    R  N N  N  II  N N  N  G       !!!           |
|           W WW W  AAAAAA  RRRRR   N  N N  II  N  N N  G  GGG   !            |
|           WW  WW  A    A  R   R   N   NN  II  N   NN  G    G                |
|           W    W  A    A  R    R  N    N  II  N    N   GGGG   !!!           |
|                                                                             |
|     You use a magnetic or noncollinear calculation, but did not specify     |
|     the initial magnetic moment with the MAGMOM tag. Note that a            |
|     default of 1 will be used for all atoms. This ferromagnetic setup       |
|     may break the symmetry of the crystal, in particular it may rule        |
|     out finding an antiferromagnetic solution. Thence, we recommend         |
|     setting the initial magnetic moment manually or verifying carefully     |
|     that this magnetic setup is desired.                                    |
|                                                                             |
 -----------------------------------------------------------------------------

 scaLAPACK will be used
 Reading from existing POTCAR
 LDA part: xc-table for Pade appr. of Perdew
 POSCAR found type information on POSCAR B C 
 POSCAR found :  2 types and      15 ions
 POSCAR, INCAR and KPOINTS ok, starting setup
 FFT: planning ... GRIDC
 FFT: planning ... GRID_SOFT
 FFT: planning ... GRID
 WAVECAR not read
 entering main loop
       N       E                     dE             d eps       ncg     rms          rms(c)
DAV:   1     0.202277651867E+03    0.20228E+03   -0.25700E+04 14208   0.859E+02
DAV:   2    -0.116835428833E+03   -0.31911E+03   -0.31753E+03 20640   0.162E+02
DAV:   3    -0.129328556766E+03   -0.12493E+02   -0.12479E+02 27120   0.423E+01
DAV:   4    -0.129345630704E+03   -0.17074E-01   -0.17074E-01 19920   0.159E+00
DAV:   5    -0.129345686132E+03   -0.55428E-04   -0.55428E-04 26064   0.854E-02    0.244E+01
DAV:   6    -0.919901646247E+02    0.37356E+02   -0.72523E+01 25968   0.255E+01    0.139E+01
DAV:   7    -0.100442805277E+03   -0.84526E+01   -0.99037E+00 21600   0.101E+01    0.809E+00
DAV:   8    -0.110407840900E+03   -0.99650E+01   -0.87777E+00 24192   0.895E+00    0.435E+00
DAV:   9    -0.117139923044E+03   -0.67321E+01   -0.38844E+00 19056   0.610E+00    0.277E+00
DAV:  10    -0.123492082697E+03   -0.63522E+01   -0.81656E+00 23952   0.709E+00    0.159E+00
DAV:  11    -0.125274913819E+03   -0.17828E+01   -0.27975E+00 25104   0.383E+00    0.991E-01
DAV:  12    -0.125437760797E+03   -0.16285E+00   -0.22978E-01 19440   0.139E+00    0.464E-01
DAV:  13    -0.125465041548E+03   -0.27281E-01   -0.23188E-02 18192   0.557E-01    0.187E-01
DAV:  14    -0.125487422362E+03   -0.22381E-01   -0.60379E-03 20112   0.285E-01    0.839E-02
DAV:  15    -0.125494884960E+03   -0.74626E-02   -0.31035E-03 19008   0.157E-01    0.438E-02
DAV:  16    -0.125496857736E+03   -0.19728E-02   -0.63359E-04 16704   0.813E-02    0.222E-02
DAV:  17    -0.125498107720E+03   -0.12500E-02   -0.17080E-04 14832   0.521E-02    0.169E-02
DAV:  18    -0.125498833978E+03   -0.72626E-03   -0.84291E-05 15696   0.384E-02    0.122E-02
DAV:  19    -0.125499260148E+03   -0.42617E-03   -0.40745E-05 19584   0.248E-02    0.718E-03
DAV:  20    -0.125499312322E+03   -0.52174E-04   -0.21250E-05 22032   0.178E-02    0.431E-03
DAV:  21    -0.125499333394E+03   -0.21072E-04   -0.57745E-06 20496   0.959E-03    0.215E-03
DAV:  22    -0.125499355032E+03   -0.21638E-04   -0.22239E-06 21744   0.558E-03    0.136E-03
DAV:  23    -0.125499369699E+03   -0.14667E-04   -0.16644E-06 21696   0.398E-03    0.712E-04
DAV:  24    -0.125499372614E+03   -0.29147E-05   -0.31478E-07 23328   0.212E-03    0.374E-04
DAV:  25    -0.125499373559E+03   -0.94521E-06   -0.11465E-07 22176   0.113E-03
   1 F= -.12708987E+03 E0= -.12708910E+03  d E =-.127090E+03  mag=    -0.0000
 curvature:   0.00 expect dE= 0.000E+00 dE for cont linesearch  0.000E+00
 trial: gam= 0.00000 g(F)=  0.295E-01 g(S)=  0.000E+00 ort = 0.000E+00 (trialstep = 0.100E+01)
 search vector abs. value=  0.295E-01
 bond charge predicted
       N       E                     dE             d eps       ncg     rms          rms(c)
DAV:   1    -0.125509091009E+03   -0.97184E-02   -0.32481E+00 14208   0.557E+00    0.490E-01
DAV:   2    -0.125500485057E+03    0.86060E-02   -0.65128E-02 26064   0.723E-01    0.216E-01
DAV:   3    -0.125499517827E+03    0.96723E-03   -0.54124E-03 21264   0.206E-01    0.845E-02
DAV:   4    -0.125499475257E+03    0.42570E-04   -0.62151E-04 26640   0.709E-02    0.224E-02
DAV:   5    -0.125499478405E+03   -0.31479E-05   -0.18290E-05 24480   0.135E-02    0.736E-03
DAV:   6    -0.125499478383E+03    0.22090E-07   -0.38938E-06 22848   0.579E-03
   2 F= -.12708941E+03 E0= -.12708863E+03  d E =0.468250E-03  mag=    -0.0000
 trial-energy change:    0.000468  1 .order    0.000408   -0.029500    0.030317
 step:   0.4917(harm=  0.4932)  dis= 0.00757  next Energy=  -127.097120 (dE=-0.725E-02)
 bond charge predicted
       N       E                     dE             d eps       ncg     rms          rms(c)
DAV:   1    -0.125509427418E+03   -0.99490E-02   -0.83952E-01 14208   0.282E+00    0.249E-01
DAV:   2    -0.125507150615E+03    0.22768E-02   -0.16771E-02 26352   0.366E-01    0.109E-01
DAV:   3    -0.125506908383E+03    0.24223E-03   -0.13676E-03 23568   0.105E-01    0.434E-02
DAV:   4    -0.125506897697E+03    0.10686E-04   -0.15460E-04 22416   0.354E-02    0.111E-02
DAV:   5    -0.125506898452E+03   -0.75504E-06   -0.51752E-06 22848   0.718E-03
   3 F= -.12709711E+03 E0= -.12709634E+03  d E =-.723953E-02  mag=    -0.0000
 curvature:  -0.25 expect dE=-0.185E-02 dE for cont linesearch -0.543E-07
 trial: gam= 0.25174 g(F)=  0.751E-02 g(S)=  0.000E+00 ort = 0.806E-04 (trialstep = 0.898E+00)
 search vector abs. value=  0.942E-02
 bond charge predicted
       N       E                     dE             d eps       ncg     rms          rms(c)
DAV:   1    -0.125512798110E+03   -0.59004E-02   -0.29010E-01 14208   0.191E+00    0.113E-01
DAV:   2    -0.125512846171E+03   -0.48061E-04   -0.19186E-03 27888   0.179E-01    0.657E-02
DAV:   3    -0.125512842768E+03    0.34027E-05   -0.18906E-04 22800   0.495E-02    0.171E-02
DAV:   4    -0.125512843668E+03   -0.89939E-06   -0.29995E-05 26592   0.200E-02    0.648E-03
DAV:   5    -0.125512844115E+03   -0.44708E-06   -0.11581E-06 22224   0.452E-03
   4 F= -.12710295E+03 E0= -.12710217E+03  d E =-.583575E-02  mag=    -0.0000
 trial-energy change:   -0.005836  1 .order   -0.005840   -0.006762   -0.004919
 step:   3.2953(harm=  3.2953)  dis= 0.02005  next Energy=  -127.109517 (dE=-0.124E-01)
 bond charge predicted
       N       E                     dE             d eps       ncg     rms          rms(c)
DAV:   1    -0.125519635412E+03   -0.67917E-02   -0.20761E+00 14208   0.510E+00    0.301E-01
DAV:   2    -0.125520069307E+03   -0.43389E-03   -0.13890E-02 26880   0.480E-01    0.175E-01
DAV:   3    -0.125520037521E+03    0.31785E-04   -0.13724E-03 21696   0.133E-01    0.453E-02
DAV:   4    -0.125520044313E+03   -0.67921E-05   -0.21447E-04 26880   0.533E-02    0.174E-02
DAV:   5    -0.125520047569E+03   -0.32557E-05   -0.79062E-06 23088   0.118E-02    0.751E-03
DAV:   6    -0.125520047726E+03   -0.15686E-06   -0.42885E-06 24336   0.735E-03
   5 F= -.12710984E+03 E0= -.12710905E+03  d E =-.127218E-01  mag=     0.0000
 curvature:  -2.06 expect dE=-0.768E-01 dE for cont linesearch -0.277E-04
 trial: gam= 4.96906 g(F)=  0.372E-01 g(S)=  0.000E+00 ort = 0.356E-03 (trialstep = 0.475E-01)
 search vector abs. value=  0.273E+00
 bond charge predicted
       N       E                     dE             d eps       ncg     rms          rms(c)
DAV:   1    -0.125521827135E+03   -0.17796E-02   -0.26177E-02 14400   0.602E-01    0.352E-02
DAV:   2    -0.125521830833E+03   -0.36976E-05   -0.21538E-04 27024   0.626E-02    0.199E-02
DAV:   3    -0.125521829358E+03    0.14747E-05   -0.21730E-05 21984   0.176E-02    0.591E-03
DAV:   4    -0.125521829804E+03   -0.44624E-06   -0.36428E-06 25392   0.708E-03
   6 F= -.12711159E+03 E0= -.12711081E+03  d E =-.175489E-02  mag=     0.0000
 ZBRENT: can't locate minimum, use default step
 trial-energy change:   -0.001755  1 .order   -0.001754   -0.001852   -0.001657
 step:   0.1899(harm=  0.4504)  dis= 0.00534  next Energy=  -127.118622 (dE=-0.879E-02)
 bond charge predicted
       N       E                     dE             d eps       ncg     rms          rms(c)
DAV:   1    -0.125526004597E+03   -0.41752E-02   -0.23586E-01 14208   0.181E+00    0.106E-01
DAV:   2    -0.125526033894E+03   -0.29298E-04   -0.18789E-03 26448   0.185E-01    0.595E-02
DAV:   3    -0.125526020217E+03    0.13678E-04   -0.18938E-04 19968   0.520E-02    0.175E-02
DAV:   4    -0.125526021049E+03   -0.83170E-06   -0.31672E-05 26496   0.205E-02    0.716E-03
DAV:   5    -0.125526021802E+03   -0.75341E-06   -0.10841E-06 21024   0.438E-03
   7 F= -.12711569E+03 E0= -.12711491E+03  d E =-.585820E-02  mag=     0.0000
 curvature:  -0.92 expect dE=-0.113E-01 dE for cont linesearch -0.173E-02
 ZBRENT: increasing intervall
 opt :   0.4747  next Energy=  -127.118698 (dE=-0.886E-02)
 bond charge predicted
       N       E                     dE             d eps       ncg     rms          rms(c)
DAV:   1    -0.125529241087E+03   -0.32200E-02   -0.94710E-01 14208   0.362E+00    0.210E-01
DAV:   2    -0.125529358439E+03   -0.11735E-03   -0.76252E-03 26592   0.373E-01    0.118E-01
DAV:   3    -0.125529301120E+03    0.57319E-04   -0.76231E-04 22080   0.104E-01    0.349E-02
DAV:   4    -0.125529304102E+03   -0.29818E-05   -0.12331E-04 25920   0.406E-02    0.142E-02
DAV:   5    -0.125529306408E+03   -0.23060E-05   -0.41267E-06 22272   0.863E-03    0.584E-03
DAV:   6    -0.125529306051E+03    0.35728E-06   -0.20945E-06 25008   0.557E-03
   8 F= -.12711877E+03 E0= -.12711800E+03  d E =-.893276E-02  mag=     0.0000
 curvature:  -1.59 expect dE=-0.219E-01 dE for cont linesearch -0.676E-05
 trial: gam= 0.54782 g(F)=  0.138E-01 g(S)=  0.000E+00 ort =-0.108E-02 (trialstep = 0.133E+00)
 search vector abs. value=  0.946E-01
 bond charge predicted
       N       E                     dE             d eps       ncg     rms          rms(c)
DAV:   1    -0.125531030375E+03   -0.17240E-02   -0.68632E-02 14208   0.872E-01    0.500E-02
DAV:   2    -0.125531044680E+03   -0.14305E-04   -0.38275E-04 23856   0.723E-02    0.299E-02
DAV:   3    -0.125531042404E+03    0.22767E-05   -0.45518E-05 21456   0.214E-02    0.490E-03
DAV:   4    -0.125531042558E+03   -0.15469E-06   -0.31070E-06 25440   0.693E-03
   9 F= -.12712040E+03 E0= -.12711963E+03  d E =-.163507E-02  mag=     0.0000
 ZBRENT: can't locate minimum, use default step
 trial-energy change:   -0.001635  1 .order   -0.001637   -0.001750   -0.001525
 step:   0.5317(harm=  1.0326)  dis= 0.00564  next Energy=  -127.125567 (dE=-0.680E-02)
 bond charge predicted
       N       E                     dE             d eps       ncg     rms          rms(c)
DAV:   1    -0.125534838829E+03   -0.37964E-02   -0.61839E-01 14208   0.262E+00    0.149E-01
DAV:   2    -0.125534981048E+03   -0.14222E-03   -0.33492E-03 26208   0.215E-01    0.892E-02
DAV:   3    -0.125534959223E+03    0.21825E-04   -0.40094E-04 20688   0.630E-02    0.139E-02
DAV:   4    -0.125534959917E+03   -0.69445E-06   -0.25341E-05 24384   0.199E-02    0.722E-03
DAV:   5    -0.125534958502E+03    0.14151E-05   -0.33480E-06 22032   0.708E-03    0.261E-03
DAV:   6    -0.125534958062E+03    0.44052E-06   -0.10966E-06 24336   0.390E-03
  10 F= -.12712402E+03 E0= -.12712324E+03  d E =-.524950E-02  mag=    -0.0000
 curvature:  -2.56 expect dE=-0.229E-01 dE for cont linesearch -0.124E-02
 ZBRENT: increasing intervall
 opt :   1.3292  next Energy=  -127.125687 (dE=-0.692E-02)
 bond charge predicted
       N       E                     dE             d eps       ncg     rms          rms(c)
DAV:   1    -0.125537096257E+03   -0.21378E-02   -0.24748E+00 14208   0.522E+00    0.294E-01
DAV:   2    -0.125537690687E+03   -0.59443E-03   -0.12864E-02 26880   0.424E-01    0.177E-01
DAV:   3    -0.125537606065E+03    0.84622E-04   -0.16293E-03 21888   0.126E-01    0.254E-02
DAV:   4    -0.125537606344E+03   -0.27864E-06   -0.94060E-05 23568   0.387E-02    0.142E-02
DAV:   5    -0.125537601879E+03    0.44655E-05   -0.12732E-05 23616   0.138E-02    0.451E-03
DAV:   6    -0.125537600876E+03    0.10027E-05   -0.38584E-06 24816   0.718E-03    0.210E-03
DAV:   7    -0.125537602002E+03   -0.11266E-05   -0.12669E-06 22848   0.379E-03    0.163E-03
DAV:   8    -0.125537605159E+03   -0.31568E-05   -0.20203E-06 19920   0.432E-03    0.835E-04
DAV:   9    -0.125537608470E+03   -0.33103E-05   -0.38902E-07 20448   0.189E-03    0.430E-04
DAV:  10    -0.125537611053E+03   -0.25836E-05   -0.14926E-07 19488   0.103E-03    0.253E-04
DAV:  11    -0.125537612264E+03   -0.12113E-05   -0.39030E-08 21504   0.551E-04    0.167E-04
DAV:  12    -0.125537613305E+03   -0.10404E-05   -0.40905E-08 19440   0.422E-04    0.853E-05
DAV:  13    -0.125537613623E+03   -0.31839E-06   -0.86801E-09 23088   0.209E-04
  11 F= -.12712609E+03 E0= -.12712534E+03  d E =-.731665E-02  mag=    -0.0000
 curvature:  -3.43 expect dE=-0.104E+00 dE for cont linesearch -0.662E-04
 trial: gam= 2.27426 g(F)=  0.303E-01 g(S)=  0.000E+00 ort =-0.135E-02 (trialstep = 0.686E-01)
 search vector abs. value=  0.513E+00
 bond charge predicted
       N       E                     dE             d eps       ncg     rms          rms(c)
DAV:   1    -0.125539364326E+03   -0.17510E-02   -0.10400E-01 14208   0.114E+00    0.611E-02
DAV:   2    -0.125539389418E+03   -0.25092E-04   -0.64678E-04 26400   0.102E-01    0.369E-02
DAV:   3    -0.125539385100E+03    0.43173E-05   -0.76605E-05 17520   0.304E-02    0.693E-03
DAV:   4    -0.125539385244E+03   -0.14371E-06   -0.78863E-06 21936   0.109E-02
  12 F= -.12712774E+03 E0= -.12712698E+03  d E =-.165612E-02  mag=     0.0000
 ZBRENT: can't locate minimum, use default step
 trial-energy change:   -0.001656  1 .order   -0.001658   -0.001869   -0.001446
 step:   0.2743(harm=  0.3032)  dis= 0.00612  next Energy=  -127.130218 (dE=-0.413E-02)
 bond charge predicted
       N       E                     dE             d eps       ncg     rms          rms(c)
DAV:   1    -0.125542022342E+03   -0.26372E-02   -0.93652E-01 14208   0.342E+00    0.183E-01
DAV:   2    -0.125542253228E+03   -0.23089E-03   -0.55852E-03 25536   0.301E-01    0.110E-01
DAV:   3    -0.125542207241E+03    0.45986E-04   -0.69910E-04 22080   0.916E-02    0.205E-02
DAV:   4    -0.125542206752E+03    0.48905E-06   -0.68220E-05 22224   0.325E-02    0.104E-02
DAV:   5    -0.125542206415E+03    0.33786E-06   -0.36750E-06 24240   0.815E-03
  13 F= -.12713021E+03 E0= -.12712943E+03  d E =-.412833E-02  mag=    -0.0000
 curvature:  -2.81 expect dE=-0.584E-02 dE for cont linesearch -0.552E-04
 ZBRENT: extrapolating
 opt :   0.3107  next Energy=  -127.130272 (dE=-0.419E-02)
 bond charge predicted
       N       E                     dE             d eps       ncg     rms          rms(c)
DAV:   1    -0.125542319122E+03   -0.11237E-03   -0.29559E-02 14208   0.609E-01    0.323E-02
DAV:   2    -0.125542327693E+03   -0.85707E-05   -0.18996E-04 26928   0.552E-02    0.197E-02
DAV:   3    -0.125542326723E+03    0.97022E-06   -0.24086E-05 23088   0.170E-02    0.374E-03
DAV:   4    -0.125542327230E+03   -0.50751E-06   -0.22570E-06 24624   0.607E-03
  14 F= -.12713027E+03 E0= -.12712949E+03  d E =-.418703E-02  mag=    -0.0000
 curvature:  -2.95 expect dE=-0.609E-02 dE for cont linesearch -0.212E-07
 trial: gam= 0.05638 g(F)=  0.207E-02 g(S)=  0.000E+00 ort = 0.608E-04 (trialstep = 0.117E+00)
 search vector abs. value=  0.371E-02
 bond charge predicted
       N       E                     dE             d eps       ncg     rms          rms(c)
DAV:   1    -0.125542553061E+03   -0.22634E-03   -0.40345E-03 16608   0.267E-01    0.158E-02
DAV:   2    -0.125542550408E+03    0.26527E-05   -0.57471E-05 26832   0.315E-02    0.812E-03
DAV:   3    -0.125542550234E+03    0.17409E-06   -0.57928E-06 19968   0.940E-03
  15 F= -.12713048E+03 E0= -.12712969E+03  d E =-.203501E-03  mag=    -0.0000
 trial-energy change:   -0.000204  1 .order   -0.000202   -0.000242   -0.000162
 step:   0.3521(harm=  0.3521)  dis= 0.00128  next Energy=  -127.130637 (dE=-0.365E-03)
 bond charge predicted
       N       E                     dE             d eps       ncg     rms          rms(c)
DAV:   1    -0.125542773628E+03   -0.22322E-03   -0.16301E-02 15456   0.536E-01    0.323E-02
DAV:   2    -0.125542761447E+03    0.12181E-04   -0.23298E-04 27408   0.635E-02    0.167E-02
DAV:   3    -0.125542758040E+03    0.34069E-05   -0.23862E-05 20496   0.190E-02    0.579E-03
DAV:   4    -0.125542758456E+03   -0.41641E-06   -0.34619E-06 22848   0.705E-03
  16 F= -.12713064E+03 E0= -.12712986E+03  d E =-.371290E-03  mag=     0.0000
 curvature:  -0.32 expect dE=-0.224E-03 dE for cont linesearch -0.552E-07
 trial: gam= 0.34216 g(F)=  0.710E-03 g(S)=  0.000E+00 ort = 0.255E-04 (trialstep = 0.164E+00)
 search vector abs. value=  0.116E-02
 bond charge predicted
       N       E                     dE             d eps       ncg     rms          rms(c)
DAV:   1    -0.125542874681E+03   -0.11664E-03   -0.21441E-03 14448   0.190E-01    0.998E-03
DAV:   2    -0.125542873687E+03    0.99396E-06   -0.21950E-05 28272   0.187E-02    0.530E-03
DAV:   3    -0.125542873646E+03    0.40877E-07   -0.18441E-06 21216   0.515E-03
  17 F= -.12713075E+03 E0= -.12712996E+03  d E =-.101556E-03  mag=    -0.0000
 trial-energy change:   -0.000102  1 .order   -0.000101   -0.000118   -0.000084
 step:   0.5653(harm=  0.5653)  dis= 0.00184  next Energy=  -127.130847 (dE=-0.203E-03)
 bond charge predicted
       N       E                     dE             d eps       ncg     rms          rms(c)
DAV:   1    -0.125543018440E+03   -0.14475E-03   -0.12817E-02 14208   0.465E-01    0.245E-02
DAV:   2    -0.125543011355E+03    0.70851E-05   -0.12914E-04 27408   0.450E-02    0.128E-02
DAV:   3    -0.125543009830E+03    0.15252E-05   -0.10744E-05 20112   0.123E-02    0.469E-03
DAV:   4    -0.125543010196E+03   -0.36649E-06   -0.14780E-06 22080   0.493E-03
  18 F= -.12713085E+03 E0= -.12713007E+03  d E =-.204621E-03  mag=    -0.0000
 curvature:  -0.46 expect dE=-0.151E-03 dE for cont linesearch -0.349E-10
 trial: gam= 0.48370 g(F)=  0.331E-03 g(S)=  0.000E+00 ort = 0.298E-06 (trialstep = 0.244E+00)
 search vector abs. value=  0.603E-03
 bond charge predicted
       N       E                     dE             d eps       ncg     rms          rms(c)
DAV:   1    -0.125543085173E+03   -0.75343E-04   -0.26702E-03 14208   0.206E-01    0.114E-02
DAV:   2    -0.125543083620E+03    0.15526E-05   -0.33956E-05 27696   0.235E-02    0.638E-03
DAV:   3    -0.125543083086E+03    0.53403E-06   -0.35368E-06 20208   0.723E-03
  19 F= -.12713091E+03 E0= -.12713013E+03  d E =-.597789E-04  mag=     0.0000
 trial-energy change:   -0.000060  1 .order   -0.000060   -0.000081   -0.000038
 step:   0.4624(harm=  0.4624)  dis= 0.00123  next Energy=  -127.130925 (dE=-0.766E-04)
 bond charge predicted
       N       E                     dE             d eps       ncg     rms          rms(c)
DAV:   1    -0.125543114099E+03   -0.30479E-04   -0.21333E-03 14880   0.184E-01    0.106E-02
DAV:   2    -0.125543112778E+03    0.13205E-05   -0.26402E-05 22224   0.209E-02    0.591E-03
DAV:   3    -0.125543112370E+03    0.40797E-06   -0.33315E-06 22464   0.712E-03
  20 F= -.12713093E+03 E0= -.12713014E+03  d E =-.773212E-04  mag=    -0.0000
 curvature:  -0.42 expect dE=-0.688E-04 dE for cont linesearch -0.115E-08
 trial: gam= 0.48668 g(F)=  0.163E-03 g(S)=  0.000E+00 ort = 0.128E-05 (trialstep = 0.288E+00)
 search vector abs. value=  0.308E-03
 bond charge predicted
       N       E                     dE             d eps       ncg     rms          rms(c)
DAV:   1    -0.125543168599E+03   -0.55821E-04   -0.20797E-03 14784   0.187E-01    0.978E-03
DAV:   2    -0.125543167583E+03    0.10158E-05   -0.24314E-05 17232   0.206E-02    0.535E-03
DAV:   3    -0.125543167273E+03    0.31006E-06   -0.29525E-06 21072   0.698E-03
  21 F= -.12713096E+03 E0= -.12713018E+03  d E =-.315804E-04  mag=     0.0000
 trial-energy change:   -0.000032  1 .order   -0.000031   -0.000047   -0.000015
 step:   0.4279(harm=  0.4279)  dis= 0.00075  next Energy=  -127.130961 (dE=-0.351E-04)
 bond charge predicted
       N       E                     dE             d eps       ncg     rms          rms(c)
DAV:   1    -0.125543182996E+03   -0.15413E-04   -0.49401E-04 19392   0.909E-02    0.527E-03
DAV:   2    -0.125543182679E+03    0.31685E-06   -0.53089E-06 15168   0.990E-03
  22 F= -.12713096E+03 E0= -.12713018E+03  d E =-.356230E-04  mag=    -0.0000
 curvature:  -0.40 expect dE=-0.360E-04 dE for cont linesearch -0.336E-07
 trial: gam= 0.53673 g(F)=  0.898E-04 g(S)=  0.000E+00 ort = 0.508E-05 (trialstep = 0.316E+00)
 search vector abs. value=  0.184E-03
 bond charge predicted
       N       E                     dE             d eps       ncg     rms          rms(c)
DAV:   1    -0.125543245198E+03   -0.62202E-04   -0.12141E-03 14208   0.139E-01    0.701E-03
DAV:   2    -0.125543245264E+03   -0.66661E-07   -0.11407E-05 14928   0.143E-02    0.410E-03
DAV:   3    -0.125543245206E+03    0.58324E-07   -0.13019E-06 14784   0.508E-03
  23 F= -.12713099E+03 E0= -.12713020E+03  d E =-.242300E-04  mag=    -0.0000
 trial-energy change:   -0.000024  1 .order   -0.000024   -0.000029   -0.000019
 step:   0.8905(harm=  0.8905)  dis= 0.00092  next Energy=  -127.131002 (dE=-0.412E-04)
 bond charge predicted
       N       E                     dE             d eps       ncg     rms          rms(c)
DAV:   1    -0.125543333117E+03   -0.87852E-04   -0.40315E-03 14208   0.253E-01    0.124E-02
DAV:   2    -0.125543333035E+03    0.81744E-07   -0.35737E-05 19776   0.251E-02    0.718E-03
DAV:   3    -0.125543332660E+03    0.37541E-06   -0.34440E-06 16512   0.775E-03
  24 F= -.12713100E+03 E0= -.12713022E+03  d E =-.420236E-04  mag=     0.0000
 curvature:  -0.88 expect dE=-0.952E-04 dE for cont linesearch -0.666E-09
 trial: gam= 1.23398 g(F)=  0.108E-03 g(S)=  0.000E+00 ort = 0.372E-06 (trialstep = 0.204E+00)
 search vector abs. value=  0.388E-03
 bond charge predicted
       N       E                     dE             d eps       ncg     rms          rms(c)
DAV:   1    -0.125543392927E+03   -0.59892E-04   -0.11543E-03 14400   0.137E-01    0.695E-03
DAV:   2    -0.125543392896E+03    0.31333E-07   -0.12270E-05 17904   0.156E-02    0.415E-03
DAV:   3    -0.125543392875E+03    0.20819E-07   -0.19157E-06 14688   0.664E-03
  25 F= -.12713102E+03 E0= -.12713024E+03  d E =-.179287E-04  mag=    -0.0000
 trial-energy change:   -0.000018  1 .order   -0.000017   -0.000022   -0.000013
 step:   0.4755(harm=  0.4755)  dis= 0.00050  next Energy=  -127.131029 (dE=-0.257E-04)
 bond charge predicted
       N       E                     dE             d eps       ncg     rms          rms(c)
DAV:   1    -0.125543458453E+03   -0.65557E-04   -0.20530E-03 14208   0.183E-01    0.923E-03
DAV:   2    -0.125543458368E+03    0.85188E-07   -0.21144E-05 20304   0.202E-02    0.544E-03
DAV:   3    -0.125543458227E+03    0.14084E-06   -0.28660E-06 14640   0.773E-03
  26 F= -.12713103E+03 E0= -.12713025E+03  d E =-.269082E-04  mag=    -0.0000
 curvature:  -0.85 expect dE=-0.610E-04 dE for cont linesearch -0.147E-08
 trial: gam= 0.65059 g(F)=  0.714E-04 g(S)=  0.000E+00 ort = 0.817E-06 (trialstep = 0.258E+00)
 search vector abs. value=  0.237E-03
 bond charge predicted
       N       E                     dE             d eps       ncg     rms          rms(c)
DAV:   1    -0.125543520775E+03   -0.62407E-04   -0.96208E-04 14208   0.124E-01    0.576E-03
DAV:   2    -0.125543520915E+03   -0.14030E-06   -0.85471E-06 18432   0.129E-02
  27 F= -.12713105E+03 E0= -.12713026E+03  d E =-.168428E-04  mag=     0.0000
 ZBRENT: can't locate minimum, use default step
 trial-energy change:   -0.000017  1 .order   -0.000017   -0.000019   -0.000016
 step:   1.0328(harm=  1.8054)  dis= 0.00080  next Energy=  -127.131095 (dE=-0.649E-04)
 bond charge predicted
       N       E                     dE             d eps       ncg     rms          rms(c)
DAV:   1    -0.125543690537E+03   -0.16976E-03   -0.86041E-03 14208   0.372E-01    0.171E-02
DAV:   2    -0.125543692371E+03   -0.18339E-05   -0.70064E-05 14976   0.359E-02    0.107E-02
DAV:   3    -0.125543692544E+03   -0.17353E-06   -0.72909E-06 15360   0.119E-02
  28 F= -.12713108E+03 E0= -.12713030E+03  d E =-.509695E-04  mag=     0.0000
 curvature:  -2.23 expect dE=-0.123E-03 dE for cont linesearch -0.596E-05
 ZBRENT: increasing intervall
 opt :   2.5821  next Energy=  -127.131064 (dE=-0.334E-04)
 bond charge predicted
       N       E                     dE             d eps       ncg     rms          rms(c)
DAV:   1    -0.125543948602E+03   -0.25623E-03   -0.34667E-02 14208   0.746E-01    0.332E-02
DAV:   2    -0.125543957472E+03   -0.88709E-05   -0.27920E-04 24528   0.708E-02    0.209E-02
DAV:   3    -0.125543955952E+03    0.15206E-05   -0.22532E-05 16224   0.191E-02    0.496E-03
DAV:   4    -0.125543956152E+03   -0.19986E-06   -0.69488E-06 15072   0.132E-02
  29 F= -.12713107E+03 E0= -.12713029E+03  d E =-.397244E-04  mag=    -0.0000
 curvature:   6.57 expect dE= 0.206E-02 dE for cont linesearch  0.481E-04
 ZBRENT: bracketing found
 ZBRENT: interpolating
 opt :   1.6162  next Energy=  -127.131088 (dE=-0.583E-04)
 bond charge predicted
       N       E                     dE             d eps       ncg     rms          rms(c)
DAV:   1    -0.125543801303E+03    0.15465E-03   -0.13437E-02 14208   0.464E-01    0.202E-02
DAV:   2    -0.125543804204E+03   -0.29016E-05   -0.11086E-04 15312   0.451E-02    0.126E-02
DAV:   3    -0.125543804316E+03   -0.11217E-06   -0.10780E-05 16080   0.143E-02    0.324E-03
DAV:   4    -0.125543804474E+03   -0.15804E-06   -0.44600E-06 14208   0.108E-02
  30 F= -.12713109E+03 E0= -.12713031E+03  d E =-.594142E-04  mag=     0.0000
 curvature:  -1.00 expect dE=-0.113E-03 dE for cont linesearch -0.860E-08
 trial: gam= 1.58708 g(F)=  0.112E-03 g(S)=  0.000E+00 ort = 0.143E-05 (trialstep = 0.176E+00)
 search vector abs. value=  0.714E-03
 bond charge predicted
       N       E                     dE             d eps       ncg     rms          rms(c)
DAV:   1    -0.125543876506E+03   -0.72190E-04   -0.13952E-03 14640   0.153E-01    0.694E-03
DAV:   2    -0.125543876762E+03   -0.25565E-06   -0.14862E-05 18720   0.171E-02    0.434E-03
DAV:   3    -0.125543876882E+03   -0.11971E-06   -0.18758E-06 18144   0.686E-03
  31 F= -.12713110E+03 E0= -.12713032E+03  d E =-.151940E-04  mag=    -0.0000
 trial-energy change:   -0.000015  1 .order   -0.000016   -0.000020   -0.000011
 step:   0.4001(harm=  0.4001)  dis= 0.00048  next Energy=  -127.131113 (dE=-0.229E-04)
 bond charge predicted
       N       E                     dE             d eps       ncg     rms          rms(c)
DAV:   1    -0.125543956702E+03   -0.79940E-04   -0.22714E-03 14208   0.195E-01    0.928E-03
DAV:   2    -0.125543957259E+03   -0.55680E-06   -0.23132E-05 14688   0.214E-02    0.585E-03
DAV:   3    -0.125543957425E+03   -0.16636E-06   -0.29373E-06 16560   0.853E-03
  32 F= -.12713111E+03 E0= -.12713033E+03  d E =-.228414E-04  mag=    -0.0000
 curvature:  -1.24 expect dE=-0.124E-03 dE for cont linesearch -0.636E-09
 trial: gam= 0.89130 g(F)=  0.999E-04 g(S)=  0.000E+00 ort = 0.604E-06 (trialstep = 0.221E+00)
 search vector abs. value=  0.668E-03
 bond charge predicted
       N       E                     dE             d eps       ncg     rms          rms(c)
DAV:   1    -0.125544050581E+03   -0.93322E-04   -0.18990E-03 14208   0.176E-01    0.786E-03
DAV:   2    -0.125544051427E+03   -0.84647E-06   -0.20135E-05 15024   0.197E-02    0.514E-03
DAV:   3    -0.125544051878E+03   -0.45114E-06   -0.23666E-06 14976   0.778E-03
  33 F= -.12713113E+03 E0= -.12713035E+03  d E =-.212424E-04  mag=    -0.0000
 ZBRENT: can't locate minimum, use default step
 trial-energy change:   -0.000021  1 .order   -0.000021   -0.000022   -0.000020
 step:   0.8828(harm=  2.2190)  dis= 0.00089  next Energy=  -127.131224 (dE=-0.111E-03)
 bond charge predicted
       N       E                     dE             d eps       ncg     rms          rms(c)
DAV:   1    -0.125544313946E+03   -0.26252E-03   -0.17062E-02 14208   0.528E-01    0.230E-02
DAV:   2    -0.125544322050E+03   -0.81037E-05   -0.16613E-04 16704   0.548E-02    0.149E-02
DAV:   3    -0.125544322478E+03   -0.42758E-06   -0.11862E-05 14928   0.150E-02    0.395E-03
DAV:   4    -0.125544322722E+03   -0.24387E-06   -0.41838E-06 14208   0.104E-02
  34 F= -.12713118E+03 E0= -.12713040E+03  d E =-.725590E-04  mag=     0.0000
 curvature:  -4.08 expect dE=-0.406E-03 dE for cont linesearch -0.232E-04
 ZBRENT: increasing intervall
 opt :   2.2070  next Energy=  -127.131229 (dE=-0.116E-03)
 bond charge predicted
       N       E                     dE             d eps       ncg     rms          rms(c)
DAV:   1    -0.125544772672E+03   -0.45019E-03   -0.68268E-02 14208   0.106E+00    0.459E-02
DAV:   2    -0.125544806400E+03   -0.33728E-04   -0.66062E-04 21888   0.108E-01    0.298E-02
DAV:   3    -0.125544804489E+03    0.19116E-05   -0.40169E-05 17088   0.249E-02    0.757E-03
DAV:   4    -0.125544805262E+03   -0.77273E-06   -0.82196E-06 14688   0.136E-02
  35 F= -.12713123E+03 E0= -.12713045E+03  d E =-.116317E-03  mag=     0.0000
 curvature:  -7.65 expect dE=-0.305E-02 dE for cont linesearch -0.981E-07
 trial: gam= 3.96862 g(F)=  0.398E-03 g(S)=  0.000E+00 ort = 0.293E-05 (trialstep = 0.377E-01)
 search vector abs. value=  0.109E-01
 bond charge predicted
       N       E                     dE             d eps       ncg     rms          rms(c)
DAV:   1    -0.125544870565E+03   -0.66076E-04   -0.92633E-04 14208   0.124E-01    0.565E-03
DAV:   2    -0.125544870714E+03   -0.14935E-06   -0.12034E-05 15744   0.164E-02    0.374E-03
DAV:   3    -0.125544871632E+03   -0.91830E-06   -0.28881E-06 15264   0.887E-03
  36 F= -.12713124E+03 E0= -.12713046E+03  d E =-.154475E-04  mag=     0.0000
 ZBRENT: can't locate minimum, use default step
 trial-energy change:   -0.000015  1 .order   -0.000015   -0.000015   -0.000014
 step:   0.1509(harm=  0.5841)  dis= 0.00057  next Energy=  -127.131348 (dE=-0.120E-03)
 bond charge predicted
       N       E                     dE             d eps       ncg     rms          rms(c)
DAV:   1    -0.125545057957E+03   -0.18724E-03   -0.82256E-03 14208   0.367E-01    0.160E-02
DAV:   2    -0.125545062101E+03   -0.41437E-05   -0.84756E-05 16320   0.392E-02    0.104E-02
DAV:   3    -0.125545062594E+03   -0.49284E-06   -0.63563E-06 14640   0.114E-02
  37 F= -.12713128E+03 E0= -.12713050E+03  d E =-.536436E-04  mag=    -0.0000
 curvature:  -2.89 expect dE=-0.618E-03 dE for cont linesearch -0.222E-04
 ZBRENT: increasing intervall
 opt :   0.3772  next Energy=  -127.131327 (dE=-0.981E-04)
 bond charge predicted
       N       E                     dE             d eps       ncg     rms          rms(c)
DAV:   1    -0.125545401675E+03   -0.33957E-03   -0.32967E-02 14208   0.735E-01    0.324E-02
DAV:   2    -0.125545417312E+03   -0.15638E-04   -0.31904E-04 16704   0.763E-02    0.210E-02
DAV:   3    -0.125545417591E+03   -0.27856E-06   -0.22976E-05 14496   0.203E-02    0.563E-03
DAV:   4    -0.125545417984E+03   -0.39319E-06   -0.64076E-06 14400   0.126E-02
  38 F= -.12713133E+03 E0= -.12713055E+03  d E =-.103531E-03  mag=     0.0000
 curvature:  -5.78 expect dE=-0.765E-03 dE for cont linesearch -0.897E-05
 ZBRENT: increasing intervall
 opt :   0.8299  next Energy=  -127.131319 (dE=-0.902E-04)
 bond charge predicted
       N       E                     dE             d eps       ncg     rms          rms(c)
DAV:   1    -0.125545955393E+03   -0.53780E-03   -0.13183E-01 14208   0.147E+00    0.642E-02
DAV:   2    -0.125546018566E+03   -0.63173E-04   -0.12620E-03 20736   0.151E-01    0.415E-02
DAV:   3    -0.125546013539E+03    0.50262E-05   -0.82425E-05 18144   0.357E-02    0.108E-02
DAV:   4    -0.125546014775E+03   -0.12353E-05   -0.16289E-05 14784   0.188E-02    0.410E-03
DAV:   5    -0.125546014987E+03   -0.21192E-06   -0.57785E-06 14400   0.122E-02
  39 F= -.12713132E+03 E0= -.12713054E+03  d E =-.896579E-04  mag=     0.0000
 curvature:   8.60 expect dE= 0.537E-02 dE for cont linesearch  0.307E-04
 ZBRENT: bracketing found
 ZBRENT: interpolating
 opt :   0.5571  next Energy=  -127.131344 (dE=-0.115E-03)
 bond charge predicted
       N       E                     dE             d eps       ncg     rms          rms(c)
DAV:   1    -0.125545650797E+03    0.36398E-03   -0.47813E-02 14208   0.885E-01    0.384E-02
DAV:   2    -0.125545674073E+03   -0.23276E-04   -0.47761E-04 21840   0.923E-02    0.250E-02
DAV:   3    -0.125545672541E+03    0.15328E-05   -0.29544E-05 21696   0.216E-02    0.663E-03
DAV:   4    -0.125545673102E+03   -0.56102E-06   -0.69553E-06 14208   0.130E-02
  40 F= -.12713134E+03 E0= -.12713056E+03  d E =-.115924E-03  mag=     0.0000
 curvature:  -3.28 expect dE=-0.726E-03 dE for cont linesearch -0.968E-08
 trial: gam= 0.61654 g(F)=  0.221E-03 g(S)=  0.000E+00 ort = 0.568E-05 (trialstep = 0.142E+00)
 search vector abs. value=  0.439E-02
 bond charge predicted
       N       E                     dE             d eps       ncg     rms          rms(c)
DAV:   1    -0.125545823167E+03   -0.15063E-03   -0.51795E-03 14208   0.293E-01    0.123E-02
DAV:   2    -0.125545824984E+03   -0.18170E-05   -0.52169E-05 15936   0.314E-02    0.797E-03
DAV:   3    -0.125545825526E+03   -0.54202E-06   -0.50563E-06 16848   0.109E-02
  41 F= -.12713137E+03 E0= -.12713059E+03  d E =-.293389E-04  mag=    -0.0000
 ZBRENT: can't locate minimum, use default step
 trial-energy change:   -0.000029  1 .order   -0.000029   -0.000032   -0.000026
 step:   0.5664(harm=  0.7765)  dis= 0.00141  next Energy=  -127.131432 (dE=-0.872E-04)
 bond charge predicted
       N       E                     dE             d eps       ncg     rms          rms(c)
DAV:   1    -0.125546230102E+03   -0.40512E-03   -0.46752E-02 14208   0.879E-01    0.382E-02
DAV:   2    -0.125546252140E+03   -0.22038E-04   -0.43657E-04 17280   0.895E-02    0.247E-02
DAV:   3    -0.125546251895E+03    0.24549E-06   -0.29364E-05 15216   0.231E-02    0.608E-03
DAV:   4    -0.125546252418E+03   -0.52331E-06   -0.89259E-06 14208   0.150E-02
  42 F= -.12713143E+03 E0= -.12713065E+03  d E =-.873243E-04  mag=     0.0000
 curvature:  -6.75 expect dE=-0.778E-03 dE for cont linesearch -0.974E-05
 ZBRENT: increasing intervall
 opt :   1.4160  next Energy=  -127.131411 (dE=-0.665E-04)
 bond charge predicted
       N       E                     dE             d eps       ncg     rms          rms(c)
DAV:   1    -0.125546885224E+03   -0.63333E-03   -0.18710E-01 14208   0.176E+00    0.761E-02
DAV:   2    -0.125546976599E+03   -0.91375E-04   -0.17419E-03 22608   0.177E-01    0.494E-02
DAV:   3    -0.125546968338E+03    0.82613E-05   -0.10427E-04 19296   0.395E-02    0.117E-02
DAV:   4    -0.125546969733E+03   -0.13950E-05   -0.18708E-05 15168   0.200E-02    0.408E-03
DAV:   5    -0.125546970119E+03   -0.38597E-06   -0.73890E-06 14208   0.136E-02
  43 F= -.12713141E+03 E0= -.12713063E+03  d E =-.686596E-04  mag=     0.0000
 curvature:  14.43 expect dE= 0.834E-02 dE for cont linesearch  0.520E-04
 ZBRENT: bracketing found
 ZBRENT: interpolating
 opt :   0.8957  next Energy=  -127.131445 (dE=-0.100E-03)
 bond charge predicted
       N       E                     dE             d eps       ncg     rms          rms(c)
DAV:   1    -0.125546518472E+03    0.45126E-03   -0.70068E-02 14208   0.108E+00    0.463E-02
DAV:   2    -0.125546553048E+03   -0.34576E-04   -0.67460E-04 21504   0.110E-01    0.302E-02
DAV:   3    -0.125546550308E+03    0.27399E-05   -0.37938E-05 20880   0.238E-02    0.739E-03
DAV:   4    -0.125546551068E+03   -0.76029E-06   -0.72428E-06 14208   0.127E-02
  44 F= -.12713144E+03 E0= -.12713066E+03  d E =-.100350E-03  mag=     0.0000
 curvature:  -3.64 expect dE=-0.734E-03 dE for cont linesearch -0.121E-07
 trial: gam= 0.89043 g(F)=  0.202E-03 g(S)=  0.000E+00 ort = 0.382E-05 (trialstep = 0.292E+00)
 search vector abs. value=  0.369E-02
 bond charge predicted
       N       E                     dE             d eps       ncg     rms          rms(c)
DAV:   1    -0.125546814231E+03   -0.26392E-03   -0.18865E-02 14208   0.563E-01    0.243E-02
DAV:   2    -0.125546821576E+03   -0.73446E-05   -0.18147E-04 15408   0.584E-02    0.156E-02
DAV:   3    -0.125546821456E+03    0.11979E-06   -0.14632E-05 16320   0.175E-02    0.408E-03
DAV:   4    -0.125546821612E+03   -0.15590E-06   -0.56449E-06 14304   0.123E-02
  45 F= -.12713148E+03 E0= -.12713070E+03  d E =-.373273E-04  mag=    -0.0000
 trial-energy change:   -0.000037  1 .order   -0.000037   -0.000060   -0.000014
 step:   0.3774(harm=  0.3774)  dis= 0.00094  next Energy=  -127.131484 (dE=-0.388E-04)
 bond charge predicted
       N       E                     dE             d eps       ncg     rms          rms(c)
DAV:   1    -0.125546889900E+03   -0.68443E-04   -0.16055E-03 14208   0.165E-01    0.745E-03
DAV:   2    -0.125546890627E+03   -0.72726E-06   -0.17760E-05 18576   0.188E-02    0.491E-03
DAV:   3    -0.125546891067E+03   -0.44003E-06   -0.21891E-06 16272   0.768E-03
  46 F= -.12713148E+03 E0= -.12713070E+03  d E =-.390019E-04  mag=    -0.0000
 curvature:  -3.39 expect dE=-0.324E-03 dE for cont linesearch -0.762E-09
 trial: gam= 0.47091 g(F)=  0.957E-04 g(S)=  0.000E+00 ort = 0.911E-06 (trialstep = 0.309E+00)
 search vector abs. value=  0.914E-03
 bond charge predicted
       N       E                     dE             d eps       ncg     rms          rms(c)
DAV:   1    -0.125547032390E+03   -0.14176E-03   -0.52745E-03 14208   0.299E-01    0.131E-02
DAV:   2    -0.125547034468E+03   -0.20784E-05   -0.51350E-05 15888   0.310E-02    0.854E-03
DAV:   3    -0.125547034790E+03   -0.32221E-06   -0.45186E-06 14832   0.103E-02
  47 F= -.12713151E+03 E0= -.12713073E+03  d E =-.236664E-04  mag=     0.0000
 trial-energy change:   -0.000024  1 .order   -0.000023   -0.000030   -0.000017
 step:   0.7081(harm=  0.7081)  dis= 0.00102  next Energy=  -127.131518 (dE=-0.340E-04)
 bond charge predicted
       N       E                     dE             d eps       ncg     rms          rms(c)
DAV:   1    -0.125547197638E+03   -0.16317E-03   -0.87613E-03 14208   0.386E-01    0.170E-02
DAV:   2    -0.125547201075E+03   -0.34374E-05   -0.83378E-05 15408   0.396E-02    0.111E-02
DAV:   3    -0.125547201640E+03   -0.56491E-06   -0.74780E-06 15024   0.132E-02
  48 F= -.12713152E+03 E0= -.12713074E+03  d E =-.358461E-04  mag=    -0.0000
 curvature:  -3.37 expect dE=-0.282E-03 dE for cont linesearch -0.227E-08
 trial: gam= 0.85566 g(F)=  0.837E-04 g(S)=  0.000E+00 ort = 0.785E-06 (trialstep = 0.389E+00)
 search vector abs. value=  0.754E-03
 bond charge predicted
       N       E                     dE             d eps       ncg     rms          rms(c)
DAV:   1    -0.125547346970E+03   -0.14589E-03   -0.78536E-03 14208   0.373E-01    0.162E-02
DAV:   2    -0.125547349343E+03   -0.23732E-05   -0.75309E-05 16608   0.388E-02    0.105E-02
DAV:   3    -0.125547350229E+03   -0.88629E-06   -0.87711E-06 15216   0.149E-02
  49 F= -.12713154E+03 E0= -.12713076E+03  d E =-.191815E-04  mag=    -0.0000
 trial-energy change:   -0.000019  1 .order   -0.000018   -0.000033   -0.000003
 step:   0.4226(harm=  0.4226)  dis= 0.00057  next Energy=  -127.131538 (dE=-0.178E-04)
 bond charge predicted
       N       E                     dE             d eps       ncg     rms          rms(c)
DAV:   1    -0.125547361071E+03   -0.11728E-04   -0.64289E-05 14208   0.359E-02    0.219E-03
DAV:   2    -0.125547360355E+03    0.71600E-06   -0.35868E-06 16896   0.100E-02
  50 F= -.12713154E+03 E0= -.12713076E+03  d E =-.181749E-04  mag=    -0.0000
 curvature:  -1.89 expect dE=-0.604E-04 dE for cont linesearch -0.210E-07
 trial: gam= 0.39241 g(F)=  0.320E-04 g(S)=  0.000E+00 ort = 0.289E-05 (trialstep = 0.396E+00)
 search vector abs. value=  0.150E-03
 bond charge predicted
       N       E                     dE             d eps       ncg     rms          rms(c)
DAV:   1    -0.125547422326E+03   -0.61255E-04   -0.20017E-03 16128   0.188E-01    0.877E-03
DAV:   2    -0.125547422206E+03    0.11925E-06   -0.17966E-05 20736   0.187E-02    0.548E-03
DAV:   3    -0.125547422406E+03   -0.19949E-06   -0.27373E-06 16608   0.768E-03
  51 F= -.12713155E+03 E0= -.12713076E+03  d E =-.859279E-05  mag=    -0.0000
 trial-energy change:   -0.000009  1 .order   -0.000008   -0.000013   -0.000004
 step:   0.5561(harm=  0.5561)  dis= 0.00046  next Energy=  -127.131547 (dE=-0.920E-05)
 bond charge predicted
       N       E                     dE             d eps       ncg     rms          rms(c)
DAV:   1    -0.125547444840E+03   -0.22633E-04   -0.33091E-04 14208   0.766E-02    0.358E-03
DAV:   2    -0.125547444734E+03    0.10553E-06   -0.38140E-06 15264   0.959E-03
  52 F= -.12713155E+03 E0= -.12713076E+03  d E =-.931153E-05  mag=     0.0000
 curvature:  -1.26 expect dE=-0.232E-04 dE for cont linesearch -0.230E-07
 trial: gam= 0.54858 g(F)=  0.184E-04 g(S)=  0.000E+00 ort = 0.165E-05 (trialstep = 0.428E+00)
 search vector abs. value=  0.654E-04
 bond charge predicted
       N       E                     dE             d eps       ncg     rms          rms(c)
DAV:   1    -0.125547485169E+03   -0.40329E-04   -0.10318E-03 19152   0.136E-01    0.635E-03
DAV:   2    -0.125547484811E+03    0.35802E-06   -0.84416E-06 14784   0.138E-02
  53 F= -.12713155E+03 E0= -.12713077E+03  d E =-.675385E-05  mag=     0.0000
 trial-energy change:   -0.000007  1 .order   -0.000007   -0.000008   -0.000005
 step:   1.1417(harm=  1.1417)  dis= 0.00069  next Energy=  -127.131558 (dE=-0.110E-04)
 bond charge predicted
       N       E                     dE             d eps       ncg     rms          rms(c)
DAV:   1    -0.125547544398E+03   -0.59229E-04   -0.28475E-03 17952   0.226E-01    0.105E-02
DAV:   2    -0.125547543892E+03    0.50587E-06   -0.22527E-05 14352   0.219E-02    0.650E-03
DAV:   3    -0.125547544808E+03   -0.91539E-06   -0.54739E-06 18720   0.117E-02
  54 F= -.12713156E+03 E0= -.12713078E+03  d E =-.111329E-04  mag=    -0.0000
 curvature:  -1.94 expect dE=-0.923E-04 dE for cont linesearch -0.338E-06
 trial: gam= 2.81324 g(F)=  0.476E-04 g(S)=  0.000E+00 ort =-0.338E-05 (trialstep = 0.683E-01)
 search vector abs. value=  0.546E-03
 bond charge predicted
       N       E                     dE             d eps       ncg     rms          rms(c)
DAV:   1    -0.125547561314E+03   -0.17422E-04   -0.21543E-04 14208   0.633E-02    0.291E-03
DAV:   2    -0.125547561052E+03    0.26187E-06   -0.34915E-06 15648   0.983E-03
  55 F= -.12713156E+03 E0= -.12713078E+03  d E =-.142287E-05  mag=    -0.0000
 ZBRENT: can't locate minimum, use default step
 trial-energy change:   -0.000001  1 .order   -0.000002   -0.000003   -0.000002
 step:   0.2733(harm=  0.5001)  dis= 0.00046  next Energy=  -127.131568 (dE=-0.953E-05)
 bond charge predicted
       N       E                     dE             d eps       ncg     rms          rms(c)
DAV:   1    -0.125547610367E+03   -0.49053E-04   -0.18936E-03 15168   0.185E-01    0.818E-03
DAV:   2    -0.125547610441E+03   -0.74415E-07   -0.16297E-05 14304   0.185E-02    0.537E-03
DAV:   3    -0.125547610882E+03   -0.44053E-06   -0.31373E-06 17232   0.892E-03
  56 F= -.12713157E+03 E0= -.12713078E+03  d E =-.678792E-05  mag=    -0.0000
 curvature:  -2.60 expect dE=-0.616E-04 dE for cont linesearch -0.747E-06
 ZBRENT: increasing intervall
 opt :   0.6833  next Energy=  -127.131562 (dE=-0.358E-05)
 bond charge predicted
       N       E                     dE             d eps       ncg     rms          rms(c)
DAV:   1    -0.125547695710E+03   -0.85269E-04   -0.75898E-03 14208   0.370E-01    0.150E-02
DAV:   2    -0.125547697622E+03   -0.19117E-05   -0.65258E-05 17088   0.351E-02    0.100E-02
DAV:   3    -0.125547697526E+03    0.95965E-07   -0.61692E-06 16368   0.115E-02
  57 F= -.12713156E+03 E0= -.12713078E+03  d E =-.450968E-05  mag=     0.0000
 curvature:  11.14 expect dE= 0.511E-03 dE for cont linesearch  0.150E-04
 ZBRENT: bracketing found
 ZBRENT: interpolating
 opt :   0.4029  next Energy=  -127.131566 (dE=-0.760E-05)
 bond charge predicted
       N       E                     dE             d eps       ncg     rms          rms(c)
DAV:   1    -0.125547639395E+03    0.58227E-04   -0.35485E-03 14208   0.253E-01    0.978E-03
DAV:   2    -0.125547639830E+03   -0.43563E-06   -0.32612E-05 16704   0.256E-02    0.649E-03
DAV:   3    -0.125547639915E+03   -0.84321E-07   -0.42059E-06 20400   0.101E-02
  58 F= -.12713157E+03 E0= -.12713078E+03  d E =-.771194E-05  mag=    -0.0000
 curvature:  -0.60 expect dE=-0.143E-04 dE for cont linesearch -0.110E-07
 trial: gam= 0.07939 g(F)=  0.238E-04 g(S)=  0.000E+00 ort = 0.316E-05 (trialstep = 0.135E+00)
 search vector abs. value=  0.277E-04
 bond charge predicted
       N       E                     dE             d eps       ncg     rms          rms(c)
DAV:   1    -0.125547645786E+03   -0.59559E-05   -0.54030E-05 14208   0.326E-02    0.180E-03
DAV:   2    -0.125547645491E+03    0.29512E-06   -0.24952E-06 16272   0.860E-03
  59 F= -.12713157E+03 E0= -.12713079E+03  d E =-.244553E-05  mag=     0.0000
 ZBRENT: can't locate minimum, use default step
 trial-energy change:   -0.000002  1 .order   -0.000003   -0.000003   -0.000002
 step:   0.5410(harm=  0.5590)  dis= 0.00022  next Energy=  -127.131573 (dE=-0.671E-05)
 bond charge predicted
       N       E                     dE             d eps       ncg     rms          rms(c)
DAV:   1    -0.125547658838E+03   -0.13052E-04   -0.45974E-04 16464   0.899E-02    0.558E-03
DAV:   2    -0.125547658491E+03    0.34772E-06   -0.64679E-06 18144   0.117E-02
  60 F= -.12713157E+03 E0= -.12713079E+03  d E =-.601305E-05  mag=    -0.0000
 curvature:  -0.32 expect dE=-0.833E-05 dE for cont linesearch -0.149E-07
 trial: gam= 1.05270 g(F)=  0.259E-04 g(S)=  0.000E+00 ort = 0.113E-05 (trialstep = 0.102E+00)
 search vector abs. value=  0.590E-04
 bond charge predicted
       N       E                     dE             d eps       ncg     rms          rms(c)
DAV:   1    -0.125547663990E+03   -0.51518E-05   -0.47773E-05 14832   0.295E-02    0.208E-03
DAV:   2    -0.125547663953E+03    0.37599E-07   -0.96865E-07 14208   0.506E-03
  61 F= -.12713157E+03 E0= -.12713079E+03  d E =-.249220E-05  mag=    -0.0000
 ZBRENT: can't locate minimum, use default step
 trial-energy change:   -0.000002  1 .order   -0.000003   -0.000003   -0.000002
 step:   0.4066(harm=  1.0655)  dis= 0.00027  next Energy=  -127.131587 (dE=-0.144E-04)
 bond charge predicted
       N       E                     dE             d eps       ncg     rms          rms(c)
DAV:   1    -0.125547679217E+03   -0.15227E-04   -0.42788E-04 14736   0.863E-02    0.431E-03
DAV:   2    -0.125547679074E+03    0.14260E-06   -0.42249E-06 14208   0.931E-03
  62 F= -.12713158E+03 E0= -.12713080E+03  d E =-.870600E-05  mag=     0.0000
 curvature:  -0.62 expect dE=-0.786E-05 dE for cont linesearch -0.295E-05
 ZBRENT: increasing intervall
 opt :   1.0165  next Energy=  -127.131586 (dE=-0.142E-04)
 bond charge predicted
       N       E                     dE             d eps       ncg     rms          rms(c)
DAV:   1    -0.125547702561E+03   -0.23344E-04   -0.17049E-03 14400   0.172E-01    0.857E-03
DAV:   2    -0.125547702115E+03    0.44588E-06   -0.15824E-05 14496   0.173E-02    0.520E-03
DAV:   3    -0.125547702030E+03    0.84687E-07   -0.26332E-06 14544   0.722E-03
  63 F= -.12713159E+03 E0= -.12713080E+03  d E =-.138409E-04  mag=    -0.0000
 curvature:  -1.16 expect dE=-0.193E-04 dE for cont linesearch -0.109E-08
 trial: gam= 0.68567 g(F)=  0.167E-04 g(S)=  0.000E+00 ort =-0.236E-06 (trialstep = 0.285E+00)
 search vector abs. value=  0.441E-04
 bond charge predicted
       N       E                     dE             d eps       ncg     rms          rms(c)
DAV:   1    -0.125547712417E+03   -0.10302E-04   -0.26193E-04 14208   0.694E-02    0.323E-03
DAV:   2    -0.125547712400E+03    0.16999E-07   -0.25954E-06 14640   0.815E-03
  64 F= -.12713159E+03 E0= -.12713081E+03  d E =-.436771E-05  mag=    -0.0000
 ZBRENT: can't locate minimum, use default step
 trial-energy change:   -0.000004  1 .order   -0.000004   -0.000005   -0.000004
 step:   1.1385(harm=  2.2514)  dis= 0.00051  next Energy=  -127.131605 (dE=-0.186E-04)
 bond charge predicted
       N       E                     dE             d eps       ncg     rms          rms(c)
DAV:   1    -0.125547739948E+03   -0.27531E-04   -0.23430E-03 14208   0.207E-01    0.895E-03
DAV:   2    -0.125547740364E+03   -0.41689E-06   -0.17201E-05 14208   0.191E-02    0.594E-03
DAV:   3    -0.125547740824E+03   -0.45916E-06   -0.31213E-06 15936   0.898E-03
  65 F= -.12713160E+03 E0= -.12713082E+03  d E =-.148227E-04  mag=     0.0000
 curvature:  -2.04 expect dE=-0.414E-04 dE for cont linesearch -0.333E-05
 ZBRENT: increasing intervall
 opt :   2.8462  next Energy=  -127.131605 (dE=-0.191E-04)
 bond charge predicted
       N       E                     dE             d eps       ncg     rms          rms(c)
DAV:   1    -0.125547779238E+03   -0.38874E-04   -0.93980E-03 14208   0.414E-01    0.169E-02
DAV:   2    -0.125547781763E+03   -0.25247E-05   -0.65331E-05 16512   0.355E-02    0.113E-02
DAV:   3    -0.125547781759E+03    0.35652E-08   -0.63472E-06 15072   0.118E-02
  66 F= -.12713161E+03 E0= -.12713082E+03  d E =-.197339E-04  mag=    -0.0000
 curvature:  -2.65 expect dE=-0.255E-03 dE for cont linesearch -0.758E-06
 ZBRENT: bracketing found
 ZBRENT: interpolating
 opt :   2.3418  next Energy=  -127.131607 (dE=-0.206E-04)
 bond charge predicted
       N       E                     dE             d eps       ncg     rms          rms(c)
DAV:   1    -0.125547771535E+03    0.10227E-04   -0.82387E-04 14208   0.123E-01    0.485E-03
DAV:   2    -0.125547771379E+03    0.15661E-06   -0.76266E-06 14208   0.136E-02
  67 F= -.12713161E+03 E0= -.12713082E+03  d E =-.199804E-04  mag=     0.0000
 curvature:  -3.13 expect dE=-0.205E-03 dE for cont linesearch -0.697E-07
 trial: gam= 3.82409 g(F)=  0.656E-04 g(S)=  0.000E+00 ort = 0.991E-06 (trialstep = 0.427E-01)
 search vector abs. value=  0.718E-03
 bond charge predicted
       N       E                     dE             d eps       ncg     rms          rms(c)
DAV:   1    -0.125547777709E+03   -0.61741E-05   -0.10669E-04 14208   0.447E-02    0.135E-03
DAV:   2    -0.125547777464E+03    0.24559E-06   -0.28493E-06 14208   0.899E-03
  68 F= -.12713161E+03 E0= -.12713083E+03  d E =-.272837E-05  mag=     0.0000
 ZBRENT: can't locate minimum, use default step
 trial-energy change:   -0.000003  1 .order   -0.000003   -0.000003   -0.000003
 step:   0.1710(harm=  0.3592)  dis= 0.00033  next Energy=  -127.131618 (dE=-0.125E-04)
 bond charge predicted
       N       E                     dE             d eps       ncg     rms          rms(c)
DAV:   1    -0.125547794679E+03   -0.16970E-04   -0.92535E-04 20880   0.130E-01    0.594E-03
DAV:   2    -0.125547794517E+03    0.16258E-06   -0.41384E-06 15360   0.893E-03
  69 F= -.12713162E+03 E0= -.12713083E+03  d E =-.971095E-05  mag=     0.0000
 curvature:  -1.20 expect dE=-0.457E-04 dE for cont linesearch -0.424E-05
 ZBRENT: increasing intervall
 opt :   0.4274  next Energy=  -127.131626 (dE=-0.199E-04)
 bond charge predicted
       N       E                     dE             d eps       ncg     rms          rms(c)
DAV:   1    -0.125547822240E+03   -0.27561E-04   -0.36448E-03 14208   0.259E-01    0.108E-02
DAV:   2    -0.125547823170E+03   -0.92931E-06   -0.25915E-05 14496   0.223E-02    0.714E-03
DAV:   3    -0.125547822972E+03    0.19776E-06   -0.23929E-06 16128   0.691E-03
  70 F= -.12713162E+03 E0= -.12713084E+03  d E =-.180160E-04  mag=     0.0000
 curvature:  -2.87 expect dE=-0.110E-03 dE for cont linesearch -0.121E-05
 ZBRENT: increasing intervall
 opt :   0.9403  next Energy=  -127.131616 (dE=-0.100E-04)
 bond charge predicted
       N       E                     dE             d eps       ncg     rms          rms(c)
DAV:   1    -0.125547855610E+03   -0.32441E-04   -0.14740E-02 14208   0.519E-01    0.212E-02
DAV:   2    -0.125547859533E+03   -0.39228E-05   -0.10620E-04 18144   0.448E-02    0.140E-02
DAV:   3    -0.125547858346E+03    0.11875E-05   -0.86249E-06 14688   0.121E-02    0.357E-03
DAV:   4    -0.125547858401E+03   -0.55508E-07   -0.16783E-06 14208   0.634E-03
  71 F= -.12713162E+03 E0= -.12713084E+03  d E =-.131124E-04  mag=     0.0000
 curvature:  18.96 expect dE= 0.380E-02 dE for cont linesearch  0.409E-04
 ZBRENT: bracketing found
 ZBRENT: interpolating
 opt :   0.5846  next Energy=  -127.131625 (dE=-0.194E-04)
 bond charge predicted
       N       E                     dE             d eps       ncg     rms          rms(c)
DAV:   1    -0.125547835993E+03    0.22353E-04   -0.70824E-03 14208   0.360E-01    0.145E-02
DAV:   2    -0.125547837552E+03   -0.15592E-05   -0.51789E-05 15552   0.315E-02    0.956E-03
DAV:   3    -0.125547836941E+03    0.61046E-06   -0.48822E-06 21264   0.969E-03
  72 F= -.12713163E+03 E0= -.12713084E+03  d E =-.196273E-04  mag=     0.0000
 curvature:  -0.63 expect dE=-0.415E-04 dE for cont linesearch -0.978E-08
 trial: gam= 1.01701 g(F)=  0.655E-04 g(S)=  0.000E+00 ort = 0.333E-05 (trialstep = 0.133E+00)
 search vector abs. value=  0.814E-03
 bond charge predicted
       N       E                     dE             d eps       ncg     rms          rms(c)
DAV:   1    -0.125547855414E+03   -0.17863E-04   -0.11461E-03 14256   0.145E-01    0.553E-03
DAV:   2    -0.125547855647E+03   -0.23267E-06   -0.95262E-06 19728   0.140E-02
  73 F= -.12713163E+03 E0= -.12713085E+03  d E =-.821609E-05  mag=     0.0000
 ZBRENT: can't locate minimum, use default step
 trial-energy change:   -0.000008  1 .order   -0.000008   -0.000009   -0.000007
 step:   0.5326(harm=  0.6600)  dis= 0.00117  next Energy=  -127.131648 (dE=-0.227E-04)
 bond charge predicted
       N       E                     dE             d eps       ncg     rms          rms(c)
DAV:   1    -0.125547899369E+03   -0.43954E-04   -0.10239E-02 14208   0.433E-01    0.184E-02
DAV:   2    -0.125547901858E+03   -0.24896E-05   -0.76202E-05 14496   0.379E-02    0.122E-02
DAV:   3    -0.125547901110E+03    0.74810E-06   -0.79241E-06 14928   0.122E-02
  74 F= -.12713165E+03 E0= -.12713087E+03  d E =-.222263E-04  mag=    -0.0000
 curvature:  -3.68 expect dE=-0.176E-03 dE for cont linesearch -0.633E-06
 ZBRENT: extrapolating
 opt :   0.6424  next Energy=  -127.131649 (dE=-0.229E-04)
 bond charge predicted
       N       E                     dE             d eps       ncg     rms          rms(c)
DAV:   1    -0.125547910433E+03   -0.85747E-05   -0.77892E-04 14208   0.120E-01    0.535E-03
DAV:   2    -0.125547910642E+03   -0.20920E-06   -0.69945E-06 14208   0.126E-02
  75 F= -.12713165E+03 E0= -.12713087E+03  d E =-.231187E-04  mag=     0.0000
 curvature:  -3.77 expect dE=-0.234E-03 dE for cont linesearch -0.254E-07
 trial: gam= 0.90159 g(F)=  0.619E-04 g(S)=  0.000E+00 ort = 0.234E-05 (trialstep = 0.235E+00)
 search vector abs. value=  0.728E-03
 bond charge predicted
       N       E                     dE             d eps       ncg     rms          rms(c)
DAV:   1    -0.125547939924E+03   -0.29491E-04   -0.30385E-03 14304   0.238E-01    0.103E-02
DAV:   2    -0.125547940638E+03   -0.71449E-06   -0.22740E-05 14208   0.219E-02    0.697E-03
DAV:   3    -0.125547941004E+03   -0.36590E-06   -0.38539E-06 17232   0.101E-02
  76 F= -.12713166E+03 E0= -.12713088E+03  d E =-.148196E-04  mag=    -0.0000
 ZBRENT: can't locate minimum, use default step
 trial-energy change:   -0.000015  1 .order   -0.000014   -0.000015   -0.000013
 step:   0.9400(harm=  1.3980)  dis= 0.00202  next Energy=  -127.131694 (dE=-0.448E-04)
 bond charge predicted
       N       E                     dE             d eps       ncg     rms          rms(c)
DAV:   1    -0.125548004991E+03   -0.64353E-04   -0.27396E-02 14208   0.712E-01    0.283E-02
DAV:   2    -0.125548014419E+03   -0.94285E-05   -0.19586E-04 18576   0.604E-02    0.193E-02
