Lattice                                 
           1
     4.199357    2.424500    0.000000
    -4.199357    2.424500    0.000000
     0.000000    0.000000   15.000000
   B    C 
     4    11
Direct configuration=     1
   0.00415361  0.00267210  0.12034134
   0.35695335  0.00285503  0.09748893
   0.00423858  0.35550699  0.09749256
   0.65142295  0.65006557  0.09747688
   0.32808646  0.32671938  0.10030508
   0.68027775  0.00278085  0.10027562
   0.00416530  0.67883808  0.10026559
   0.08333267  0.41666633  0.33646667
   0.24999967  0.24999933  0.33646667
   0.08333267  0.91666633  0.33646667
   0.24999967  0.74999933  0.33646667
   0.58333267  0.41666633  0.33646667
   0.74999967  0.24999933  0.33646667
   0.58333267  0.91666633  0.33646667
   0.74999967  0.74999933  0.33646667
Direct configuration=     2
   0.00414236  0.00266992  0.11910166
   0.35567332  0.00283040  0.09782025
   0.00413916  0.35443218  0.09788155
   0.65262192  0.65110473  0.09785232
   0.32472471  0.32312425  0.10030093
   0.68401774  0.00285638  0.10032607
   0.00417208  0.68224504  0.10027760
   0.08331722  0.41677872  0.33646336
   0.25017561  0.25026182  0.33656061
   0.08349734  0.91679645  0.33645201
   0.25029854  0.74995711  0.33643663
   0.58328552  0.41664574  0.33642179
   0.74993349  0.25000336  0.33646160
   0.58309058  0.91661549  0.33653706
   0.74953776  0.74977910  0.33648588
Direct configuration=     3
   0.00414808  0.00267103  0.11973183
   0.35632400  0.00284292  0.09765183
   0.00418970  0.35497854  0.09768382
   0.65201245  0.65057649  0.09766147
   0.32643359  0.32495176  0.10030304
   0.68211659  0.00281799  0.10030043
   0.00416863  0.68051318  0.10027149
   0.08332507  0.41672159  0.33646504
   0.25008617  0.25012839  0.33651286
   0.08341363  0.91673031  0.33645946
   0.25014661  0.74997857  0.33645190
   0.58330948  0.41665621  0.33644460
   0.74996713  0.25000131  0.33646417
   0.58321364  0.91664133  0.33650127
   0.74977256  0.74989105  0.33647611
Direct configuration=     4
   0.00414754  0.00269634  0.11865548
   0.35679962  0.00280954  0.09795872
   0.00415743  0.35542086  0.09804813
   0.65163775  0.65003045  0.09801141
   0.32658968  0.32493729  0.10026722
   0.68209604  0.00285439  0.10031600
   0.00418125  0.68040618  0.10025081
   0.08328671  0.41665776  0.33646836
   0.24988834  0.24998597  0.33658676
   0.08321680  0.91664327  0.33645841
   0.24983584  0.75006309  0.33642811
   0.58331591  0.41667963  0.33641659
   0.74996809  0.25002936  0.33645925
   0.58339935  0.91675131  0.33656204
   0.75010697  0.75013523  0.33649204
Direct configuration=     5
   0.00414610  0.00276387  0.11578355
   0.35806870  0.00272049  0.09877758
   0.00407134  0.35660106  0.09902020
   0.65063797  0.64857346  0.09894511
   0.32700618  0.32489871  0.10017165
   0.68204120  0.00295152  0.10035757
   0.00421493  0.68012069  0.10019561
   0.08318435  0.41648745  0.33647720
   0.24936049  0.24960596  0.33678397
   0.08269159  0.91641102  0.33645559
   0.24900664  0.75028859  0.33636462
   0.58333306  0.41674214  0.33634186
   0.74997065  0.25010418  0.33644612
   0.58389487  0.91704477  0.33672418
   0.75099927  0.75078676  0.33653453
Direct configuration=     6
   0.00414970  0.00276803  0.11546906
   0.35818389  0.00271026  0.09885336
   0.00407387  0.35669805  0.09910927
   0.65055230  0.64844872  0.09903080
   0.32708258  0.32494267  0.10017787
   0.68198649  0.00294852  0.10037639
   0.00422177  0.68005505  0.10020570
   0.08318324  0.41654041  0.33647934
   0.24942483  0.24966762  0.33679736
   0.08276023  0.91648494  0.33645840
   0.24912543  0.75027192  0.33636192
   0.58330569  0.41676001  0.33633967
   0.74995735  0.25010872  0.33644595
   0.58378506  0.91700744  0.33673598
   0.75083490  0.75068832  0.33653825
Direct configuration=     7
   0.00416052  0.00278052  0.11452560
   0.35852945  0.00267956  0.09908071
   0.00408145  0.35698899  0.09937650
   0.65029528  0.64807449  0.09928790
   0.32731180  0.32507456  0.10019653
   0.68182236  0.00293952  0.10043285
   0.00424228  0.67985813  0.10023599
   0.08317990  0.41669928  0.33648577
   0.24961787  0.24985259  0.33683755
   0.08296616  0.91670670  0.33646683
   0.24948178  0.75022191  0.33635383
   0.58322358  0.41681361  0.33633308
   0.74991745  0.25012233  0.33644544
   0.58345565  0.91689547  0.33677138
   0.75034181  0.75039300  0.33654939
Direct configuration=     8
   0.00418217  0.00280548  0.11263868
   0.35922057  0.00261817  0.09953540
   0.00409661  0.35757087  0.09991096
   0.64978123  0.64732604  0.09980208
   0.32777023  0.32533833  0.10023385
   0.68149410  0.00292153  0.10054578
   0.00428331  0.67946430  0.10029656
   0.08317322  0.41701704  0.33649862
   0.25000395  0.25022255  0.33691792
   0.08337801  0.91715022  0.33648368
   0.25019447  0.75012188  0.33633763
   0.58305934  0.41692081  0.33631990
   0.74983765  0.25014956  0.33644441
   0.58279683  0.91667152  0.33684218
   0.74935563  0.74980236  0.33657169
Direct configuration=     9
   0.00420238  0.00279275  0.11208274
   0.35924147  0.00259907  0.09962098
   0.00413690  0.35755552  0.10000500
   0.64979431  0.64731479  0.09989378
   0.32784155  0.32540929  0.10030628
   0.68142049  0.00287236  0.10062962
   0.00430738  0.67939399  0.10037273
   0.08316722  0.41699503  0.33650592
   0.25000104  0.25033606  0.33691179
   0.08335772  0.91708336  0.33649805
   0.25016952  0.75014920  0.33634972
   0.58306195  0.41686555  0.33633714
   0.74978498  0.25016912  0.33644992
   0.58282042  0.91670087  0.33683986
   0.74932001  0.74986370  0.33657578
Direct configuration=    10
   0.00426301  0.00275456  0.11041495
   0.35930417  0.00254176  0.09987774
   0.00425777  0.35750947  0.10028715
   0.64983354  0.64728104  0.10016888
   0.32805550  0.32562217  0.10052357
   0.68119964  0.00272483  0.10088114
   0.00437956  0.67918309  0.10060124
   0.08314923  0.41692903  0.33652784
   0.24999231  0.25067658  0.33689339
   0.08329686  0.91688277  0.33654115
   0.25009466  0.75023116  0.33638599
   0.58306977  0.41669977  0.33638886
   0.74962696  0.25022782  0.33646647
   0.58289121  0.91678889  0.33683291
   0.74921314  0.75004772  0.33658806
Direct configuration=    11
   0.00438428  0.00267817  0.10707936
   0.35942957  0.00242715  0.10039127
   0.00449952  0.35741737  0.10085144
   0.64991200  0.64721355  0.10071907
   0.32848340  0.32604793  0.10095814
   0.68075794  0.00242979  0.10138419
   0.00452392  0.67876127  0.10105825
   0.08311323  0.41679701  0.33657168
   0.24997487  0.25135762  0.33685658
   0.08317513  0.91648159  0.33662735
   0.24994495  0.75039509  0.33645851
   0.58308542  0.41636821  0.33649231
   0.74931092  0.25034522  0.33649955
   0.58303279  0.91696495  0.33681901
   0.74899941  0.75041576  0.33661262
Direct configuration=    12
   0.00441324  0.00265085  0.10641530
   0.35943081  0.00240538  0.10049197
   0.00454834  0.35739114  0.10095341
   0.64993630  0.64722696  0.10082075
   0.32852038  0.32608708  0.10105339
   0.68073074  0.00237330  0.10148603
   0.00455470  0.67870772  0.10115627
   0.08305118  0.41685129  0.33657968
   0.24989112  0.25115586  0.33684354
   0.08309949  0.91659108  0.33664461
   0.24986138  0.75037814  0.33647998
   0.58305472  0.41650733  0.33651646
   0.74936679  0.25032837  0.33651038
   0.58302991  0.91702939  0.33680860
   0.74913824  0.75041677  0.33661897
Direct configuration=    13
   0.00450014  0.00256892  0.10442313
   0.35943453  0.00234008  0.10079409
   0.00469479  0.35731244  0.10125934
   0.65000921  0.64726718  0.10112576
   0.32863129  0.32620456  0.10133912
   0.68064916  0.00220383  0.10179155
   0.00464705  0.67854706  0.10145032
   0.08286502  0.41701411  0.33660366
   0.24963987  0.25055058  0.33680442
   0.08287257  0.91691958  0.33669639
   0.24961067  0.75032730  0.33654439
   0.58296261  0.41692470  0.33658891
   0.74953439  0.25027783  0.33654287
   0.58302128  0.91722271  0.33677737
   0.74955475  0.75041979  0.33663800
Direct configuration=    14
   0.00451554  0.00255439  0.10407002
   0.35943519  0.00232850  0.10084764
   0.00472075  0.35729849  0.10131357
   0.65002213  0.64727431  0.10117983
   0.32865095  0.32622538  0.10138977
   0.68063470  0.00217379  0.10184570
   0.00466342  0.67851858  0.10150244
   0.08283203  0.41704297  0.33660791
   0.24959533  0.25044329  0.33679749
   0.08283235  0.91697780  0.33670557
   0.24956623  0.75031829  0.33655580
   0.58294629  0.41699868  0.33660176
   0.74956410  0.25026887  0.33654863
   0.58301976  0.91725698  0.33677184
   0.74962857  0.75042033  0.33664138
Direct configuration=    15
   0.00452296  0.00253470  0.10400307
   0.35944740  0.00232854  0.10087595
   0.00471316  0.35731853  0.10132688
   0.64999797  0.64726933  0.10119751
   0.32857964  0.32613754  0.10139336
   0.68074248  0.00219239  0.10183689
   0.00466487  0.67856848  0.10150361
   0.08286725  0.41704804  0.33660692
   0.24958056  0.25039704  0.33679533
   0.08288727  0.91704531  0.33670340
   0.24959653  0.75036336  0.33656586
   0.58292375  0.41703149  0.33660378
   0.74957268  0.25032826  0.33655639
   0.58294635  0.91714532  0.33676432
   0.74958446  0.75039235  0.33664605
Direct configuration=    16
   0.00453787  0.00249512  0.10386855
   0.35947193  0.00232861  0.10093285
   0.00469790  0.35735879  0.10135364
   0.64994943  0.64725932  0.10123305
   0.32843635  0.32596106  0.10140058
   0.68095906  0.00222975  0.10181919
   0.00466778  0.67866875  0.10150595
   0.08293804  0.41705821  0.33660494
   0.24955089  0.25030410  0.33679099
   0.08299763  0.91718096  0.33669905
   0.24965740  0.75045391  0.33658608
   0.58287845  0.41709741  0.33660785
   0.74958992  0.25044758  0.33657199
   0.58279885  0.91692097  0.33674921
   0.74949583  0.75033612  0.33665543
Direct configuration=    17
   0.00454691  0.00246942  0.10383244
   0.35952026  0.00232992  0.10096847
   0.00468328  0.35738943  0.10136384
   0.64989490  0.64723006  0.10125053
   0.32838733  0.32588784  0.10139626
   0.68105036  0.00226229  0.10179224
   0.00466653  0.67870525  0.10149708
   0.08293957  0.41706302  0.33660447
   0.24956500  0.25035357  0.33678839
   0.08297430  0.91714643  0.33669522
   0.24964191  0.75044425  0.33659744
   0.58287157  0.41707646  0.33660962
   0.74956632  0.25042700  0.33658145
   0.58281995  0.91696174  0.33674142
   0.74949913  0.75035400  0.33666046
Direct configuration=    18
   0.00456903  0.00240655  0.10374409
   0.35963849  0.00233310  0.10105560
   0.00464751  0.35746437  0.10138879
   0.64976151  0.64715849  0.10129331
   0.32826742  0.32570873  0.10138571
   0.68127372  0.00234191  0.10172633
   0.00466347  0.67879452  0.10147538
   0.08294332  0.41707478  0.33660333
   0.24959954  0.25047457  0.33678204
   0.08291723  0.91706198  0.33668583
   0.24960400  0.75042064  0.33662524
   0.58285472  0.41702519  0.33661397
   0.74950858  0.25037664  0.33660460
   0.58287157  0.91706146  0.33672236
   0.74950720  0.75039773  0.33667276
Direct configuration=    19
   0.00458309  0.00237885  0.10370898
   0.35971963  0.00233482  0.10109905
   0.00463641  0.35747699  0.10139532
   0.64969728  0.64711304  0.10131029
   0.32830787  0.32572611  0.10138266
   0.68126168  0.00237159  0.10168767
   0.00466148  0.67876327  0.10146530
   0.08288898  0.41707788  0.33660757
   0.24957153  0.25043320  0.33677726
   0.08290606  0.91709491  0.33668473
   0.24960248  0.75041269  0.33663409
   0.58287484  0.41705367  0.33661914
   0.74953427  0.25038024  0.33661257
   0.58287119  0.91709145  0.33671990
   0.74951055  0.75039197  0.33667481
Direct configuration=    20
   0.00459564  0.00235411  0.10367763
   0.35979209  0.00233635  0.10113784
   0.00462649  0.35748826  0.10140116
   0.64963991  0.64707245  0.10132545
   0.32834399  0.32574162  0.10137995
   0.68125093  0.00239810  0.10165315
   0.00465969  0.67873536  0.10145630
   0.08284046  0.41708064  0.33661135
   0.24954651  0.25039625  0.33677299
   0.08289609  0.91712432  0.33668375
   0.24960112  0.75040558  0.33664199
   0.58289281  0.41707910  0.33662375
   0.74955721  0.25038345  0.33661968
   0.58287085  0.91711823  0.33671771
   0.74951353  0.75038683  0.33667663
Direct configuration=    21
   0.00461124  0.00233371  0.10364348
   0.35982217  0.00233883  0.10117138
   0.00462697  0.35745803  0.10139956
   0.64963510  0.64706912  0.10133371
   0.32839711  0.32578316  0.10138500
   0.68121239  0.00240380  0.10162067
   0.00465996  0.67868741  0.10145411
   0.08286904  0.41707878  0.33661927
   0.24953972  0.25041303  0.33676897
   0.08291031  0.91712939  0.33668639
   0.24959651  0.75044232  0.33664482
   0.58287230  0.41707654  0.33663055
   0.74953858  0.25041813  0.33662340
   0.58284402  0.91706804  0.33672285
   0.74949191  0.75040039  0.33667518
Direct configuration=    22
   0.00461883  0.00232379  0.10362687
   0.35983680  0.00234004  0.10118769
   0.00462720  0.35744333  0.10139878
   0.64963276  0.64706750  0.10133773
   0.32842294  0.32580336  0.10138746
   0.68119365  0.00240656  0.10160488
   0.00466008  0.67866409  0.10145304
   0.08288293  0.41707787  0.33662312
   0.24953642  0.25042119  0.33676702
   0.08291722  0.91713185  0.33668767
   0.24959426  0.75046018  0.33664620
   0.58286233  0.41707530  0.33663386
   0.74952952  0.25043499  0.33662521
   0.58283098  0.91704365  0.33672535
   0.74948140  0.75040698  0.33667447
Direct configuration=    23
   0.00463437  0.00230913  0.10358985
   0.35981197  0.00234174  0.10120945
   0.00463623  0.35739281  0.10139105
   0.64967968  0.64710202  0.10133815
   0.32843520  0.32581001  0.10140007
   0.68119537  0.00239267  0.10158111
   0.00466453  0.67864003  0.10145875
   0.08289075  0.41710034  0.33663140
   0.24954487  0.25044305  0.33676663
   0.08289968  0.91713238  0.33669146
   0.24958209  0.75045537  0.33664678
   0.58283838  0.41708179  0.33663967
   0.74950911  0.25042255  0.33662786
   0.58282492  0.91706665  0.33673407
   0.74948019  0.75041012  0.33667301
Direct configuration=    24
   0.00466265  0.00228246  0.10352251
   0.35976680  0.00234484  0.10124904
   0.00465265  0.35730091  0.10137700
   0.64976504  0.64716482  0.10133893
   0.32845752  0.32582211  0.10142302
   0.68119850  0.00236741  0.10153786
   0.00467262  0.67859627  0.10146915
   0.08290496  0.41714121  0.33664646
   0.24956025  0.25048282  0.33676593
   0.08286776  0.91713334  0.33669836
   0.24955994  0.75044663  0.33664785
   0.58279480  0.41709360  0.33665025
   0.74947198  0.25039992  0.33663269
   0.58281389  0.91710850  0.33674994
   0.74947798  0.75041585  0.33667036
Direct configuration=    25
   0.00467627  0.00227156  0.10348265
   0.35975409  0.00234139  0.10126334
   0.00466430  0.35727235  0.10136882
   0.64979945  0.64717961  0.10133688
   0.32845760  0.32581215  0.10143727
   0.68121474  0.00234888  0.10152038
   0.00468189  0.67858538  0.10147750
   0.08286230  0.41713104  0.33665200
   0.24952885  0.25047105  0.33676981
   0.08286402  0.91715024  0.33670069
   0.24955430  0.75046186  0.33665039
   0.58281227  0.41710439  0.33665341
   0.74948324  0.25042643  0.33663730
   0.58280980  0.91711560  0.33675686
   0.74946424  0.75042877  0.33667203
Direct configuration=    26
   0.00469441  0.00225703  0.10342957
   0.35973717  0.00233680  0.10128239
   0.00467981  0.35723431  0.10135792
   0.64984527  0.64719930  0.10133415
   0.32845770  0.32579887  0.10145626
   0.68123637  0.00232419  0.10149711
   0.00469422  0.67857089  0.10148862
   0.08280547  0.41711749  0.33665939
   0.24948703  0.25045537  0.33677497
   0.08285903  0.91717276  0.33670378
   0.24954678  0.75048214  0.33665378
   0.58283554  0.41711877  0.33665763
   0.74949822  0.25046173  0.33664343
   0.58280436  0.91712505  0.33676609
   0.74944595  0.75044597  0.33667425
Direct configuration=    27
   0.00470550  0.00224990  0.10338483
   0.35976503  0.00232399  0.10128854
   0.00469373  0.35724269  0.10135210
   0.64984322  0.64716840  0.10133146
   0.32846542  0.32578572  0.10146960
   0.68124833  0.00230547  0.10148622
   0.00470966  0.67856515  0.10149765
   0.08280231  0.41712781  0.33666182
   0.24947777  0.25046787  0.33678355
   0.08285136  0.91718195  0.33670486
   0.24953769  0.75049671  0.33665947
   0.58282131  0.41712781  0.33665834
   0.74948410  0.25047463  0.33665060
   0.58278961  0.91712562  0.33677009
   0.74943231  0.75045696  0.33668021
Direct configuration=    28
   0.00473877  0.00222850  0.10325060
   0.35984862  0.00228559  0.10130701
   0.00473549  0.35726782  0.10133464
   0.64983706  0.64707568  0.10132339
   0.32848855  0.32574625  0.10150962
   0.68128422  0.00224928  0.10145355
   0.00475597  0.67854795  0.10152476
   0.08279281  0.41715880  0.33666910
   0.24945002  0.25050537  0.33680930
   0.08282835  0.91720951  0.33670809
   0.24951040  0.75054044  0.33667655
   0.58277861  0.41715494  0.33666046
   0.74944174  0.25051333  0.33667211
   0.58274535  0.91712733  0.33678209
   0.74939136  0.75048990  0.33669807
Direct configuration=    29
   0.00480532  0.00218570  0.10298215
   0.36001580  0.00220878  0.10134395
   0.00481900  0.35731808  0.10129972
   0.64982475  0.64689026  0.10130726
   0.32853483  0.32566731  0.10158965
   0.68135599  0.00213690  0.10138821
   0.00484860  0.67851354  0.10157897
   0.08277380  0.41722077  0.33668365
   0.24939451  0.25058037  0.33686080
   0.08278234  0.91726463  0.33671455
   0.24945584  0.75062789  0.33671070
   0.58269322  0.41720919  0.33666470
   0.74935702  0.25059071  0.33671513
   0.58265683  0.91713075  0.33680608
   0.74930948  0.75055580  0.33673381
Direct configuration=    30
   0.00476383  0.00221238  0.10314952
   0.35991157  0.00225667  0.10132092
   0.00476693  0.35728674  0.10132149
   0.64983243  0.64700586  0.10131731
   0.32850598  0.32571652  0.10153975
   0.68131124  0.00220696  0.10142895
   0.00479085  0.67853499  0.10154517
   0.08278565  0.41718214  0.33667458
   0.24942912  0.25053361  0.33682869
   0.08281102  0.91723026  0.33671052
   0.24948985  0.75057337  0.33668941
   0.58274646  0.41717537  0.33666205
   0.74940984  0.25054247  0.33668831
   0.58271202  0.91712862  0.33679112
   0.74936053  0.75051472  0.33671153
Direct configuration=    31
   0.00477680  0.00220249  0.10309561
   0.35994167  0.00223623  0.10132537
   0.00478329  0.35728877  0.10132255
   0.64983402  0.64697146  0.10131902
   0.32852264  0.32569786  0.10154701
   0.68132521  0.00219152  0.10141862
   0.00480975  0.67852842  0.10154951
   0.08276602  0.41720729  0.33667988
   0.24942283  0.25054453  0.33683593
   0.08278299  0.91724404  0.33671590
   0.24946875  0.75056497  0.33669489
   0.58272734  0.41719445  0.33666694
   0.74939673  0.25053352  0.33669409
   0.58270771  0.91717551  0.33679676
   0.74936160  0.75051958  0.33671727
Direct configuration=    32
   0.00479333  0.00218988  0.10302687
   0.35998003  0.00221018  0.10133105
   0.00480414  0.35729137  0.10132390
   0.64983605  0.64692760  0.10132119
   0.32854388  0.32567408  0.10155626
   0.68134301  0.00217184  0.10140545
   0.00483385  0.67852005  0.10155503
   0.08274100  0.41723935  0.33668664
   0.24941480  0.25055846  0.33684516
   0.08274724  0.91726161  0.33672275
   0.24944185  0.75055426  0.33670188
   0.58270296  0.41721879  0.33667316
   0.74938002  0.25052211  0.33670145
   0.58270221  0.91723530  0.33680395
   0.74936297  0.75052578  0.33672459
Direct configuration=    33
   0.00480996  0.00217463  0.10296048
   0.36000072  0.00218160  0.10133392
   0.00482388  0.35727509  0.10133555
   0.64985438  0.64690177  0.10132999
   0.32857010  0.32564710  0.10155332
   0.68136480  0.00216087  0.10139651
   0.00485573  0.67850750  0.10155146
   0.08271205  0.41724848  0.33669614
   0.24939200  0.25057786  0.33684988
   0.08272754  0.91727452  0.33673424
   0.24942021  0.75057053  0.33670698
   0.58269254  0.41723059  0.33668422
   0.74936602  0.25054311  0.33670500
   0.58269151  0.91725992  0.33681185
   0.74934590  0.75054709  0.33672978
Direct configuration=    34
   0.00485987  0.00212886  0.10276129
   0.36006277  0.00209585  0.10134252
   0.00488310  0.35722627  0.10137050
   0.64990937  0.64682430  0.10135641
   0.32864876  0.32556619  0.10154450
   0.68143016  0.00212797  0.10136969
   0.00492135  0.67846986  0.10154075
   0.08262523  0.41727586  0.33672464
   0.24932358  0.25063605  0.33686404
   0.08266842  0.91731325  0.33676873
   0.24935532  0.75061935  0.33672230
   0.58266128  0.41726597  0.33671740
   0.74932402  0.25060611  0.33671565
   0.58265941  0.91733377  0.33683554
   0.74929468  0.75061099  0.33674538
Direct configuration=    35
   0.00495968  0.00203733  0.10236291
   0.36018687  0.00192436  0.10135972
   0.00500155  0.35712863  0.10144039
   0.65001935  0.64666936  0.10140925
   0.32880610  0.32540436  0.10152686
   0.68156088  0.00206217  0.10131603
   0.00505260  0.67839457  0.10151933
   0.08245158  0.41733063  0.33678163
   0.24918674  0.25075244  0.33689235
   0.08255019  0.91739072  0.33683770
   0.24922553  0.75071698  0.33675293
   0.58259877  0.41733674  0.33678377
   0.74924002  0.25073211  0.33673694
   0.58259522  0.91748147  0.33688293
   0.74919226  0.75073880  0.33677657
Direct configuration=    36
   0.00497248  0.00202545  0.10231701
   0.36019684  0.00190710  0.10136133
   0.00501598  0.35711563  0.10144873
   0.65003634  0.64665674  0.10141549
   0.32882330  0.32538777  0.10152355
   0.68157726  0.00205213  0.10131163
   0.00506701  0.67837992  0.10151612
   0.08244812  0.41734771  0.33678711
   0.24917675  0.25076219  0.33689662
   0.08254112  0.91740690  0.33684450
   0.24921760  0.75073223  0.33675764
   0.58258042  0.41735266  0.33679035
   0.74922397  0.25074391  0.33674056
   0.58257438  0.91748262  0.33688736
   0.74917577  0.75074771  0.33678133
Direct configuration=    37
   0.00501087  0.00198981  0.10217930
   0.36022675  0.00185532  0.10136614
   0.00505928  0.35707664  0.10147374
   0.65008731  0.64661889  0.10143424
   0.32887493  0.32533803  0.10151362
   0.68162641  0.00202198  0.10129842
   0.00511023  0.67833597  0.10150649
   0.08243774  0.41739894  0.33680355
   0.24914677  0.25079144  0.33690943
   0.08251393  0.91745545  0.33686492
   0.24919379  0.75077797  0.33677177
   0.58252539  0.41740042  0.33681010
   0.74917580  0.25077929  0.33675139
   0.58251184  0.91748608  0.33690063
   0.74912631  0.75077445  0.33679560
Direct configuration=    38
   0.00508764  0.00191853  0.10190387
   0.36028656  0.00175176  0.10137576
   0.00514589  0.35699866  0.10152377
   0.65018924  0.64654318  0.10147172
   0.32897818  0.32523853  0.10149376
   0.68172471  0.00196169  0.10127200
   0.00519666  0.67824808  0.10148722
   0.08241698  0.41750140  0.33683643
   0.24908681  0.25084993  0.33693505
   0.08245954  0.91755255  0.33690575
   0.24914616  0.75086944  0.33680002
   0.58241533  0.41749593  0.33684960
   0.74907946  0.25085004  0.33677307
   0.58238676  0.91749300  0.33692718
   0.74902740  0.75082792  0.33682414
Direct configuration=    39
   0.00524119  0.00177598  0.10135303
   0.36040620  0.00154465  0.10139501
   0.00531911  0.35684270  0.10162382
   0.65039309  0.64639177  0.10154668
   0.32918469  0.32503954  0.10145404
   0.68192130  0.00184112  0.10121916
   0.00536954  0.67807230  0.10144868
   0.08237545  0.41770632  0.33690218
   0.24896689  0.25096692  0.33698628
   0.08235077  0.91774674  0.33698740
   0.24905092  0.75105240  0.33685652
   0.58219520  0.41768695  0.33692860
   0.74888678  0.25099155  0.33681642
   0.58213661  0.91750685  0.33698027
   0.74882958  0.75093487  0.33688123
Direct configuration=    40
   0.00514865  0.00186189  0.10168501
   0.36033410  0.00166947  0.10138341
   0.00521471  0.35693669  0.10156352
   0.65027023  0.64648302  0.10150150
   0.32906023  0.32515946  0.10147798
   0.68180282  0.00191379  0.10125101
   0.00526535  0.67817824  0.10147191
   0.08240048  0.41758282  0.33686255
   0.24903917  0.25089641  0.33695540
   0.08241632  0.91762971  0.33693819
   0.24910832  0.75094214  0.33682247
   0.58232787  0.41757183  0.33688099
   0.74900291  0.25090627  0.33679029
   0.58228737  0.91749851  0.33694827
   0.74894880  0.75087042  0.33684682
Direct configuration=    41
   0.00518671  0.00182699  0.10157632
   0.36035511  0.00164318  0.10138606
   0.00525349  0.35689802  0.10157899
   0.65031995  0.64646555  0.10151328
   0.32909576  0.32513509  0.10146806
   0.68183767  0.00187208  0.10125018
   0.00529765  0.67812640  0.10146400
   0.08237039  0.41761547  0.33686941
   0.24900995  0.25092641  0.33697226
   0.08237528  0.91765260  0.33694662
   0.24906691  0.75096623  0.33683989
   0.58229303  0.41760205  0.33688939
   0.74896955  0.25092608  0.33680625
   0.58226468  0.91754179  0.33695423
   0.74893121  0.75090273  0.33686440
Direct configuration=    42
   0.00530087  0.00172227  0.10125027
   0.36041814  0.00156429  0.10139402
   0.00536982  0.35678201  0.10162541
   0.65046910  0.64641312  0.10154862
   0.32920233  0.32506196  0.10143828
   0.68194222  0.00174696  0.10124769
   0.00539454  0.67797085  0.10144030
   0.08228012  0.41771344  0.33688997
   0.24892232  0.25101640  0.33702281
   0.08225214  0.91772130  0.33697189
   0.24894269  0.75103851  0.33689216
   0.58218852  0.41769271  0.33691458
   0.74886947  0.25098552  0.33685410
   0.58219661  0.91767164  0.33697210
   0.74887845  0.75099968  0.33691714
Direct configuration=    43
   0.00552921  0.00151282  0.10059816
   0.36054419  0.00140651  0.10140994
   0.00560248  0.35654999  0.10171825
   0.65076740  0.64630828  0.10161929
   0.32941547  0.32491570  0.10137873
   0.68215133  0.00149672  0.10124272
   0.00558832  0.67765977  0.10139289
   0.08209957  0.41790939  0.33693109
   0.24874704  0.25119638  0.33712392
   0.08200587  0.91785868  0.33702243
   0.24869425  0.75118307  0.33699669
   0.58197950  0.41787402  0.33696496
   0.74866932  0.25110441  0.33694982
   0.58206045  0.91793134  0.33700785
   0.74877292  0.75119358  0.33702261
Direct configuration=    44
   0.00538937  0.00164109  0.10099753
   0.36046699  0.00150314  0.10140019
   0.00545999  0.35669209  0.10166139
   0.65058471  0.64637249  0.10157601
   0.32928494  0.32500527  0.10141520
   0.68202327  0.00164998  0.10124576
   0.00546965  0.67785029  0.10142192
   0.08221014  0.41778939  0.33690591
   0.24885438  0.25108615  0.33706200
   0.08215669  0.91777455  0.33699148
   0.24884640  0.75109454  0.33693267
   0.58210751  0.41776298  0.33693410
   0.74879189  0.25103160  0.33689120
   0.58214384  0.91777229  0.33698596
   0.74883755  0.75107483  0.33695802
Direct configuration=    45
   0.00547491  0.00156294  0.10079558
   0.36055547  0.00146700  0.10140605
   0.00553701  0.35659478  0.10167562
   0.65065913  0.64631879  0.10158865
   0.32934295  0.32497344  0.10139626
   0.68206304  0.00155130  0.10126274
   0.00553459  0.67778673  0.10140936
   0.08209857  0.41780010  0.33692060
   0.24876470  0.25115124  0.33709331
   0.08212567  0.91784093  0.33700465
   0.24880677  0.75116923  0.33696330
   0.58209379  0.41779412  0.33694823
   0.74875721  0.25114264  0.33692258
   0.58208201  0.91780825  0.33700349
   0.74873152  0.75113917  0.33698893
Direct configuration=    46
   0.00549978  0.00154022  0.10073687
   0.36058119  0.00145650  0.10140775
   0.00555941  0.35656649  0.10167976
   0.65068077  0.64630317  0.10159232
   0.32935981  0.32496418  0.10139075
   0.68207461  0.00152261  0.10126768
   0.00555347  0.67776825  0.10140571
   0.08206613  0.41780322  0.33692487
   0.24873862  0.25117017  0.33710241
   0.08211666  0.91786023  0.33700848
   0.24879525  0.75119094  0.33697221
   0.58208980  0.41780317  0.33695233
   0.74874713  0.25117492  0.33693170
   0.58206403  0.91781871  0.33700858
   0.74870069  0.75115787  0.33699792
Direct configuration=    47
   0.00555373  0.00148812  0.10063608
   0.36066698  0.00144291  0.10141398
   0.00559799  0.35650941  0.10167274
   0.65069682  0.64625228  0.10159033
   0.32938001  0.32494460  0.10138096
   0.68209228  0.00146597  0.10129183
   0.00559355  0.67776182  0.10140122
   0.08203890  0.41785044  0.33693925
   0.24871431  0.25119819  0.33711247
   0.08208902  0.91790814  0.33701770
   0.24877724  0.75121615  0.33698078
   0.58204748  0.41784554  0.33696309
   0.74871109  0.25119769  0.33694407
   0.58201426  0.91784596  0.33702846
   0.74865366  0.75117345  0.33700637
Direct configuration=    48
   0.00562324  0.00142100  0.10050622
   0.36077750  0.00142540  0.10142201
   0.00564771  0.35643586  0.10166369
   0.65071751  0.64618672  0.10158777
   0.32940603  0.32491937  0.10136835
   0.68211505  0.00139300  0.10132296
   0.00564520  0.67775354  0.10139544
   0.08200382  0.41791127  0.33695777
   0.24868299  0.25123430  0.33712543
   0.08205342  0.91796986  0.33702959
   0.24875404  0.75124863  0.33699182
   0.58199296  0.41790013  0.33697695
   0.74866466  0.25122703  0.33696001
   0.58195014  0.91788107  0.33705408
   0.74859307  0.75119351  0.33701727
Direct configuration=    49
   0.00568268  0.00135528  0.10040172
   0.36085705  0.00140597  0.10143620
   0.00568207  0.35640394  0.10164659
   0.65073453  0.64613471  0.10158169
   0.32942460  0.32487338  0.10135421
   0.68218456  0.00134446  0.10135623
   0.00569560  0.67770739  0.10138832
   0.08198470  0.41794447  0.33697898
   0.24864078  0.25128533  0.33713040
   0.08198378  0.91796613  0.33704182
   0.24866801  0.75129717  0.33699617
   0.58193971  0.41792831  0.33699216
   0.74860746  0.25125446  0.33697098
   0.58194055  0.91793382  0.33708323
   0.74860125  0.75126585  0.33702064
Direct configuration=    50
   0.00568779  0.00134963  0.10039273
   0.36086389  0.00140430  0.10143742
   0.00568503  0.35640119  0.10164511
   0.65073599  0.64613023  0.10158117
   0.32942620  0.32486943  0.10135299
   0.68219054  0.00134028  0.10135909
   0.00569994  0.67770342  0.10138771
   0.08198305  0.41794733  0.33698080
   0.24863715  0.25128972  0.33713082
   0.08197779  0.91796581  0.33704288
   0.24866061  0.75130135  0.33699654
   0.58193513  0.41793073  0.33699347