  16  16   0  16
  0.2078753E+02  0.5060000E-09  0.5060000E-09  0.1500000E-08  0.5000000E-15
  1.000000000000000E-004
  CAR 
 Lattice                                 
      9.63990374    -21.28118309  301     -1.01608293      1.00000000
    -21.281  0.0000E+00  0.0000E+00  0.0000E+00  0.0000E+00
    -21.178  0.0000E+00  0.0000E+00  0.0000E+00  0.0000E+00
    -21.075  0.0000E+00  0.0000E+00  0.0000E+00  0.0000E+00
    -20.972  0.0000E+00  0.0000E+00  0.0000E+00  0.0000E+00
    -20.869  0.0000E+00  0.0000E+00  0.0000E+00  0.0000E+00
    -20.766  0.0000E+00  0.0000E+00  0.0000E+00  0.0000E+00
    -20.663  0.0000E+00  0.0000E+00  0.0000E+00  0.0000E+00
    -20.560  0.0000E+00  0.0000E+00  0.0000E+00  0.0000E+00
    -20.457  0.5844E-19  0.5844E-19  0.6023E-20  0.6023E-20
    -20.354  0.4092E-14  0.4092E-14  0.4218E-15  0.4218E-15
    -20.250  0.3793E-10  0.3793E-10  0.3909E-11  0.3909E-11
    -20.147  0.4932E-07  0.4932E-07  0.5088E-08  0.5088E-08
    -20.044  0.9717E-05  0.9717E-05  0.1007E-05  0.1007E-05
    -19.941  0.3194E-03  0.3194E-03  0.3393E-04  0.3393E-04
    -19.838  0.2142E-02  0.2142E-02  0.2547E-03  0.2547E-03
    -19.735  0.4426E-02  0.4426E-02  0.7109E-03  0.7109E-03
    -19.632  0.4938E-02  0.4938E-02  0.1220E-02  0.1220E-02
    -19.529  0.5189E-02  0.5189E-02  0.1755E-02  0.1755E-02
    -19.426  0.4691E-02  0.4691E-02  0.2238E-02  0.2238E-02
    -19.323  0.5693E-02  0.5693E-02  0.2825E-02  0.2825E-02
    -19.220  0.4301E-02  0.4301E-02  0.3268E-02  0.3268E-02
    -19.117  0.5321E-02  0.5321E-02  0.3817E-02  0.3817E-02
    -19.014  0.5899E-02  0.5899E-02  0.4425E-02  0.4425E-02
    -18.911  0.3691E-02  0.3691E-02  0.4805E-02  0.4805E-02
    -18.807  0.5401E-02  0.5401E-02  0.5362E-02  0.5362E-02
    -18.704  0.6370E-02  0.6370E-02  0.6018E-02  0.6018E-02
    -18.601  0.4403E-02  0.4403E-02  0.6472E-02  0.6472E-02
    -18.498  0.3483E-02  0.3483E-02  0.6831E-02  0.6831E-02
    -18.395  0.6834E-02  0.6834E-02  0.7536E-02  0.7536E-02
    -18.292  0.5961E-02  0.5961E-02  0.8150E-02  0.8150E-02
    -18.189  0.4245E-02  0.4245E-02  0.8588E-02  0.8588E-02
    -18.086  0.3414E-02  0.3414E-02  0.8940E-02  0.8940E-02
    -17.983  0.6865E-02  0.6865E-02  0.9647E-02  0.9647E-02
    -17.880  0.1114E-01  0.1114E-01  0.1080E-01  0.1080E-01
    -17.777  0.1091E-01  0.1091E-01  0.1192E-01  0.1192E-01
    -17.674  0.1116E-01  0.1116E-01  0.1307E-01  0.1307E-01
    -17.571  0.1303E-01  0.1303E-01  0.1441E-01  0.1441E-01
    -17.468  0.1657E-01  0.1657E-01  0.1612E-01  0.1612E-01
    -17.365  0.2021E-01  0.2021E-01  0.1820E-01  0.1820E-01
    -17.261  0.2049E-01  0.2049E-01  0.2032E-01  0.2032E-01
    -17.158  0.1104E-01  0.1104E-01  0.2145E-01  0.2145E-01
    -17.055  0.5825E-02  0.5825E-02  0.2205E-01  0.2205E-01
    -16.952  0.7374E-02  0.7374E-02  0.2281E-01  0.2281E-01
    -16.849  0.6744E-02  0.6744E-02  0.2351E-01  0.2351E-01
    -16.746  0.5501E-02  0.5501E-02  0.2408E-01  0.2408E-01
    -16.643  0.4553E-02  0.4553E-02  0.2455E-01  0.2455E-01
    -16.540  0.2627E-02  0.2627E-02  0.2482E-01  0.2482E-01
    -16.437  0.4821E-02  0.4821E-02  0.2531E-01  0.2531E-01
    -16.334  0.9321E-02  0.9321E-02  0.2627E-01  0.2627E-01
    -16.231  0.6119E-02  0.6119E-02  0.2690E-01  0.2690E-01
    -16.128  0.4801E-02  0.4801E-02  0.2740E-01  0.2740E-01
    -16.025  0.4355E-02  0.4355E-02  0.2785E-01  0.2785E-01
    -15.922  0.4113E-02  0.4113E-02  0.2827E-01  0.2827E-01
    -15.818  0.4053E-02  0.4053E-02  0.2869E-01  0.2869E-01
    -15.715  0.9220E-02  0.9220E-02  0.2964E-01  0.2964E-01
    -15.612  0.1090E-01  0.1090E-01  0.3076E-01  0.3076E-01
    -15.509  0.1250E-01  0.1250E-01  0.3205E-01  0.3205E-01
    -15.406  0.1579E-01  0.1579E-01  0.3368E-01  0.3368E-01
    -15.303  0.1585E-01  0.1585E-01  0.3531E-01  0.3531E-01
    -15.200  0.1291E-01  0.1291E-01  0.3664E-01  0.3664E-01
    -15.097  0.1545E-01  0.1545E-01  0.3824E-01  0.3824E-01
    -14.994  0.1801E-01  0.1801E-01  0.4009E-01  0.4009E-01
    -14.891  0.1584E-01  0.1584E-01  0.4172E-01  0.4172E-01
    -14.788  0.1215E-01  0.1215E-01  0.4298E-01  0.4298E-01
    -14.685  0.9334E-02  0.9334E-02  0.4394E-01  0.4394E-01
    -14.582  0.1075E-01  0.1075E-01  0.4505E-01  0.4505E-01
    -14.479  0.1679E-01  0.1679E-01  0.4678E-01  0.4678E-01
    -14.375  0.1883E-01  0.1883E-01  0.4872E-01  0.4872E-01
    -14.272  0.1452E-01  0.1452E-01  0.5022E-01  0.5022E-01
    -14.169  0.1033E-01  0.1033E-01  0.5128E-01  0.5128E-01
    -14.066  0.8727E-02  0.8727E-02  0.5218E-01  0.5218E-01
    -13.963  0.8177E-02  0.8177E-02  0.5302E-01  0.5302E-01
    -13.860  0.8779E-02  0.8779E-02  0.5393E-01  0.5393E-01
    -13.757  0.5876E-02  0.5876E-02  0.5453E-01  0.5453E-01
    -13.654  0.3252E-02  0.3252E-02  0.5487E-01  0.5487E-01
    -13.551  0.4638E-02  0.4638E-02  0.5535E-01  0.5535E-01
    -13.448  0.4570E-02  0.4570E-02  0.5582E-01  0.5582E-01
    -13.345  0.6300E-02  0.6300E-02  0.5647E-01  0.5647E-01
    -13.242  0.5959E-02  0.5959E-02  0.5708E-01  0.5708E-01
    -13.139  0.6470E-02  0.6470E-02  0.5775E-01  0.5775E-01
    -13.036  0.8387E-02  0.8387E-02  0.5861E-01  0.5861E-01
    -12.932  0.7873E-02  0.7873E-02  0.5942E-01  0.5942E-01
    -12.829  0.8073E-02  0.8073E-02  0.6026E-01  0.6026E-01
    -12.726  0.5915E-02  0.5915E-02  0.6087E-01  0.6087E-01
    -12.623  0.7085E-02  0.7085E-02  0.6160E-01  0.6160E-01
    -12.520  0.4971E-02  0.4971E-02  0.6211E-01  0.6211E-01
    -12.417  0.4551E-02  0.4551E-02  0.6258E-01  0.6258E-01
    -12.314  0.8411E-02  0.8411E-02  0.6344E-01  0.6344E-01
    -12.211  0.5757E-02  0.5757E-02  0.6404E-01  0.6404E-01
    -12.108  0.5556E-02  0.5556E-02  0.6461E-01  0.6461E-01
    -12.005  0.1050E-01  0.1050E-01  0.6569E-01  0.6569E-01
    -11.902  0.1567E-01  0.1567E-01  0.6731E-01  0.6731E-01
    -11.799  0.1532E-01  0.1532E-01  0.6889E-01  0.6889E-01
    -11.696  0.1387E-01  0.1387E-01  0.7032E-01  0.7032E-01
    -11.593  0.1539E-01  0.1539E-01  0.7190E-01  0.7190E-01
    -11.490  0.1737E-01  0.1737E-01  0.7369E-01  0.7369E-01
    -11.386  0.1138E-01  0.1138E-01  0.7487E-01  0.7487E-01
    -11.283  0.9627E-02  0.9627E-02  0.7586E-01  0.7586E-01
    -11.180  0.9688E-02  0.9688E-02  0.7686E-01  0.7686E-01
    -11.077  0.1089E-01  0.1089E-01  0.7798E-01  0.7798E-01
    -10.974  0.8471E-02  0.8471E-02  0.7885E-01  0.7885E-01
    -10.871  0.6929E-02  0.6929E-02  0.7957E-01  0.7957E-01
    -10.768  0.1283E-01  0.1283E-01  0.8089E-01  0.8089E-01
    -10.665  0.1601E-01  0.1601E-01  0.8254E-01  0.8254E-01
    -10.562  0.1105E-01  0.1105E-01  0.8368E-01  0.8368E-01
    -10.459  0.6410E-02  0.6410E-02  0.8434E-01  0.8434E-01
    -10.356  0.1138E-01  0.1138E-01  0.8551E-01  0.8551E-01
    -10.253  0.1795E-01  0.1795E-01  0.8736E-01  0.8736E-01
    -10.150  0.1632E-01  0.1632E-01  0.8904E-01  0.8904E-01
    -10.047  0.9999E-02  0.9999E-02  0.9007E-01  0.9007E-01
     -9.943  0.9440E-02  0.9440E-02  0.9105E-01  0.9105E-01
     -9.840  0.1061E-01  0.1061E-01  0.9214E-01  0.9214E-01
     -9.737  0.1158E-01  0.1158E-01  0.9333E-01  0.9333E-01
     -9.634  0.7280E-02  0.7280E-02  0.9408E-01  0.9408E-01
     -9.531  0.1099E-01  0.1099E-01  0.9522E-01  0.9522E-01
     -9.428  0.1155E-01  0.1155E-01  0.9641E-01  0.9641E-01
     -9.325  0.1090E-01  0.1090E-01  0.9753E-01  0.9753E-01
     -9.222  0.8919E-02  0.8919E-02  0.9845E-01  0.9845E-01
     -9.119  0.2783E-02  0.2783E-02  0.9874E-01  0.9874E-01
     -9.016  0.2376E-02  0.2376E-02  0.9898E-01  0.9898E-01
     -8.913  0.1216E-01  0.1216E-01  0.1002E+00  0.1002E+00
     -8.810  0.2008E-01  0.2008E-01  0.1023E+00  0.1023E+00
     -8.707  0.1617E-01  0.1617E-01  0.1040E+00  0.1040E+00
     -8.604  0.1024E-01  0.1024E-01  0.1050E+00  0.1050E+00
     -8.500  0.7627E-02  0.7627E-02  0.1058E+00  0.1058E+00
     -8.397  0.9169E-02  0.9169E-02  0.1068E+00  0.1068E+00
     -8.294  0.1478E-01  0.1478E-01  0.1083E+00  0.1083E+00
     -8.191  0.2384E-01  0.2384E-01  0.1107E+00  0.1107E+00
     -8.088  0.2186E-01  0.2186E-01  0.1130E+00  0.1130E+00
     -7.985  0.1936E-01  0.1936E-01  0.1150E+00  0.1150E+00
     -7.882  0.1463E-01  0.1463E-01  0.1165E+00  0.1165E+00
     -7.779  0.1393E-01  0.1393E-01  0.1179E+00  0.1179E+00
     -7.676  0.2100E-01  0.2100E-01  0.1201E+00  0.1201E+00
     -7.573  0.2608E-01  0.2608E-01  0.1228E+00  0.1228E+00
     -7.470  0.2431E-01  0.2431E-01  0.1253E+00  0.1253E+00
     -7.367  0.2244E-01  0.2244E-01  0.1276E+00  0.1276E+00
     -7.264  0.2507E-01  0.2507E-01  0.1302E+00  0.1302E+00
     -7.161  0.2367E-01  0.2367E-01  0.1326E+00  0.1326E+00
     -7.057  0.2612E-01  0.2612E-01  0.1353E+00  0.1353E+00
     -6.954  0.2313E-01  0.2313E-01  0.1377E+00  0.1377E+00
     -6.851  0.1851E-01  0.1851E-01  0.1396E+00  0.1396E+00
     -6.748  0.2559E-01  0.2559E-01  0.1422E+00  0.1422E+00
     -6.645  0.2602E-01  0.2602E-01  0.1449E+00  0.1449E+00
     -6.542  0.2084E-01  0.2084E-01  0.1471E+00  0.1471E+00
     -6.439  0.2497E-01  0.2497E-01  0.1497E+00  0.1497E+00
     -6.336  0.2404E-01  0.2404E-01  0.1521E+00  0.1521E+00
     -6.233  0.2483E-01  0.2483E-01  0.1547E+00  0.1547E+00
     -6.130  0.1825E-01  0.1825E-01  0.1566E+00  0.1566E+00
     -6.027  0.1549E-01  0.1549E-01  0.1582E+00  0.1582E+00
     -5.924  0.2113E-01  0.2113E-01  0.1603E+00  0.1603E+00
     -5.821  0.2703E-01  0.2703E-01  0.1631E+00  0.1631E+00
     -5.718  0.2181E-01  0.2181E-01  0.1654E+00  0.1654E+00
     -5.614  0.1784E-01  0.1784E-01  0.1672E+00  0.1672E+00
     -5.511  0.2190E-01  0.2190E-01  0.1695E+00  0.1695E+00
     -5.408  0.2732E-01  0.2732E-01  0.1723E+00  0.1723E+00
     -5.305  0.2848E-01  0.2848E-01  0.1752E+00  0.1752E+00
     -5.202  0.1891E-01  0.1891E-01  0.1772E+00  0.1772E+00
     -5.099  0.1341E-01  0.1341E-01  0.1786E+00  0.1786E+00
     -4.996  0.1703E-01  0.1703E-01  0.1803E+00  0.1803E+00
     -4.893  0.1799E-01  0.1799E-01  0.1822E+00  0.1822E+00
     -4.790  0.1626E-01  0.1626E-01  0.1838E+00  0.1838E+00
     -4.687  0.1753E-01  0.1753E-01  0.1856E+00  0.1856E+00
     -4.584  0.1750E-01  0.1750E-01  0.1875E+00  0.1875E+00
     -4.481  0.1603E-01  0.1603E-01  0.1891E+00  0.1891E+00
     -4.378  0.1859E-01  0.1859E-01  0.1910E+00  0.1910E+00
     -4.275  0.2333E-01  0.2333E-01  0.1934E+00  0.1934E+00
     -4.172  0.3325E-01  0.3325E-01  0.1969E+00  0.1969E+00
     -4.068  0.4103E-01  0.4103E-01  0.2011E+00  0.2011E+00
     -3.965  0.3124E-01  0.3124E-01  0.2043E+00  0.2043E+00
     -3.862  0.2180E-01  0.2180E-01  0.2065E+00  0.2065E+00
     -3.759  0.1474E-01  0.1474E-01  0.2081E+00  0.2081E+00
     -3.656  0.1449E-01  0.1449E-01  0.2096E+00  0.2096E+00
     -3.553  0.1691E-01  0.1691E-01  0.2113E+00  0.2113E+00
     -3.450  0.2193E-01  0.2193E-01  0.2136E+00  0.2136E+00
     -3.347  0.2029E-01  0.2029E-01  0.2157E+00  0.2157E+00
     -3.244  0.1333E-01  0.1333E-01  0.2170E+00  0.2170E+00
     -3.141  0.1357E-01  0.1357E-01  0.2184E+00  0.2184E+00
     -3.038  0.1963E-01  0.1963E-01  0.2205E+00  0.2205E+00
     -2.935  0.2639E-01  0.2639E-01  0.2232E+00  0.2232E+00
     -2.832  0.1857E-01  0.1857E-01  0.2251E+00  0.2251E+00
     -2.729  0.1037E-01  0.1037E-01  0.2262E+00  0.2262E+00
     -2.625  0.1386E-01  0.1386E-01  0.2276E+00  0.2276E+00
     -2.522  0.2178E-01  0.2178E-01  0.2298E+00  0.2298E+00
     -2.419  0.1903E-01  0.1903E-01  0.2318E+00  0.2318E+00
     -2.316  0.1995E-01  0.1995E-01  0.2338E+00  0.2338E+00
     -2.213  0.2426E-01  0.2426E-01  0.2363E+00  0.2363E+00
     -2.110  0.1421E-01  0.1421E-01  0.2378E+00  0.2378E+00
     -2.007  0.4309E-02  0.4309E-02  0.2383E+00  0.2383E+00
     -1.904  0.6843E-02  0.6843E-02  0.2390E+00  0.2390E+00
     -1.801  0.7062E-02  0.7062E-02  0.2397E+00  0.2397E+00
     -1.698  0.4954E-02  0.4954E-02  0.2402E+00  0.2402E+00
     -1.595  0.7107E-02  0.7107E-02  0.2409E+00  0.2409E+00
     -1.492  0.5909E-02  0.5909E-02  0.2415E+00  0.2415E+00
     -1.389  0.3596E-02  0.3596E-02  0.2419E+00  0.2419E+00
     -1.286  0.1427E-02  0.1427E-02  0.2421E+00  0.2421E+00
     -1.182  0.2133E-03  0.2133E-03  0.2421E+00  0.2421E+00
     -1.079  0.3336E-03  0.3336E-03  0.2421E+00  0.2421E+00
     -0.976  0.1372E-02  0.1372E-02  0.2423E+00  0.2423E+00
     -0.873  0.2517E-02  0.2517E-02  0.2425E+00  0.2425E+00
     -0.770  0.3262E-02  0.3262E-02  0.2429E+00  0.2429E+00
     -0.667  0.4731E-02  0.4731E-02  0.2433E+00  0.2433E+00
     -0.564  0.9117E-02  0.9117E-02  0.2443E+00  0.2443E+00
     -0.461  0.9668E-02  0.9668E-02  0.2453E+00  0.2453E+00
     -0.358  0.9462E-02  0.9462E-02  0.2463E+00  0.2463E+00
     -0.255  0.9787E-02  0.9787E-02  0.2473E+00  0.2473E+00
     -0.152  0.1103E-01  0.1103E-01  0.2484E+00  0.2484E+00
     -0.049  0.9524E-02  0.9524E-02  0.2494E+00  0.2494E+00
      0.054  0.3324E-02  0.3324E-02  0.2497E+00  0.2497E+00
      0.157  0.5962E-02  0.5962E-02  0.2503E+00  0.2503E+00
      0.261  0.1027E-01  0.1027E-01  0.2514E+00  0.2514E+00
      0.364  0.7358E-02  0.7358E-02  0.2522E+00  0.2522E+00
      0.467  0.6379E-02  0.6379E-02  0.2528E+00  0.2528E+00
      0.570  0.8312E-02  0.8312E-02  0.2537E+00  0.2537E+00
      0.673  0.1079E-01  0.1079E-01  0.2548E+00  0.2548E+00
      0.776  0.9499E-02  0.9499E-02  0.2558E+00  0.2558E+00
      0.879  0.1097E-01  0.1097E-01  0.2569E+00  0.2569E+00
      0.982  0.7348E-02  0.7348E-02  0.2576E+00  0.2576E+00
      1.085  0.4642E-02  0.4642E-02  0.2581E+00  0.2581E+00
      1.188  0.5735E-02  0.5735E-02  0.2587E+00  0.2587E+00
      1.291  0.4734E-02  0.4734E-02  0.2592E+00  0.2592E+00
      1.394  0.4195E-02  0.4195E-02  0.2596E+00  0.2596E+00
      1.497  0.4664E-02  0.4664E-02  0.2601E+00  0.2601E+00
      1.600  0.1129E-01  0.1129E-01  0.2613E+00  0.2613E+00
      1.703  0.9433E-02  0.9433E-02  0.2623E+00  0.2623E+00
      1.807  0.2672E-02  0.2672E-02  0.2625E+00  0.2625E+00
      1.910  0.4275E-02  0.4275E-02  0.2630E+00  0.2630E+00
      2.013  0.5327E-02  0.5327E-02  0.2635E+00  0.2635E+00
      2.116  0.7328E-02  0.7328E-02  0.2643E+00  0.2643E+00
      2.219  0.1458E-01  0.1458E-01  0.2658E+00  0.2658E+00
      2.322  0.1437E-01  0.1437E-01  0.2673E+00  0.2673E+00
      2.425  0.1259E-01  0.1259E-01  0.2686E+00  0.2686E+00
      2.528  0.1338E-01  0.1338E-01  0.2699E+00  0.2699E+00
      2.631  0.1032E-01  0.1032E-01  0.2710E+00  0.2710E+00
      2.734  0.7757E-02  0.7757E-02  0.2718E+00  0.2718E+00
      2.837  0.9073E-02  0.9073E-02  0.2727E+00  0.2727E+00
      2.940  0.1058E-01  0.1058E-01  0.2738E+00  0.2738E+00
      3.043  0.1368E-01  0.1368E-01  0.2752E+00  0.2752E+00
      3.146  0.1580E-01  0.1580E-01  0.2769E+00  0.2769E+00
      3.250  0.1274E-01  0.1274E-01  0.2782E+00  0.2782E+00
      3.353  0.8138E-02  0.8138E-02  0.2790E+00  0.2790E+00
      3.456  0.7963E-02  0.7963E-02  0.2798E+00  0.2798E+00
      3.559  0.1406E-01  0.1406E-01  0.2813E+00  0.2813E+00
      3.662  0.1097E-01  0.1097E-01  0.2824E+00  0.2824E+00
      3.765  0.8420E-02  0.8420E-02  0.2833E+00  0.2833E+00
      3.868  0.1466E-01  0.1466E-01  0.2848E+00  0.2848E+00
      3.971  0.1875E-01  0.1875E-01  0.2867E+00  0.2867E+00
      4.074  0.1695E-01  0.1695E-01  0.2885E+00  0.2885E+00
      4.177  0.1343E-01  0.1343E-01  0.2899E+00  0.2899E+00
      4.280  0.1297E-01  0.1297E-01  0.2912E+00  0.2912E+00
      4.383  0.1519E-01  0.1519E-01  0.2928E+00  0.2928E+00
      4.486  0.1417E-01  0.1417E-01  0.2942E+00  0.2942E+00
      4.589  0.1571E-01  0.1570E-01  0.2958E+00  0.2958E+00
      4.693  0.1388E-01  0.1388E-01  0.2973E+00  0.2973E+00
      4.796  0.1760E-01  0.1761E-01  0.2991E+00  0.2991E+00
      4.899  0.1938E-01  0.1938E-01  0.3011E+00  0.3011E+00
      5.002  0.1837E-01  0.1837E-01  0.3030E+00  0.3030E+00
      5.105  0.1697E-01  0.1697E-01  0.3047E+00  0.3047E+00
      5.208  0.1519E-01  0.1519E-01  0.3063E+00  0.3063E+00
      5.311  0.1460E-01  0.1460E-01  0.3078E+00  0.3078E+00
      5.414  0.1947E-01  0.1947E-01  0.3098E+00  0.3098E+00
      5.517  0.1964E-01  0.1964E-01  0.3118E+00  0.3118E+00
      5.620  0.1620E-01  0.1620E-01  0.3135E+00  0.3135E+00
      5.723  0.1946E-01  0.1946E-01  0.3155E+00  0.3155E+00
      5.826  0.2673E-01  0.2673E-01  0.3183E+00  0.3183E+00
      5.929  0.2354E-01  0.2354E-01  0.3207E+00  0.3207E+00
      6.032  0.2323E-01  0.2323E-01  0.3231E+00  0.3231E+00
      6.136  0.2712E-01  0.2712E-01  0.3259E+00  0.3259E+00
      6.239  0.2677E-01  0.2677E-01  0.3286E+00  0.3286E+00
      6.342  0.2639E-01  0.2639E-01  0.3314E+00  0.3314E+00
      6.445  0.2203E-01  0.2203E-01  0.3336E+00  0.3336E+00
      6.548  0.1988E-01  0.1988E-01  0.3357E+00  0.3357E+00
      6.651  0.2789E-01  0.2789E-01  0.3385E+00  0.3385E+00
      6.754  0.3244E-01  0.3244E-01  0.3419E+00  0.3419E+00
      6.857  0.3024E-01  0.3024E-01  0.3450E+00  0.3450E+00
      6.960  0.3425E-01  0.3425E-01  0.3485E+00  0.3485E+00
      7.063  0.3105E-01  0.3105E-01  0.3517E+00  0.3517E+00
      7.166  0.3243E-01  0.3244E-01  0.3551E+00  0.3551E+00
      7.269  0.3642E-01  0.3642E-01  0.3588E+00  0.3588E+00
      7.372  0.3344E-01  0.3344E-01  0.3623E+00  0.3623E+00
      7.475  0.2510E-01  0.2509E-01  0.3649E+00  0.3649E+00
      7.578  0.2136E-01  0.2136E-01  0.3671E+00  0.3671E+00
      7.682  0.2641E-01  0.2641E-01  0.3698E+00  0.3698E+00
      7.785  0.1966E-01  0.1966E-01  0.3718E+00  0.3718E+00
      7.888  0.1410E-01  0.1410E-01  0.3733E+00  0.3733E+00
      7.991  0.9280E-02  0.9280E-02  0.3742E+00  0.3742E+00
      8.094  0.3550E-02  0.3550E-02  0.3746E+00  0.3746E+00
      8.197  0.1654E-02  0.1654E-02  0.3748E+00  0.3748E+00
      8.300  0.1727E-02  0.1727E-02  0.3749E+00  0.3749E+00
      8.403  0.5326E-03  0.5325E-03  0.3750E+00  0.3750E+00
      8.506  0.2676E-04  0.2675E-04  0.3750E+00  0.3750E+00
      8.609  0.1918E-06  0.1917E-06  0.3750E+00  0.3750E+00
      8.712  0.1823E-09  0.1822E-09  0.3750E+00  0.3750E+00
      8.815  0.2207E-13  0.2205E-13  0.3750E+00  0.3750E+00
      8.918  0.3506E-18  0.3506E-18  0.3750E+00  0.3750E+00
      9.021  0.0000E+00  0.0000E+00  0.3750E+00  0.3750E+00
      9.125  0.0000E+00  0.0000E+00  0.3750E+00  0.3750E+00
      9.228  0.0000E+00  0.0000E+00  0.3750E+00  0.3750E+00
      9.331  0.0000E+00  0.0000E+00  0.3750E+00  0.3750E+00
      9.434  0.0000E+00  0.0000E+00  0.3750E+00  0.3750E+00
      9.537  0.0000E+00  0.0000E+00  0.3750E+00  0.3750E+00
      9.640  0.0000E+00  0.0000E+00  0.3750E+00  0.3750E+00
