Lattice                                 
           1
     4.382089    2.530000    0.000000
    -4.382089    2.530000    0.000000
     0.000000    0.000000   15.000000
   B    C 
     2    14
Direct configuration=     1
   0.33833034  0.66916432  0.10000000
   0.67165522  0.33584146  0.10000000
   0.16373946  0.31999962  0.10000000
   0.32250218  0.16126397  0.10000000
   0.16376430  0.84376384  0.10000000
   0.84623863  0.16123684  0.10000000
   0.68749850  0.84373000  0.10000000
   0.84626736  0.68499594  0.10000000
   0.16666600  0.33333300  0.32880000
   0.33333300  0.16666600  0.32880000
   0.16666600  0.83333300  0.32880000
   0.33333300  0.66666600  0.32880000
   0.66666600  0.33333300  0.32880000
   0.83333300  0.16666600  0.32880000
   0.66666600  0.83333300  0.32880000
   0.83333300  0.66666600  0.32880000
Direct configuration=     2
   0.33832784  0.66916271  0.10014706
   0.67167517  0.33581298  0.10014706
   0.16652130  0.32557183  0.09994393
   0.32806790  0.16404303  0.09994359
   0.16655131  0.84096720  0.09994394
   0.84344433  0.16402141  0.09994426
   0.68195102  0.84097549  0.09994444
   0.84346856  0.67944695  0.09994425
   0.16635955  0.33271664  0.32887382
   0.33271593  0.16635851  0.32887442
   0.16635959  0.83364089  0.32887382
   0.33332705  0.66666408  0.32860138
   0.66666154  0.33332980  0.32860139
   0.83364039  0.16636055  0.32887245
   0.66728014  0.83363908  0.32887171
   0.83364036  0.66728086  0.32887247
Direct configuration=     3
   0.33832965  0.66916387  0.10004107
   0.67166079  0.33583351  0.10004106
   0.16451625  0.32155558  0.09998434
   0.32405633  0.16203998  0.09998425
   0.16454253  0.84298292  0.09998435
   0.84545836  0.16201439  0.09998444
   0.68594945  0.84296085  0.09998449
   0.84548583  0.68344647  0.09998443
   0.16658043  0.33316089  0.32882061
   0.33316069  0.16658014  0.32882078
   0.16658044  0.83341897  0.32882061
   0.33333134  0.66666546  0.32874454
   0.66666475  0.33333211  0.32874454
   0.83341884  0.16658071  0.32882023
   0.66683749  0.83341847  0.32882002
   0.83341883  0.66683769  0.32882024
Direct configuration=     4
   0.33833476  0.66916457  0.10014148
   0.67166423  0.33583031  0.10014147
   0.16450869  0.32153893  0.09994570
   0.32404225  0.16202697  0.09994537
   0.16452656  0.84298751  0.09994570
   0.84547785  0.16201482  0.09994612
   0.68596086  0.84297648  0.09994626
   0.84549394  0.68346286  0.09994612
   0.16654254  0.33308704  0.32886841
   0.33308618  0.16654278  0.32886900
   0.16654254  0.83345518  0.32886841
   0.33332996  0.66666467  0.32861771
   0.66666328  0.33333146  0.32861771
   0.83345441  0.16654345  0.32886709
   0.66690954  0.83345460  0.32886635
   0.83345442  0.66691037  0.32886709
Direct configuration=     5
   0.33833643  0.66916479  0.10017442
   0.67166536  0.33582927  0.10017439
   0.16450622  0.32153347  0.09993303
   0.32403763  0.16202271  0.09993261
   0.16452132  0.84298902  0.09993303
   0.84548425  0.16201496  0.09993356
   0.68596460  0.84298160  0.09993373
   0.84549659  0.68346824  0.09993355
   0.16653012  0.33306282  0.32888409
   0.33306175  0.16653053  0.32888482
   0.16653010  0.83346705  0.32888409
   0.33332951  0.66666441  0.32857612
   0.66666280  0.33333125  0.32857612
   0.83346607  0.16653123  0.32888245
   0.66693316  0.83346645  0.32888154
   0.83346609  0.66693420  0.32888245
Direct configuration=     6
   0.33832041  0.66916560  0.10023621
   0.67166874  0.33583682  0.10023618
   0.16454780  0.32155296  0.09990692
   0.32404402  0.16203089  0.09990622
   0.16454275  0.84297977  0.09990693
   0.84546145  0.16201210  0.09990790
   0.68597990  0.84297510  0.09990819
   0.84546050  0.68345725  0.09990786
   0.16661822  0.33324117  0.32889968
   0.33323931  0.16661970  0.32890074
   0.16661823  0.83337609  0.32889968
   0.33332819  0.66666415  0.32854631
   0.66666184  0.33333046  0.32854631
   0.83337426  0.16662021  0.32889737
   0.66675216  0.83337561  0.32889611
   0.83337424  0.66675410  0.32889737
Direct configuration=     7
   0.33832958  0.66916514  0.10020084
   0.67166680  0.33583250  0.10020081
   0.16452400  0.32154180  0.09992186
   0.32404036  0.16202621  0.09992133
   0.16453048  0.84298506  0.09992187
   0.84547450  0.16201374  0.09992259
   0.68597114  0.84297882  0.09992281
   0.84548116  0.68346354  0.09992257
   0.16656779  0.33313908  0.32889076
   0.33313767  0.16656866  0.32889162
   0.16656778  0.83342816  0.32889076
   0.33332895  0.66666430  0.32856337
   0.66666239  0.33333091  0.32856337
   0.83342681  0.16656928  0.32888883
   0.66685577  0.83342761  0.32888777
   0.83342682  0.66685719  0.32888883
Direct configuration=     8
   0.33832982  0.66916513  0.10019993
   0.67166675  0.33583238  0.10019991
   0.16452338  0.32154151  0.09992225
   0.32404027  0.16202609  0.09992172
   0.16453017  0.84298520  0.09992226
   0.84547483  0.16201378  0.09992297
   0.68597092  0.84297892  0.09992318
   0.84548169  0.68346370  0.09992295
   0.16656649  0.33313646  0.32889053
   0.33313506  0.16656735  0.32889139
   0.16656649  0.83342950  0.32889053
   0.33332897  0.66666431  0.32856381
   0.66666240  0.33333092  0.32856381
   0.83342816  0.16656797  0.32888861
   0.66685843  0.83342894  0.32888756
   0.83342817  0.66685984  0.32888861
Direct configuration=     9
   0.33834079  0.66916797  0.10021828
   0.67165990  0.33583328  0.10021826
   0.16450553  0.32153905  0.09991208
   0.32405306  0.16202075  0.09991138
   0.16451196  0.84298147  0.09991208
   0.84549787  0.16202369  0.09991311
   0.68595407  0.84298174  0.09991350
   0.84550455  0.68346364  0.09991311
   0.16656563  0.33313679  0.32888944
   0.33313475  0.16656710  0.32889045
   0.16656564  0.83342855  0.32888944
   0.33332773  0.66666359  0.32857918
   0.66666106  0.33333038  0.32857918
   0.83342658  0.16656770  0.32888723
   0.66685631  0.83342801  0.32888604
   0.83342657  0.66685830  0.32888723
Direct configuration=    10
   0.33834003  0.66916777  0.10021701
   0.67166037  0.33583321  0.10021698
   0.16450676  0.32153922  0.09991279
   0.32405217  0.16202112  0.09991210
   0.16451322  0.84298173  0.09991279
   0.84549628  0.16202300  0.09991380
   0.68595524  0.84298155  0.09991417
   0.84550296  0.68346365  0.09991379
   0.16656569  0.33313676  0.32888951
   0.33313477  0.16656711  0.32889051
   0.16656570  0.83342861  0.32888951
   0.33332782  0.66666364  0.32857812
   0.66666115  0.33333042  0.32857811
   0.83342669  0.16656772  0.32888733
   0.66685646  0.83342807  0.32888614
   0.83342668  0.66685840  0.32888733
Direct configuration=    11
   0.33833722  0.66916787  0.10022551
   0.67166446  0.33583363  0.10022549
   0.16451642  0.32154001  0.09990744
   0.32404756  0.16202135  0.09990664
   0.16451981  0.84298284  0.09990744
   0.84549101  0.16202209  0.09990865
   0.68596214  0.84298247  0.09990911
   0.84549468  0.68346408  0.09990864
   0.16656332  0.33313320  0.32888918
   0.33313082  0.16656515  0.32889026
   0.16656333  0.83342981  0.32888918
   0.33332703  0.66666326  0.32858658
   0.66666036  0.33333003  0.32858658
   0.83342750  0.16656576  0.32888685
   0.66685884  0.83342927  0.32888559
   0.83342749  0.66686119  0.32888685
Direct configuration=    12
   0.33833498  0.66916795  0.10023229
   0.67166772  0.33583395  0.10023226
   0.16452411  0.32154064  0.09990319
   0.32404389  0.16202153  0.09990229
   0.16452505  0.84298373  0.09990318
   0.84548681  0.16202136  0.09990454
   0.68596763  0.84298321  0.09990508
   0.84548808  0.68346442  0.09990455
   0.16656143  0.33313036  0.32888892
   0.33312768  0.16656358  0.32889005
   0.16656144  0.83343076  0.32888892
   0.33332640  0.66666295  0.32859332
   0.66665973  0.33332971  0.32859332
   0.83342815  0.16656420  0.32888647
   0.66686075  0.83343022  0.32888516
   0.83342814  0.66686342  0.32888647
Direct configuration=    13
   0.33833504  0.66916795  0.10023210
   0.67166763  0.33583394  0.10023208
   0.16452391  0.32154062  0.09990330
   0.32404399  0.16202153  0.09990241
   0.16452491  0.84298371  0.09990329
   0.84548692  0.16202138  0.09990465
   0.68596748  0.84298319  0.09990519
   0.84548826  0.68346441  0.09990466
   0.16656148  0.33313044  0.32888892
   0.33312776  0.16656362  0.32889006
   0.16656149  0.83343074  0.32888892
   0.33332642  0.66666296  0.32859314
   0.66665975  0.33332972  0.32859314
   0.83342814  0.16656424  0.32888648
   0.66686069  0.83343020  0.32888517
   0.83342813  0.66686336  0.32888648
Direct configuration=    14
   0.33833613  0.66916791  0.10022881
   0.67166605  0.33583378  0.10022878
   0.16452016  0.32154032  0.09990537
   0.32404578  0.16202144  0.09990452
   0.16452236  0.84298327  0.09990537
   0.84548896  0.16202174  0.09990665
   0.68596481  0.84298283  0.09990715
   0.84549147  0.68346424  0.09990665
   0.16656240  0.33313182  0.32888905
   0.33312929  0.16656438  0.32889016
   0.16656241  0.83343027  0.32888905
   0.33332673  0.66666311  0.32858986
   0.66666005  0.33332987  0.32858986
   0.83342782  0.16656500  0.32888666
   0.66685977  0.83342973  0.32888538
   0.83342781  0.66686228  0.32888666
Direct configuration=    15
   0.33833512  0.66916795  0.10023185
   0.67166751  0.33583393  0.10023183
   0.16452362  0.32154060  0.09990346
   0.32404412  0.16202152  0.09990257
   0.16452471  0.84298367  0.09990345
   0.84548708  0.16202141  0.09990481
   0.68596728  0.84298316  0.09990534
   0.84548850  0.68346440  0.09990481
   0.16656155  0.33313055  0.32888893
   0.33312788  0.16656368  0.32889007
   0.16656156  0.83343070  0.32888893
   0.33332644  0.66666297  0.32859289
   0.66665977  0.33332973  0.32859289
   0.83342811  0.16656430  0.32888649
   0.66686062  0.83343016  0.32888518
   0.83342810  0.66686327  0.32888649
Direct configuration=    16
   0.33833481  0.66916742  0.10023036
   0.67166786  0.33583371  0.10023033
   0.16452464  0.32154165  0.09990298
   0.32404508  0.16202267  0.09990206
   0.16452542  0.84298310  0.09990297
   0.84548603  0.16202035  0.09990440
   0.68596944  0.84298380  0.09990497
   0.84548700  0.68346510  0.09990440
   0.16656129  0.33313036  0.32888988
   0.33312754  0.16656357  0.32889101
   0.16656130  0.83343052  0.32888988
   0.33332614  0.66666287  0.32859288
   0.66665952  0.33332956  0.32859287
   0.83342778  0.16656419  0.32888744
   0.66686036  0.83342997  0.32888613
   0.83342777  0.66686317  0.32888744
Direct configuration=    17
   0.33833388  0.66916583  0.10022587
   0.67166890  0.33583304  0.10022584
   0.16452771  0.32154478  0.09990153
   0.32404796  0.16202611  0.09990052
   0.16452755  0.84298140  0.09990154
   0.84548290  0.16201718  0.09990319
   0.68597593  0.84298572  0.09990387
   0.84548250  0.68346720  0.09990317
   0.16656052  0.33312981  0.32889272
   0.33312653  0.16656322  0.32889385
   0.16656049  0.83342999  0.32889272
   0.33332522  0.66666256  0.32859282
   0.66665879  0.33332903  0.32859282
   0.83342677  0.16656385  0.32889028
   0.66685956  0.83342942  0.32888897
   0.83342678  0.66686286  0.32889028
Direct configuration=    18
   0.33833202  0.66916265  0.10021688
   0.67167099  0.33583169  0.10021685
   0.16453383  0.32155106  0.09989863
   0.32405372  0.16203299  0.09989746
   0.16453181  0.84297799  0.09989867
   0.84547664  0.16201082  0.09990077
   0.68598892  0.84298957  0.09990167
   0.84547349  0.68347142  0.09990071
   0.16655896  0.33312872  0.32889840
   0.33312451  0.16656254  0.32889953
   0.16655889  0.83342892  0.32889840
   0.33332338  0.66666195  0.32859272
   0.66665731  0.33332797  0.32859272
   0.83342475  0.16656317  0.32889596
   0.66685797  0.83342830  0.32889466
   0.83342480  0.66686224  0.32889596
Direct configuration=    19
   0.33833320  0.66916467  0.10022260
   0.67166966  0.33583255  0.10022257
   0.16452994  0.32154707  0.09990048
   0.32405006  0.16202862  0.09989941
   0.16452910  0.84298016  0.09990049
   0.84548062  0.16201486  0.09990231
   0.68598066  0.84298712  0.09990307
   0.84547922  0.68346874  0.09990228
   0.16655995  0.33312942  0.32889479
   0.33312580  0.16656298  0.32889592
   0.16655991  0.83342960  0.32889479
   0.33332455  0.66666234  0.32859279
   0.66665825  0.33332864  0.32859279
   0.83342603  0.16656360  0.32889235
   0.66685898  0.83342901  0.32889104
   0.83342606  0.66686263  0.32889235
Direct configuration=    20
   0.33833349  0.66916472  0.10022199
   0.67166978  0.33583261  0.10022196
   0.16452988  0.32154710  0.09990024
   0.32405027  0.16202865  0.09989915
   0.16452907  0.84298021  0.09990026
   0.84548095  0.16201503  0.09990211
   0.68598060  0.84298721  0.09990289
   0.84547953  0.68346878  0.09990207
   0.16655981  0.33312935  0.32889518
   0.33312566  0.16656291  0.32889631
   0.16655977  0.83342953  0.32889519
   0.33332441  0.66666227  0.32859286
   0.66665811  0.33332857  0.32859286
   0.83342590  0.16656353  0.32889275
   0.66685885  0.83342894  0.32889144
   0.83342592  0.66686257  0.32889275
Direct configuration=    21
   0.33833434  0.66916488  0.10022017
   0.67167012  0.33583280  0.10022014
   0.16452973  0.32154719  0.09989952
   0.32405089  0.16202877  0.09989840
   0.16452899  0.84298039  0.09989954
   0.84548194  0.16201555  0.09990149
   0.68598043  0.84298748  0.09990232
   0.84548047  0.68346890  0.09990146
   0.16655939  0.33312914  0.32889638
   0.33312524  0.16656270  0.32889751
   0.16655935  0.83342933  0.32889638
   0.33332399  0.66666206  0.32859309
   0.66665769  0.33332836  0.32859309
   0.83342548  0.16656333  0.32889394
   0.66685843  0.83342874  0.32889263
   0.83342551  0.66686237  0.32889394
Direct configuration=    22
   0.33833604  0.66916520  0.10021652
   0.67167081  0.33583318  0.10021650
   0.16452943  0.32154738  0.09989809
   0.32405213  0.16202900  0.09989689
   0.16452883  0.84298073  0.09989812
   0.84548393  0.16201658  0.09990027
   0.68598008  0.84298801  0.09990120
   0.84548236  0.68346914  0.09990023
   0.16655856  0.33312873  0.32889877
   0.33312440  0.16656229  0.32889990
   0.16655851  0.83342894  0.32889877
   0.33332314  0.66666165  0.32859354
   0.66665684  0.33332794  0.32859354
   0.83342465  0.16656291  0.32889633
   0.66685761  0.83342834  0.32889501
   0.83342468  0.66686197  0.32889633
Direct configuration=    23
   0.33833944  0.66916584  0.10020923
   0.67167218  0.33583393  0.10020922
   0.16452883  0.32154776  0.09989523
   0.32405462  0.16202947  0.09989388
   0.16452850  0.84298142  0.09989526
   0.84548789  0.16201865  0.09989782
   0.68597938  0.84298908  0.09989895
   0.84548613  0.68346963  0.09989777
   0.16655689  0.33312791  0.32890355
   0.33312273  0.16656146  0.32890468
   0.16655683  0.83342814  0.32890355
   0.33332146  0.66666082  0.32859444
   0.66665515  0.33332711  0.32859444
   0.83342299  0.16656208  0.32890110
   0.66685595  0.83342753  0.32889978
   0.83342303  0.66686117  0.32890110
Direct configuration=    24
   0.33834624  0.66916712  0.10019466
   0.67167493  0.33583543  0.10019465
   0.16452763  0.32154852  0.09988950
   0.32405959  0.16203041  0.09988784
   0.16452784  0.84298280  0.09988955
   0.84549583  0.16202278  0.09989292
   0.68597798  0.84299121  0.09989446
   0.84549367  0.68347060  0.09989285
   0.16655356  0.33312628  0.32891310
   0.33311938  0.16655981  0.32891423
   0.16655348  0.83342654  0.32891311
   0.33331809  0.66665915  0.32859625
   0.66665176  0.33332544  0.32859625
   0.83341967  0.16656041  0.32891065
   0.66685264  0.83342592  0.32890932
   0.83341971  0.66685957  0.32891064
Direct configuration=    25
   0.33834694  0.66917004  0.10019013
   0.67167775  0.33583748  0.10019014
   0.16453172  0.32154661  0.09988625
   0.32405571  0.16202800  0.09988442
   0.16453201  0.84298634  0.09988631
   0.84549703  0.16202590  0.09989001
   0.68597744  0.84299002  0.09989174
   0.84549577  0.68346968  0.09988992
   0.16655214  0.33312588  0.32891652
   0.33311831  0.16655910  0.32891765
   0.16655209  0.83342595  0.32891652
   0.33331688  0.66665839  0.32859976
   0.66665033  0.33332495  0.32859976
   0.83341841  0.16655972  0.32891406
   0.66685104  0.83342534  0.32891273
   0.83341843  0.66685862  0.32891406
Direct configuration=    26
   0.33834905  0.66917880  0.10017655
   0.67168623  0.33584360  0.10017662
   0.16454398  0.32154086  0.09987650
   0.32404408  0.16202078  0.09987415
   0.16454451  0.84299698  0.09987657
   0.84550065  0.16203524  0.09988127
   0.68597583  0.84298645  0.09988356
   0.84550207  0.68346692  0.09988115
   0.16654789  0.33312469  0.32892678
   0.33311508  0.16655697  0.32892792
   0.16654792  0.83342415  0.32892678
   0.33331324  0.66665608  0.32861028
   0.66664602  0.33332348  0.32861028
   0.83341465  0.16655763  0.32892430
   0.66684622  0.83342359  0.32892297
   0.83341458  0.66685577  0.32892430
Direct configuration=    27
   0.33834950  0.66917951  0.10017330
   0.67168630  0.33584418  0.10017338
   0.16454467  0.32154238  0.09987293
   0.32404752  0.16202181  0.09987042
   0.16454495  0.84299611  0.09987300
   0.84550195  0.16203471  0.09987802
   0.68597858  0.84298773  0.09988049
   0.84550375  0.68346848  0.09987789
   0.16654662  0.33312409  0.32892970
   0.33311379  0.16655640  0.32893084
   0.16654665  0.83342339  0.32892969
   0.33331185  0.66665547  0.32861501
   0.66664470  0.33332280  0.32861501
   0.83341322  0.16655705  0.32892722
   0.66684482  0.83342285  0.32892589
   0.83341314  0.66685505  0.32892722
Direct configuration=    28
   0.33835083  0.66918165  0.10016356
   0.67168652  0.33584594  0.10016366
   0.16454671  0.32154692  0.09986221
   0.32405784  0.16202492  0.09985924
   0.16454627  0.84299350  0.09986229
   0.84550584  0.16203311  0.09986826
   0.68598684  0.84299158  0.09987125
   0.84550881  0.68347314  0.09986811
   0.16654279  0.33312227  0.32893844
   0.33310992  0.16655469  0.32893959
   0.16654285  0.83342112  0.32893844
   0.33330767  0.66665361  0.32862919
   0.66664076  0.33332073  0.32862919
   0.83340892  0.16655530  0.32893597
   0.66684062  0.83342063  0.32893464
   0.83340881  0.66685289  0.32893597
Direct configuration=    29
   0.33835350  0.66918592  0.10014406
   0.67168695  0.33584944  0.10014421
   0.16455079  0.32155600  0.09984078
   0.32407849  0.16203113  0.09983689
   0.16454890  0.84298828  0.09984086
   0.84551362  0.16202991  0.09984875
   0.68600337  0.84299927  0.09985278
   0.84551892  0.68348248  0.09984854
   0.16653514  0.33311863  0.32895594
   0.33310217  0.16655127  0.32895709
   0.16653525  0.83341658  0.32895593
   0.33329931  0.66664990  0.32865757
   0.66663288  0.33331660  0.32865756
   0.83340032  0.16655182  0.32895346
   0.66683222  0.83341619  0.32895213
   0.83340016  0.66684858  0.32895346
Direct configuration=    30
   0.33835412  0.66918692  0.10013951
   0.67168705  0.33585026  0.10013967
   0.16455175  0.32155812  0.09983577
   0.32408331  0.16203258  0.09983167
   0.16454952  0.84298706  0.09983586
   0.84551543  0.16202916  0.09984419
   0.68600723  0.84300106  0.09984847
   0.84552128  0.68348466  0.09984398
   0.16653336  0.33311778  0.32896002
   0.33310036  0.16655048  0.32896117
   0.16653348  0.83341552  0.32896001
   0.33329736  0.66664903  0.32866419
   0.66663104  0.33331564  0.32866418
   0.83339831  0.16655100  0.32895755
   0.66683026  0.83341515  0.32895621
   0.83339814  0.66684757  0.32895755
Direct configuration=    31
   0.33835536  0.66918892  0.10013041
   0.67168725  0.33585190  0.10013060
   0.16455365  0.32156236  0.09982577
   0.32409295  0.16203548  0.09982124
   0.16455075  0.84298463  0.09982586
   0.84551906  0.16202767  0.09983509
   0.68601494  0.84300465  0.09983985
   0.84552600  0.68348902  0.09983485
   0.16652978  0.33311608  0.32896818
   0.33309675  0.16654888  0.32896934
   0.16652993  0.83341340  0.32896817
   0.33329346  0.66664730  0.32867743
   0.66662737  0.33331371  0.32867742
   0.83339430  0.16654937  0.32896571
   0.66682634  0.83341308  0.32896438
   0.83339410  0.66684556  0.32896571
Direct configuration=    32
   0.33835785  0.66919291  0.10011221
   0.67168765  0.33585517  0.10011245
   0.16455747  0.32157084  0.09980577
   0.32411222  0.16204128  0.09980038
   0.16455321  0.84297976  0.09980587
   0.84552632  0.16202468  0.09981687
   0.68603036  0.84301183  0.09982261
   0.84553544  0.68349773  0.09981658
   0.16652264  0.33311269  0.32898451
   0.33308952  0.16654569  0.32898567
   0.16652284  0.83340916  0.32898450
   0.33328567  0.66664383  0.32870390
   0.66662001  0.33330986  0.32870389
   0.83338628  0.16654612  0.32898204
   0.66681849  0.83340893  0.32898071
   0.83338602  0.66684153  0.32898204
Direct configuration=    33
   0.33835636  0.66919052  0.10012310
   0.67168741  0.33585321  0.10012330
   0.16455519  0.32156577  0.09981774
   0.32410069  0.16203781  0.09981286
   0.16455174  0.84298267  0.09981783
   0.84552198  0.16202647  0.09982777
   0.68602114  0.84300753  0.09983293
   0.84552980  0.68349252  0.09982751
   0.16652692  0.33311472  0.32897474
   0.33309385  0.16654760  0.32897590
   0.16652708  0.83341170  0.32897473
   0.33329033  0.66664591  0.32868806
   0.66662441  0.33331216  0.32868805
   0.83339108  0.16654807  0.32897227
   0.66682318  0.83341141  0.32897094
   0.83339086  0.66684394  0.32897227
Direct configuration=    34
   0.33835711  0.66919171  0.10011765
   0.67168753  0.33585419  0.10011788
   0.16455633  0.32156830  0.09981175
   0.32410645  0.16203954  0.09980662
   0.16455247  0.84298121  0.09981185
   0.84552415  0.16202558  0.09982232
   0.68602575  0.84300968  0.09982777
   0.84553262  0.68349512  0.09982205
   0.16652478  0.33311370  0.32897962
   0.33309168  0.16654664  0.32898078
   0.16652496  0.83341043  0.32897962
   0.33328800  0.66664487  0.32869598
   0.66662221  0.33331101  0.32869597
   0.83338868  0.16654709  0.32897716
   0.66682084  0.83341017  0.32897582
   0.83338844  0.66684274  0.32897715
Direct configuration=    35
   0.33835958  0.66919213  0.10011394
   0.67169021  0.33585497  0.10011417
   0.16455881  0.32156877  0.09980724
   0.32410673  0.16204045  0.09980191
   0.16455484  0.84298313  0.09980733
   0.84552570  0.16202718  0.09981819
   0.68602650  0.84301004  0.09982384
   0.84553341  0.68349520  0.09981791
   0.16652313  0.33311292  0.32898336
   0.33309004  0.16654583  0.32898452
   0.16652330  0.83340962  0.32898335
   0.33328632  0.66664404  0.32870146
   0.66662051  0.33331018  0.32870145
   0.83338700  0.16654628  0.32898089
   0.66681915  0.83340935  0.32897956
   0.83338678  0.66684191  0.32898089
Direct configuration=    36
   0.33836702  0.66919337  0.10010281
   0.67169823  0.33585731  0.10010304
   0.16456626  0.32157017  0.09979368
   0.32410755  0.16204318  0.09978781
   0.16456193  0.84298888  0.09979377
   0.84553033  0.16203199  0.09980581
   0.68602875  0.84301113  0.09981204
   0.84553580  0.68349543  0.09980550
   0.16651816  0.33311056  0.32899455
   0.33308512  0.16654339  0.32899572
   0.16651831  0.83340718  0.32899455
   0.33328130  0.66664154  0.32871790
   0.66661542  0.33330768  0.32871789
   0.83338197  0.16654385  0.32899209
   0.66681408  0.83340689  0.32899076
   0.83338178  0.66683944  0.32899209
Direct configuration=    37
   0.33838189  0.66919585  0.10008054
   0.67171429  0.33586199  0.10008078
   0.16458115  0.32157298  0.09976658
   0.32410919  0.16204865  0.09975960
   0.16457612  0.84300037  0.09976666
   0.84553960  0.16204162  0.09978104
   0.68603325  0.84301329  0.09978845
   0.84554056  0.68349590  0.09978068
   0.16650824  0.33310583  0.32901695
   0.33307526  0.16653852  0.32901811
   0.16650834  0.83340232  0.32901694
   0.33327125  0.66663654  0.32875077
   0.66660523  0.33330269  0.32875075
   0.83337190  0.16653899  0.32901449
   0.66680393  0.83340197  0.32901317
   0.83337180  0.66683449  0.32901449
Direct configuration=    38
   0.33841163  0.66920081  0.10003599
   0.67174639  0.33587135  0.10003627
   0.16461093  0.32157860  0.09971238
   0.32411248  0.16205958  0.09970318
   0.16460451  0.84302337  0.09971243
   0.84555813  0.16206087  0.09973150
   0.68604226  0.84301762  0.09974128
   0.84555008  0.68349682  0.09973105
   0.16648839  0.33309639  0.32906174
   0.33305556  0.16652878  0.32906290
   0.16648840  0.83339258  0.32906173
   0.33325115  0.66662654  0.32881651
   0.66658486  0.33329270  0.32881649
   0.83335177  0.16652928  0.32905929
   0.66678365  0.83339212  0.32905798
   0.83335183  0.66682459  0.32905929
Direct configuration=    39
   0.33839116  0.66919740  0.10006665
   0.67172429  0.33586491  0.10006691
   0.16459043  0.32157473  0.09974969
   0.32411022  0.16205206  0.09974201
   0.16458497  0.84300754  0.09974975
   0.84554537  0.16204762  0.09976560
   0.68603606  0.84301464  0.09977375
   0.84554353  0.68349618  0.09976521
   0.16650205  0.33310289  0.32903091
   0.33306912  0.16653549  0.32903207
   0.16650212  0.83339928  0.32903090
   0.33326499  0.66663342  0.32877126
   0.66659888  0.33329958  0.32877124
   0.83336562  0.16653597  0.32902846
   0.66679761  0.83339890  0.32902713
   0.83336557  0.66683140  0.32902845
Direct configuration=    40
   0.33839480  0.66919772  0.10006547
   0.67172719  0.33586484  0.10006569
   0.16458956  0.32157314  0.09974753
   0.32410844  0.16205158  0.09973980
   0.16458561  0.84301028  0.09974757
   0.84554834  0.16205074  0.09976354
   0.68603309  0.84301488  0.09977170
   0.84554618  0.68349542  0.09976317
   0.16650096  0.33310249  0.32903368
   0.33306822  0.16653481  0.32903484
   0.16650101  0.83339907  0.32903368
   0.33326430  0.66663285  0.32877046
   0.66659791  0.33329930  0.32877045
   0.83336489  0.16653534  0.32903124
   0.66679664  0.83339864  0.32902992
   0.83336488  0.66683092  0.32903124
Direct configuration=    41
   0.33840571  0.66919869  0.10006192
   0.67173587  0.33586464  0.10006206
   0.16458693  0.32156836  0.09974103
   0.32410312  0.16205014  0.09973316
   0.16458752  0.84301848  0.09974103
   0.84555724  0.16206009  0.09975738
   0.68602416  0.84301561  0.09976555
   0.84555415  0.68349314  0.09975704
   0.16649768  0.33310128  0.32904202
   0.33306552  0.16653279  0.32904314
   0.16649765  0.83339843  0.32904201
   0.33326224  0.66663113  0.32876809
   0.66659499  0.33329846  0.32876808
   0.83336271  0.16653345  0.32903960
   0.66679373  0.83339787  0.32903830
   0.83336278  0.66682946  0.32903960
Direct configuration=    42
   0.33842753  0.66920063  0.10005483
   0.67175324  0.33586423  0.10005478
   0.16458169  0.32155880  0.09972804
   0.32409249  0.16204727  0.09971987
   0.16459134  0.84303488  0.09972795
   0.84557505  0.16207881  0.09974505
   0.68600632  0.84301707  0.09975324
   0.84557009  0.68348858  0.09974478
   0.16649111  0.33309885  0.32905868
   0.33306012  0.16652874  0.32905975
   0.16649094  0.83339714  0.32905868
   0.33325811  0.66662771  0.32876333
   0.66658916  0.33329678  0.32876334
   0.83335833  0.16652967  0.32905631
   0.66678791  0.83339632  0.32905505
   0.83335858  0.66682653  0.32905631
Direct configuration=    43
   0.33841165  0.66919922  0.10005999
   0.67174060  0.33586453  0.10006008
   0.16458551  0.32156576  0.09973749
   0.32410023  0.16204936  0.09972954
   0.16458856  0.84302294  0.09973747
   0.84556209  0.16206519  0.09975402
   0.68601930  0.84301601  0.09976220
   0.84555849  0.68349190  0.09975370
   0.16649589  0.33310062  0.32904655
   0.33306405  0.16653168  0.32904767
   0.16649582  0.83339808  0.32904655
   0.33326111  0.66663020  0.32876679
   0.66659341  0.33329800  0.32876679
   0.83336151  0.16653242  0.32904415
   0.66679215  0.83339744  0.32904286
   0.83336164  0.66682866  0.32904415
Direct configuration=    44
   0.33840967  0.66919897  0.10005857
   0.67174120  0.33586441  0.10005861
   0.16458846  0.32156883  0.09973462
   0.32410385  0.16205206  0.09972663
   0.16459113  0.84302122  0.09973459
   0.84555962  0.16206196  0.09975120
   0.68602652  0.84301802  0.09975932
   0.84555643  0.68349462  0.09975090
   0.16649473  0.33309985  0.32905066
   0.33306263  0.16653120  0.32905176
   0.16649467  0.83339725  0.32905066
   0.33325966  0.66662971  0.32876445
   0.66659224  0.33329721  0.32876445
   0.83336005  0.16653192  0.32904828
   0.66679096  0.83339663  0.32904701
   0.83336017  0.66682813  0.32904828
Direct configuration=    45
   0.33840632  0.66919855  0.10005616
   0.67174222  0.33586423  0.10005613
   0.16459346  0.32157402  0.09972977
   0.32410999  0.16205663  0.09972170
   0.16459548  0.84301830  0.09972972
   0.84555545  0.16205649  0.09974644
   0.68603871  0.84302143  0.09975446
   0.84555295  0.68349923  0.09974617
   0.16649278  0.33309854  0.32905762
   0.33306023  0.16653039  0.32905868
   0.16649271  0.83339587  0.32905762
   0.33325720  0.66662887  0.32876049
   0.66659026  0.33329587  0.32876050
   0.83335759  0.16653109  0.32905527
   0.66678895  0.83339526  0.32905402
   0.83335769  0.66682725  0.32905527
Direct configuration=    46
   0.33840582  0.66919848  0.10005580
   0.67174237  0.33586420  0.10005576
   0.16459421  0.32157479  0.09972904
   0.32411090  0.16205731  0.09972096
   0.16459613  0.84301787  0.09972899
   0.84555483  0.16205567  0.09974572
   0.68604053  0.84302194  0.09975373
   0.84555243  0.68349992  0.09974547
   0.16649249  0.33309835  0.32905865
   0.33305988  0.16653026  0.32905972
   0.16649242  0.83339566  0.32905865
   0.33325684  0.66662875  0.32875990
   0.66658996  0.33329568  0.32875991
   0.83335722  0.16653097  0.32905632
   0.66678865  0.83339505  0.32905507
   0.83335732  0.66682711  0.32905632
Direct configuration=    47
   0.33840594  0.66919850  0.10005589
   0.67174233  0.33586420  0.10005585
   0.16459402  0.32157460  0.09972922
   0.32411067  0.16205714  0.09972114
   0.16459597  0.84301797  0.09972917
   0.84555498  0.16205587  0.09974590
   0.68604008  0.84302181  0.09975391
   0.84555256  0.68349975  0.09974564
   0.16649256  0.33309840  0.32905840
   0.33305996  0.16653029  0.32905946
   0.16649249  0.83339571  0.32905840
   0.33325693  0.66662878  0.32876005
   0.66659004  0.33329572  0.32876005