 ----------------------------------------------------
    OOO  PPPP  EEEEE N   N M   M PPPP
   O   O P   P E     NN  N MM MM P   P
   O   O PPPP  EEEEE N N N M M M PPPP   -- VERSION
   O   O P     E     N  NN M   M P
    OOO  P     EEEEE N   N M   M P
 ----------------------------------------------------
 running   48 mpi-ranks, with    1 threads/rank
 distrk:  each k-point on   48 cores,    1 groups
 distr:  one band on    1 cores,   48 groups
 vasp.6.3.2 27Jun22 (build Dec 22 2022 13:13:19) complex                        
  
 POSCAR found type information on POSCAR B C 
 POSCAR found :  2 types and      16 ions
 Reading from existing POTCAR
 -----------------------------------------------------------------------------
|                                                                             |
|           W    W    AA    RRRRR   N    N  II  N    N   GGGG   !!!           |
|           W    W   A  A   R    R  NN   N  II  NN   N  G    G  !!!           |
|           W    W  A    A  R    R  N N  N  II  N N  N  G       !!!           |
|           W WW W  AAAAAA  RRRRR   N  N N  II  N  N N  G  GGG   !            |
|           WW  WW  A    A  R   R   N   NN  II  N   NN  G    G                |
|           W    W  A    A  R    R  N    N  II  N    N   GGGG   !!!           |
|                                                                             |
|     You use a magnetic or noncollinear calculation, but did not specify     |
|     the initial magnetic moment with the MAGMOM tag. Note that a            |
|     default of 1 will be used for all atoms. This ferromagnetic setup       |
|     may break the symmetry of the crystal, in particular it may rule        |
|     out finding an antiferromagnetic solution. Thence, we recommend         |
|     setting the initial magnetic moment manually or verifying carefully     |
|     that this magnetic setup is desired.                                    |
|                                                                             |
 -----------------------------------------------------------------------------

 scaLAPACK will be used
 Reading from existing POTCAR
 LDA part: xc-table for Pade appr. of Perdew
 POSCAR found type information on POSCAR B C 
 POSCAR found :  2 types and      16 ions
 POSCAR, INCAR and KPOINTS ok, starting setup
 FFT: planning ... GRIDC
 FFT: planning ... GRID_SOFT
 FFT: planning ... GRID
 WAVECAR not read
 entering main loop
       N       E                     dE             d eps       ncg     rms          rms(c)
DAV:   1     0.188459381376E+03    0.18846E+03   -0.25395E+04  8256   0.863E+02
DAV:   2    -0.118501641045E+03   -0.30696E+03   -0.30625E+03 12816   0.158E+02
DAV:   3    -0.128011307513E+03   -0.95097E+01   -0.94819E+01 14208   0.369E+01
DAV:   4    -0.128031321952E+03   -0.20014E-01   -0.20014E-01 12912   0.158E+00
DAV:   5    -0.128031356998E+03   -0.35045E-04   -0.35046E-04 12720   0.678E-02    0.228E+01
DAV:   6    -0.945955480051E+02    0.33436E+02   -0.57233E+01 10608   0.216E+01    0.124E+01
DAV:   7    -0.105688945726E+03   -0.11093E+02   -0.14182E+01 12528   0.112E+01    0.672E+00
DAV:   8    -0.111474417457E+03   -0.57855E+01   -0.51025E+00 12480   0.647E+00    0.377E+00
DAV:   9    -0.116727025959E+03   -0.52526E+01   -0.27542E+00 10416   0.468E+00    0.254E+00
DAV:  10    -0.120919909362E+03   -0.41929E+01   -0.32628E+00 12912   0.475E+00    0.135E+00
DAV:  11    -0.122762556616E+03   -0.18426E+01   -0.14240E+00 12192   0.282E+00    0.823E-01
DAV:  12    -0.123757515716E+03   -0.99496E+00   -0.80094E-01 13152   0.195E+00    0.400E-01
DAV:  13    -0.124059656974E+03   -0.30214E+00   -0.18659E-01 12336   0.958E-01    0.195E-01
DAV:  14    -0.124112997708E+03   -0.53341E-01   -0.28547E-02 10800   0.400E-01    0.109E-01
DAV:  15    -0.124136628229E+03   -0.23631E-01   -0.14899E-02  9600   0.297E-01    0.581E-02
DAV:  16    -0.124138111344E+03   -0.14831E-02   -0.21758E-03  9840   0.177E-01    0.372E-02
DAV:  17    -0.124138634907E+03   -0.52356E-03   -0.76810E-04  9216   0.959E-02    0.150E-02
DAV:  18    -0.124138675254E+03   -0.40347E-04   -0.15724E-04  8832   0.465E-02    0.854E-03
DAV:  19    -0.124138730452E+03   -0.55198E-04   -0.38018E-05  8736   0.276E-02    0.514E-03
DAV:  20    -0.124138758739E+03   -0.28286E-04   -0.20410E-05  9024   0.185E-02    0.365E-03
DAV:  21    -0.124138808618E+03   -0.49879E-04   -0.16622E-05  8544   0.161E-02    0.235E-03
DAV:  22    -0.124138833733E+03   -0.25116E-04   -0.51837E-06  9504   0.894E-03    0.137E-03
DAV:  23    -0.124138837928E+03   -0.41942E-05   -0.17428E-06 11808   0.496E-03    0.617E-04
DAV:  24    -0.124138840926E+03   -0.29987E-05   -0.30372E-07 11904   0.196E-03    0.337E-04
DAV:  25    -0.124138842349E+03   -0.14226E-05   -0.15949E-07 10032   0.135E-03    0.176E-04
DAV:  26    -0.124138842701E+03   -0.35171E-06   -0.72494E-08 12720   0.103E-03
   1 F= -.12563164E+03 E0= -.12562861E+03  d E =-.125632E+03  mag=     0.0000
 curvature:   0.00 expect dE= 0.000E+00 dE for cont linesearch  0.000E+00
 trial: gam= 0.00000 g(F)=  0.103E-01 g(S)=  0.000E+00 ort = 0.000E+00 (trialstep = 0.100E+01)
 search vector abs. value=  0.103E-01
 bond charge predicted
       N       E                     dE             d eps       ncg     rms          rms(c)
DAV:   1    -0.124143260643E+03   -0.44183E-02   -0.76901E-01  8448   0.215E+00    0.297E-01
DAV:   2    -0.124139406581E+03    0.38541E-02   -0.18556E-02 12768   0.324E-01    0.130E-01
DAV:   3    -0.124138799853E+03    0.60673E-03   -0.29264E-03 11712   0.115E-01    0.361E-02
DAV:   4    -0.124138777773E+03    0.22080E-04   -0.23030E-04 12720   0.361E-02    0.129E-02
DAV:   5    -0.124138777379E+03    0.39477E-06   -0.12675E-05 12480   0.885E-03    0.401E-03
DAV:   6    -0.124138778700E+03   -0.13217E-05   -0.34540E-06  9312   0.421E-03    0.139E-03
DAV:   7    -0.124138780227E+03   -0.15263E-05   -0.22071E-07 10464   0.129E-03    0.733E-04
DAV:   8    -0.124138782505E+03   -0.22786E-05   -0.13244E-07  9408   0.680E-04    0.363E-04
DAV:   9    -0.124138784454E+03   -0.19482E-05   -0.13535E-07 10272   0.619E-04    0.221E-04
DAV:  10    -0.124138785241E+03   -0.78783E-06   -0.61781E-08  9504   0.499E-04
   2 F= -.12563184E+03 E0= -.12562882E+03  d E =-.199410E-03  mag=    -0.0000
 trial-energy change:   -0.000199  1 .order   -0.000247   -0.010293    0.009799
 step:   0.5087(harm=  0.5123)  dis= 0.00462  next Energy=  -125.634255 (dE=-0.261E-02)
 bond charge predicted
       N       E                     dE             d eps       ncg     rms          rms(c)
DAV:   1    -0.124142388051E+03   -0.36036E-02   -0.18528E-01  8448   0.105E+00    0.145E-01
DAV:   2    -0.124141472327E+03    0.91572E-03   -0.44989E-03 13056   0.160E-01    0.639E-02
DAV:   3    -0.124141326944E+03    0.14538E-03   -0.71937E-04 14496   0.566E-02    0.175E-02
DAV:   4    -0.124141321800E+03    0.51446E-05   -0.49265E-05 11472   0.168E-02    0.636E-03
DAV:   5    -0.124141321840E+03   -0.40288E-07   -0.29517E-06 14160   0.437E-03
   3 F= -.12563425E+03 E0= -.12563124E+03  d E =-.261104E-02  mag=     0.0000
 curvature:  -0.26 expect dE=-0.142E-04 dE for cont linesearch -0.969E-07
 ZBRENT: interpolating
 opt :   0.5118  next Energy=  -125.634254 (dE=-0.261E-02)
 bond charge predicted
       N       E                     dE             d eps       ncg     rms          rms(c)
DAV:   1    -0.124141321104E+03    0.69579E-06   -0.47495E-06  9024   0.596E-03    0.113E-03
DAV:   2    -0.124141321187E+03   -0.83105E-07   -0.21591E-07 10848   0.107E-03
   4 F= -.12563425E+03 E0= -.12563124E+03  d E =-.261118E-02  mag=     0.0000
 curvature:  -0.26 expect dE=-0.145E-04 dE for cont linesearch -0.424E-07
 ZBRENT: interpolating
 opt :   0.5106  next Energy=  -125.634254 (dE=-0.261E-02)
 bond charge predicted
       N       E                     dE             d eps       ncg     rms          rms(c)
DAV:   1    -0.124141321711E+03   -0.60690E-06   -0.14778E-06  9600   0.292E-03    0.421E-04
DAV:   2    -0.124141321799E+03   -0.88239E-07   -0.41864E-08 10800   0.593E-04
   5 F= -.12563425E+03 E0= -.12563124E+03  d E =-.261148E-02  mag=     0.0000
 curvature:  -0.15 expect dE=-0.868E-05 dE for cont linesearch -0.152E-07
 ZBRENT: bisectioning
 opt :   0.5097  next Energy=  -125.634255 (dE=-0.261E-02)
 bond charge predicted
       N       E                     dE             d eps       ncg     rms          rms(c)
DAV:   1    -0.124141322145E+03   -0.43451E-06   -0.62411E-07 10032   0.200E-03    0.346E-04
DAV:   2    -0.124141322196E+03   -0.50969E-07   -0.18316E-08 11808   0.379E-04
   6 F= -.12563425E+03 E0= -.12563124E+03  d E =-.261163E-02  mag=     0.0000
 curvature:  -0.27 expect dE=-0.150E-04 dE for cont linesearch -0.435E-08
 ZBRENT: bisectioning
 opt :   0.5092  next Energy=  -125.634255 (dE=-0.261E-02)
 bond charge predicted
       N       E                     dE             d eps       ncg     rms          rms(c)
DAV:   1    -0.124141322378E+03   -0.23297E-06   -0.14257E-07 10080   0.992E-04    0.193E-04
DAV:   2    -0.124141322406E+03   -0.27670E-07   -0.47784E-09 12192   0.232E-04
   7 F= -.12563425E+03 E0= -.12563124E+03  d E =-.261172E-02  mag=     0.0000
 curvature:  -0.24 expect dE=-0.132E-04 dE for cont linesearch -0.602E-10
 trial: gam= 0.00558 g(F)=  0.558E-04 g(S)=  0.000E+00 ort =-0.162E-05 (trialstep = 0.902E+00)
 search vector abs. value=  0.562E-04
 bond charge predicted
       N       E                     dE             d eps       ncg     rms          rms(c)
DAV:   1    -0.124141329239E+03   -0.68604E-05   -0.45230E-03  8256   0.248E-01    0.120E-02
DAV:   2    -0.124141328212E+03    0.10270E-05   -0.52550E-05  9120   0.284E-02    0.738E-03
DAV:   3    -0.124141327561E+03    0.65082E-06   -0.67842E-06 10128   0.894E-03
   8 F= -.12563431E+03 E0= -.12563129E+03  d E =-.503658E-04  mag=    -0.0000
 ZBRENT: can't locate minimum, use default step
 trial-energy change:   -0.000050  1 .order   -0.000049   -0.000050   -0.000049
 step:   3.6074(harm= 24.7834)  dis= 0.00182  next Energy=  -125.634947 (dE=-0.692E-03)
 bond charge predicted
       N       E                     dE             d eps       ncg     rms          rms(c)
DAV:   1    -0.124141357314E+03   -0.29102E-04   -0.40857E-02  8256   0.745E-01    0.367E-02
DAV:   2    -0.124141347520E+03    0.97941E-05   -0.46860E-04  8832   0.852E-02    0.225E-02
DAV:   3    -0.124141341219E+03    0.63006E-05   -0.62503E-05 12144   0.271E-02    0.542E-03
DAV:   4    -0.124141341671E+03   -0.45149E-06   -0.71305E-06  9312   0.932E-03
   9 F= -.12563446E+03 E0= -.12563144E+03  d E =-.200329E-03  mag=     0.0000
 curvature:  -2.66 expect dE=-0.172E-03 dE for cont linesearch -0.145E-03
 ZBRENT: increasing intervall
 opt :   9.0184  next Energy=  -125.634762 (dE=-0.508E-03)
 bond charge predicted
       N       E                     dE             d eps       ncg     rms          rms(c)
DAV:   1    -0.124141427919E+03   -0.86700E-04   -0.16297E-01  8256   0.149E+00    0.721E-02
DAV:   2    -0.124141391915E+03    0.36005E-04   -0.18781E-03  8832   0.170E-01    0.442E-02
DAV:   3    -0.124141363637E+03    0.28278E-04   -0.24503E-04 11616   0.536E-02    0.108E-02
DAV:   4    -0.124141364876E+03   -0.12392E-05   -0.28342E-05 10896   0.185E-02    0.461E-03
DAV:   5    -0.124141365616E+03   -0.74069E-06   -0.15637E-06  8832   0.463E-03
  10 F= -.12563475E+03 E0= -.12563173E+03  d E =-.496816E-03  mag=     0.0000
 curvature:  -5.64 expect dE=-0.638E-03 dE for cont linesearch -0.288E-03
 ZBRENT: increasing intervall
 opt :  19.8405  next Energy=  -125.635313 (dE=-0.106E-02)
 bond charge predicted
       N       E                     dE             d eps       ncg     rms          rms(c)
DAV:   1    -0.124141640635E+03   -0.27576E-03   -0.65170E-01  8256   0.298E+00    0.144E-01
DAV:   2    -0.124141511270E+03    0.12936E-03   -0.75334E-03  8832   0.340E-01    0.885E-02
DAV:   3    -0.124141389762E+03    0.12151E-03   -0.97981E-04 11136   0.107E-01    0.219E-02
DAV:   4    -0.124141392957E+03   -0.31942E-05   -0.11461E-04 12432   0.371E-02    0.923E-03
DAV:   5    -0.124141392175E+03    0.78185E-06   -0.57851E-06  9792   0.866E-03
  11 F= -.12563533E+03 E0= -.12563231E+03  d E =-.107190E-02  mag=     0.0000
 curvature: -10.98 expect dE=-0.380E-02 dE for cont linesearch -0.513E-03
 ZBRENT: increasing intervall
 opt :  41.4847  next Energy=  -125.636384 (dE=-0.213E-02)
 bond charge predicted
       N       E                     dE             d eps       ncg     rms          rms(c)
DAV:   1    -0.124142376446E+03   -0.98349E-03   -0.26066E+00  8256   0.595E+00    0.288E-01
DAV:   2    -0.124141856860E+03    0.51959E-03   -0.30145E-02  9696   0.681E-01    0.176E-01
DAV:   3    -0.124141378918E+03    0.47794E-03   -0.39015E-03 10656   0.213E-01    0.430E-02
DAV:   4    -0.124141385249E+03   -0.63309E-05   -0.44740E-04 14016   0.741E-02    0.186E-02
DAV:   5    -0.124141380258E+03    0.49907E-05   -0.21248E-05 10656   0.159E-02    0.449E-03
DAV:   6    -0.124141379432E+03    0.82675E-06   -0.48422E-06 10368   0.843E-03
  12 F= -.12563643E+03 E0= -.12563341E+03  d E =-.217077E-02  mag=     0.0000
 curvature: -22.63 expect dE=-0.305E-01 dE for cont linesearch -0.956E-03
 ZBRENT: increasing intervall
 opt :  84.7731  next Energy=  -125.638424 (dE=-0.417E-02)
 bond charge predicted
       N       E                     dE             d eps       ncg     rms          rms(c)
DAV:   1    -0.124145093631E+03   -0.37134E-02   -0.10421E+01  8256   0.119E+01    0.577E-01
DAV:   2    -0.124143072462E+03    0.20212E-02   -0.12097E-01 10560   0.136E+00    0.353E-01
DAV:   3    -0.124141098029E+03    0.19744E-02   -0.15611E-02 12240   0.421E-01    0.849E-02
DAV:   4    -0.124141108211E+03   -0.10181E-04   -0.16135E-03 13008   0.144E-01    0.379E-02
DAV:   5    -0.124141074422E+03    0.33789E-04   -0.79250E-05 11376   0.291E-02    0.739E-03
DAV:   6    -0.124141073344E+03    0.10780E-05   -0.16719E-05 10656   0.132E-02    0.454E-03
DAV:   7    -0.124141079310E+03   -0.59659E-05   -0.41579E-06 11280   0.788E-03    0.241E-03
DAV:   8    -0.124141094770E+03   -0.15460E-04   -0.40064E-06 10944   0.606E-03    0.190E-03
DAV:   9    -0.124141104632E+03   -0.98625E-05   -0.18293E-06 11328   0.493E-03    0.996E-04
DAV:  10    -0.124141116166E+03   -0.11534E-04   -0.37337E-06 10896   0.752E-03    0.570E-04
DAV:  11    -0.124141120272E+03   -0.41063E-05   -0.26363E-06 10176   0.670E-03    0.542E-04
DAV:  12    -0.124141124439E+03   -0.41665E-05   -0.11970E-06  9888   0.397E-03    0.229E-04
DAV:  13    -0.124141124815E+03   -0.37646E-06   -0.31945E-07 13728   0.229E-03
  13 F= -.12563845E+03 E0= -.12563544E+03  d E =-.419795E-02  mag=    -0.0000
 curvature: -47.33 expect dE=-0.260E+00 dE for cont linesearch -0.157E-02
 ZBRENT: increasing intervall
 opt : 171.3498  next Energy=  -125.641704 (dE=-0.745E-02)
 bond charge predicted
       N       E                     dE             d eps       ncg     rms          rms(c)
DAV:   1    -0.124154350371E+03   -0.13226E-01   -0.41603E+01  8256   0.238E+01    0.115E+00
DAV:   2    -0.124147307427E+03    0.70429E-02   -0.49077E-01  9216   0.275E+00    0.709E-01
DAV:   3    -0.124139500395E+03    0.78070E-02   -0.63305E-02 13824   0.851E-01    0.173E-01
DAV:   4    -0.124139538807E+03   -0.38412E-04   -0.57357E-03 13200   0.272E-01    0.778E-02
DAV:   5    -0.124139434039E+03    0.10477E-03   -0.30367E-04 11760   0.539E-02    0.150E-02
DAV:   6    -0.124139420828E+03    0.13210E-04   -0.67238E-05 12432   0.217E-02    0.723E-03
DAV:   7    -0.124139438179E+03   -0.17351E-04   -0.87779E-06 11280   0.837E-03    0.416E-03
DAV:   8    -0.124139458070E+03   -0.19890E-04   -0.32782E-06 10656   0.435E-03    0.360E-03
DAV:   9    -0.124139480376E+03   -0.22307E-04   -0.22709E-06 11040   0.304E-03    0.158E-03
DAV:  10    -0.124139501120E+03   -0.20744E-04   -0.24190E-06 10896   0.316E-03    0.103E-03
DAV:  11    -0.124139509389E+03   -0.82690E-05   -0.85124E-07 10560   0.261E-03    0.765E-04
DAV:  12    -0.124139516947E+03   -0.75581E-05   -0.11142E-06 10272   0.256E-03    0.259E-04
DAV:  13    -0.124139518680E+03   -0.17325E-05   -0.32108E-07 11040   0.190E-03    0.105E-04
DAV:  14    -0.124139518781E+03   -0.10140E-06   -0.94348E-08 13776   0.131E-03
  14 F= -.12564166E+03 E0= -.12563867E+03  d E =-.740077E-02  mag=    -0.0000
 curvature: -98.17 expect dE=-0.219E+01 dE for cont linesearch -0.167E-02
 ZBRENT: increasing intervall
 opt : 344.5033  next Energy=  -125.644904 (dE=-0.106E-01)
 bond charge predicted
       N       E                     dE             d eps       ncg     rms          rms(c)
DAV:   1    -0.124183101332E+03   -0.43583E-01   -0.16544E+02  8256   0.474E+01    0.229E+00
DAV:   2    -0.124162945969E+03    0.20155E-01   -0.20276E+00  9408   0.565E+00    0.142E+00
DAV:   3    -0.124132161838E+03    0.30784E-01   -0.24471E-01 13920   0.167E+00    0.367E-01
DAV:   4    -0.124132359633E+03   -0.19779E-03   -0.21368E-02 12864   0.524E-01    0.160E-01
DAV:   5    -0.124131864968E+03    0.49467E-03   -0.13644E-03 13056   0.105E-01    0.324E-02
DAV:   6    -0.124131813590E+03    0.51377E-04   -0.23799E-04 12336   0.410E-02    0.147E-02
DAV:   7    -0.124131874292E+03   -0.60702E-04   -0.52064E-05  9888   0.198E-02    0.842E-03
DAV:   8    -0.124131920741E+03   -0.46448E-04   -0.93180E-06 10944   0.759E-03    0.703E-03
DAV:   9    -0.124131969259E+03   -0.48519E-04   -0.64240E-06 11616   0.587E-03    0.294E-03
DAV:  10    -0.124132011935E+03   -0.42676E-04   -0.59513E-06 10560   0.512E-03    0.191E-03
DAV:  11    -0.124132036320E+03   -0.24385E-04   -0.37160E-06 11040   0.455E-03    0.110E-03
DAV:  12    -0.124132045234E+03   -0.89135E-05   -0.18871E-06 10848   0.467E-03    0.444E-04
DAV:  13    -0.124132048404E+03   -0.31705E-05   -0.77878E-07 11664   0.338E-03    0.191E-04
DAV:  14    -0.124132049686E+03   -0.12812E-05   -0.20817E-07 10272   0.163E-03    0.905E-05
DAV:  15    -0.124132049869E+03   -0.18314E-06   -0.38516E-08 14160   0.789E-04
  15 F= -.12564487E+03 E0= -.12564195E+03  d E =-.106127E-01  mag=     0.0000
 curvature: ****** expect dE=-0.172E+02 dE for cont linesearch -0.147E-03
 trial: gam=******** g(F)=  0.902E-01 g(S)=  0.000E+00 ort = 0.658E-05 (trialstep = 0.267E-04)
 search vector abs. value=  0.146E+03
 bond charge predicted
       N       E                     dE             d eps       ncg     rms          rms(c)
DAV:   1    -0.124132049750E+03   -0.64176E-07   -0.10384E-05 12384   0.119E-02    0.577E-04
DAV:   2    -0.124132049748E+03    0.15393E-08   -0.11100E-07 14304   0.130E-03
  16 F= -.12564487E+03 E0= -.12564195E+03  d E =-.273686E-05  mag=     0.0000
 ZBRENT: can't locate minimum, use default step
 trial-energy change:   -0.000003  1 .order   -0.000003   -0.000003   -0.000003
 step:   0.0001(harm=  0.0001)  dis= 0.00009  next Energy=  -125.644878 (dE=-0.108E-04)
 bond charge predicted
       N       E                     dE             d eps       ncg     rms          rms(c)
DAV:   1    -0.124132049294E+03    0.45575E-06   -0.91591E-05 10368   0.354E-02    0.178E-03
DAV:   2    -0.124132049262E+03    0.31816E-07   -0.95890E-07 13200   0.379E-03
  17 F= -.12564488E+03 E0= -.12564196E+03  d E =-.108235E-04  mag=     0.0000
 curvature:  -0.12 expect dE=-0.105E-01 dE for cont linesearch -0.822E-05
 ZBRENT: increasing intervall
 opt :   0.0003  next Energy=  -125.644895 (dE=-0.272E-04)
 bond charge predicted
       N       E                     dE             d eps       ncg     rms          rms(c)
DAV:   1    -0.124132048385E+03    0.90918E-06   -0.36341E-04  8496   0.706E-02    0.360E-03
DAV:   2    -0.124132048286E+03    0.99411E-07   -0.40023E-06  9792   0.792E-03
  18 F= -.12564489E+03 E0= -.12564198E+03  d E =-.269949E-04  mag=    -0.0000
 curvature:  -0.23 expect dE=-0.209E-01 dE for cont linesearch -0.165E-04
 ZBRENT: increasing intervall
 opt :   0.0006  next Energy=  -125.644927 (dE=-0.598E-04)
 bond charge predicted
       N       E                     dE             d eps       ncg     rms          rms(c)
DAV:   1    -0.124132046751E+03    0.16337E-05   -0.14553E-03  8256   0.141E-01    0.722E-03
DAV:   2    -0.124132046349E+03    0.40229E-06   -0.16281E-05  8448   0.161E-02    0.447E-03
DAV:   3    -0.124132046206E+03    0.14330E-06   -0.21876E-06  8976   0.516E-03
  19 F= -.12564493E+03 E0= -.12564201E+03  d E =-.592201E-04  mag=     0.0000
 curvature:  -0.46 expect dE=-0.417E-01 dE for cont linesearch -0.308E-04
 ZBRENT: increasing intervall
 opt :   0.0012  next Energy=  -125.644988 (dE=-0.120E-03)
 bond charge predicted
       N       E                     dE             d eps       ncg     rms          rms(c)
DAV:   1    -0.124132044391E+03    0.19582E-05   -0.59884E-03  8256   0.285E-01    0.141E-02
DAV:   2    -0.124132042789E+03    0.16016E-05   -0.68282E-05  8352   0.327E-02    0.870E-03
DAV:   3    -0.124132042016E+03    0.77326E-06   -0.91926E-06 11568   0.105E-02
  20 F= -.12564499E+03 E0= -.12564207E+03  d E =-.123722E-03  mag=    -0.0000
 curvature:  -0.92 expect dE=-0.830E-01 dE for cont linesearch -0.595E-04
 ZBRENT: increasing intervall
 opt :   0.0025  next Energy=  -125.645114 (dE=-0.247E-03)
 bond charge predicted
       N       E                     dE             d eps       ncg     rms          rms(c)
DAV:   1    -0.124132042838E+03   -0.48656E-07   -0.23939E-02  8256   0.571E-01    0.283E-02
DAV:   2    -0.124132036387E+03    0.64511E-05   -0.27307E-04  8304   0.654E-02    0.174E-02
DAV:   3    -0.124132033303E+03    0.30838E-05   -0.36627E-05 11040   0.209E-02    0.424E-03
DAV:   4    -0.124132033641E+03   -0.33770E-06   -0.47186E-06  8544   0.758E-03
  21 F= -.12564512E+03 E0= -.12564220E+03  d E =-.252903E-03  mag=     0.0000
 curvature:  -1.90 expect dE=-0.172E+00 dE for cont linesearch -0.132E-03
 ZBRENT: increasing intervall
 opt :   0.0051  next Energy=  -125.645388 (dE=-0.520E-03)
 bond charge predicted
       N       E                     dE             d eps       ncg     rms          rms(c)
DAV:   1    -0.124132052753E+03   -0.19451E-04   -0.95300E-02  8256   0.114E+00    0.552E-02
DAV:   2    -0.124132030130E+03    0.22624E-04   -0.10975E-03  8256   0.131E-01    0.339E-02
DAV:   3    -0.124132014433E+03    0.15697E-04   -0.14624E-04 12432   0.415E-02    0.829E-03
DAV:   4    -0.124132015787E+03   -0.13535E-05   -0.16180E-05  8352   0.147E-02    0.359E-03
DAV:   5    -0.124132016553E+03   -0.76656E-06   -0.19844E-06  9552   0.603E-03
  22 F= -.12564538E+03 E0= -.12564246E+03  d E =-.511483E-03  mag=     0.0000
 curvature:  -3.85 expect dE=-0.349E+00 dE for cont linesearch -0.265E-03
 ZBRENT: increasing intervall
 opt :   0.0102  next Energy=  -125.645892 (dE=-0.102E-02)
 bond charge predicted
       N       E                     dE             d eps       ncg     rms          rms(c)
DAV:   1    -0.124132126458E+03   -0.11067E-03   -0.38103E-01  8256   0.228E+00    0.110E-01
DAV:   2    -0.124132047785E+03    0.78673E-04   -0.43951E-03  8544   0.260E-01    0.676E-02
DAV:   3    -0.124131977928E+03    0.69856E-04   -0.58338E-04 12000   0.826E-02    0.164E-02
DAV:   4    -0.124131979715E+03   -0.17871E-05   -0.61229E-05 11712   0.275E-02    0.713E-03
DAV:   5    -0.124131979994E+03   -0.27866E-06   -0.35704E-06  9408   0.690E-03
  23 F= -.12564590E+03 E0= -.12564298E+03  d E =-.102898E-02  mag=     0.0000
 curvature:  -7.44 expect dE=-0.680E+00 dE for cont linesearch -0.506E-03
 ZBRENT: increasing intervall
 opt :   0.0204  next Energy=  -125.646913 (dE=-0.205E-02)
 bond charge predicted
       N       E                     dE             d eps       ncg     rms          rms(c)
DAV:   1    -0.124132486042E+03   -0.50633E-03   -0.15241E+00  8256   0.455E+00    0.220E-01
DAV:   2    -0.124132175535E+03    0.31051E-03   -0.17593E-02  8544   0.521E-01    0.135E-01
DAV:   3    -0.124131902424E+03    0.27311E-03   -0.23033E-03 10176   0.165E-01    0.331E-02
DAV:   4    -0.124131908066E+03   -0.56419E-05   -0.27980E-04 13968   0.571E-02    0.140E-02
