Lattice                                 
           1
     4.312807    2.490000    0.000000
    -4.312807    2.490000    0.000000
     0.000000    0.000000   15.000000
   B    C 
     2    14
Direct configuration=     1
   0.33833034  0.66916432  0.10000000
   0.67165522  0.33584146  0.10000000
   0.16373946  0.31999962  0.10000000
   0.32250218  0.16126397  0.10000000
   0.16376430  0.84376384  0.10000000
   0.84623863  0.16123684  0.10000000
   0.68749850  0.84373000  0.10000000
   0.84626736  0.68499594  0.10000000
   0.16666600  0.33333300  0.32880000
   0.33333300  0.16666600  0.32880000
   0.16666600  0.83333300  0.32880000
   0.33333300  0.66666600  0.32880000
   0.66666600  0.33333300  0.32880000
   0.83333300  0.16666600  0.32880000
   0.66666600  0.83333300  0.32880000
   0.83333300  0.66666600  0.32880000
Direct configuration=     2
   0.33832944  0.66916365  0.10014224
   0.67167927  0.33581067  0.10014223
   0.16891456  0.33036415  0.09995521
   0.33285979  0.16643883  0.09995486
   0.16894700  0.83856988  0.09995522
   0.84104527  0.16641503  0.09995571
   0.67715707  0.83857951  0.09995591
   0.84107215  0.67465842  0.09995570
   0.16636669  0.33273042  0.32886360
   0.33273014  0.16636575  0.32886418
   0.16636674  0.83363399  0.32886359
   0.33332685  0.66666412  0.32860271
   0.66666153  0.33332965  0.32860271
   0.83363392  0.16636725  0.32886228
   0.66726768  0.83363271  0.32886155
   0.83363389  0.66726797  0.32886229
Direct configuration=     3
   0.33833012  0.66916416  0.10003495
   0.67166113  0.33583389  0.10003495
   0.16501110  0.32254641  0.09998899
   0.32504727  0.16253554  0.09998891
   0.16503780  0.84248757  0.09998900
   0.84496251  0.16250923  0.09998912
   0.68495739  0.84246441  0.09998917
   0.84499078  0.68245579  0.09998911
   0.16659245  0.33318493  0.32881563
   0.33318486  0.16659222  0.32881577
   0.16659246  0.83340696  0.32881563
   0.33333149  0.66666554  0.32875152
   0.66666490  0.33333218  0.32875152
   0.83340694  0.16659259  0.32881530
   0.66681385  0.83340665  0.32881513
   0.83340693  0.66681392  0.32881531
Direct configuration=     4
   0.33833012  0.66916416  0.10003491
   0.67166112  0.33583390  0.10003490
   0.16500944  0.32254309  0.09998901
   0.32504395  0.16253388  0.09998892
   0.16503614  0.84248924  0.09998901
   0.84496418  0.16250757  0.09998913
   0.68496071  0.84246607  0.09998918
   0.84499245  0.68245911  0.09998913
   0.16659255  0.33318513  0.32881561
   0.33318506  0.16659232  0.32881575
   0.16659256  0.83340686  0.32881561
   0.33333149  0.66666554  0.32875158
   0.66666490  0.33333218  0.32875158
   0.83340685  0.16659269  0.32881528
   0.66681365  0.83340655  0.32881511
   0.83340684  0.66681372  0.32881529
Direct configuration=     5
   0.33833528  0.66916462  0.10013017
   0.67166658  0.33583077  0.10013016
   0.16500587  0.32253581  0.09995981
   0.32503642  0.16252484  0.09995946
   0.16502511  0.84248862  0.09995982
   0.84497742  0.16251146  0.09996035
   0.68496424  0.84247819  0.09996050
   0.84499410  0.68246607  0.09996035
   0.16656188  0.33312510  0.32885662
   0.33312451  0.16656193  0.32885715
   0.16656187  0.83343649  0.32885662
   0.33333056  0.66666496  0.32862171
   0.66666385  0.33333177  0.32862171
   0.83343598  0.16656250  0.32885541
   0.66687230  0.83343600  0.32885474
   0.83343599  0.66687286  0.32885541
Direct configuration=     6
   0.33833751  0.66916482  0.10017123
   0.67166894  0.33582941  0.10017122
   0.16500434  0.32253268  0.09994723
   0.32503318  0.16252095  0.09994677
   0.16502036  0.84248835  0.09994723
   0.84498313  0.16251314  0.09994795
   0.68496576  0.84248342  0.09994814
   0.84499482  0.68246907  0.09994794
   0.16654866  0.33309923  0.32887429
   0.33309842  0.16654883  0.32887500
   0.16654865  0.83344926  0.32887430
   0.33333017  0.66666471  0.32856573
   0.66666340  0.33333159  0.32856573
   0.83344854  0.16654949  0.32887271
   0.66689758  0.83344869  0.32887183
   0.83344856  0.66689835  0.32887271
Direct configuration=     7
   0.33831887  0.66916656  0.10024702
   0.67166076  0.33583643  0.10024702
   0.16504649  0.32254734  0.09992691
   0.32504287  0.16253016  0.09992605
   0.16503669  0.84247973  0.09992690
   0.84496535  0.16250979  0.09992824
   0.68498416  0.84247337  0.09992862
   0.84496269  0.68246320  0.09992819
   0.16664525  0.33329389  0.32888422
   0.33329267  0.16664656  0.32888525
   0.16664527  0.83335009  0.32888421
   0.33332903  0.66666475  0.32852142
   0.66666286  0.33333083  0.32852141
   0.83334888  0.16664661  0.32888193
   0.66670132  0.83335004  0.32888068
   0.83334885  0.66670264  0.32888193
Direct configuration=     8
   0.33833067  0.66916546  0.10019903
   0.67166594  0.33583199  0.10019902
   0.16501980  0.32253805  0.09993977
   0.32503673  0.16252433  0.09993917
   0.16502635  0.84248519  0.09993978
   0.84497661  0.16251191  0.09994072
   0.68497251  0.84247974  0.09994098
   0.84498303  0.68246692  0.09994070
   0.16658409  0.33317063  0.32887793
   0.33316966  0.16658468  0.32887876
   0.16658408  0.83341289  0.32887793
   0.33332975  0.66666472  0.32854948
   0.66666320  0.33333131  0.32854948
   0.83341198  0.16658511  0.32887609
   0.66682560  0.83341251  0.32887507
   0.83341199  0.66682657  0.32887609
Direct configuration=     9
   0.33833084  0.66916544  0.10019836
   0.67166601  0.33583192  0.10019835
   0.16501943  0.32253793  0.09993995
   0.32503665  0.16252424  0.09993935
   0.16502621  0.84248527  0.09993996
   0.84497677  0.16251194  0.09994089
   0.68497235  0.84247982  0.09994115
   0.84498331  0.68246697  0.09994087
   0.16658324  0.33316892  0.32887785
   0.33316795  0.16658382  0.32887867
   0.16658323  0.83341376  0.32887785
   0.33332976  0.66666472  0.32854987
   0.66666321  0.33333132  0.32854987
   0.83341286  0.16658426  0.32887601
   0.66682732  0.83341338  0.32887500
   0.83341287  0.66682829  0.32887601
Direct configuration=    10
   0.33833076  0.66916545  0.10019868
   0.67166598  0.33583195  0.10019867
   0.16501961  0.32253799  0.09993987
   0.32503669  0.16252428  0.09993926
   0.16502628  0.84248523  0.09993987
   0.84497669  0.16251193  0.09994081
   0.68497243  0.84247978  0.09994107
   0.84498318  0.68246695  0.09994079
   0.16658365  0.33316974  0.32887789
   0.33316878  0.16658423  0.32887871
   0.16658364  0.83341334  0.32887789
   0.33332975  0.66666472  0.32854968
   0.66666320  0.33333131  0.32854968
   0.83341244  0.16658467  0.32887605
   0.66682649  0.83341296  0.32887503
   0.83341244  0.66682746  0.32887605
Direct configuration=    11
   0.33833956  0.66916790  0.10022870
   0.67166037  0.33583425  0.10022870
   0.16500569  0.32253611  0.09993374
   0.32504514  0.16251608  0.09993286
   0.16501146  0.84248428  0.09993373
   0.84499571  0.16251955  0.09993513
   0.68495799  0.84248355  0.09993562
   0.84500283  0.68246530  0.09993511
   0.16658212  0.33316838  0.32887071
   0.33316695  0.16658316  0.32887168
   0.16658213  0.83341355  0.32887071
   0.33332893  0.66666415  0.32855937
   0.66666219  0.33333100  0.32855937
   0.83341218  0.16658357  0.32886858
   0.66682659  0.83341320  0.32886742
   0.83341217  0.66682796  0.32886857
Direct configuration=    12
   0.33834146  0.66916843  0.10023518
   0.67165917  0.33583475  0.10023518
   0.16500268  0.32253571  0.09993241
   0.32504696  0.16251431  0.09993148
   0.16500827  0.84248407  0.09993240
   0.84499982  0.16252120  0.09993390
   0.68495487  0.84248437  0.09993444
   0.84500707  0.68246495  0.09993389
   0.16658179  0.33316808  0.32886916
   0.33316656  0.16658293  0.32887017
   0.16658180  0.83341359  0.32886916
   0.33332875  0.66666403  0.32856146
   0.66666197  0.33333093  0.32856146
   0.83341213  0.16658333  0.32886696
   0.66682661  0.83341325  0.32886577
   0.83341211  0.66682806  0.32886696
Direct configuration=    13
   0.33833748  0.66916842  0.10024805
   0.67166339  0.33583439  0.10024805
   0.16501302  0.32253625  0.09993020
   0.32504195  0.16251612  0.09992912
   0.16501550  0.84248403  0.09993019
   0.84499294  0.16252014  0.09993194
   0.68496287  0.84248422  0.09993259
   0.84499693  0.68246606  0.09993192
   0.16657969  0.33316453  0.32886566
   0.33316276  0.16658108  0.32886673
   0.16657970  0.83341499  0.32886566
   0.33332826  0.66666383  0.32856557
   0.66666151  0.33333068  0.32856557
   0.83341329  0.16658149  0.32886334
   0.66682944  0.83341464  0.32886209
   0.83341327  0.66683116  0.32886334
Direct configuration=    14
   0.33833404  0.66916841  0.10025916
   0.67166704  0.33583407  0.10025916
   0.16502195  0.32253673  0.09992828
   0.32503762  0.16251768  0.09992708
   0.16502175  0.84248399  0.09992828
   0.84498701  0.16251922  0.09993024
   0.68496977  0.84248409  0.09993099
   0.84498818  0.68246702  0.09993022
   0.16657787  0.33316145  0.32886264
   0.33315948  0.16657947  0.32886377
   0.16657788  0.83341620  0.32886264
   0.33332784  0.66666365  0.32856912
   0.66666111  0.33333045  0.32856912
   0.83341429  0.16657990  0.32886021
   0.66683188  0.83341583  0.32885890
   0.83341428  0.66683383  0.32886021
Direct configuration=    15
   0.33833417  0.66916841  0.10025874
   0.67166691  0.33583409  0.10025875
   0.16502162  0.32253671  0.09992835
   0.32503778  0.16251762  0.09992715
   0.16502151  0.84248399  0.09992835
   0.84498723  0.16251925  0.09993031
   0.68496951  0.84248410  0.09993105
   0.84498850  0.68246698  0.09993028
   0.16657794  0.33316157  0.32886275
   0.33315961  0.16657953  0.32886388
   0.16657795  0.83341615  0.32886275
   0.33332785  0.66666366  0.32856899
   0.66666113  0.33333046  0.32856898
   0.83341425  0.16657996  0.32886032
   0.66683179  0.83341579  0.32885902
   0.83341424  0.66683373  0.32886032
Direct configuration=    16
   0.33833583  0.66916842  0.10025339
   0.67166515  0.33583424  0.10025340
   0.16501732  0.32253648  0.09992927
   0.32503987  0.16251687  0.09992813
   0.16501851  0.84248401  0.09992927
   0.84499009  0.16251969  0.09993112
   0.68496619  0.84248416  0.09993182
   0.84499272  0.68246652  0.09993110
   0.16657881  0.33316305  0.32886421
   0.33316119  0.16658031  0.32886531
   0.16657882  0.83341557  0.32886421
   0.33332806  0.66666374  0.32856728
   0.66666132  0.33333057  0.32856728
   0.83341377  0.16658072  0.32886183
   0.66683061  0.83341521  0.32886056
   0.83341376  0.66683244  0.32886183
Direct configuration=    17
   0.33833431  0.66916841  0.10025830
   0.67166676  0.33583410  0.10025830
   0.16502126  0.32253669  0.09992843
   0.32503796  0.16251756  0.09992723
   0.16502126  0.84248399  0.09992843
   0.84498747  0.16251929  0.09993037
   0.68496923  0.84248410  0.09993111
   0.84498885  0.68246694  0.09993035
   0.16657801  0.33316169  0.32886287
   0.33315974  0.16657960  0.32886400
   0.16657802  0.83341610  0.32886287
   0.33332787  0.66666367  0.32856885
   0.66666114  0.33333047  0.32856884
   0.83341421  0.16658002  0.32886045
   0.66683169  0.83341574  0.32885915
   0.83341420  0.66683362  0.32886045
Direct configuration=    18
   0.33833426  0.66916841  0.10025846
   0.67166682  0.33583409  0.10025847
   0.16502139  0.32253670  0.09992840
   0.32503789  0.16251759  0.09992720
   0.16502136  0.84248399  0.09992840
   0.84498738  0.16251928  0.09993035
   0.68496934  0.84248410  0.09993109
   0.84498872  0.68246696  0.09993032
   0.16657798  0.33316164  0.32886283
   0.33315969  0.16657957  0.32886395
   0.16657799  0.83341612  0.32886283
   0.33332786  0.66666366  0.32856890
   0.66666114  0.33333047  0.32856889
   0.83341423  0.16658000  0.32886040
   0.66683173  0.83341576  0.32885910
   0.83341421  0.66683366  0.32886040
Direct configuration=    19
   0.33833432  0.66916761  0.10025838
   0.67166686  0.33583352  0.10025839
   0.16502153  0.32253772  0.09992912
   0.32503930  0.16251903  0.09992788
   0.16502153  0.84248320  0.09992912
   0.84498668  0.16251826  0.09993116
   0.68497088  0.84248478  0.09993194
   0.84498734  0.68246761  0.09993113
   0.16657802  0.33316181  0.32886243
   0.33315977  0.16657968  0.32886355
   0.16657802  0.83341586  0.32886243
   0.33332767  0.66666363  0.32856787
   0.66666103  0.33333034  0.32856786
   0.83341387  0.16658012  0.32886001
   0.66683131  0.83341548  0.32885871
   0.83341387  0.66683334  0.32886001
Direct configuration=    20
   0.33833451  0.66916520  0.10025815
   0.67166698  0.33583180  0.10025814
   0.16502195  0.32254078  0.09993128
   0.32504354  0.16252336  0.09992992
   0.16502204  0.84248083  0.09993127
   0.84498460  0.16251521  0.09993360
   0.68497551  0.84248683  0.09993450
   0.84498317  0.68246958  0.09993357
   0.16657812  0.33316232  0.32886124
   0.33316001  0.16658001  0.32886236
   0.16657810  0.83341506  0.32886124
   0.33332709  0.66666355  0.32856477
   0.66666070  0.33332997  0.32856476
   0.83341281  0.16658047  0.32885883
   0.66683005  0.83341465  0.32885754
   0.83341283  0.66683237  0.32885883
Direct configuration=    21
   0.33833488  0.66916039  0.10025767
   0.67166723  0.33582835  0.10025766
   0.16502278  0.32254692  0.09993560
   0.32505202  0.16253203  0.09993398
   0.16502307  0.84247608  0.09993559
   0.84498043  0.16250912  0.09993847
   0.68498476  0.84249093  0.09993962
   0.84497484  0.68247352  0.09993844
   0.16657832  0.33316333  0.32885886
   0.33316048  0.16658066  0.32885997
   0.16657826  0.83341346  0.32885886
   0.33332592  0.66666337  0.32855857
   0.66666003  0.33332922  0.32855857
   0.83341069  0.16658119  0.32885647
   0.66682753  0.83341298  0.32885519
   0.83341075  0.66683044  0.32885647
Direct configuration=    22
   0.33833471  0.66916266  0.10025790
   0.67166712  0.33582998  0.10025789
   0.16502239  0.32254403  0.09993356
   0.32504802  0.16252795  0.09993207
   0.16502259  0.84247832  0.09993356
   0.84498240  0.16251199  0.09993617
   0.68498040  0.84248900  0.09993721
   0.84497877  0.68247166  0.09993614
   0.16657823  0.33316286  0.32885998
   0.33316026  0.16658035  0.32886110
   0.16657819  0.83341421  0.32885998
   0.33332647  0.66666345  0.32856149
   0.66666035  0.33332957  0.32856149
   0.83341169  0.16658085  0.32885758
   0.66682871  0.83341376  0.32885629
   0.83341173  0.66683135  0.32885758
Direct configuration=    23
   0.33833498  0.66916266  0.10025791
   0.67166728  0.33583000  0.10025790
   0.16502234  0.32254403  0.09993393
   0.32504808  0.16252799  0.09993241
   0.16502260  0.84247842  0.09993392
   0.84498258  0.16251210  0.09993659
   0.68498031  0.84248906  0.09993765
   0.84497891  0.68247165  0.09993656
   0.16657815  0.33316283  0.32885975
   0.33316019  0.16658032  0.32886086
   0.16657811  0.83341416  0.32885975
   0.33332638  0.66666341  0.32856100
   0.66666026  0.33332953  0.32856099
   0.83341159  0.16658082  0.32885735
   0.66682861  0.83341371  0.32885606
   0.83341163  0.66683129  0.32885735
Direct configuration=    24
   0.33833579  0.66916267  0.10025797
   0.67166778  0.33583009  0.10025795
   0.16502221  0.32254403  0.09993504
   0.32504826  0.16252812  0.09993344
   0.16502265  0.84247873  0.09993503
   0.84498313  0.16251245  0.09993784
   0.68498004  0.84248925  0.09993897
   0.84497933  0.68247162  0.09993781
   0.16657791  0.33316277  0.32885905
   0.33315999  0.16658021  0.32886016
   0.16657787  0.83341401  0.32885905
   0.33332613  0.66666327  0.32855951
   0.66665999  0.33332941  0.32855950
   0.83341131  0.16658071  0.32885666
   0.66682828  0.83341356  0.32885537
   0.83341135  0.66683110  0.32885666
Direct configuration=    25
   0.33833742  0.66916270  0.10025807
   0.67166877  0.33583025  0.10025805
   0.16502193  0.32254403  0.09993725
   0.32504862  0.16252837  0.09993551
   0.16502274  0.84247934  0.09993723
   0.84498422  0.16251313  0.09994034
   0.68497949  0.84248963  0.09994162
   0.84498017  0.68247156  0.09994031
   0.16657744  0.33316264  0.32885765
   0.33315958  0.16658000  0.32885876
   0.16657740  0.83341371  0.32885765
   0.33332561  0.66666300  0.32855652
   0.66665945  0.33332916  0.32855652
   0.83341073  0.16658051  0.32885527
   0.66682763  0.83341326  0.32885398
   0.83341078  0.66683073  0.32885527
Direct configuration=    26
   0.33834067  0.66916274  0.10025828
   0.67167075  0.33583057  0.10025826
   0.16502138  0.32254403  0.09994167
   0.32504934  0.16252888  0.09993963
   0.16502293  0.84248057  0.09994164
   0.84498642  0.16251450  0.09994535
   0.68497840  0.84249038  0.09994691
   0.84498186  0.68247143  0.09994532
   0.16657650  0.33316238  0.32885485
   0.33315877  0.16657957  0.32885595
   0.16657644  0.83341311  0.32885486
   0.33332458  0.66666246  0.32855056
   0.66665838  0.33332866  0.32855055
   0.83340959  0.16658010  0.32885249
   0.66682633  0.83341264  0.32885120
   0.83340965  0.66682997  0.32885248
Direct configuration=    27
   0.33834717  0.66916283  0.10025869
   0.67167471  0.33583122  0.10025866
   0.16502028  0.32254403  0.09995050
   0.32505078  0.16252991  0.09994789
   0.16502331  0.84248302  0.09995047
   0.84499081  0.16251725  0.09995536
   0.68497623  0.84249187  0.09995749
   0.84498523  0.68247117  0.09995532
   0.16657461  0.33316186  0.32884926
   0.33315715  0.16657872  0.32885034
   0.16657454  0.83341191  0.32884927
   0.33332252  0.66666138  0.32853863
   0.66665624  0.33332766  0.32853863
   0.83340730  0.16657927  0.32884692
   0.66682374  0.83341142  0.32884565
   0.83340739  0.66682847  0.32884692
Direct configuration=    28
   0.33836017  0.66916300  0.10025952
   0.67168263  0.33583252  0.10025946
   0.16501807  0.32254404  0.09996818
   0.32505366  0.16253196  0.09996440
   0.16502406  0.84248792  0.09996811
   0.84499959  0.16252274  0.09997538
   0.68497187  0.84249487  0.09997866
   0.84499198  0.68247066  0.09997533
   0.16657084  0.33316082  0.32883807
   0.33315392  0.16657701  0.32883911
   0.16657074  0.83340951  0.32883808
   0.33331839  0.66665923  0.32851478
   0.66665196  0.33332566  0.32851477
   0.83340272  0.16657763  0.32883580
   0.66681854  0.83340898  0.32883454
   0.83340286  0.66682546  0.32883579
Direct configuration=    29
   0.33835094  0.66916288  0.10025893
   0.67167701  0.33583160  0.10025889
   0.16501964  0.32254404  0.09995563
   0.32505162  0.16253050  0.09995268
   0.16502353  0.84248444  0.09995559
   0.84499336  0.16251884  0.09996117
   0.68497496  0.84249274  0.09996363
   0.84498719  0.68247102  0.09996113
   0.16657352  0.33316156  0.32884601
   0.33315621  0.16657822  0.32884708
   0.16657344  0.83341121  0.32884602
   0.33332132  0.66666076  0.32853171
   0.66665500  0.33332708  0.32853170
   0.83340597  0.16657880  0.32884369
   0.66682223  0.83341071  0.32884243
   0.83340608  0.66682760  0.32884369
Direct configuration=    30
   0.33834786  0.66916698  0.10026112
   0.67167803  0.33583445  0.10026108
   0.16502478  0.32254188  0.09995922
   0.32504754  0.16252683  0.09995596
   0.16502755  0.84248689  0.09995917
   0.84499378  0.16252143  0.09996533
   0.68497622  0.84249075  0.09996808
   0.84499060  0.68247086  0.09996528
   0.16657153  0.33315960  0.32884261
   0.33315379  0.16657680  0.32884367
   0.16657149  0.83341163  0.32884262
   0.33332042  0.66666011  0.32852812
   0.66665383  0.33332674  0.32852811
   0.83340590  0.16657732  0.32884030
   0.66682272  0.83341119  0.32883904
   0.83340597  0.66682853  0.32884030
Direct configuration=    31
   0.33834139  0.66917560  0.10026570
   0.67168017  0.33584044  0.10026566
   0.16503557  0.32253737  0.09996673
   0.32503901  0.16251912  0.09996284
   0.16503597  0.84249201  0.09996667
   0.84499468  0.16252684  0.09997405
   0.68497884  0.84248658  0.09997741
   0.84499776  0.68247053  0.09997399
   0.16656735  0.33315549  0.32883547
   0.33314870  0.16657382  0.32883653
   0.16656739  0.83341251  0.32883548
   0.33331855  0.66665876  0.32852059
   0.66665138  0.33332604  0.32852058
   0.83340576  0.16657423  0.32883318
   0.66682374  0.83341220  0.32883193
   0.83340575  0.66683047  0.32883318
Direct configuration=    32
   0.33832846  0.66919282  0.10027487
   0.67168445  0.33585241  0.10027483
   0.16505715  0.32252834  0.09998176
   0.32502194  0.16250370  0.09997661
   0.16505281  0.84250226  0.09998169
   0.84499646  0.16253767  0.09999149
   0.68498409  0.84247823  0.09999607
   0.84501207  0.68246986  0.09999142
   0.16655901  0.33314727  0.32882120
   0.33313852  0.16656787  0.32882224
   0.16655918  0.83341426  0.32882120
   0.33331480  0.66665605  0.32850552
   0.66664648  0.33332464  0.32850552
   0.83340548  0.16656804  0.32881894
   0.66682579  0.83341421  0.32881771
   0.83340530  0.66683437  0.32881894
Direct configuration=    33
   0.33833928  0.66917841  0.10026720
   0.67168087  0.33584239  0.10026716
   0.16503910  0.32253590  0.09996918
   0.32503622  0.16251660  0.09996509
   0.16503872  0.84249369  0.09996913
   0.84499497  0.16252861  0.09997690
   0.68497970  0.84248521  0.09998046
   0.84500009  0.68247042  0.09997684
   0.16656599  0.33315415  0.32883314
   0.33314704  0.16657285  0.32883420
   0.16656605  0.83341279  0.32883315
   0.33331794  0.66665832  0.32851813
   0.66665058  0.33332581  0.32851812
   0.83340572  0.16657322  0.32883085
   0.66682408  0.83341253  0.32882961
   0.83340567  0.66683111  0.32883085
Direct configuration=    34
   0.33833834  0.66917967  0.10027059
   0.67167921  0.33584346  0.10027055
   0.16503990  0.32253702  0.09997231
   0.32503919  0.16251604  0.09996794
   0.16503877  0.84249326  0.09997228
   0.84499679  0.16252854  0.09998062
   0.68498143  0.84248557  0.09998448
   0.84500347  0.68247162  0.09998054
   0.16656473  0.33315309  0.32882942
   0.33314548  0.16657216  0.32883047
   0.16656481  0.83341249  0.32882942
   0.33331688  0.66665787  0.32851563
   0.66664961  0.33332529  0.32851562
   0.83340491  0.16657249  0.32882713
   0.66682362  0.83341226  0.32882589
   0.83340485  0.66683116  0.32882713
Direct configuration=    35
   0.33833553  0.66918345  0.10028075
   0.67167425  0.33584667  0.10028071
   0.16504232  0.32254039  0.09998170
   0.32504808  0.16251437  0.09997647
   0.16503893  0.84249198  0.09998173
   0.84500224  0.16252832  0.09999178
   0.68498661  0.84248665  0.09999652
   0.84501360  0.68247522  0.09999165
   0.16656097  0.33314992  0.32881824
   0.33314081  0.16657009  0.32881928
   0.16656110  0.83341159  0.32881824
   0.33331372  0.66665655  0.32850813
   0.66664671  0.33332371  0.32850812
   0.83340250  0.16657032  0.32881597
   0.66682227  0.83341146  0.32881475
   0.83340237  0.66683131  0.32881597
Direct configuration=    36
   0.33832989  0.66919101  0.10030108
   0.67166432  0.33585309  0.10030103
   0.16504716  0.32254714  0.10000046
   0.32506588  0.16251103  0.09999353
   0.16503924  0.84248941  0.10000062
   0.84501314  0.16252789  0.10001409
   0.68499698  0.84248881  0.10002061
   0.84503385  0.68248243  0.10001386
   0.16655343  0.33314358  0.32879589
   0.33313147  0.16656594  0.32879691
   0.16655368  0.83340979  0.32879589
   0.33330739  0.66665389  0.32849312
   0.66664090  0.33332056  0.32849313
   0.83339769  0.16656597  0.32879366
   0.66681956  0.83340987  0.32879247
   0.83339742  0.66683160  0.32879366
Direct configuration=    37
   0.33833253  0.66918747  0.10029156
   0.67166897  0.33585008  0.10029151
   0.16504490  0.32254397  0.09999167
   0.32505754  0.16251260  0.09998553
   0.16503909  0.84249061  0.09999177
   0.84500803  0.16252809  0.10000363
   0.68499212  0.84248780  0.10000932
   0.84502436  0.68247905  0.10000345
   0.16655696  0.33314655  0.32880636
   0.33313585  0.16656789  0.32880739
   0.16655715  0.83341063  0.32880636
   0.33331036  0.66665513  0.32850015
   0.66664362  0.33332204  0.32850015
   0.83339994  0.16656801  0.32880412
   0.66682083  0.83341061  0.32880291
   0.83339974  0.66683146  0.32880411
Direct configuration=    38
   0.33833101  0.66918951  0.10029704
   0.67166629  0.33585181  0.10029699
   0.16504620  0.32254579  0.09999673
   0.32506234  0.16251169  0.09999014
   0.16503918  0.84248992  0.09999687
   0.84501097  0.16252798  0.10000965
   0.68499492  0.84248838  0.10001582
   0.84502983  0.68248099  0.10000944
   0.16655493  0.33314484  0.32880033
   0.33313333  0.16656677  0.32880135
   0.16655515  0.83341015  0.32880033
   0.33330865  0.66665442  0.32849611
   0.66664205  0.33332119  0.32849611
   0.83339864  0.16656684  0.32879809
   0.66682010  0.83341018  0.32879690
   0.83339840  0.66683154  0.32879809
Direct configuration=    39
   0.33833051  0.66919018  0.10029886
   0.67166541  0.33585239  0.10029880
   0.16504663  0.32254640  0.09999841
   0.32506393  0.16251140  0.09999166
   0.16503920  0.84248969  0.09999855
   0.84501194  0.16252794  0.10001164
   0.68499584  0.84248857  0.10001797
   0.84503164  0.68248164  0.10001143
   0.16655426  0.33314427  0.32879834
   0.33313249  0.16656640  0.32879936
   0.16655449  0.83340999  0.32879834
   0.33330808  0.66665418  0.32849477
   0.66664154  0.33332090  0.32849477
   0.83339822  0.16656645  0.32879610
   0.66681986  0.83341004  0.32879491
   0.83339796  0.66683157  0.32879610
Direct configuration=    40
   0.33833469  0.66918885  0.10030456
   0.67166864  0.33585186  0.10030450
   0.16504782  0.32254802  0.10000251
   0.32506596  0.16251510  0.09999534
   0.16504086  0.84249020  0.10000267
   0.84501235  0.16252797  0.10001662
   0.68499723  0.84248989  0.10002338
   0.84502914  0.68248195  0.10001638
   0.16655349  0.33314472  0.32879302
   0.33313216  0.16656633  0.32879403
   0.16655369  0.83340866  0.32879302
   0.33330658  0.66665352  0.32849140
   0.66664013  0.33332012  0.32849140
   0.83339612  0.16656642  0.32879079
   0.66681724  0.83340866  0.32878960
   0.83339589  0.66682974  0.32879079
Direct configuration=    41
   0.33834723  0.66918484  0.10032166
   0.67167832  0.33585026  0.10032159
   0.16505139  0.32255288  0.10001481
   0.32507207  0.16252621  0.10000639
   0.16504583  0.84249171  0.10001504
   0.84501355  0.16252809  0.10003153
   0.68500139  0.84249382  0.10003958
   0.84502166  0.68248291  0.10003125
   0.16655118  0.33314605  0.32877706
   0.33313116  0.16656611  0.32877806
   0.16655131  0.83340467  0.32877706
   0.33330208  0.66665155  0.32848129
   0.66663592  0.33331778  0.32848129
   0.83338983  0.16656633  0.32877485
   0.66680938  0.83340452  0.32877368
   0.83338969  0.66682427  0.32877485
Direct configuration=    42
   0.33837230  0.66917682  0.10035587
   0.67169769  0.33584706  0.10035578
   0.16505853  0.32256261  0.10003942
   0.32508429  0.16254842  0.10002849
   0.16505578  0.84249474  0.10003978
   0.84501596  0.16252831  0.10006137
   0.68500971  0.84250170  0.10007200
   0.84500669  0.68248481  0.10006097
   0.16654657  0.33314871  0.32874514
   0.33312915  0.16656568  0.32874613
   0.16654654  0.83339669  0.32874514
   0.33329308  0.66664761  0.32846106
   0.66662749  0.33331310  0.32846107
   0.83337726  0.16656615  0.32874298
   0.66679366  0.83339624  0.32874183
   0.83337729  0.66681333  0.32874298
Direct configuration=    43
   0.33838253  0.66917354  0.10036983
   0.67170560  0.33584576  0.10036973
   0.16506144  0.32256658  0.10004946
   0.32508927  0.16255749  0.10003750
   0.16505984  0.84249597  0.10004987
   0.84501695  0.16252840  0.10007355
   0.68501310  0.84250491  0.10008522
   0.84500058  0.68248559  0.10007310
   0.16654469  0.33314980  0.32873212
   0.33312833  0.16656550  0.32873309
   0.16654459  0.83339344  0.32873211
   0.33328940  0.66664600  0.32845281
   0.66662406  0.33331118  0.32845282
   0.83337214  0.16656608  0.32872997
   0.66678725  0.83339287  0.32872884
   0.83337223  0.66680886  0.32872997
Direct configuration=    44
   0.33837546  0.66917581  0.10036018
   0.67170013  0.33584666  0.10036009
   0.16505943  0.32256384  0.10004252
   0.32508583  0.16255122  0.10003127
   0.16505703  0.84249512  0.10004289
   0.84501627  0.16252834  0.10006513
   0.68501076  0.84250269  0.10007608
   0.84500480  0.68248506  0.10006472
   0.16654599  0.33314905  0.32874112
   0.33312890  0.16656563  0.32874210
   0.16654594  0.83339569  0.32874112
   0.33329194  0.66664711  0.32845852
   0.66662643  0.33331251  0.32845852
   0.83337568  0.16656613  0.32873896
   0.66679168  0.83339520  0.32873782
   0.83337572  0.66681195  0.32873896
Direct configuration=    45
   0.33838318  0.66917963  0.10037518
   0.67171020  0.33584856  0.10037507
   0.16505825  0.32255981  0.10005140
   0.32508092  0.16254698  0.10003909
   0.16505958  0.84250153  0.10005179
   0.84502384  0.16253547  0.10007620
   0.68500820  0.84250627  0.10008820
   0.84501492  0.68248497  0.10007577
   0.16654085  0.33314568  0.32872960
   0.33312365  0.16656229  0.32873058
   0.16654077  0.83339539  0.32872960
   0.33328868  0.66664481  0.32844813
   0.66662229  0.33331118  0.32844813
   0.83337347  0.16656280  0.32872746
   0.66678966  0.83339490  0.32872633
   0.83337354  0.66681173  0.32872746
Direct configuration=    46
   0.33839014  0.66918309  0.10038869
   0.67171927  0.33585027  0.10038858
   0.16505719  0.32255618  0.10005939
   0.32507650  0.16254316  0.10004614
   0.16506188  0.84250731  0.10005981
   0.84503066  0.16254189  0.10008618
   0.68500590  0.84250950  0.10009913
   0.84502403  0.68248490  0.10008573
   0.16653622  0.33314265  0.32871922
   0.33311891  0.16655928  0.32872020
   0.16653611  0.83339512  0.32871922
   0.33328574  0.66664272  0.32843877
   0.66661856  0.33330998  0.32843877
   0.83337148  0.16655980  0.32871710
   0.66678784  0.83339464  0.32871597
   0.83337157  0.66681153  0.32871710
Direct configuration=    47
   0.33838229  0.66918857  0.10039844
   0.67171600  0.33585330  0.10039832
   0.16506284  0.32255731  0.10006386
   0.32507992  0.16253997  0.10004987
   0.16506505  0.84250577  0.10006425
   0.84503183  0.16254179  0.10009214
   0.68501401  0.84250917  0.10010577
   0.84503152  0.68248920  0.10009172
   0.16653228  0.33313803  0.32871385
   0.33311326  0.16655663  0.32871481
   0.16653222  0.83339555  0.32871384
   0.33328347  0.66664177  0.32842952
   0.66661647  0.33330886  0.32842952