   8   8   0  16
  0.3741230E+02  0.4800000E-09  0.4800000E-09  0.1500000E-08  0.5000000E-15
  1.000000000000000E-004
  CAR 
 Graphene                                
     14.16639387    -23.85253922  301     -1.94953385      1.00000000
    -23.853  0.0000E+00  0.0000E+00
    -23.726  0.0000E+00  0.0000E+00
    -23.599  0.0000E+00  0.0000E+00
    -23.472  0.0000E+00  0.0000E+00
    -23.346  0.0000E+00  0.0000E+00
    -23.219  0.0000E+00  0.0000E+00
    -23.092  0.0000E+00  0.0000E+00
    -22.965  0.0000E+00  0.0000E+00
    -22.839  0.0000E+00  0.0000E+00
    -22.712  0.6084E-19  0.7710E-20
    -22.585  0.4265E-13  0.5406E-14
    -22.459  0.1578E-08  0.2000E-09
    -22.332  0.3155E-05  0.4000E-06
    -22.205  0.4110E-03  0.5249E-04
    -22.078  0.4840E-02  0.6659E-03
    -21.952  0.1079E-01  0.2033E-02
    -21.825  0.1169E-01  0.3515E-02
    -21.698  0.1151E-01  0.4974E-02
    -21.571  0.1225E-01  0.6527E-02
    -21.445  0.1157E-01  0.7993E-02
    -21.318  0.1068E-01  0.9347E-02
    -21.191  0.1477E-01  0.1122E-01
    -21.064  0.8292E-02  0.1227E-01
    -20.938  0.1306E-01  0.1392E-01
    -20.811  0.1451E-01  0.1576E-01
    -20.684  0.8414E-02  0.1683E-01
    -20.558  0.1089E-01  0.1821E-01
    -20.431  0.1685E-01  0.2035E-01
    -20.304  0.1037E-01  0.2166E-01
    -20.177  0.8072E-02  0.2268E-01
    -20.051  0.1289E-01  0.2432E-01
    -19.924  0.1769E-01  0.2656E-01
    -19.797  0.9033E-02  0.2770E-01
    -19.670  0.8770E-02  0.2881E-01
    -19.544  0.1130E-01  0.3025E-01
    -19.417  0.1773E-01  0.3249E-01
    -19.290  0.1354E-01  0.3421E-01
    -19.164  0.7270E-02  0.3513E-01
    -19.037  0.8015E-02  0.3615E-01
    -18.910  0.1717E-01  0.3832E-01
    -18.783  0.1534E-01  0.4027E-01
    -18.657  0.1216E-01  0.4181E-01
    -18.530  0.1018E-01  0.4310E-01
    -18.403  0.4813E-02  0.4371E-01
    -18.276  0.1741E-01  0.4592E-01
    -18.150  0.1883E-01  0.4830E-01
    -18.023  0.1094E-01  0.4969E-01
    -17.896  0.9560E-02  0.5090E-01
    -17.770  0.1029E-01  0.5220E-01
    -17.643  0.8385E-02  0.5327E-01
    -17.516  0.1952E-01  0.5574E-01
    -17.389  0.1890E-01  0.5813E-01
    -17.263  0.9199E-02  0.5930E-01
    -17.136  0.8792E-02  0.6041E-01
    -17.009  0.9863E-02  0.6166E-01
    -16.882  0.1445E-01  0.6350E-01
    -16.756  0.1860E-01  0.6585E-01
    -16.629  0.2007E-01  0.6840E-01
    -16.502  0.1299E-01  0.7004E-01
    -16.375  0.1308E-01  0.7170E-01
    -16.249  0.4420E-02  0.7226E-01
    -16.122  0.1006E-01  0.7354E-01
    -15.995  0.2241E-01  0.7638E-01
    -15.869  0.6527E-02  0.7720E-01
    -15.742  0.1322E-02  0.7737E-01
    -15.615  0.5129E-02  0.7802E-01
    -15.488  0.1226E-01  0.7957E-01
    -15.362  0.1839E-01  0.8190E-01
    -15.235  0.1558E-01  0.8388E-01
    -15.108  0.1020E-01  0.8517E-01
    -14.981  0.7785E-02  0.8616E-01
    -14.855  0.1467E-01  0.8802E-01
    -14.728  0.1766E-01  0.9026E-01
    -14.601  0.1269E-01  0.9186E-01
    -14.475  0.1575E-01  0.9386E-01
    -14.348  0.1639E-01  0.9594E-01
    -14.221  0.1431E-01  0.9775E-01
    -14.094  0.1030E-01  0.9906E-01
    -13.968  0.1402E-01  0.1008E+00
    -13.841  0.1873E-01  0.1032E+00
    -13.714  0.8591E-02  0.1043E+00
    -13.587  0.9322E-02  0.1055E+00
    -13.461  0.9883E-02  0.1067E+00
    -13.334  0.1719E-01  0.1089E+00
    -13.207  0.1251E-01  0.1105E+00
    -13.081  0.5280E-02  0.1112E+00
    -12.954  0.1272E-01  0.1128E+00
    -12.827  0.1662E-01  0.1149E+00
    -12.700  0.1729E-01  0.1171E+00
    -12.574  0.1480E-01  0.1189E+00
    -12.447  0.7649E-02  0.1199E+00
    -12.320  0.1190E-01  0.1214E+00
    -12.193  0.1372E-01  0.1232E+00
    -12.067  0.2062E-01  0.1258E+00
    -11.940  0.1389E-01  0.1275E+00
    -11.813  0.1141E-01  0.1290E+00
    -11.686  0.2107E-01  0.1317E+00
    -11.560  0.1194E-01  0.1332E+00
    -11.433  0.3105E-02  0.1336E+00
    -11.306  0.1271E-01  0.1352E+00
    -11.180  0.3070E-01  0.1391E+00
    -11.053  0.2031E-01  0.1416E+00
    -10.926  0.9189E-02  0.1428E+00
    -10.799  0.5583E-02  0.1435E+00
    -10.673  0.1215E-01  0.1450E+00
    -10.546  0.2736E-01  0.1485E+00
    -10.419  0.1896E-01  0.1509E+00
    -10.292  0.1285E-01  0.1525E+00
    -10.166  0.1118E-01  0.1540E+00
    -10.039  0.3021E-01  0.1578E+00
     -9.912  0.2754E-01  0.1613E+00
     -9.786  0.1834E-01  0.1636E+00
     -9.659  0.3382E-01  0.1679E+00
     -9.532  0.3046E-01  0.1718E+00
     -9.405  0.3287E-01  0.1759E+00
     -9.279  0.1605E-01  0.1780E+00
     -9.152  0.3182E-01  0.1820E+00
     -9.025  0.4385E-01  0.1875E+00
     -8.898  0.3110E-01  0.1915E+00
     -8.772  0.2914E-01  0.1952E+00
     -8.645  0.3997E-01  0.2002E+00
     -8.518  0.3881E-01  0.2052E+00
     -8.392  0.4707E-01  0.2111E+00
     -8.265  0.3482E-01  0.2155E+00
     -8.138  0.3547E-01  0.2200E+00
     -8.011  0.2357E-01  0.2230E+00
     -7.885  0.2817E-01  0.2266E+00
     -7.758  0.3071E-01  0.2305E+00
     -7.631  0.2380E-01  0.2335E+00
     -7.504  0.3514E-01  0.2380E+00
     -7.378  0.2697E-01  0.2414E+00
     -7.251  0.1593E-01  0.2434E+00
     -7.124  0.2190E-01  0.2462E+00
     -6.997  0.3150E-01  0.2502E+00
     -6.871  0.2852E-01  0.2538E+00
     -6.744  0.1875E-01  0.2561E+00
     -6.617  0.1813E-01  0.2584E+00
     -6.491  0.2750E-01  0.2619E+00
     -6.364  0.2212E-01  0.2647E+00
     -6.237  0.1984E-01  0.2672E+00
     -6.110  0.2277E-01  0.2701E+00
     -5.984  0.3207E-01  0.2742E+00
     -5.857  0.1213E-01  0.2757E+00
     -5.730  0.1109E-01  0.2771E+00
     -5.603  0.3052E-01  0.2810E+00
     -5.477  0.2831E-01  0.2846E+00
     -5.350  0.2079E-01  0.2872E+00
     -5.223  0.1857E-01  0.2896E+00
     -5.097  0.1459E-01  0.2914E+00
     -4.970  0.1809E-01  0.2937E+00
     -4.843  0.2311E-01  0.2966E+00
     -4.716  0.2359E-01  0.2996E+00
     -4.590  0.1846E-01  0.3020E+00
     -4.463  0.1643E-01  0.3041E+00
     -4.336  0.7835E-02  0.3051E+00
     -4.209  0.1352E-01  0.3068E+00
     -4.083  0.3163E-01  0.3108E+00
     -3.956  0.1140E-01  0.3122E+00
     -3.829  0.3549E-02  0.3127E+00
     -3.703  0.3220E-02  0.3131E+00
     -3.576  0.5815E-02  0.3138E+00
     -3.449  0.1060E-01  0.3152E+00
     -3.322  0.1250E-01  0.3167E+00
     -3.196  0.3808E-02  0.3172E+00
     -3.069  0.2397E-02  0.3175E+00
     -2.942  0.3693E-02  0.3180E+00
     -2.815  0.7883E-03  0.3181E+00
     -2.689  0.5237E-02  0.3188E+00
     -2.562  0.6883E-02  0.3196E+00
     -2.435  0.7261E-03  0.3197E+00
     -2.308  0.4673E-05  0.3197E+00
     -2.182  0.2244E-05  0.3197E+00
     -2.055  0.2953E-03  0.3198E+00
     -1.928  0.2412E-02  0.3201E+00
     -1.802  0.1594E-02  0.3203E+00
     -1.675  0.7951E-04  0.3203E+00
     -1.548  0.3415E-06  0.3203E+00
     -1.421  0.8191E-04  0.3203E+00
     -1.295  0.3075E-02  0.3207E+00
     -1.168  0.8176E-02  0.3217E+00
     -1.041  0.2383E-02  0.3220E+00
     -0.914  0.3866E-02  0.3225E+00
     -0.788  0.2085E-02  0.3228E+00
     -0.661  0.2465E-02  0.3231E+00
     -0.534  0.1859E-01  0.3254E+00
     -0.408  0.1596E-01  0.3275E+00
     -0.281  0.1002E-01  0.3287E+00
     -0.154  0.2193E-01  0.3315E+00
     -0.027  0.1860E-01  0.3339E+00
      0.099  0.2060E-01  0.3365E+00
      0.226  0.2083E-01  0.3391E+00
      0.353  0.9477E-02  0.3403E+00
      0.480  0.1409E-01  0.3421E+00
      0.606  0.8584E-02  0.3432E+00
      0.733  0.7058E-02  0.3441E+00
      0.860  0.9221E-02  0.3453E+00
      0.986  0.2010E-01  0.3478E+00
      1.113  0.1860E-01  0.3502E+00
      1.240  0.1107E-01  0.3516E+00
      1.367  0.1495E-01  0.3535E+00
      1.493  0.2198E-01  0.3562E+00
      1.620  0.1506E-01  0.3581E+00
      1.747  0.1412E-01  0.3599E+00
      1.874  0.1976E-01  0.3624E+00
      2.000  0.2469E-01  0.3656E+00
      2.127  0.2767E-01  0.3691E+00
      2.254  0.2291E-01  0.3720E+00
      2.381  0.1882E-01  0.3744E+00
      2.507  0.2318E-01  0.3773E+00
      2.634  0.2995E-01  0.3811E+00
      2.761  0.4360E-01  0.3866E+00
      2.887  0.3524E-01  0.3911E+00
      3.014  0.2689E-01  0.3945E+00
      3.141  0.2531E-01  0.3977E+00
      3.268  0.4470E-01  0.4034E+00
      3.394  0.3247E-01  0.4075E+00
      3.521  0.1957E-01  0.4100E+00
      3.648  0.3575E-01  0.4145E+00
      3.775  0.3216E-01  0.4186E+00
      3.901  0.3993E-01  0.4236E+00
      4.028  0.3211E-01  0.4277E+00
      4.155  0.3124E-01  0.4317E+00
      4.281  0.3083E-01  0.4356E+00
      4.408  0.3596E-01  0.4401E+00
      4.535  0.3536E-01  0.4446E+00
      4.662  0.2923E-01  0.4483E+00
      4.788  0.4876E-01  0.4545E+00
      4.915  0.4556E-01  0.4603E+00
      5.042  0.3840E-01  0.4651E+00
      5.169  0.3829E-01  0.4700E+00
      5.295  0.3352E-01  0.4742E+00
      5.422  0.4646E-01  0.4801E+00
      5.549  0.5799E-01  0.4875E+00
      5.675  0.6163E-01  0.4953E+00
      5.802  0.4346E-01  0.5008E+00
      5.929  0.5212E-01  0.5074E+00
      6.056  0.4835E-01  0.5135E+00
      6.182  0.3134E-01  0.5175E+00
      6.309  0.5860E-01  0.5249E+00
      6.436  0.7692E-01  0.5347E+00
      6.563  0.7721E-01  0.5445E+00
      6.689  0.6952E-01  0.5533E+00
      6.816  0.6900E-01  0.5620E+00
      6.943  0.8181E-01  0.5724E+00
      7.070  0.8948E-01  0.5837E+00
      7.196  0.8742E-01  0.5948E+00
      7.323  0.1063E+00  0.6083E+00
      7.450  0.8438E-01  0.6190E+00
      7.576  0.6404E-01  0.6271E+00
      7.703  0.6444E-01  0.6352E+00
      7.830  0.5299E-01  0.6419E+00
      7.957  0.6995E-01  0.6508E+00
      8.083  0.9023E-01  0.6622E+00
      8.210  0.7733E-01  0.6720E+00
      8.337  0.6129E-01  0.6798E+00
      8.464  0.5629E-01  0.6869E+00
      8.590  0.6199E-01  0.6948E+00
      8.717  0.7476E-01  0.7043E+00
      8.844  0.8342E-01  0.7149E+00
      8.970  0.8139E-01  0.7252E+00
      9.097  0.1104E+00  0.7392E+00
      9.224  0.9308E-01  0.7510E+00
      9.351  0.4851E-01  0.7571E+00
      9.477  0.7294E-01  0.7663E+00
      9.604  0.8493E-01  0.7771E+00
      9.731  0.6934E-01  0.7859E+00
      9.858  0.7393E-01  0.7953E+00
      9.984  0.7809E-01  0.8052E+00
     10.111  0.8497E-01  0.8159E+00
     10.238  0.9301E-01  0.8277E+00
     10.365  0.6302E-01  0.8357E+00
     10.491  0.7794E-01  0.8456E+00
     10.618  0.9373E-01  0.8575E+00
     10.745  0.6412E-01  0.8656E+00
     10.871  0.6172E-01  0.8734E+00
     10.998  0.7074E-01  0.8824E+00
     11.125  0.8150E-01  0.8927E+00
     11.252  0.8580E-01  0.9036E+00
     11.378  0.8989E-01  0.9150E+00
     11.505  0.8432E-01  0.9257E+00
     11.632  0.8487E-01  0.9364E+00
     11.759  0.4594E-01  0.9422E+00
     11.885  0.4529E-01  0.9480E+00
     12.012  0.3936E-01  0.9530E+00
     12.139  0.1988E-01  0.9555E+00
     12.265  0.1246E-01  0.9571E+00
     12.392  0.1538E-01  0.9590E+00
     12.519  0.6964E-02  0.9599E+00
     12.646  0.8814E-03  0.9600E+00
     12.772  0.1110E-04  0.9600E+00
     12.899  0.7570E-08  0.9600E+00
     13.026  0.2355E-12  0.9600E+00
     13.153  0.0000E+00  0.9600E+00
     13.279  0.0000E+00  0.9600E+00
     13.406  0.0000E+00  0.9600E+00
     13.533  0.0000E+00  0.9600E+00
     13.659  0.0000E+00  0.9600E+00
     13.786  0.0000E+00  0.9600E+00
     13.913  0.0000E+00  0.9600E+00
     14.040  0.0000E+00  0.9600E+00
     14.166  0.0000E+00  0.9600E+00
