Graphene                                
           1
     4.156922    2.400000    0.000000
    -4.156922    2.400000    0.000000
     0.000000    0.000000   15.000000
   C 
     8
Direct configuration=     1
   0.16666600  0.33333300  0.10000000
   0.33333300  0.16666600  0.10000000
   0.16666600  0.83333300  0.10000000
   0.33333300  0.66666600  0.10000000
   0.66666600  0.33333300  0.10000000
   0.83333300  0.16666600  0.10000000
   0.66666600  0.83333300  0.10000000
   0.83333300  0.66666600  0.10000000
