 vasp.5.4.4.18Apr17-6-g9f103f2a35 (build Mar 30 2023 15:39:25) complex          
  
 executed on             LinuxIFC date 2023.07.19  12:37:35
 running on   16 total cores
 distrk:  each k-point on   16 cores,    1 groups
 distr:  one band on NCORES_PER_BAND=   1 cores,   16 groups


--------------------------------------------------------------------------------------------------------


 INCAR:
 POTCAR:    PAW_PBE B 06Sep2000                   
 POTCAR:    PAW_PBE C 08Apr2002                   

 ----------------------------------------------------------------------------- 
|                                                                             |
|           W    W    AA    RRRRR   N    N  II  N    N   GGGG   !!!           |
|           W    W   A  A   R    R  NN   N  II  NN   N  G    G  !!!           |
|           W    W  A    A  R    R  N N  N  II  N N  N  G       !!!           |
|           W WW W  AAAAAA  RRRRR   N  N N  II  N  N N  G  GGG   !            |
|           WW  WW  A    A  R   R   N   NN  II  N   NN  G    G                |
|           W    W  A    A  R    R  N    N  II  N    N   GGGG   !!!           |
|                                                                             |
|      For optimal performance we recommend to set                            |
|        NCORE= 4 - approx SQRT( number of cores)                             |
|      NCORE specifies how many cores store one orbital (NPAR=cpu/NCORE).     |
|      This setting can  greatly improve the performance of VASP for DFT.     |
|      The default,   NCORE=1            might be grossly inefficient         |
|      on modern multi-core architectures or massively parallel machines.     |
|      Do your own testing !!!!                                               |
|      Unfortunately you need to use the default for GW and RPA calculations. |
|      (for HF NCORE is supported but not extensively tested yet)             |
|                                                                             |
 ----------------------------------------------------------------------------- 

 POTCAR:    PAW_PBE B 06Sep2000                   
   SHA256 =  a32ced30f5ae56fd4d10b4325ff17eb3e4e38ee0f4288bc219fb012fddfa6e97 B/
   COPYR  = (c) Copyright 06Sep2000 Georg Kresse                                
   COPYR  = This file is part of the software VASP. Any use, copying, and all ot
   COPYR  = If you do not have a valid VASP license, you may not use, copy or di
   VRHFIN =B: s2p1                                                              
   LEXCH  = PE                                                                  
   EATOM  =    71.1703 eV,    5.2309 Ry                                         
                                                                                
   TITEL  = PAW_PBE B 06Sep2000                                                 
   LULTRA =        F    use ultrasoft PP ?                                      
   IUNSCR =        1    unscreen: 0-lin 1-nonlin 2-no                           
   RPACOR =    1.200    partial core radius                                     
   POMASS =   10.811; ZVAL   =    3.000    mass and valenz                      
   RCORE  =    1.700    outmost cutoff radius                                   
   RWIGS  =    1.710; RWIGS  =    0.905    wigner-seitz radius (au A)           
   ENMAX  =  318.614; ENMIN  =  238.960 eV                                      
   ICORE  =        2    local potential                                         
   LCOR   =        T    correct aug charges                                     
   LPAW   =        T    paw PP                                                  
   EAUG   =  535.514                                                            
   DEXC   =    0.000                                                            
   RMAX   =    1.732    core radius for proj-oper                               
   RAUG   =    1.300    factor for augmentation sphere                          
   RDEP   =    1.757    radius for radial grids                                 
   RDEPT  =    1.436    core radius for aug-charge                              
                                                                                
   Atomic configuration                                                         
    4 entries                                                                   
     n  l   j            E        occ.                                          
     1  0  0.50      -180.5896   2.0000                                         
     2  0  0.50        -9.4431   2.0000                                         
     2  1  0.50        -3.6068   1.0000                                         
     3  2  1.50        -4.0817   0.0000                                         
   Description                                                                  
     l       E           TYP  RCUT    TYP  RCUT                                 
     0     -9.4430752     23  1.500                                             
     0      0.8675899     23  1.500                                             
     1     -3.6067955     23  1.700                                             
     1      6.1086146     23  1.700                                             
     2     -4.0817478      7  1.700                                             
  local pseudopotential read in
  partial core-charges read in
  partial kinetic energy density read in
  atomic valenz-charges read in
  non local Contribution for L=           0  read in
    real space projection operators read in
  non local Contribution for L=           0  read in
    real space projection operators read in
  non local Contribution for L=           1  read in
    real space projection operators read in
  non local Contribution for L=           1  read in
    real space projection operators read in
    PAW grid and wavefunctions read in
 
   number of l-projection  operators is LMAX  =           4
   number of lm-projection operators is LMMAX =           8
 
 POTCAR:    PAW_PBE C 08Apr2002                   
   SHA256 =  253f7b50bb8d59471dbedb8285d89021f4a42ed1a2c5d38a03a736e69125dd95 C/
   COPYR  = (c) Copyright 08Apr2002 Georg Kresse                                
   COPYR  = This file is part of the software VASP. Any use, copying, and all ot
   COPYR  = If you do not have a valid VASP license, you may not use, copy or di
   VRHFIN =C: s2p2                                                              
   LEXCH  = PE                                                                  
   EATOM  =   147.1560 eV,   10.8157 Ry                                         
                                                                                
   TITEL  = PAW_PBE C 08Apr2002                                                 
   LULTRA =        F    use ultrasoft PP ?                                      
   IUNSCR =        1    unscreen: 0-lin 1-nonlin 2-no                           
   RPACOR =    1.200    partial core radius                                     
   POMASS =   12.011; ZVAL   =    4.000    mass and valenz                      
   RCORE  =    1.500    outmost cutoff radius                                   
   RWIGS  =    1.630; RWIGS  =    0.863    wigner-seitz radius (au A)           
   ENMAX  =  400.000; ENMIN  =  300.000 eV                                      
   ICORE  =        2    local potential                                         
   LCOR   =        T    correct aug charges                                     
   LPAW   =        T    paw PP                                                  
   EAUG   =  644.873                                                            
   DEXC   =    0.000                                                            
   RMAX   =    1.529    core radius for proj-oper                               
   RAUG   =    1.300    factor for augmentation sphere                          
   RDEP   =    1.501    radius for radial grids                                 
   RDEPT  =    1.300    core radius for aug-charge                              
                                                                                
   Atomic configuration                                                         
    4 entries                                                                   
     n  l   j            E        occ.                                          
     1  0  0.50      -273.3789   2.0000                                         
     2  0  0.50       -13.7508   2.0000                                         
     2  1  0.50        -5.2854   2.0000                                         
     3  2  1.50        -5.4423   0.0000                                         
   Description                                                                  
     l       E           TYP  RCUT    TYP  RCUT                                 
     0    -13.7508458     23  1.200                                             
     0     -8.2022199     23  1.200                                             
     1     -5.2854383     23  1.500                                             
     1     34.0145650     23  1.500                                             
     2     -5.4423304      7  1.500                                             
  local pseudopotential read in
  partial core-charges read in
  partial kinetic energy density read in
  atomic valenz-charges read in
  non local Contribution for L=           0  read in
    real space projection operators read in
  non local Contribution for L=           0  read in
    real space projection operators read in
  non local Contribution for L=           1  read in
    real space projection operators read in
  non local Contribution for L=           1  read in
    real space projection operators read in
    PAW grid and wavefunctions read in
 
   number of l-projection  operators is LMAX  =           4
   number of lm-projection operators is LMMAX =           8
 
  PAW_PBE B 06Sep2000                   :
 energy of atom  1       EATOM=  -71.1703
 kinetic energy error for atom=    0.0015 (will be added to EATOM!!)
  PAW_PBE C 08Apr2002                   :
 energy of atom  2       EATOM= -147.1560
 kinetic energy error for atom=    0.0116 (will be added to EATOM!!)
 
 
 POSCAR: BC3 with lattice parameter 5.169        
  positions in direct lattice
  velocities in cartesian coordinates
 exchange correlation table for  LEXCH =        8
   RHO(1)=    0.500       N(1)  =     2000
   RHO(2)=  100.500       N(2)  =     4000
 


--------------------------------------------------------------------------------------------------------


 ion  position               nearest neighbor table
   1  0.338  0.669  0.250-   3 1.56   5 1.56   7 1.56
   2  0.672  0.336  0.250-   4 1.56   8 1.56   6 1.56
   3  0.164  0.320  0.250-   4 1.42   6 1.42   1 1.56
   4  0.323  0.161  0.250-   3 1.42   5 1.42   2 1.56
   5  0.164  0.844  0.250-   8 1.42   4 1.42   1 1.56
   6  0.846  0.161  0.250-   3 1.42   7 1.42   2 1.56
   7  0.687  0.844  0.250-   8 1.42   6 1.42   1 1.56
   8  0.846  0.685  0.250-   5 1.42   7 1.42   2 1.56
 
  LATTYP: Found a hexagonal cell.
 ALAT       =     5.1690000000
 C/A-ratio  =     2.9019152641
  
  Lattice vectors:
  
 A1 = (   4.4764850000,   2.5845000000,   0.0000000000)
 A2 = (  -4.4764850000,   2.5845000000,   0.0000000000)
 A3 = (   0.0000000000,   0.0000000000,  15.0000000000)


Analysis of symmetry for initial positions (statically):
=====================================================================
 Subroutine PRICEL returns:
 Original cell was already a primitive cell.
 

 Routine SETGRP: Setting up the symmetry group for a 
 hexagonal supercell.


 Subroutine GETGRP returns: Found  2 space group operations
 (whereof  1 operations were pure point group operations)
 out of a pool of 24 trial point group operations.


The static configuration has the point symmetry C_1 .
 The point group associated with its full space group is C_1h.


Analysis of symmetry for dynamics (positions and initial velocities):
=====================================================================
 Subroutine PRICEL returns:
 Original cell was already a primitive cell.
 

 Routine SETGRP: Setting up the symmetry group for a 
 hexagonal supercell.


 Subroutine GETGRP returns: Found  2 space group operations
 (whereof  1 operations were pure point group operations)
 out of a pool of 24 trial point group operations.


The dynamic configuration has the point symmetry C_1 .
 The point group associated with its full space group is C_1h.


 Subroutine INISYM returns: Found  2 space group operations
 (whereof  1 operations are pure point group operations),
 and found     1 'primitive' translations

 
 
 KPOINTS: k-points                                

Automatic generation of k-mesh.
Space group operators:
 irot       det(A)        alpha          n_x          n_y          n_z        tau_x        tau_y        tau_z
    1     1.000000     0.000000     1.000000     0.000000     0.000000     0.000000     0.000000     0.000000
    2    -1.000000   180.000000     0.000000     0.000000     1.000000     0.000000     0.000000     0.500000
 
 Subroutine IBZKPT returns following result:
 ===========================================
 
 Found     74 irreducible k-points:
 
 Following reciprocal coordinates:
            Coordinates               Weight
  0.000000  0.000000  0.000000      1.000000
  0.083333 -0.000000  0.000000      2.000000
  0.166667  0.000000  0.000000      2.000000
  0.250000  0.000000  0.000000      2.000000
  0.333333 -0.000000  0.000000      2.000000
  0.416667  0.000000  0.000000      2.000000
  0.500000  0.000000  0.000000      1.000000
 -0.000000  0.083333  0.000000      2.000000
  0.083333  0.083333  0.000000      2.000000
  0.166667  0.083333  0.000000      2.000000
  0.250000  0.083333  0.000000      2.000000
  0.333333  0.083333  0.000000      2.000000
  0.416667  0.083333  0.000000      2.000000
  0.500000  0.083333  0.000000      2.000000
 -0.416667  0.083333  0.000000      2.000000
 -0.333333  0.083333  0.000000      2.000000
 -0.250000  0.083333  0.000000      2.000000
 -0.166667  0.083333  0.000000      2.000000
 -0.083333  0.083333  0.000000      2.000000
  0.000000  0.166667  0.000000      2.000000
  0.083333  0.166667  0.000000      2.000000
  0.166667  0.166667  0.000000      2.000000
  0.250000  0.166667  0.000000      2.000000
  0.333333  0.166667  0.000000      2.000000
  0.416667  0.166667  0.000000      2.000000
  0.500000  0.166667  0.000000      2.000000
 -0.416667  0.166667  0.000000      2.000000
 -0.333333  0.166667  0.000000      2.000000
 -0.250000  0.166667  0.000000      2.000000
 -0.166667  0.166667  0.000000      2.000000
 -0.083333  0.166667  0.000000      2.000000
  0.000000  0.250000  0.000000      2.000000
  0.083333  0.250000  0.000000      2.000000
  0.166667  0.250000  0.000000      2.000000
  0.250000  0.250000  0.000000      2.000000
  0.333333  0.250000  0.000000      2.000000
  0.416667  0.250000  0.000000      2.000000
  0.500000  0.250000  0.000000      2.000000
 -0.416667  0.250000  0.000000      2.000000
 -0.333333  0.250000  0.000000      2.000000
 -0.250000  0.250000  0.000000      2.000000
 -0.166667  0.250000  0.000000      2.000000
 -0.083333  0.250000  0.000000      2.000000
 -0.000000  0.333333  0.000000      2.000000
  0.083333  0.333333  0.000000      2.000000
  0.166667  0.333333  0.000000      2.000000
  0.250000  0.333333  0.000000      2.000000
  0.333333  0.333333  0.000000      2.000000
  0.416667  0.333333  0.000000      2.000000
  0.500000  0.333333  0.000000      2.000000
 -0.416667  0.333333  0.000000      2.000000
 -0.333333  0.333333  0.000000      2.000000
 -0.250000  0.333333  0.000000      2.000000
 -0.166667  0.333333  0.000000      2.000000
 -0.083333  0.333333  0.000000      2.000000
  0.000000  0.416667  0.000000      2.000000
  0.083333  0.416667  0.000000      2.000000
  0.166667  0.416667  0.000000      2.000000
  0.250000  0.416667  0.000000      2.000000
  0.333333  0.416667  0.000000      2.000000
  0.416667  0.416667  0.000000      2.000000
  0.500000  0.416667  0.000000      2.000000
 -0.416667  0.416667  0.000000      2.000000
 -0.333333  0.416667  0.000000      2.000000
 -0.250000  0.416667  0.000000      2.000000
 -0.166667  0.416667  0.000000      2.000000
 -0.083333  0.416667  0.000000      2.000000
  0.000000  0.500000  0.000000      1.000000
  0.083333  0.500000  0.000000      2.000000
  0.166667  0.500000  0.000000      2.000000
  0.250000  0.500000  0.000000      2.000000
  0.333333  0.500000  0.000000      2.000000
  0.416667  0.500000  0.000000      2.000000
  0.500000  0.500000  0.000000      1.000000
 
 Following cartesian coordinates:
            Coordinates               Weight
  0.000000  0.000000  0.000000      1.000000
  0.009308  0.016122  0.000000      2.000000
  0.018616  0.032244  0.000000      2.000000
  0.027924  0.048365  0.000000      2.000000
  0.037232  0.064487  0.000000      2.000000
  0.046539  0.080609  0.000000      2.000000
  0.055847  0.096731  0.000000      1.000000
 -0.009308  0.016122  0.000000      2.000000
  0.000000  0.032244  0.000000      2.000000
  0.009308  0.048365  0.000000      2.000000
  0.018616  0.064487  0.000000      2.000000
  0.027924  0.080609  0.000000      2.000000
  0.037232  0.096731  0.000000      2.000000
  0.046539  0.112852  0.000000      2.000000
 -0.055847 -0.064487  0.000000      2.000000
 -0.046539 -0.048365  0.000000      2.000000
 -0.037232 -0.032244  0.000000      2.000000
 -0.027924 -0.016122  0.000000      2.000000
 -0.018616  0.000000  0.000000      2.000000
 -0.018616  0.032244  0.000000      2.000000
 -0.009308  0.048365  0.000000      2.000000
  0.000000  0.064487  0.000000      2.000000
  0.009308  0.080609  0.000000      2.000000
  0.018616  0.096731  0.000000      2.000000
  0.027924  0.112852  0.000000      2.000000
  0.037232  0.128974  0.000000      2.000000
 -0.065155 -0.048365  0.000000      2.000000
 -0.055847 -0.032244  0.000000      2.000000
 -0.046539 -0.016122  0.000000      2.000000
 -0.037232  0.000000  0.000000      2.000000
 -0.027924  0.016122  0.000000      2.000000
 -0.027924  0.048365  0.000000      2.000000
 -0.018616  0.064487  0.000000      2.000000
 -0.009308  0.080609  0.000000      2.000000
  0.000000  0.096731  0.000000      2.000000
  0.009308  0.112852  0.000000      2.000000
  0.018616  0.128974  0.000000      2.000000
  0.027924  0.145096  0.000000      2.000000
 -0.074463 -0.032244  0.000000      2.000000
 -0.065155 -0.016122  0.000000      2.000000
 -0.055847  0.000000  0.000000      2.000000
 -0.046539  0.016122  0.000000      2.000000
 -0.037232  0.032244  0.000000      2.000000
 -0.037232  0.064487  0.000000      2.000000
 -0.027924  0.080609  0.000000      2.000000
 -0.018616  0.096731  0.000000      2.000000
 -0.009308  0.112852  0.000000      2.000000
  0.000000  0.128974  0.000000      2.000000
  0.009308  0.145096  0.000000      2.000000
  0.018616  0.161218  0.000000      2.000000
 -0.083771 -0.016122  0.000000      2.000000
 -0.074463  0.000000  0.000000      2.000000
 -0.065155  0.016122  0.000000      2.000000
 -0.055847  0.032244  0.000000      2.000000
 -0.046539  0.048365  0.000000      2.000000
 -0.046539  0.080609  0.000000      2.000000
 -0.037232  0.096731  0.000000      2.000000
 -0.027924  0.112852  0.000000      2.000000
 -0.018616  0.128974  0.000000      2.000000
 -0.009308  0.145096  0.000000      2.000000
  0.000000  0.161218  0.000000      2.000000
  0.009308  0.177339  0.000000      2.000000
 -0.093079  0.000000  0.000000      2.000000
 -0.083771  0.016122  0.000000      2.000000
 -0.074463  0.032244  0.000000      2.000000
 -0.065155  0.048365  0.000000      2.000000
 -0.055847  0.064487  0.000000      2.000000
 -0.055847  0.096731  0.000000      1.000000
 -0.046539  0.112852  0.000000      2.000000
 -0.037232  0.128974  0.000000      2.000000
 -0.027924  0.145096  0.000000      2.000000
 -0.018616  0.161218  0.000000      2.000000
 -0.009308  0.177339  0.000000      2.000000
  0.000000  0.193461  0.000000      1.000000
 


--------------------------------------------------------------------------------------------------------




 Dimension of arrays:
   k-points           NKPTS =     74   k-points in BZ     NKDIM =     74   number of bands    NBANDS=     32
   number of dos      NEDOS =    301   number of ions     NIONS =      8
   non local maximal  LDIM  =      4   non local SUM 2l+1 LMDIM =      8
   total plane-waves  NPLWV = 139968
   max r-space proj   IRMAX =      1   max aug-charges    IRDMAX=   6487
   dimension x,y,z NGX =    36 NGY =   36 NGZ =  108
   dimension x,y,z NGXF=    72 NGYF=   72 NGZF=  216
   support grid    NGXF=    72 NGYF=   72 NGZF=  216
   ions per type =               2   6
   NGX,Y,Z   is equivalent  to a cutoff of  11.58, 11.58, 11.97 a.u.
   NGXF,Y,Z  is equivalent  to a cutoff of  23.16, 23.16, 23.94 a.u.

 SYSTEM =  BC3                                     
 POSCAR =  BC3 with lattice parameter 5.169        

 Startparameter for this run:
   NWRITE =      2    write-flag & timer
   PREC   = accura    normal or accurate (medium, high low for compatibility)
   ISTART =      0    job   : 0-new  1-cont  2-samecut
   ICHARG =      2    charge: 1-file 2-atom 10-const
   ISPIN  =      1    spin polarized calculation?
   LNONCOLLINEAR =      F non collinear calculations
   LSORBIT =      F    spin-orbit coupling
   INIWAV =      1    electr: 0-lowe 1-rand  2-diag
   LASPH  =      F    aspherical Exc in radial PAW
   METAGGA=      F    non-selfconsistent MetaGGA calc.

 Electronic Relaxation 1
   ENCUT  =  450.0 eV  33.07 Ry    5.75 a.u.   8.94  8.94 25.95*2*pi/ulx,y,z
   ENINI  =  450.0     initial cutoff
   ENAUG  =  644.9 eV  augmentation charge cutoff
   NELM   =     60;   NELMIN=  2; NELMDL= -5     # of ELM steps 
   EDIFF  = 0.1E-05   stopping-criterion for ELM
   LREAL  =      F    real-space projection
   NLSPLINE    = F    spline interpolate recip. space projectors
   LCOMPAT=      F    compatible to vasp.4.4
   GGA_COMPAT  = T    GGA compatible to vasp.4.4-vasp.4.6
   LMAXPAW     = -100 max onsite density
   LMAXMIX     =    2 max onsite mixed and CHGCAR
   VOSKOWN=      0    Vosko Wilk Nusair interpolation
   ROPT   =    0.00000   0.00000
 Ionic relaxation
   EDIFFG = -.1E-01   stopping-criterion for IOM
   NSW    =    100    number of steps for IOM
   NBLOCK =      1;   KBLOCK =    100    inner block; outer block 
   IBRION =      2    ionic relax: 0-MD 1-quasi-New 2-CG
   NFREE  =      1    steps in history (QN), initial steepest desc. (CG)
   ISIF   =      2    stress and relaxation
   IWAVPR =     11    prediction:  0-non 1-charg 2-wave 3-comb
   ISYM   =      2    0-nonsym 1-usesym 2-fastsym
   LCORR  =      T    Harris-Foulkes like correction to forces

   POTIM  = 0.5000    time-step for ionic-motion
   TEIN   =    0.0    initial temperature
   TEBEG  =    0.0;   TEEND  =   0.0 temperature during run
   SMASS  =  -3.00    Nose mass-parameter (am)
   estimated Nose-frequenzy (Omega)   =  0.10E-29 period in steps =****** mass=  -0.611E-27a.u.
   SCALEE = 1.0000    scale energy and forces
   NPACO  =    256;   APACO  = 16.0  distance and # of slots for P.C.
   PSTRESS=    0.0 pullay stress

  Mass of Ions in am
   POMASS =  10.81 12.01
  Ionic Valenz
   ZVAL   =   3.00  4.00
  Atomic Wigner-Seitz radii
   RWIGS  =  -1.00 -1.00
  virtual crystal weights 
   VCA    =   1.00  1.00
   NELECT =      30.0000    total number of electrons
   NUPDOWN=      -1.0000    fix difference up-down

 DOS related values:
   EMIN   =  10.00;   EMAX   =-10.00  energy-range for DOS
   EFERMI =   0.00
   ISMEAR =     0;   SIGMA  =   0.10  broadening in eV -4-tet -1-fermi 0-gaus

 Electronic relaxation 2 (details)
   IALGO  =     38    algorithm
   LDIAG  =      T    sub-space diagonalisation (order eigenvalues)
   LSUBROT=      F    optimize rotation matrix (better conditioning)
   TURBO    =      0    0=normal 1=particle mesh
   IRESTART =      0    0=no restart 2=restart with 2 vectors
   NREBOOT  =      0    no. of reboots
   NMIN     =      0    reboot dimension
   EREF     =   0.00    reference energy to select bands
   IMIX   =      4    mixing-type and parameters
     AMIX     =   0.40;   BMIX     =  1.00
     AMIX_MAG =   1.60;   BMIX_MAG =  1.00
     AMIN     =   0.10
     WC   =   100.;   INIMIX=   1;  MIXPRE=   1;  MAXMIX= -45

 Intra band minimization:
   WEIMIN = 0.0010     energy-eigenvalue tresh-hold
   EBREAK =  0.78E-08  absolut break condition
   DEPER  =   0.30     relativ break condition  

   TIME   =   0.40     timestep for ELM

  volume/ion in A,a.u.               =      43.39       292.78
  Fermi-wavevector in a.u.,A,eV,Ry     =   0.723831  1.367842  7.128511  0.523931
  Thomas-Fermi vector in A             =   1.814147
 
 Write flags
   LWAVE        =      F    write WAVECAR
   LDOWNSAMPLE  =      F    k-point downsampling of WAVECAR
   LCHARG       =      F    write CHGCAR
   LVTOT        =      F    write LOCPOT, total local potential
   LVHAR        =      F    write LOCPOT, Hartree potential only
   LELF         =      F    write electronic localiz. function (ELF)
   LORBIT       =      0    0 simple, 1 ext, 2 COOP (PROOUT), +10 PAW based schemes


 Dipole corrections
   LMONO  =      F    monopole corrections only (constant potential shift)
   LDIPOL =      F    correct potential (dipole corrections)
   IDIPOL =      0    1-x, 2-y, 3-z, 4-all directions 
   EPSILON=  1.0000000 bulk dielectric constant

 Exchange correlation treatment:
   GGA     =    PE    GGA type
   LEXCH   =     8    internal setting for exchange type
   VOSKOWN=      0    Vosko Wilk Nusair interpolation
   LHFCALC =     F    Hartree Fock is set to
   LHFONE  =     F    Hartree Fock one center treatment
   AEXX    =    0.0000 exact exchange contribution

 Linear response parameters
   LEPSILON=     F    determine dielectric tensor
   LRPA    =     F    only Hartree local field effects (RPA)
   LNABLA  =     F    use nabla operator in PAW spheres
   LVEL    =     F    velocity operator in full k-point grid
   LINTERFAST=   F  fast interpolation
   KINTER  =     0    interpolate to denser k-point grid
   CSHIFT  =0.1000    complex shift for real part using Kramers Kronig
   OMEGAMAX=  -1.0    maximum frequency
   DEG_THRESHOLD= 0.2000000E-02 threshold for treating states as degnerate
   RTIME   =   -0.100 relaxation time in fs
  (WPLASMAI=    0.000 imaginary part of plasma frequency in eV, 0.658/RTIME)
   DFIELD  = 0.0000000 0.0000000 0.0000000 field for delta impulse in time
 
 Orbital magnetization related:
   ORBITALMAG=     F  switch on orbital magnetization
   LCHIMAG   =     F  perturbation theory with respect to B field
   DQ        =  0.001000  dq finite difference perturbation B field
   LLRAUG    =     F  two centre corrections for induced B field



--------------------------------------------------------------------------------------------------------


 conjugate gradient relaxation of ions
 charge density and potential will be updated during run
 non-spin polarized calculation
 Variant of blocked Davidson
 Davidson routine will perform the subspace rotation
 perform sub-space diagonalisation
    after iterative eigenvector-optimisation
 modified Broyden-mixing scheme, WC =      100.0
 initial mixing is a Kerker type mixing with AMIX =  0.4000 and BMIX =      1.0000
 Hartree-type preconditioning will be used
 using additional bands           17
 reciprocal scheme for non local part
 use partial core corrections
 calculate Harris-corrections to forces 
   (improved forces if not selfconsistent)
 use gradient corrections 
 use of overlap-Matrix (Vanderbilt PP)
 Gauss-broadening in eV      SIGMA  =   0.10


--------------------------------------------------------------------------------------------------------


  energy-cutoff  :      450.00
  volume of cell :      347.08
      direct lattice vectors                 reciprocal lattice vectors
     4.476485000  2.584500000  0.000000000     0.111694778  0.193461018  0.000000000
    -4.476485000  2.584500000  0.000000000    -0.111694778  0.193461018  0.000000000
     0.000000000  0.000000000 15.000000000     0.000000000  0.000000000  0.066666667

  length of vectors
     5.168999730  5.168999730 15.000000000     0.223389545  0.223389545  0.066666667


 
 k-points in units of 2pi/SCALE and weight: k-points                                
   0.00000000  0.00000000  0.00000000       0.007
   0.00930790  0.01612175  0.00000000       0.014
   0.01861580  0.03224350  0.00000000       0.014
   0.02792369  0.04836525  0.00000000       0.014
   0.03723159  0.06448701  0.00000000       0.014
   0.04653949  0.08060876  0.00000000       0.014
   0.05584739  0.09673051  0.00000000       0.007
  -0.00930790  0.01612175  0.00000000       0.014
   0.00000000  0.03224350  0.00000000       0.014
   0.00930790  0.04836525  0.00000000       0.014
   0.01861580  0.06448701  0.00000000       0.014
   0.02792369  0.08060876  0.00000000       0.014
   0.03723159  0.09673051  0.00000000       0.014
   0.04653949  0.11285226  0.00000000       0.014
  -0.05584739 -0.06448701  0.00000000       0.014
  -0.04653949 -0.04836525  0.00000000       0.014
  -0.03723159 -0.03224350  0.00000000       0.014
  -0.02792369 -0.01612175  0.00000000       0.014
  -0.01861580  0.00000000  0.00000000       0.014
  -0.01861580  0.03224350  0.00000000       0.014
  -0.00930790  0.04836525  0.00000000       0.014
   0.00000000  0.06448701  0.00000000       0.014
   0.00930790  0.08060876  0.00000000       0.014
   0.01861580  0.09673051  0.00000000       0.014
   0.02792369  0.11285226  0.00000000       0.014
   0.03723159  0.12897401  0.00000000       0.014
  -0.06515529 -0.04836525  0.00000000       0.014
  -0.05584739 -0.03224350  0.00000000       0.014
  -0.04653949 -0.01612175  0.00000000       0.014
  -0.03723159  0.00000000  0.00000000       0.014
  -0.02792369  0.01612175  0.00000000       0.014
  -0.02792369  0.04836525  0.00000000       0.014
  -0.01861580  0.06448701  0.00000000       0.014
  -0.00930790  0.08060876  0.00000000       0.014
   0.00000000  0.09673051  0.00000000       0.014
   0.00930790  0.11285226  0.00000000       0.014
   0.01861580  0.12897401  0.00000000       0.014
   0.02792369  0.14509576  0.00000000       0.014
  -0.07446319 -0.03224350  0.00000000       0.014
  -0.06515529 -0.01612175  0.00000000       0.014
  -0.05584739  0.00000000  0.00000000       0.014
  -0.04653949  0.01612175  0.00000000       0.014
  -0.03723159  0.03224350  0.00000000       0.014
  -0.03723159  0.06448701  0.00000000       0.014
  -0.02792369  0.08060876  0.00000000       0.014
  -0.01861580  0.09673051  0.00000000       0.014
  -0.00930790  0.11285226  0.00000000       0.014
   0.00000000  0.12897401  0.00000000       0.014
   0.00930790  0.14509576  0.00000000       0.014
   0.01861580  0.16121751  0.00000000       0.014
  -0.08377108 -0.01612175  0.00000000       0.014
  -0.07446319  0.00000000  0.00000000       0.014
  -0.06515529  0.01612175  0.00000000       0.014
  -0.05584739  0.03224350  0.00000000       0.014
  -0.04653949  0.04836525  0.00000000       0.014
  -0.04653949  0.08060876  0.00000000       0.014
  -0.03723159  0.09673051  0.00000000       0.014
  -0.02792369  0.11285226  0.00000000       0.014
  -0.01861580  0.12897401  0.00000000       0.014
  -0.00930790  0.14509576  0.00000000       0.014
   0.00000000  0.16121751  0.00000000       0.014
   0.00930790  0.17733927  0.00000000       0.014
  -0.09307898  0.00000000  0.00000000       0.014
  -0.08377108  0.01612175  0.00000000       0.014
  -0.07446319  0.03224350  0.00000000       0.014
  -0.06515529  0.04836525  0.00000000       0.014
  -0.05584739  0.06448701  0.00000000       0.014
  -0.05584739  0.09673051  0.00000000       0.007
  -0.04653949  0.11285226  0.00000000       0.014
  -0.03723159  0.12897401  0.00000000       0.014
  -0.02792369  0.14509576  0.00000000       0.014
  -0.01861580  0.16121751  0.00000000       0.014
  -0.00930790  0.17733927  0.00000000       0.014
   0.00000000  0.19346102  0.00000000       0.007
 
 k-points in reciprocal lattice and weights: k-points                                
   0.00000000  0.00000000  0.00000000       0.007
   0.08333333 -0.00000000  0.00000000       0.014
   0.16666667  0.00000000  0.00000000       0.014
   0.25000000  0.00000000  0.00000000       0.014
   0.33333333 -0.00000000  0.00000000       0.014
   0.41666667  0.00000000  0.00000000       0.014
   0.50000000  0.00000000  0.00000000       0.007
  -0.00000000  0.08333333  0.00000000       0.014
   0.08333333  0.08333333  0.00000000       0.014
   0.16666667  0.08333333  0.00000000       0.014
   0.25000000  0.08333333  0.00000000       0.014
   0.33333333  0.08333333  0.00000000       0.014
   0.41666667  0.08333333  0.00000000       0.014
   0.50000000  0.08333333  0.00000000       0.014
  -0.41666667  0.08333333  0.00000000       0.014
  -0.33333333  0.08333333  0.00000000       0.014
  -0.25000000  0.08333333  0.00000000       0.014
  -0.16666667  0.08333333  0.00000000       0.014
  -0.08333333  0.08333333  0.00000000       0.014
   0.00000000  0.16666667  0.00000000       0.014
   0.08333333  0.16666667  0.00000000       0.014
   0.16666667  0.16666667  0.00000000       0.014
   0.25000000  0.16666667  0.00000000       0.014
   0.33333333  0.16666667  0.00000000       0.014
   0.41666667  0.16666667  0.00000000       0.014
   0.50000000  0.16666667  0.00000000       0.014
  -0.41666667  0.16666667  0.00000000       0.014
  -0.33333333  0.16666667  0.00000000       0.014
  -0.25000000  0.16666667  0.00000000       0.014
  -0.16666667  0.16666667  0.00000000       0.014
  -0.08333333  0.16666667  0.00000000       0.014
   0.00000000  0.25000000  0.00000000       0.014
   0.08333333  0.25000000  0.00000000       0.014
   0.16666667  0.25000000  0.00000000       0.014
   0.25000000  0.25000000  0.00000000       0.014
   0.33333333  0.25000000  0.00000000       0.014
   0.41666667  0.25000000  0.00000000       0.014
   0.50000000  0.25000000  0.00000000       0.014
  -0.41666667  0.25000000  0.00000000       0.014
  -0.33333333  0.25000000  0.00000000       0.014
  -0.25000000  0.25000000  0.00000000       0.014
  -0.16666667  0.25000000  0.00000000       0.014
  -0.08333333  0.25000000  0.00000000       0.014
  -0.00000000  0.33333333  0.00000000       0.014
   0.08333333  0.33333333  0.00000000       0.014
   0.16666667  0.33333333  0.00000000       0.014
   0.25000000  0.33333333  0.00000000       0.014
   0.33333333  0.33333333  0.00000000       0.014
   0.41666667  0.33333333  0.00000000       0.014
   0.50000000  0.33333333  0.00000000       0.014
  -0.41666667  0.33333333  0.00000000       0.014
  -0.33333333  0.33333333  0.00000000       0.014
  -0.25000000  0.33333333  0.00000000       0.014
  -0.16666667  0.33333333  0.00000000       0.014
  -0.08333333  0.33333333  0.00000000       0.014
   0.00000000  0.41666667  0.00000000       0.014
   0.08333333  0.41666667  0.00000000       0.014
   0.16666667  0.41666667  0.00000000       0.014
   0.25000000  0.41666667  0.00000000       0.014
   0.33333333  0.41666667  0.00000000       0.014
   0.41666667  0.41666667  0.00000000       0.014
   0.50000000  0.41666667  0.00000000       0.014
  -0.41666667  0.41666667  0.00000000       0.014
  -0.33333333  0.41666667  0.00000000       0.014
  -0.25000000  0.41666667  0.00000000       0.014
  -0.16666667  0.41666667  0.00000000       0.014
  -0.08333333  0.41666667  0.00000000       0.014
   0.00000000  0.50000000  0.00000000       0.007
   0.08333333  0.50000000  0.00000000       0.014
   0.16666667  0.50000000  0.00000000       0.014
   0.25000000  0.50000000  0.00000000       0.014
   0.33333333  0.50000000  0.00000000       0.014
   0.41666667  0.50000000  0.00000000       0.014
   0.50000000  0.50000000  0.00000000       0.007
 
 position of ions in fractional coordinates (direct lattice) 
   0.33833034  0.66916432  0.25000000
   0.67165522  0.33584146  0.25000000
   0.16373946  0.31999962  0.25000000
   0.32250218  0.16126397  0.25000000
   0.16376430  0.84376384  0.25000000
   0.84623863  0.16123684  0.25000000
   0.68749850  0.84373000  0.25000000
   0.84626736  0.68499594  0.25000000
 
 position of ions in cartesian coordinates  (Angst):
  -1.48097334  2.60386996  3.75000000
   1.50326524  2.60387516  3.75000000
  -0.69949626  1.25022367  3.75000000
   0.72178046  1.25029362  3.75000000
  -3.04400774  2.60395648  3.75000000
   3.06640025  2.60382037  3.75000000
  -0.69936797  3.95746008  3.75000000
   0.72192906  3.95755000  3.75000000
 


--------------------------------------------------------------------------------------------------------


 k-point  1 :   0.0000 0.0000 0.0000  plane waves:    7497
 k-point  2 :   0.0833-0.0000 0.0000  plane waves:    7505
 k-point  3 :   0.1667 0.0000 0.0000  plane waves:    7511
 k-point  4 :   0.2500 0.0000 0.0000  plane waves:    7503
 k-point  5 :   0.3333-0.0000 0.0000  plane waves:    7530
 k-point  6 :   0.4167 0.0000 0.0000  plane waves:    7524
 k-point  7 :   0.5000 0.0000 0.0000  plane waves:    7528
 k-point  8 :  -0.0000 0.0833 0.0000  plane waves:    7505
 k-point  9 :   0.0833 0.0833 0.0000  plane waves:    7509
 k-point 10 :   0.1667 0.0833 0.0000  plane waves:    7500
 k-point 11 :   0.2500 0.0833 0.0000  plane waves:    7513
 k-point 12 :   0.3333 0.0833 0.0000  plane waves:    7515
 k-point 13 :   0.4167 0.0833 0.0000  plane waves:    7528
 k-point 14 :   0.5000 0.0833 0.0000  plane waves:    7528
 k-point 15 :  -0.4167 0.0833 0.0000  plane waves:    7515
 k-point 16 :  -0.3333 0.0833 0.0000  plane waves:    7513
 k-point 17 :  -0.2500 0.0833 0.0000  plane waves:    7500
 k-point 18 :  -0.1667 0.0833 0.0000  plane waves:    7509
 k-point 19 :  -0.0833 0.0833 0.0000  plane waves:    7505
 k-point 20 :   0.0000 0.1667 0.0000  plane waves:    7511
 k-point 21 :   0.0833 0.1667 0.0000  plane waves:    7500
 k-point 22 :   0.1667 0.1667 0.0000  plane waves:    7519
 k-point 23 :   0.2500 0.1667 0.0000  plane waves:    7523
 k-point 24 :   0.3333 0.1667 0.0000  plane waves:    7534
 k-point 25 :   0.4167 0.1667 0.0000  plane waves:    7547
 k-point 26 :   0.5000 0.1667 0.0000  plane waves:    7534
 k-point 27 :  -0.4167 0.1667 0.0000  plane waves:    7523
 k-point 28 :  -0.3333 0.1667 0.0000  plane waves:    7519
 k-point 29 :  -0.2500 0.1667 0.0000  plane waves:    7500
 k-point 30 :  -0.1667 0.1667 0.0000  plane waves:    7511
 k-point 31 :  -0.0833 0.1667 0.0000  plane waves:    7509
 k-point 32 :   0.0000 0.2500 0.0000  plane waves:    7503
 k-point 33 :   0.0833 0.2500 0.0000  plane waves:    7513
 k-point 34 :   0.1667 0.2500 0.0000  plane waves:    7523
 k-point 35 :   0.2500 0.2500 0.0000  plane waves:    7527
 k-point 36 :   0.3333 0.2500 0.0000  plane waves:    7549
 k-point 37 :   0.4167 0.2500 0.0000  plane waves:    7549
 k-point 38 :   0.5000 0.2500 0.0000  plane waves:    7527
 k-point 39 :  -0.4167 0.2500 0.0000  plane waves:    7523
 k-point 40 :  -0.3333 0.2500 0.0000  plane waves:    7513
 k-point 41 :  -0.2500 0.2500 0.0000  plane waves:    7503
 k-point 42 :  -0.1667 0.2500 0.0000  plane waves:    7500
 k-point 43 :  -0.0833 0.2500 0.0000  plane waves:    7500
 k-point 44 :  -0.0000 0.3333 0.0000  plane waves:    7530
 k-point 45 :   0.0833 0.3333 0.0000  plane waves:    7515
 k-point 46 :   0.1667 0.3333 0.0000  plane waves:    7534
 k-point 47 :   0.2500 0.3333 0.0000  plane waves:    7549
 k-point 48 :   0.3333 0.3333 0.0000  plane waves:    7545
 k-point 49 :   0.4167 0.3333 0.0000  plane waves:    7549
 k-point 50 :   0.5000 0.3333 0.0000  plane waves:    7534
 k-point 51 :  -0.4167 0.3333 0.0000  plane waves:    7515
 k-point 52 :  -0.3333 0.3333 0.0000  plane waves:    7530
 k-point 53 :  -0.2500 0.3333 0.0000  plane waves:    7513
 k-point 54 :  -0.1667 0.3333 0.0000  plane waves:    7519
 k-point 55 :  -0.0833 0.3333 0.0000  plane waves:    7513
 k-point 56 :   0.0000 0.4167 0.0000  plane waves:    7524
 k-point 57 :   0.0833 0.4167 0.0000  plane waves:    7528
 k-point 58 :   0.1667 0.4167 0.0000  plane waves:    7547
 k-point 59 :   0.2500 0.4167 0.0000  plane waves:    7549
 k-point 60 :   0.3333 0.4167 0.0000  plane waves:    7549
 k-point 61 :   0.4167 0.4167 0.0000  plane waves:    7547
 k-point 62 :   0.5000 0.4167 0.0000  plane waves:    7528
 k-point 63 :  -0.4167 0.4167 0.0000  plane waves:    7524
 k-point 64 :  -0.3333 0.4167 0.0000  plane waves:    7515
 k-point 65 :  -0.2500 0.4167 0.0000  plane waves:    7523
 k-point 66 :  -0.1667 0.4167 0.0000  plane waves:    7523
 k-point 67 :  -0.0833 0.4167 0.0000  plane waves:    7515
 k-point 68 :   0.0000 0.5000 0.0000  plane waves:    7528
 k-point 69 :   0.0833 0.5000 0.0000  plane waves:    7528
 k-point 70 :   0.1667 0.5000 0.0000  plane waves:    7534
 k-point 71 :   0.2500 0.5000 0.0000  plane waves:    7527
 k-point 72 :   0.3333 0.5000 0.0000  plane waves:    7534
 k-point 73 :   0.4167 0.5000 0.0000  plane waves:    7528
 k-point 74 :   0.5000 0.5000 0.0000  plane waves:    7528

 maximum and minimum number of plane-waves per node :      7549     7497

 maximum number of plane-waves:      7549
 maximum index in each direction: 
   IXMAX=    9   IYMAX=    8   IZMAX=   25
   IXMIN=   -9   IYMIN=   -9   IZMIN=  -25


 serial   3D FFT for wavefunctions
 parallel 3D FFT for charge:
    minimum data exchange during FFTs selected (reduces bandwidth)


 total amount of memory used by VASP MPI-rank0   133713. kBytes
=======================================================================

   base      :      30000. kBytes
   nonl-proj :      72499. kBytes
   fftplans  :       3154. kBytes
   grid      :      10002. kBytes
   one-center:         24. kBytes
   wavefun   :      18034. kBytes
 
     INWAV:  cpu time    0.0000: real time    0.0000
 Broyden mixing: mesh for mixing (old mesh)
   NGX = 17   NGY = 17   NGZ = 51
  (NGX  = 72   NGY  = 72   NGZ  =216)
  gives a total of  14739 points

 initial charge density was supplied:
 charge density of overlapping atoms calculated
 number of electron      30.0000000 magnetization 
 keeping initial charge density in first step


--------------------------------------------------------------------------------------------------------


 Maximum index for augmentation-charges          428 (set IRDMAX)


--------------------------------------------------------------------------------------------------------


 First call to EWALD:  gamma=   0.252
 Maximum number of real-space cells 4x 4x 2
 Maximum number of reciprocal cells 2x 2x 5

    FEWALD:  cpu time    0.0021: real time    0.0023


--------------------------------------- Iteration      1(   1)  ---------------------------------------


    POTLOK:  cpu time    0.0602: real time    0.0608
    SETDIJ:  cpu time    0.0029: real time    0.0030
     EDDAV:  cpu time    5.2028: real time    5.2037
       DOS:  cpu time    0.0013: real time    0.0013
    --------------------------------------------
      LOOP:  cpu time    5.2672: real time    5.2687

 eigenvalue-minimisations  :  4736
 total energy-change (2. order) : 0.1812124E+03  (-0.1003842E+04)
 number of electron      30.0000000 magnetization 
 augmentation part       30.0000000 magnetization 

 Free energy of the ion-electron system (eV)
  ---------------------------------------------------
  alpha Z        PSCENC =        14.61461864
  Ewald energy   TEWEN  =      2603.47533640
  -Hartree energ DENC   =     -3361.43975615
  -exchange      EXHF   =         0.00000000
  -V(xc)+E(xc)   XCENC  =        91.18491800
  PAW double counting   =       738.13200929     -739.83780425
  entropy T*S    EENTRO =        -0.01536782
  eigenvalues    EBANDS =      -190.10540383
  atomic energy  EATOM  =      1025.20389953
  Solvation  Ediel_sol  =         0.00000000
  ---------------------------------------------------
  free energy    TOTEN  =       181.21244981 eV

  energy without entropy =      181.22781762  energy(sigma->0) =      181.22013371


--------------------------------------------------------------------------------------------------------




--------------------------------------- Iteration      1(   2)  ---------------------------------------


     EDDAV:  cpu time    7.6401: real time    7.6415
       DOS:  cpu time    0.0007: real time    0.0007
    --------------------------------------------
      LOOP:  cpu time    7.6408: real time    7.6421

 eigenvalue-minimisations  :  7712
 total energy-change (2. order) :-0.2314591E+03  (-0.2018371E+03)
 number of electron      30.0000000 magnetization 
 augmentation part       30.0000000 magnetization 

 Free energy of the ion-electron system (eV)
  ---------------------------------------------------
  alpha Z        PSCENC =        14.61461864
  Ewald energy   TEWEN  =      2603.47533640
  -Hartree energ DENC   =     -3361.43975615
  -exchange      EXHF   =         0.00000000
  -V(xc)+E(xc)   XCENC  =        91.18491800
  PAW double counting   =       738.13200929     -739.83780425
  entropy T*S    EENTRO =        -0.00000825
  eigenvalues    EBANDS =      -421.57984085
  atomic energy  EATOM  =      1025.20389953
  Solvation  Ediel_sol  =         0.00000000
  ---------------------------------------------------
  free energy    TOTEN  =       -50.24662764 eV

  energy without entropy =      -50.24661939  energy(sigma->0) =      -50.24662351


--------------------------------------------------------------------------------------------------------




--------------------------------------- Iteration      1(   3)  ---------------------------------------


     EDDAV:  cpu time    6.8132: real time    6.8149
       DOS:  cpu time    0.0005: real time    0.0005
    --------------------------------------------
      LOOP:  cpu time    6.8137: real time    6.8153

 eigenvalue-minimisations  :  6720
 total energy-change (2. order) :-0.2267872E+02  (-0.2243367E+02)
 number of electron      30.0000000 magnetization 
 augmentation part       30.0000000 magnetization 

 Free energy of the ion-electron system (eV)
  ---------------------------------------------------
  alpha Z        PSCENC =        14.61461864
  Ewald energy   TEWEN  =      2603.47533640
  -Hartree energ DENC   =     -3361.43975615
  -exchange      EXHF   =         0.00000000
  -V(xc)+E(xc)   XCENC  =        91.18491800
  PAW double counting   =       738.13200929     -739.83780425
  entropy T*S    EENTRO =        -0.00000000
  eigenvalues    EBANDS =      -444.25856935
  atomic energy  EATOM  =      1025.20389953
  Solvation  Ediel_sol  =         0.00000000
  ---------------------------------------------------
  free energy    TOTEN  =       -72.92534789 eV

  energy without entropy =      -72.92534789  energy(sigma->0) =      -72.92534789


--------------------------------------------------------------------------------------------------------




--------------------------------------- Iteration      1(   4)  ---------------------------------------


     EDDAV:  cpu time    6.7279: real time    6.7289
       DOS:  cpu time    0.0005: real time    0.0005
    --------------------------------------------
      LOOP:  cpu time    6.7284: real time    6.7294

 eigenvalue-minimisations  :  6608
 total energy-change (2. order) :-0.5433652E+00  (-0.5424052E+00)
 number of electron      30.0000000 magnetization 
 augmentation part       30.0000000 magnetization 

 Free energy of the ion-electron system (eV)
  ---------------------------------------------------
  alpha Z        PSCENC =        14.61461864
  Ewald energy   TEWEN  =      2603.47533640
  -Hartree energ DENC   =     -3361.43975615
  -exchange      EXHF   =         0.00000000
  -V(xc)+E(xc)   XCENC  =        91.18491800
  PAW double counting   =       738.13200929     -739.83780425
  entropy T*S    EENTRO =        -0.00000000
  eigenvalues    EBANDS =      -444.80193458
  atomic energy  EATOM  =      1025.20389953
  Solvation  Ediel_sol  =         0.00000000
  ---------------------------------------------------
  free energy    TOTEN  =       -73.46871312 eV

  energy without entropy =      -73.46871312  energy(sigma->0) =      -73.46871312


--------------------------------------------------------------------------------------------------------




--------------------------------------- Iteration      1(   5)  ---------------------------------------


     EDDAV:  cpu time    6.3003: real time    6.3024
       DOS:  cpu time    0.0005: real time    0.0005
    CHARGE:  cpu time    0.2388: real time    0.2388
    MIXING:  cpu time    0.0014: real time    0.0014
    --------------------------------------------
      LOOP:  cpu time    6.5409: real time    6.5431

 eigenvalue-minimisations  :  6112
 total energy-change (2. order) :-0.1273910E-01  (-0.1273222E-01)
 number of electron      30.0000000 magnetization 
 augmentation part        0.5840375 magnetization 

 Broyden mixing:
  rms(total) = 0.13166E+01    rms(broyden)= 0.13161E+01
  rms(prec ) = 0.15026E+01
  weight for this iteration     100.00

 Free energy of the ion-electron system (eV)
  ---------------------------------------------------
  alpha Z        PSCENC =        14.61461864
  Ewald energy   TEWEN  =      2603.47533640
  -Hartree energ DENC   =     -3361.43975615
  -exchange      EXHF   =         0.00000000
  -V(xc)+E(xc)   XCENC  =        91.18491800
  PAW double counting   =       738.13200929     -739.83780425
  entropy T*S    EENTRO =        -0.00000000
  eigenvalues    EBANDS =      -444.81467368
  atomic energy  EATOM  =      1025.20389953
  Solvation  Ediel_sol  =         0.00000000
  ---------------------------------------------------
  free energy    TOTEN  =       -73.48145222 eV

  energy without entropy =      -73.48145222  energy(sigma->0) =      -73.48145222


--------------------------------------------------------------------------------------------------------




--------------------------------------- Iteration      1(   6)  ---------------------------------------


    POTLOK:  cpu time    0.0502: real time    0.0504
    SETDIJ:  cpu time    0.0018: real time    0.0018
     EDDAV:  cpu time    6.8028: real time    6.8033
       DOS:  cpu time    0.0005: real time    0.0005
    CHARGE:  cpu time    0.2415: real time    0.2415
    MIXING:  cpu time    0.0016: real time    0.0016
    --------------------------------------------
      LOOP:  cpu time    7.0984: real time    7.0992

 eigenvalue-minimisations  :  6704
 total energy-change (2. order) : 0.4505295E+01  (-0.4062471E+00)
 number of electron      30.0000000 magnetization 
 augmentation part        0.5428132 magnetization 

 Broyden mixing:
  rms(total) = 0.74226E+00    rms(broyden)= 0.74221E+00
  rms(prec ) = 0.83494E+00
  weight for this iteration     100.00

 eigenvalues of (default mixing * dielectric matrix)
  average eigenvalue GAMMA=   1.9982
  1.9982

 Free energy of the ion-electron system (eV)
  ---------------------------------------------------
  alpha Z        PSCENC =        14.61461864
  Ewald energy   TEWEN  =      2603.47533640
  -Hartree energ DENC   =     -3407.88074890
  -exchange      EXHF   =         0.00000000
  -V(xc)+E(xc)   XCENC  =        93.20902427
  PAW double counting   =      1382.57191721    -1384.83997982
  entropy T*S    EENTRO =        -0.00000000
  eigenvalues    EBANDS =      -395.33022431
  atomic energy  EATOM  =      1025.20389953
  Solvation  Ediel_sol  =         0.00000000
  ---------------------------------------------------
  free energy    TOTEN  =       -68.97615698 eV

  energy without entropy =      -68.97615698  energy(sigma->0) =      -68.97615698


--------------------------------------------------------------------------------------------------------




--------------------------------------- Iteration      1(   7)  ---------------------------------------


    POTLOK:  cpu time    0.0509: real time    0.0522
    SETDIJ:  cpu time    0.0019: real time    0.0019
     EDDAV:  cpu time    6.9783: real time    6.9821
       DOS:  cpu time    0.0005: real time    0.0005
    CHARGE:  cpu time    0.2385: real time    0.2387
    MIXING:  cpu time    0.0014: real time    0.0014
    --------------------------------------------
      LOOP:  cpu time    7.2715: real time    7.2769

 eigenvalue-minimisations  :  6864
 total energy-change (2. order) : 0.1645450E+01  (-0.3690085E+00)
 number of electron      30.0000000 magnetization 
 augmentation part        0.5054966 magnetization 

 Broyden mixing:
  rms(total) = 0.22005E+00    rms(broyden)= 0.21994E+00
  rms(prec ) = 0.24266E+00
  weight for this iteration     100.00

 eigenvalues of (default mixing * dielectric matrix)
  average eigenvalue GAMMA=   1.9796
  1.5505  2.4086

 Free energy of the ion-electron system (eV)
  ---------------------------------------------------
  alpha Z        PSCENC =        14.61461864
  Ewald energy   TEWEN  =      2603.47533640
  -Hartree energ DENC   =     -3460.53445042
  -exchange      EXHF   =         0.00000000
  -V(xc)+E(xc)   XCENC  =        95.47274375
  PAW double counting   =      2479.09992075    -2481.79583248
  entropy T*S    EENTRO =        -0.00000000
  eigenvalues    EBANDS =      -342.86694306
  atomic energy  EATOM  =      1025.20389953
  Solvation  Ediel_sol  =         0.00000000
  ---------------------------------------------------
  free energy    TOTEN  =       -67.33070690 eV

  energy without entropy =      -67.33070689  energy(sigma->0) =      -67.33070689


--------------------------------------------------------------------------------------------------------




--------------------------------------- Iteration      1(   8)  ---------------------------------------


    POTLOK:  cpu time    0.0516: real time    0.0517
    SETDIJ:  cpu time    0.0018: real time    0.0018
     EDDAV:  cpu time    6.3940: real time    6.3955
       DOS:  cpu time    0.0006: real time    0.0006
    CHARGE:  cpu time    0.2405: real time    0.2406
    MIXING:  cpu time    0.0014: real time    0.0014
    --------------------------------------------
      LOOP:  cpu time    6.6899: real time    6.6915

 eigenvalue-minimisations  :  6192
 total energy-change (2. order) : 0.7872079E-01  (-0.2271804E-01)
 number of electron      30.0000000 magnetization 
 augmentation part        0.4984566 magnetization 

 Broyden mixing:
  rms(total) = 0.53376E-01    rms(broyden)= 0.53353E-01
  rms(prec ) = 0.78016E-01
  weight for this iteration     100.00

 eigenvalues of (default mixing * dielectric matrix)
  average eigenvalue GAMMA=   1.8101
  1.2046  2.1129  2.1129

 Free energy of the ion-electron system (eV)
  ---------------------------------------------------
  alpha Z        PSCENC =        14.61461864
  Ewald energy   TEWEN  =      2603.47533640
  -Hartree energ DENC   =     -3474.29255710
  -exchange      EXHF   =         0.00000000
  -V(xc)+E(xc)   XCENC  =        95.84417467
  PAW double counting   =      2880.49362238    -2883.11214044
  entropy T*S    EENTRO =        -0.00000002
  eigenvalues    EBANDS =      -329.47894018
  atomic energy  EATOM  =      1025.20389953
  Solvation  Ediel_sol  =         0.00000000
  ---------------------------------------------------
  free energy    TOTEN  =       -67.25198611 eV

  energy without entropy =      -67.25198609  energy(sigma->0) =      -67.25198610


--------------------------------------------------------------------------------------------------------




--------------------------------------- Iteration      1(   9)  ---------------------------------------


    POTLOK:  cpu time    0.0515: real time    0.0517
    SETDIJ:  cpu time    0.0018: real time    0.0018
     EDDAV:  cpu time    6.4523: real time    6.4528
       DOS:  cpu time    0.0006: real time    0.0006
    CHARGE:  cpu time    0.2399: real time    0.2399
    MIXING:  cpu time    0.0014: real time    0.0014
    --------------------------------------------
      LOOP:  cpu time    6.7475: real time    6.7481

 eigenvalue-minimisations  :  6256
 total energy-change (2. order) : 0.1500601E-01  (-0.2145003E-02)
 number of electron      30.0000000 magnetization 
 augmentation part        0.4986683 magnetization 

 Broyden mixing:
  rms(total) = 0.17894E-01    rms(broyden)= 0.17889E-01
  rms(prec ) = 0.43737E-01
  weight for this iteration     100.00

 eigenvalues of (default mixing * dielectric matrix)
  average eigenvalue GAMMA=   1.8486
  2.5195  2.3126  1.1863  1.3758

 Free energy of the ion-electron system (eV)
  ---------------------------------------------------
  alpha Z        PSCENC =        14.61461864
  Ewald energy   TEWEN  =      2603.47533640
  -Hartree energ DENC   =     -3479.68024080
  -exchange      EXHF   =         0.00000000
  -V(xc)+E(xc)   XCENC  =        95.89252596
  PAW double counting   =      2916.94416683    -2919.49796731
  entropy T*S    EENTRO =        -0.00000002
  eigenvalues    EBANDS =      -324.18931932
  atomic energy  EATOM  =      1025.20389953
  Solvation  Ediel_sol  =         0.00000000
  ---------------------------------------------------
  free energy    TOTEN  =       -67.23698010 eV

  energy without entropy =      -67.23698008  energy(sigma->0) =      -67.23698009


--------------------------------------------------------------------------------------------------------




--------------------------------------- Iteration      1(  10)  ---------------------------------------


    POTLOK:  cpu time    0.0536: real time    0.0547
    SETDIJ:  cpu time    0.0018: real time    0.0018
     EDDAV:  cpu time    6.2622: real time    6.2629
       DOS:  cpu time    0.0006: real time    0.0006
    CHARGE:  cpu time    0.2437: real time    0.2438
    MIXING:  cpu time    0.0017: real time    0.0017
    --------------------------------------------
      LOOP:  cpu time    6.5635: real time    6.5655

 eigenvalue-minimisations  :  6064
 total energy-change (2. order) : 0.1116405E-01  (-0.7228707E-03)
 number of electron      30.0000000 magnetization 
 augmentation part        0.4977418 magnetization 

 Broyden mixing:
  rms(total) = 0.15864E-01    rms(broyden)= 0.15862E-01
  rms(prec ) = 0.27661E-01
  weight for this iteration     100.00

 eigenvalues of (default mixing * dielectric matrix)
  average eigenvalue GAMMA=   1.8509
  2.5995  2.5995  1.8434  0.9164  1.2960

 Free energy of the ion-electron system (eV)
  ---------------------------------------------------
  alpha Z        PSCENC =        14.61461864
  Ewald energy   TEWEN  =      2603.47533640
  -Hartree energ DENC   =     -3487.96019104
  -exchange      EXHF   =         0.00000000
  -V(xc)+E(xc)   XCENC  =        96.01391601
  PAW double counting   =      2941.71650029    -2944.24160072
  entropy T*S    EENTRO =        -0.00000005
  eigenvalues    EBANDS =      -316.04829511
  atomic energy  EATOM  =      1025.20389953
  Solvation  Ediel_sol  =         0.00000000
  ---------------------------------------------------
  free energy    TOTEN  =       -67.22581605 eV

  energy without entropy =      -67.22581599  energy(sigma->0) =      -67.22581602


--------------------------------------------------------------------------------------------------------




--------------------------------------- Iteration      1(  11)  ---------------------------------------


    POTLOK:  cpu time    0.0544: real time    0.0555
    SETDIJ:  cpu time    0.0019: real time    0.0019
     EDDAV:  cpu time    6.3938: real time    6.3943
       DOS:  cpu time    0.0006: real time    0.0006
    CHARGE:  cpu time    0.2388: real time    0.2388
    MIXING:  cpu time    0.0015: real time    0.0015
    --------------------------------------------
      LOOP:  cpu time    6.6910: real time    6.6927

 eigenvalue-minimisations  :  6192
 total energy-change (2. order) : 0.6353648E-03  (-0.3125087E-03)
 number of electron      30.0000000 magnetization 
 augmentation part        0.4970209 magnetization 

 Broyden mixing:
  rms(total) = 0.52910E-02    rms(broyden)= 0.52866E-02
  rms(prec ) = 0.13557E-01
  weight for this iteration     100.00

 eigenvalues of (default mixing * dielectric matrix)
  average eigenvalue GAMMA=   2.0838
  4.3071  2.5128  2.0230  0.9500  1.4529  1.2568

 Free energy of the ion-electron system (eV)
  ---------------------------------------------------
  alpha Z        PSCENC =        14.61461864
  Ewald energy   TEWEN  =      2603.47533640
  -Hartree energ DENC   =     -3493.34058925
  -exchange      EXHF   =         0.00000000
  -V(xc)+E(xc)   XCENC  =        96.06651115
  PAW double counting   =      2905.70277102    -2908.23709079
  entropy T*S    EENTRO =        -0.00000008
  eigenvalues    EBANDS =      -310.71063730
  atomic energy  EATOM  =      1025.20389953
  Solvation  Ediel_sol  =         0.00000000
  ---------------------------------------------------
  free energy    TOTEN  =       -67.22518068 eV

  energy without entropy =      -67.22518061  energy(sigma->0) =      -67.22518064


--------------------------------------------------------------------------------------------------------




--------------------------------------- Iteration      1(  12)  ---------------------------------------


    POTLOK:  cpu time    0.0518: real time    0.0525
    SETDIJ:  cpu time    0.0018: real time    0.0018
     EDDAV:  cpu time    5.5712: real time    5.5719
       DOS:  cpu time    0.0006: real time    0.0006
    CHARGE:  cpu time    0.2385: real time    0.2385
    MIXING:  cpu time    0.0016: real time    0.0016
    --------------------------------------------
      LOOP:  cpu time    5.8656: real time    5.8670

 eigenvalue-minimisations  :  5200
 total energy-change (2. order) : 0.2009978E-02  (-0.1387886E-03)
 number of electron      30.0000000 magnetization 
 augmentation part        0.4968574 magnetization 

 Broyden mixing:
  rms(total) = 0.39438E-02    rms(broyden)= 0.39426E-02
  rms(prec ) = 0.85857E-02
  weight for this iteration     100.00

 eigenvalues of (default mixing * dielectric matrix)
  average eigenvalue GAMMA=   2.2539
  5.4471  2.6645  2.3689  1.9318  1.0283  1.0283  1.3084

 Free energy of the ion-electron system (eV)
  ---------------------------------------------------
  alpha Z        PSCENC =        14.61461864
  Ewald energy   TEWEN  =      2603.47533640
  -Hartree energ DENC   =     -3496.59266072
  -exchange      EXHF   =         0.00000000
  -V(xc)+E(xc)   XCENC  =        96.09042970
  PAW double counting   =      2901.41892397    -2903.95162940
  entropy T*S    EENTRO =        -0.00000009
  eigenvalues    EBANDS =      -307.48208874
  atomic energy  EATOM  =      1025.20389953
  Solvation  Ediel_sol  =         0.00000000
  ---------------------------------------------------
  free energy    TOTEN  =       -67.22317070 eV

  energy without entropy =      -67.22317061  energy(sigma->0) =      -67.22317066


--------------------------------------------------------------------------------------------------------




--------------------------------------- Iteration      1(  13)  ---------------------------------------


    POTLOK:  cpu time    0.0492: real time    0.0493
    SETDIJ:  cpu time    0.0018: real time    0.0018
     EDDAV:  cpu time    6.0159: real time    6.0166
       DOS:  cpu time    0.0006: real time    0.0006
    CHARGE:  cpu time    0.2385: real time    0.2385
    MIXING:  cpu time    0.0016: real time    0.0016
    --------------------------------------------
      LOOP:  cpu time    6.3075: real time    6.3085

 eigenvalue-minimisations  :  5760
 total energy-change (2. order) :-0.2708066E-02  (-0.2778929E-04)
 number of electron      29.9999999 magnetization 
 augmentation part        0.4967546 magnetization 

 Broyden mixing:
  rms(total) = 0.23266E-02    rms(broyden)= 0.23262E-02
  rms(prec ) = 0.46606E-02
  weight for this iteration     100.00

 eigenvalues of (default mixing * dielectric matrix)
  average eigenvalue GAMMA=   2.4080
  5.9940  3.6627  2.4730  2.1364  1.6593  1.3416  0.9986  0.9986

 Free energy of the ion-electron system (eV)
  ---------------------------------------------------
  alpha Z        PSCENC =        14.61461864
  Ewald energy   TEWEN  =      2603.47533640
  -Hartree energ DENC   =     -3498.10963138
  -exchange      EXHF   =         0.00000000
  -V(xc)+E(xc)   XCENC  =        96.08700666
  PAW double counting   =      2904.07511705    -2906.60925249
  entropy T*S    EENTRO =        -0.00000009
  eigenvalues    EBANDS =      -305.96297307
  atomic energy  EATOM  =      1025.20389953
  Solvation  Ediel_sol  =         0.00000000
  ---------------------------------------------------
  free energy    TOTEN  =       -67.22587877 eV

  energy without entropy =      -67.22587868  energy(sigma->0) =      -67.22587872


--------------------------------------------------------------------------------------------------------




--------------------------------------- Iteration      1(  14)  ---------------------------------------


    POTLOK:  cpu time    0.0483: real time    0.0485
    SETDIJ:  cpu time    0.0018: real time    0.0018
     EDDAV:  cpu time    6.2988: real time    6.2995
       DOS:  cpu time    0.0006: real time    0.0006
    CHARGE:  cpu time    0.2380: real time    0.2380
    MIXING:  cpu time    0.0016: real time    0.0016
    --------------------------------------------
      LOOP:  cpu time    6.5892: real time    6.5900

 eigenvalue-minimisations  :  6096
 total energy-change (2. order) :-0.2888083E-02  (-0.5876868E-04)
 number of electron      30.0000000 magnetization 
 augmentation part        0.4968071 magnetization 

 Broyden mixing:
  rms(total) = 0.18455E-02    rms(broyden)= 0.18455E-02
  rms(prec ) = 0.25564E-02
  weight for this iteration     100.00

 eigenvalues of (default mixing * dielectric matrix)
  average eigenvalue GAMMA=   2.4423
  6.7562  3.8074  2.4476  2.4476  1.9566  0.9691  1.0290  1.2835  1.2835

 Free energy of the ion-electron system (eV)
  ---------------------------------------------------
  alpha Z        PSCENC =        14.61461864
  Ewald energy   TEWEN  =      2603.47533640
  -Hartree energ DENC   =     -3498.21210524
  -exchange      EXHF   =         0.00000000
  -V(xc)+E(xc)   XCENC  =        96.07169219
  PAW double counting   =      2909.95730963    -2912.48949926
  entropy T*S    EENTRO =        -0.00000008
  eigenvalues    EBANDS =      -305.85001865
  atomic energy  EATOM  =      1025.20389953
  Solvation  Ediel_sol  =         0.00000000
  ---------------------------------------------------
  free energy    TOTEN  =       -67.22876685 eV

  energy without entropy =      -67.22876677  energy(sigma->0) =      -67.22876681


--------------------------------------------------------------------------------------------------------




--------------------------------------- Iteration      1(  15)  ---------------------------------------


    POTLOK:  cpu time    0.0480: real time    0.0482
    SETDIJ:  cpu time    0.0018: real time    0.0018
     EDDAV:  cpu time    6.6936: real time    6.6946
       DOS:  cpu time    0.0006: real time    0.0006
    CHARGE:  cpu time    0.2387: real time    0.2387
    MIXING:  cpu time    0.0017: real time    0.0017
    --------------------------------------------
      LOOP:  cpu time    6.9845: real time    6.9857

 eigenvalue-minimisations  :  6560
 total energy-change (2. order) :-0.2772648E-03  (-0.3498255E-05)
 number of electron      30.0000000 magnetization 
 augmentation part        0.4967375 magnetization 

 Broyden mixing:
  rms(total) = 0.76712E-03    rms(broyden)= 0.76700E-03
  rms(prec ) = 0.12223E-02
  weight for this iteration     100.00

 eigenvalues of (default mixing * dielectric matrix)
  average eigenvalue GAMMA=   2.7235
  8.1099  5.2349  2.8539  2.5738  2.2467  1.8654  1.2832  0.9662  1.0104  1.0907

 Free energy of the ion-electron system (eV)
  ---------------------------------------------------
  alpha Z        PSCENC =        14.61461864
  Ewald energy   TEWEN  =      2603.47533640
  -Hartree energ DENC   =     -3498.86084935
  -exchange      EXHF   =         0.00000000
  -V(xc)+E(xc)   XCENC  =        96.08090675
  PAW double counting   =      2907.54965664    -2910.08176858
  entropy T*S    EENTRO =        -0.00000009
  eigenvalues    EBANDS =      -305.21084405
  atomic energy  EATOM  =      1025.20389953
  Solvation  Ediel_sol  =         0.00000000
  ---------------------------------------------------
  free energy    TOTEN  =       -67.22904412 eV

  energy without entropy =      -67.22904403  energy(sigma->0) =      -67.22904407


--------------------------------------------------------------------------------------------------------




--------------------------------------- Iteration      1(  16)  ---------------------------------------


    POTLOK:  cpu time    0.0485: real time    0.0486
    SETDIJ:  cpu time    0.0018: real time    0.0018
     EDDAV:  cpu time    5.8583: real time    5.8606
       DOS:  cpu time    0.0006: real time    0.0006
    CHARGE:  cpu time    0.2381: real time    0.2381
    MIXING:  cpu time    0.0018: real time    0.0018
    --------------------------------------------
      LOOP:  cpu time    6.1490: real time    6.1515

 eigenvalue-minimisations  :  5520
 total energy-change (2. order) :-0.5594800E-03  (-0.5575613E-05)
 number of electron      30.0000000 magnetization 
 augmentation part        0.4967249 magnetization 

 Broyden mixing:
  rms(total) = 0.29524E-03    rms(broyden)= 0.29519E-03
  rms(prec ) = 0.36813E-03
  weight for this iteration     100.00

 eigenvalues of (default mixing * dielectric matrix)
  average eigenvalue GAMMA=   2.6889
  8.8692  5.3486  3.1707  2.4555  2.0505  2.0505  1.2989  1.2989  1.0872  0.9563
  0.9915

 Free energy of the ion-electron system (eV)
  ---------------------------------------------------
  alpha Z        PSCENC =        14.61461864
  Ewald energy   TEWEN  =      2603.47533640
  -Hartree energ DENC   =     -3498.84307358
  -exchange      EXHF   =         0.00000000
  -V(xc)+E(xc)   XCENC  =        96.07935680
  PAW double counting   =      2906.15533750    -2908.68815017
  entropy T*S    EENTRO =        -0.00000009
  eigenvalues    EBANDS =      -305.22692862
  atomic energy  EATOM  =      1025.20389953
  Solvation  Ediel_sol  =         0.00000000
  ---------------------------------------------------
  free energy    TOTEN  =       -67.22960360 eV

  energy without entropy =      -67.22960351  energy(sigma->0) =      -67.22960355


--------------------------------------------------------------------------------------------------------




--------------------------------------- Iteration      1(  17)  ---------------------------------------


    POTLOK:  cpu time    0.0494: real time    0.0518
    SETDIJ:  cpu time    0.0018: real time    0.0018
     EDDAV:  cpu time    6.3271: real time    6.3281
       DOS:  cpu time    0.0006: real time    0.0006
    CHARGE:  cpu time    0.2393: real time    0.2393
    MIXING:  cpu time    0.0020: real time    0.0020
    --------------------------------------------
      LOOP:  cpu time    6.6202: real time    6.6237

 eigenvalue-minimisations  :  6096
 total energy-change (2. order) :-0.4863601E-04  (-0.1736817E-06)
 number of electron      30.0000000 magnetization 
 augmentation part        0.4967354 magnetization 

 Broyden mixing:
  rms(total) = 0.16354E-03    rms(broyden)= 0.16352E-03
  rms(prec ) = 0.20024E-03
  weight for this iteration     100.00

 eigenvalues of (default mixing * dielectric matrix)
  average eigenvalue GAMMA=   2.8069
  9.4264  5.8535  3.7323  2.7772  2.4766  2.0627  1.9746  1.2657  1.1355  0.9571
  1.0107  1.0107

 Free energy of the ion-electron system (eV)
  ---------------------------------------------------
  alpha Z        PSCENC =        14.61461864
  Ewald energy   TEWEN  =      2603.47533640
  -Hartree energ DENC   =     -3498.84130559
  -exchange      EXHF   =         0.00000000
  -V(xc)+E(xc)   XCENC  =        96.07887264
  PAW double counting   =      2906.46421959    -2908.99657463
  entropy T*S    EENTRO =        -0.00000009
  eigenvalues    EBANDS =      -305.22871872
  atomic energy  EATOM  =      1025.20389953
  Solvation  Ediel_sol  =         0.00000000
  ---------------------------------------------------
  free energy    TOTEN  =       -67.22965223 eV

  energy without entropy =      -67.22965214  energy(sigma->0) =      -67.22965219


--------------------------------------------------------------------------------------------------------




--------------------------------------- Iteration      1(  18)  ---------------------------------------


    POTLOK:  cpu time    0.0500: real time    0.0501
    SETDIJ:  cpu time    0.0018: real time    0.0018
     EDDAV:  cpu time    5.3788: real time    5.3792
       DOS:  cpu time    0.0006: real time    0.0006
    CHARGE:  cpu time    0.2395: real time    0.2396
    MIXING:  cpu time    0.0020: real time    0.0020
    --------------------------------------------
      LOOP:  cpu time    5.6728: real time    5.6733

 eigenvalue-minimisations  :  4960
 total energy-change (2. order) :-0.3013431E-04  (-0.1143233E-06)
 number of electron      29.9999999 magnetization 
 augmentation part        0.4967289 magnetization 

 Broyden mixing:
  rms(total) = 0.40898E-04    rms(broyden)= 0.40887E-04
  rms(prec ) = 0.46873E-04
  weight for this iteration     100.00

 eigenvalues of (default mixing * dielectric matrix)
  average eigenvalue GAMMA=   2.6994
  9.5042  5.9186  3.7046  2.7960  2.3932  2.1938  1.8795  1.3369  1.1904  1.1904
  0.9724  1.0062  1.0062

 Free energy of the ion-electron system (eV)
  ---------------------------------------------------
  alpha Z        PSCENC =        14.61461864
  Ewald energy   TEWEN  =      2603.47533640
  -Hartree energ DENC   =     -3498.86399179
  -exchange      EXHF   =         0.00000000
  -V(xc)+E(xc)   XCENC  =        96.07919432
  PAW double counting   =      2906.42348113    -2908.95601140
  entropy T*S    EENTRO =        -0.00000009
  eigenvalues    EBANDS =      -305.20620910
  atomic energy  EATOM  =      1025.20389953
  Solvation  Ediel_sol  =         0.00000000
  ---------------------------------------------------
  free energy    TOTEN  =       -67.22968237 eV

  energy without entropy =      -67.22968228  energy(sigma->0) =      -67.22968232


--------------------------------------------------------------------------------------------------------




--------------------------------------- Iteration      1(  19)  ---------------------------------------


    POTLOK:  cpu time    0.0500: real time    0.0503
    SETDIJ:  cpu time    0.0018: real time    0.0018
     EDDAV:  cpu time    5.5354: real time    5.5358
       DOS:  cpu time    0.0006: real time    0.0006
    CHARGE:  cpu time    0.2393: real time    0.2393
    MIXING:  cpu time    0.0019: real time    0.0019
    --------------------------------------------
      LOOP:  cpu time    5.8291: real time    5.8297

 eigenvalue-minimisations  :  5024
 total energy-change (2. order) :-0.1099287E-05  (-0.2752716E-08)
 number of electron      29.9999999 magnetization 
 augmentation part        0.4967296 magnetization 

 Broyden mixing:
  rms(total) = 0.14995E-04    rms(broyden)= 0.14994E-04
  rms(prec ) = 0.17736E-04
  weight for this iteration     100.00

 eigenvalues of (default mixing * dielectric matrix)
  average eigenvalue GAMMA=   2.7007
  9.5143  5.9523  3.8217  2.8699  2.8699  2.3151  2.1242  1.9276  1.2775  1.0808
  1.0808  0.9884  0.9884  0.9992

 Free energy of the ion-electron system (eV)
  ---------------------------------------------------
  alpha Z        PSCENC =        14.61461864
  Ewald energy   TEWEN  =      2603.47533640
  -Hartree energ DENC   =     -3498.85711825
  -exchange      EXHF   =         0.00000000
  -V(xc)+E(xc)   XCENC  =        96.07903086
  PAW double counting   =      2906.43292069    -2908.96542862
  entropy T*S    EENTRO =        -0.00000009
  eigenvalues    EBANDS =      -305.21294261
  atomic energy  EATOM  =      1025.20389953
  Solvation  Ediel_sol  =         0.00000000
  ---------------------------------------------------
  free energy    TOTEN  =       -67.22968347 eV

  energy without entropy =      -67.22968338  energy(sigma->0) =      -67.22968342


--------------------------------------------------------------------------------------------------------




--------------------------------------- Iteration      1(  20)  ---------------------------------------


    POTLOK:  cpu time    0.0510: real time    0.0522
    SETDIJ:  cpu time    0.0018: real time    0.0018
     EDDAV:  cpu time    4.6491: real time    4.6503
       DOS:  cpu time    0.0006: real time    0.0006
    CHARGE:  cpu time    0.2384: real time    0.2384
    MIXING:  cpu time    0.0020: real time    0.0020
    --------------------------------------------
      LOOP:  cpu time    4.9429: real time    4.9452

 eigenvalue-minimisations  :  3952
 total energy-change (2. order) :-0.1379533E-05  (-0.3132253E-08)
 number of electron      29.9999999 magnetization 
 augmentation part        0.4967300 magnetization 

 Broyden mixing:
  rms(total) = 0.10187E-04    rms(broyden)= 0.10187E-04
  rms(prec ) = 0.10913E-04
  weight for this iteration     100.00

 eigenvalues of (default mixing * dielectric matrix)
  average eigenvalue GAMMA=   2.5989
  9.5414  5.9418  3.8951  3.0152  2.6134  2.4276  2.1423  1.8856  1.2955  1.1265
  1.1265  0.9716  0.9716  1.0149  1.0149

 Free energy of the ion-electron system (eV)
  ---------------------------------------------------
  alpha Z        PSCENC =        14.61461864
  Ewald energy   TEWEN  =      2603.47533640
  -Hartree energ DENC   =     -3498.85882588
  -exchange      EXHF   =         0.00000000
  -V(xc)+E(xc)   XCENC  =        96.07905468
  PAW double counting   =      2906.47088367    -2909.00338436
  entropy T*S    EENTRO =        -0.00000009
  eigenvalues    EBANDS =      -305.21126742
  atomic energy  EATOM  =      1025.20389953
  Solvation  Ediel_sol  =         0.00000000
  ---------------------------------------------------
  free energy    TOTEN  =       -67.22968485 eV

  energy without entropy =      -67.22968476  energy(sigma->0) =      -67.22968480


--------------------------------------------------------------------------------------------------------




--------------------------------------- Iteration      1(  21)  ---------------------------------------


    POTLOK:  cpu time    0.0521: real time    0.0536
    SETDIJ:  cpu time    0.0018: real time    0.0018
     EDDAV:  cpu time    5.1639: real time    5.1643
       DOS:  cpu time    0.0006: real time    0.0006
    --------------------------------------------
      LOOP:  cpu time    5.2184: real time    5.2203

 eigenvalue-minimisations  :  4592
 total energy-change (2. order) :-0.9326504E-07  (-0.3263655E-09)
 number of electron      29.9999999 magnetization 
 augmentation part        0.4967300 magnetization 

 Free energy of the ion-electron system (eV)
  ---------------------------------------------------
  alpha Z        PSCENC =        14.61461864
  Ewald energy   TEWEN  =      2603.47533640
  -Hartree energ DENC   =     -3498.85890937
  -exchange      EXHF   =         0.00000000
  -V(xc)+E(xc)   XCENC  =        96.07906274
  PAW double counting   =      2906.45687704    -2908.98938592
  entropy T*S    EENTRO =        -0.00000009
  eigenvalues    EBANDS =      -305.21118390
  atomic energy  EATOM  =      1025.20389953
  Solvation  Ediel_sol  =         0.00000000
  ---------------------------------------------------
  free energy    TOTEN  =       -67.22968494 eV

  energy without entropy =      -67.22968485  energy(sigma->0) =      -67.22968489


--------------------------------------------------------------------------------------------------------




[...]
     20       2.7259      0.00000
     21       3.1328      0.00000
     22       3.2293      0.00000
     23       4.2446      0.00000
     24       4.8416      0.00000
     25       5.0730      0.00000
     26       5.2365      0.00000
     27       5.7006      0.00000
     28       5.7036      0.00000
     29       5.8286      0.00000
     30       6.1684      0.00000
     31       6.3471      0.00000
     32       6.7567      0.00000

 k-point    66 :      -0.1667    0.4167    0.0000
  band No.  band energies     occupation 
      1     -19.4462      2.00000
      2     -17.2132      2.00000
      3     -16.6566      2.00000
      4     -13.6351      2.00000
      5     -12.7763      2.00000
      6     -10.4556      2.00000
      7      -9.7134      2.00000
      8      -9.1284      2.00000
      9      -7.9489      2.00000
     10      -7.5971      2.00000
     11      -6.6507      2.00000
     12      -5.9089      2.00000
     13      -5.7942      2.00000
     14      -5.2095      2.00000
     15      -4.9695      2.00000
     16      -2.5314      0.00000
     17      -0.2632      0.00000
     18       1.8163      0.00000
     19       2.2424      0.00000
     20       2.7260      0.00000
     21       3.1326      0.00000
     22       3.2293      0.00000
     23       4.2446      0.00000
     24       4.8416      0.00000
     25       5.0730      0.00000
     26       5.2364      0.00000
     27       5.7006      0.00000
     28       5.7036      0.00000
     29       5.8286      0.00000
     30       6.1688      0.00000
     31       6.3473      0.00000
     32       6.7560      0.00000

 k-point    67 :      -0.0833    0.4167    0.0000
  band No.  band energies     occupation 
      1     -19.4180      2.00000
      2     -17.3675      2.00000
      3     -16.5017      2.00000
      4     -13.9810      2.00000
      5     -12.3471      2.00000
      6     -10.4315      2.00000
      7      -9.7332      2.00000
      8      -8.9631      2.00000
      9      -8.0034      2.00000
     10      -7.8840      2.00000
     11      -6.3701      2.00000
     12      -6.1726      2.00000
     13      -6.0961      2.00000
     14      -4.9084      2.00000
     15      -4.8796      2.00000
     16      -2.8775      0.00000
     17       0.2117      0.00000
     18       1.7789      0.00000
     19       1.9176      0.00000
     20       2.8039      0.00000
     21       3.3322      0.00000
     22       3.6151      0.00000
     23       3.7411      0.00000
     24       4.6393      0.00000
     25       5.1865      0.00000
     26       5.3119      0.00000
     27       5.4547      0.00000
     28       5.7885      0.00000
     29       6.0017      0.00000
     30       6.2725      0.00000
     31       6.6810      0.00000
     32       6.9262      0.00000

 k-point    68 :       0.0000    0.5000    0.0000
  band No.  band energies     occupation 
      1     -19.3103      2.00000
      2     -17.6159      2.00000
      3     -16.4562      2.00000
      4     -14.1868      2.00000
      5     -11.8552      2.00000
      6     -10.0073      2.00000
      7      -9.7933      2.00000
      8      -9.1897      2.00000
      9      -7.5966      2.00000
     10      -7.5606      2.00000
     11      -7.3070      2.00000
     12      -6.6416      2.00000
     13      -6.0928      2.00000
     14      -5.0119      2.00000
     15      -4.7560      2.00000
     16      -3.1577      0.00001
     17       0.7139      0.00000
     18       1.5727      0.00000
     19       2.6777      0.00000
     20       2.6814      0.00000
     21       3.5193      0.00000
     22       3.5774      0.00000
     23       4.1039      0.00000
     24       4.1078      0.00000
     25       5.0842      0.00000
     26       5.3153      0.00000
     27       5.5634      0.00000
     28       5.9719      0.00000
     29       6.2515      0.00000
     30       6.3012      0.00000
     31       6.4223      0.00000
     32       6.4446      0.00000

 k-point    69 :       0.0833    0.5000    0.0000
  band No.  band energies     occupation 
      1     -19.3142      2.00000
      2     -17.5671      2.00000
      3     -16.5554      2.00000
      4     -14.0325      2.00000
      5     -12.0169      2.00000
      6     -10.1436      2.00000
      7      -9.7731      2.00000
      8      -8.9047      2.00000
      9      -7.8243      2.00000
     10      -7.6226      2.00000
     11      -6.9958      2.00000
     12      -6.5474      2.00000
     13      -6.1935      2.00000
     14      -5.0902      2.00000
     15      -4.9585      2.00000
     16      -2.9215      0.00000
     17       0.3091      0.00000
     18       1.9760      0.00000
     19       2.4265      0.00000
     20       3.0348      0.00000
     21       3.3084      0.00000
     22       3.8485      0.00000
     23       3.8805      0.00000
     24       4.4670      0.00000
     25       4.6778      0.00000
     26       5.3857      0.00000
     27       5.5936      0.00000
     28       5.8394      0.00000
     29       5.8628      0.00000
     30       6.3082      0.00000
     31       6.4042      0.00000
     32       6.5108      0.00000

 k-point    70 :       0.1667    0.5000    0.0000
  band No.  band energies     occupation 
      1     -19.3218      2.00000
      2     -17.4404      2.00000
      3     -16.7698      2.00000
      4     -13.6599      2.00000
      5     -12.4123      2.00000
      6     -10.3121      2.00000
      7      -9.6668      2.00000
      8      -8.5927      2.00000
      9      -7.9037      2.00000
     10      -7.6675      2.00000
     11      -6.7834      2.00000
     12      -6.3136      2.00000
     13      -6.3092      2.00000
     14      -5.3464      2.00000
     15      -5.2868      2.00000
     16      -2.4621      0.00000
     17      -0.2771      0.00000
     18       2.2752      0.00000
     19       2.5734      0.00000
     20       3.2025      0.00000
     21       3.4913      0.00000
     22       3.6946      0.00000
     23       4.0018      0.00000
     24       4.4184      0.00000
     25       4.6943      0.00000
     26       4.9321      0.00000
     27       5.4449      0.00000
     28       5.7022      0.00000
     29       6.0904      0.00000
     30       6.1186      0.00000
     31       6.2383      0.00000
     32       6.3698      0.00000

 k-point    71 :       0.2500    0.5000    0.0000
  band No.  band energies     occupation 
      1     -19.3255      2.00000
      2     -17.3421      2.00000
      3     -16.9069      2.00000
      4     -13.3620      2.00000
      5     -12.7238      2.00000
      6     -10.3693      2.00000
      7      -9.6014      2.00000
      8      -8.5884      2.00000
      9      -7.7112      2.00000
     10      -7.6874      2.00000
     11      -6.9243      2.00000
     12      -6.1995      2.00000
     13      -6.1246      2.00000
     14      -5.5954      2.00000
     15      -5.4281      2.00000
     16      -2.1963      0.00000
     17      -0.5793      0.00000
     18       2.2248      0.00000
     19       2.8624      0.00000
     20       3.3971      0.00000
     21       3.5355      0.00000
     22       3.6432      0.00000
     23       4.0340      0.00000
     24       4.0595      0.00000
     25       4.8485      0.00000
     26       4.9465      0.00000
     27       5.4946      0.00000
     28       5.5024      0.00000
     29       5.6269      0.00000
     30       6.1766      0.00000
     31       6.2504      0.00000
     32       6.8130      0.00000

 k-point    72 :       0.3333    0.5000    0.0000
  band No.  band energies     occupation 
      1     -19.3218      2.00000
      2     -17.4403      2.00000
      3     -16.7699      2.00000
      4     -13.6600      2.00000
      5     -12.4123      2.00000
      6     -10.3122      2.00000
      7      -9.6667      2.00000
      8      -8.5930      2.00000
      9      -7.9030      2.00000
     10      -7.6675      2.00000
     11      -6.7838      2.00000
     12      -6.3135      2.00000
     13      -6.3090      2.00000
     14      -5.3465      2.00000
     15      -5.2870      2.00000
     16      -2.4620      0.00000
     17      -0.2771      0.00000
     18       2.2752      0.00000
     19       2.5733      0.00000
     20       3.2024      0.00000
     21       3.4913      0.00000
     22       3.6946      0.00000
     23       4.0019      0.00000
     24       4.4184      0.00000
     25       4.6943      0.00000
     26       4.9321      0.00000
     27       5.4449      0.00000
     28       5.7022      0.00000
     29       6.0905      0.00000
     30       6.1185      0.00000
     31       6.2382      0.00000
     32       6.3695      0.00000

 k-point    73 :       0.4167    0.5000    0.0000
  band No.  band energies     occupation 
      1     -19.3142      2.00000
      2     -17.5669      2.00000
      3     -16.5555      2.00000
      4     -14.0326      2.00000
      5     -12.0170      2.00000
      6     -10.1436      2.00000
      7      -9.7730      2.00000
      8      -8.9047      2.00000
      9      -7.8239      2.00000
     10      -7.6226      2.00000
     11      -6.9958      2.00000
     12      -6.5472      2.00000
     13      -6.1938      2.00000
     14      -5.0903      2.00000
     15      -4.9586      2.00000
     16      -2.9215      0.00000
     17       0.3091      0.00000
     18       1.9758      0.00000
     19       2.4265      0.00000
     20       3.0348      0.00000
     21       3.3084      0.00000
     22       3.8485      0.00000
     23       3.8805      0.00000
     24       4.4670      0.00000
     25       4.6779      0.00000
     26       5.3856      0.00000
     27       5.5936      0.00000
     28       5.8394      0.00000
     29       5.8624      0.00000
     30       6.3082      0.00000
     31       6.4042      0.00000
     32       6.5109      0.00000

 k-point    74 :       0.5000    0.5000    0.0000
  band No.  band energies     occupation 
      1     -19.3103      2.00000
      2     -17.6157      2.00000
      3     -16.4563      2.00000
      4     -14.1870      2.00000
      5     -11.8553      2.00000
      6     -10.0072      2.00000
      7      -9.7934      2.00000
      8      -9.1894      2.00000
      9      -7.5966      2.00000
     10      -7.5605      2.00000
     11      -7.3067      2.00000
     12      -6.6415      2.00000
     13      -6.0932      2.00000
     14      -5.0121      2.00000
     15      -4.7561      2.00000
     16      -3.1576      0.00001
     17       0.7139      0.00000
     18       1.5724      0.00000
     19       2.6777      0.00000
     20       2.6814      0.00000
     21       3.5193      0.00000
     22       3.5774      0.00000
     23       4.1039      0.00000
     24       4.1078      0.00000
     25       5.0844      0.00000
     26       5.3152      0.00000
     27       5.5631      0.00000
     28       5.9719      0.00000
     29       6.2516      0.00000
     30       6.3012      0.00000
     31       6.4222      0.00000
     32       6.4446      0.00000


--------------------------------------------------------------------------------------------------------


 soft charge-density along one line, spin component           1
         0         1         2         3         4         5         6         7         8         9
 total charge-density along one line
 
 pseudopotential strength for first ion, spin component:           1
  6.732  10.272  -0.000   0.000  -0.000  -0.000   0.000  -0.000
 10.272  15.670  -0.000   0.000  -0.000  -0.000   0.000  -0.000
 -0.000  -0.000  -2.315  -0.000   0.000  -3.974  -0.000   0.000
  0.000   0.000  -0.000  -2.321  -0.000  -0.000  -3.981  -0.000
 -0.000  -0.000   0.000  -0.000  -2.315   0.000  -0.000  -3.974
 -0.000  -0.000  -3.974  -0.000   0.000  -6.623  -0.000   0.000
  0.000   0.000  -0.000  -3.981  -0.000  -0.000  -6.632  -0.000
 -0.000  -0.000   0.000  -0.000  -3.974   0.000  -0.000  -6.623
 total augmentation occupancy for first ion, spin component:           1
  3.719  -0.953  -0.000   0.000   0.000   0.000   0.000  -0.000
 -0.953   0.264   0.000   0.000  -0.000  -0.000   0.000   0.000
 -0.000   0.000   4.142   0.000  -0.000  -1.105   0.000   0.000
  0.000   0.000   0.000   0.892   0.000   0.000  -0.223   0.000
  0.000  -0.000  -0.000   0.000   4.142   0.000   0.000  -1.105
  0.000  -0.000  -1.105   0.000   0.000   0.306   0.000  -0.000
  0.000   0.000   0.000  -0.223   0.000   0.000   0.056   0.000
 -0.000   0.000   0.000   0.000  -1.105  -0.000   0.000   0.306


------------------------ aborting loop because EDIFF is reached ----------------------------------------


    CHARGE:  cpu time    0.2376: real time    0.2376
    FORLOC:  cpu time    0.0048: real time    0.0048
    FORNL :  cpu time    0.7421: real time    0.7421
    STRESS:  cpu time    4.3401: real time    4.3405
    FORCOR:  cpu time    0.0548: real time    0.0548
    FORHAR:  cpu time    0.0135: real time    0.0135
    MIXING:  cpu time    0.0022: real time    0.0022
    OFIELD:  cpu time    0.0000: real time    0.0000

 ---------------------------------------------------------------------------------------------

         DFTD3 V3.0 Rev 1        
 IVDW         = 12
 DF pbe       
 parameters
 VDW_S6       =    1.0000
 VDW_S8       =    0.7875
 VDW_A1       =    0.4289
 VDW_A2       =    4.4407
 k1-k3        =   16.0000    1.3333   -4.0000
 VDW_RADIUS   =   50.2022 A
 VDW_CNRADIUS =   21.1671 A
 Edisp (eV)   -0.67804

 E6    (eV) :    -0.4579
 E8    (eV) :    -0.2201
 % E8        : 32.46
    FORVDW:  cpu time    0.0281: real time    0.0289

  FORCE on cell =-STRESS in cart. coord.  units (eV):
  Direction    XX          YY          ZZ          XY          YZ          ZX
  --------------------------------------------------------------------------------------
  Alpha Z    14.61462    14.61462    14.61462
  Ewald    3501.17518  3501.20683 -4398.90803     0.00327     0.00000     0.00000
  Hartree  3440.13123  3440.13735 -3381.40952    -0.00006    -0.00000     0.00000
  E(xc)    -107.49129  -107.49124  -111.32335     0.00001    -0.00000     0.00000
  Local   -7258.17087 -7258.20342  7443.59014    -0.00238     0.00000     0.00000
  n-local   -21.69671   -21.69609   -10.37237     0.00001    -0.00000     0.00000
  augment    -1.80629    -1.80624    -1.79654    -0.00002    -0.00000     0.00000
  Kinetic   433.61682   433.61192   445.42261    -0.00034    -0.00000    -0.00000
  Fock        0.00000     0.00000     0.00000     0.00000     0.00000     0.00000
  vdW        -0.54283    -0.54284    -0.00593     0.00000     0.00000    -0.00000
  -------------------------------------------------------------------------------------
  Total      -0.17013    -0.16913    -0.18837     0.00049     0.00000     0.00000
  in kB      -0.78535    -0.78070    -0.86953     0.00227     0.00000     0.00000
  external pressure =       -0.81 kB  Pullay stress =        0.00 kB


 VOLUME and BASIS-vectors are now :
 -----------------------------------------------------------------------------
  energy-cutoff  :      450.00
  volume of cell :      347.08
      direct lattice vectors                 reciprocal lattice vectors
     4.476485000  2.584500000  0.000000000     0.111694778  0.193461018  0.000000000
    -4.476485000  2.584500000  0.000000000    -0.111694778  0.193461018  0.000000000
     0.000000000  0.000000000 15.000000000     0.000000000  0.000000000  0.066666667

  length of vectors
     5.168999730  5.168999730 15.000000000     0.223389545  0.223389545  0.066666667


 FORCES acting on ions
    electron-ion (+dipol)            ewald-force                    non-local-force                 convergence-correction
 -----------------------------------------------------------------------------------------------
   0.117E-02 -.209E-02 0.177E-06   -.102E-02 0.230E-02 0.856E-18   0.209E-03 0.294E-03 0.000E+00   0.552E-06 -.798E-07 -.370E-13
   -.140E-01 0.566E-03 0.224E-07   0.159E-01 -.396E-03 -.373E-18   0.241E-02 0.148E-03 0.000E+00   -.369E-06 0.559E-07 -.380E-13
   0.256E+02 -.443E+02 -.228E-06   -.276E+02 0.478E+02 0.467E-18   0.201E+01 -.348E+01 0.000E+00   0.271E-05 -.449E-05 -.580E-13
   -.256E+02 -.443E+02 -.398E-06   0.276E+02 0.478E+02 -.660E-19   -.201E+01 -.348E+01 0.000E+00   -.230E-05 -.338E-05 -.565E-13
   -.511E+02 -.744E-02 0.421E-07   0.551E+02 0.834E-02 -.138E-18   -.402E+01 -.121E-02 0.000E+00   -.595E-05 0.163E-06 -.557E-13
   0.511E+02 0.868E-02 -.163E-06   -.552E+02 -.999E-02 0.725E-18   0.402E+01 0.115E-02 0.000E+00   0.514E-05 -.153E-06 -.547E-13
   0.256E+02 0.443E+02 0.259E-06   -.276E+02 -.478E+02 -.545E-18   0.201E+01 0.348E+01 0.000E+00   0.290E-05 0.490E-05 -.526E-13
   -.256E+02 0.443E+02 0.101E-09   0.276E+02 -.478E+02 -.925E-18   -.201E+01 0.348E+01 0.000E+00   -.249E-05 0.312E-05 -.537E-13
 -----------------------------------------------------------------------------------------------
   -.485E-03 -.726E-04 -.288E-06   -.711E-14 0.213E-13 0.000E+00   0.805E-03 0.602E-03 0.000E+00   0.208E-06 0.138E-06 -.406E-12
 
 
 POSITION                                       TOTAL-FORCE (eV/Angst)
 -----------------------------------------------------------------------------------
     -1.48097      2.60387      3.75000         0.000316      0.000436      0.000000
      1.50327      2.60388      3.75000         0.004251      0.000252      0.000000
     -0.69950      1.25022      3.75000        -0.000085      0.000029      0.000000
      0.72178      1.25029      3.75000        -0.000083     -0.000920      0.000000
     -3.04401      2.60396      3.75000         0.001047     -0.000375      0.000000
      3.06640      2.60382      3.75000        -0.001740     -0.000224      0.000000
     -0.69937      3.95746      3.75000        -0.001366      0.001486      0.000000
      0.72193      3.95755      3.75000        -0.002338     -0.000685      0.000000
 -----------------------------------------------------------------------------------
    total drift:                                0.000321      0.000529     -0.000000


--------------------------------------------------------------------------------------------------------



  FREE ENERGIE OF THE ION-ELECTRON SYSTEM (eV)
  ---------------------------------------------------
  free  energy   TOTEN  =       -67.90772173 eV

  energy  without entropy=      -67.90772164  energy(sigma->0) =      -67.90772169
 


--------------------------------------------------------------------------------------------------------


    POTLOK:  cpu time    0.0555: real time    0.0555


--------------------------------------------------------------------------------------------------------




--------------------------------------------------------------------------------------------------------


  
 reached required accuracy - stopping structural energy minimisation
     LOOP+:  cpu time  139.7245: real time  139.7647
    4ORBIT:  cpu time    0.0000: real time    0.0000

 total amount of memory used by VASP MPI-rank0   133713. kBytes
=======================================================================

   base      :      30000. kBytes
   nonl-proj :      72499. kBytes
   fftplans  :       3154. kBytes
   grid      :      10002. kBytes
   one-center:         24. kBytes
   wavefun   :      18034. kBytes
 
  
  
 General timing and accounting informations for this job:
 ========================================================
  
                  Total CPU time used (sec):      142.991
                            User time (sec):      142.548
                          System time (sec):        0.443
                         Elapsed time (sec):      143.421
  
                   Maximum memory used (kb):      240432.
                   Average memory used (kb):           0.
  
                          Minor page faults:        60375
                          Major page faults:            0
                 Voluntary context switches:         1069
