       N       E                     dE             d eps       ncg     rms          rms(c)
DAV:   1     0.201985592975E+03    0.20199E+03   -0.25694E+04 14208   0.859E+02
DAV:   2    -0.116399002616E+03   -0.31838E+03   -0.31694E+03 20160   0.162E+02
DAV:   3    -0.129428697355E+03   -0.13030E+02   -0.12994E+02 26592   0.430E+01
DAV:   4    -0.129452157945E+03   -0.23461E-01   -0.23460E-01 20208   0.180E+00
DAV:   5    -0.129452222772E+03   -0.64826E-04   -0.64826E-04 25392   0.919E-02    0.244E+01
DAV:   6    -0.920473578206E+02    0.37405E+02   -0.72015E+01 25872   0.255E+01    0.139E+01
DAV:   7    -0.100463753434E+03   -0.84164E+01   -0.99179E+00 22128   0.101E+01    0.810E+00
DAV:   8    -0.110464942779E+03   -0.10001E+02   -0.88358E+00 23952   0.898E+00    0.434E+00
DAV:   9    -0.117164053496E+03   -0.66991E+01   -0.38543E+00 19536   0.607E+00    0.277E+00
DAV:  10    -0.123448370383E+03   -0.62843E+01   -0.80056E+00 24000   0.701E+00    0.160E+00
DAV:  11    -0.125283966988E+03   -0.18356E+01   -0.29571E+00 24720   0.387E+00    0.995E-01
DAV:  12    -0.125436198246E+03   -0.15223E+00   -0.21944E-01 19776   0.134E+00    0.472E-01
DAV:  13    -0.125462234312E+03   -0.26036E-01   -0.22825E-02 17472   0.546E-01    0.190E-01
DAV:  14    -0.125485222192E+03   -0.22988E-01   -0.61157E-03 21024   0.282E-01    0.845E-02
DAV:  15    -0.125492986845E+03   -0.77647E-02   -0.31812E-03 19584   0.158E-01    0.445E-02
DAV:  16    -0.125494986761E+03   -0.19999E-02   -0.63703E-04 16464   0.809E-02    0.224E-02
DAV:  17    -0.125496259065E+03   -0.12723E-02   -0.17605E-04 15072   0.516E-02    0.173E-02
DAV:  18    -0.125496954564E+03   -0.69550E-03   -0.83707E-05 16752   0.373E-02    0.125E-02
DAV:  19    -0.125497399222E+03   -0.44466E-03   -0.40959E-05 18960   0.240E-02    0.736E-03
DAV:  20    -0.125497445100E+03   -0.45878E-04   -0.21616E-05 22704   0.175E-02    0.448E-03
DAV:  21    -0.125497466969E+03   -0.21869E-04   -0.60290E-06 20112   0.945E-03    0.221E-03
DAV:  22    -0.125497488451E+03   -0.21482E-04   -0.21659E-06 21648   0.548E-03    0.139E-03
DAV:  23    -0.125497504428E+03   -0.15977E-04   -0.17284E-06 20832   0.399E-03    0.730E-04
DAV:  24    -0.125497507637E+03   -0.32095E-05   -0.34006E-07 23184   0.214E-03    0.381E-04
DAV:  25    -0.125497508601E+03   -0.96334E-06   -0.11744E-07 23088   0.114E-03
   1 F= -.12708526E+03 E0= -.12708448E+03  d E =-.127085E+03  mag=    -0.0000
       N       E                     dE             d eps       ncg     rms          rms(c)
DAV:   1    -0.125507093325E+03   -0.95857E-02   -0.29962E+00 14208   0.531E+00    0.472E-01
DAV:   2    -0.125499163756E+03    0.79296E-02   -0.60407E-02 26016   0.689E-01    0.208E-01
DAV:   3    -0.125498280876E+03    0.88288E-03   -0.49450E-03 20784   0.194E-01    0.815E-02
DAV:   4    -0.125498244247E+03    0.36630E-04   -0.57268E-04 26880   0.670E-02    0.212E-02
DAV:   5    -0.125498247457E+03   -0.32102E-05   -0.16315E-05 24864   0.125E-02    0.692E-03
DAV:   6    -0.125498247458E+03   -0.79126E-09   -0.36764E-06 22608   0.551E-03
   2 F= -.12708542E+03 E0= -.12708464E+03  d E =-.156827E-03  mag=    -0.0000
       N       E                     dE             d eps       ncg     rms          rms(c)
DAV:   1    -0.125507006606E+03   -0.87591E-02   -0.74232E-01 14208   0.264E+00    0.235E-01
DAV:   2    -0.125504994830E+03    0.20118E-02   -0.14881E-02 25728   0.339E-01    0.103E-01
DAV:   3    -0.125504783577E+03    0.21125E-03   -0.12113E-03 22848   0.965E-02    0.411E-02
DAV:   4    -0.125504774967E+03    0.86099E-05   -0.13813E-04 23472   0.327E-02    0.104E-02
DAV:   5    -0.125504775671E+03   -0.70409E-06   -0.45254E-06 22080   0.652E-03
   3 F= -.12709223E+03 E0= -.12709145E+03  d E =-.697141E-02  mag=    -0.0000
       N       E                     dE             d eps       ncg     rms          rms(c)
DAV:   1    -0.125511247044E+03   -0.64721E-02   -0.31652E-01 14208   0.195E+00    0.117E-01
DAV:   2    -0.125511307618E+03   -0.60573E-04   -0.19611E-03 27888   0.175E-01    0.686E-02
DAV:   3    -0.125511305297E+03    0.23208E-05   -0.19411E-04 22176   0.487E-02    0.154E-02
DAV:   4    -0.125511306310E+03   -0.10132E-05   -0.25643E-05 26784   0.187E-02    0.602E-03
DAV:   5    -0.125511306665E+03   -0.35437E-06   -0.96774E-07 21456   0.419E-03
   4 F= -.12709861E+03 E0= -.12709783E+03  d E =-.637543E-02  mag=    -0.0000
       N       E                     dE             d eps       ncg     rms          rms(c)
DAV:   1    -0.125520210631E+03   -0.89043E-02   -0.28660E+00 14208   0.585E+00    0.350E-01
DAV:   2    -0.125520897013E+03   -0.68638E-03   -0.18126E-02 27072   0.531E-01    0.205E-01
DAV:   3    -0.125520861845E+03    0.35168E-04   -0.17904E-03 21504   0.147E-01    0.458E-02
DAV:   4    -0.125520871900E+03   -0.10055E-04   -0.23132E-04 27792   0.558E-02    0.181E-02
DAV:   5    -0.125520875327E+03   -0.34274E-05   -0.82908E-06 21936   0.122E-02    0.823E-03
DAV:   6    -0.125520875469E+03   -0.14230E-06   -0.56234E-06 24672   0.858E-03
   5 F= -.12710770E+03 E0= -.12710692E+03  d E =-.154678E-01  mag=     0.0000
       N       E                     dE             d eps       ncg     rms          rms(c)
DAV:   1    -0.125523285103E+03   -0.24098E-02   -0.50375E-02 14400   0.861E-01    0.503E-02
DAV:   2    -0.125523288046E+03   -0.29427E-05   -0.44691E-04 26784   0.916E-02    0.281E-02
DAV:   3    -0.125523282744E+03    0.53017E-05   -0.46775E-05 21504   0.260E-02    0.860E-03
DAV:   4    -0.125523283198E+03   -0.45346E-06   -0.74375E-06 25728   0.101E-02
   6 F= -.12711005E+03 E0= -.12710927E+03  d E =-.235237E-02  mag=     0.0000
       N       E                     dE             d eps       ncg     rms          rms(c)
DAV:   1    -0.125527798722E+03   -0.45160E-02   -0.45400E-01 14304   0.258E+00    0.151E-01
DAV:   2    -0.125527822332E+03   -0.23610E-04   -0.39233E-03 26832   0.272E-01    0.840E-02
DAV:   3    -0.125527776047E+03    0.46285E-04   -0.40880E-04 20448   0.768E-02    0.254E-02
DAV:   4    -0.125527778006E+03   -0.19589E-05   -0.64452E-05 26496   0.294E-02    0.111E-02
DAV:   5    -0.125527779242E+03   -0.12362E-05   -0.22672E-06 19584   0.633E-03    0.449E-03
DAV:   6    -0.125527779141E+03    0.10129E-06   -0.11481E-06 25344   0.420E-03
   7 F= -.12711436E+03 E0= -.12711358E+03  d E =-.666373E-02  mag=    -0.0000
       N       E                     dE             d eps       ncg     rms          rms(c)
DAV:   1    -0.125524872446E+03    0.29068E-02   -0.18220E+00 14208   0.517E+00    0.299E-01
DAV:   2    -0.125524974811E+03   -0.10237E-03   -0.15972E-02 26880   0.547E-01    0.167E-01
DAV:   3    -0.125524783895E+03    0.19092E-03   -0.16386E-03 21456   0.153E-01    0.504E-02
DAV:   4    -0.125524791676E+03   -0.77813E-05   -0.25215E-04 25872   0.581E-02    0.217E-02
DAV:   5    -0.125524796164E+03   -0.44884E-05   -0.85824E-06 21024   0.123E-02    0.855E-03
DAV:   6    -0.125524795005E+03    0.11592E-05   -0.48172E-06 24528   0.861E-03    0.174E-03
DAV:   7    -0.125524794806E+03    0.19974E-06   -0.79283E-07 21600   0.335E-03
   8 F= -.12711093E+03 E0= -.12711016E+03  d E =-.322688E-02  mag=     0.0000
       N       E                     dE             d eps       ncg     rms          rms(c)
DAV:   1    -0.125528585975E+03   -0.37910E-02   -0.92651E-01 14208   0.368E+00    0.213E-01
DAV:   2    -0.125528629901E+03   -0.43926E-04   -0.81340E-03 27648   0.390E-01    0.119E-01
DAV:   3    -0.125528533713E+03    0.96188E-04   -0.82802E-04 22224   0.109E-01    0.362E-02
DAV:   4    -0.125528538453E+03   -0.47394E-05   -0.12784E-04 25440   0.414E-02    0.155E-02
DAV:   5    -0.125528541292E+03   -0.28388E-05   -0.42487E-06 22608   0.863E-03    0.606E-03
DAV:   6    -0.125528541147E+03    0.14507E-06   -0.20767E-06 19680   0.571E-03
   9 F= -.12711501E+03 E0= -.12711423E+03  d E =-.730746E-02  mag=     0.0000
       N       E                     dE             d eps       ncg     rms          rms(c)
DAV:   1    -0.125530351320E+03   -0.18100E-02   -0.68795E-02 14208   0.863E-01    0.496E-02
DAV:   2    -0.125530366717E+03   -0.15397E-04   -0.38582E-04 24432   0.716E-02    0.297E-02
DAV:   3    -0.125530365971E+03    0.74620E-06   -0.42693E-05 17376   0.201E-02    0.480E-03
DAV:   4    -0.125530366359E+03   -0.38852E-06   -0.29556E-06 21504   0.653E-03
  10 F= -.12711671E+03 E0= -.12711593E+03  d E =-.170271E-02  mag=     0.0000
       N       E                     dE             d eps       ncg     rms          rms(c)
DAV:   1    -0.125534436406E+03   -0.40704E-02   -0.62032E-01 14208   0.259E+00    0.148E-01
DAV:   2    -0.125534585008E+03   -0.14860E-03   -0.33409E-03 27936   0.211E-01    0.888E-02
DAV:   3    -0.125534567111E+03    0.17897E-04   -0.39429E-04 20688   0.603E-02    0.138E-02
DAV:   4    -0.125534567696E+03   -0.58479E-06   -0.23669E-05 22656   0.192E-02    0.719E-03
DAV:   5    -0.125534566257E+03    0.14388E-05   -0.32538E-06 22560   0.690E-03    0.258E-03
DAV:   6    -0.125534565667E+03    0.59024E-06   -0.10047E-06 25728   0.362E-03
  11 F= -.12712055E+03 E0= -.12711976E+03  d E =-.553735E-02  mag=     0.0000
       N       E                     dE             d eps       ncg     rms          rms(c)
DAV:   1    -0.125537431607E+03   -0.28654E-02   -0.24837E+00 14208   0.517E+00    0.293E-01
DAV:   2    -0.125538007471E+03   -0.57586E-03   -0.12576E-02 26880   0.413E-01    0.176E-01
DAV:   3    -0.125537933610E+03    0.73861E-04   -0.16035E-03 21408   0.121E-01    0.255E-02
DAV:   4    -0.125537933761E+03   -0.15171E-06   -0.91197E-05 23424   0.380E-02    0.141E-02
DAV:   5    -0.125537929329E+03    0.44322E-05   -0.12578E-05 23760   0.138E-02    0.447E-03
DAV:   6    -0.125537928368E+03    0.96097E-06   -0.39522E-06 24528   0.727E-03
  12 F= -.12712319E+03 E0= -.12712242E+03  d E =-.818419E-02  mag=     0.0000
       N       E                     dE             d eps       ncg     rms          rms(c)
DAV:   1    -0.125540322843E+03   -0.23935E-02   -0.24238E-01 14208   0.187E+00    0.986E-02
DAV:   2    -0.125540368831E+03   -0.45988E-04   -0.18410E-03 26208   0.183E-01    0.578E-02
DAV:   3    -0.125540349419E+03    0.19413E-04   -0.20823E-04 21744   0.532E-02    0.158E-02
DAV:   4    -0.125540350221E+03   -0.80177E-06   -0.30927E-05 24336   0.209E-02    0.737E-03
DAV:   5    -0.125540351738E+03   -0.15175E-05   -0.15091E-06 22032   0.551E-03    0.341E-03
DAV:   6    -0.125540352916E+03   -0.11782E-05   -0.55434E-07 20496   0.334E-03    0.167E-03
DAV:   7    -0.125540354171E+03   -0.12545E-05   -0.33602E-07 21072   0.241E-03    0.576E-04
DAV:   8    -0.125540356596E+03   -0.24253E-05   -0.46749E-07 19536   0.208E-03    0.507E-04
DAV:   9    -0.125540358293E+03   -0.16968E-05   -0.18563E-07 22128   0.130E-03    0.238E-04
DAV:  10    -0.125540358938E+03   -0.64508E-06   -0.34229E-08 21840   0.698E-04
  13 F= -.12712543E+03 E0= -.12712465E+03  d E =-.224020E-02  mag=     0.0000
       N       E                     dE             d eps       ncg     rms          rms(c)
DAV:   1    -0.125541025963E+03   -0.66767E-03   -0.13609E-01 14208   0.140E+00    0.737E-02
DAV:   2    -0.125541052854E+03   -0.26891E-04   -0.10326E-03 27552   0.137E-01    0.433E-02
DAV:   3    -0.125541043455E+03    0.93985E-05   -0.11314E-04 17568   0.393E-02    0.116E-02
DAV:   4    -0.125541043744E+03   -0.28836E-06   -0.17831E-05 25632   0.155E-02    0.540E-03
DAV:   5    -0.125541043986E+03   -0.24269E-06   -0.56227E-07 22944   0.314E-03
  14 F= -.12712597E+03 E0= -.12712519E+03  d E =-.277566E-02  mag=    -0.0000
       N       E                     dE             d eps       ncg     rms          rms(c)
DAV:   1    -0.125541053348E+03   -0.96040E-05   -0.38773E-04 16848   0.750E-02    0.397E-03
DAV:   2    -0.125541053518E+03   -0.16998E-06   -0.31285E-06 27456   0.751E-03
  15 F= -.12712597E+03 E0= -.12712519E+03  d E =-.277712E-02  mag=    -0.0000
       N       E                     dE             d eps       ncg     rms          rms(c)
DAV:   1    -0.125541411382E+03   -0.35803E-03   -0.10091E-02 14208   0.407E-01    0.230E-02
DAV:   2    -0.125541408968E+03    0.24144E-05   -0.10355E-04 26400   0.416E-02    0.123E-02
DAV:   3    -0.125541407962E+03    0.10059E-05   -0.81577E-06 18816   0.109E-02    0.448E-03
DAV:   4    -0.125541408237E+03   -0.27527E-06   -0.12580E-06 21792   0.431E-03
  16 F= -.12712629E+03 E0= -.12712551E+03  d E =-.318980E-03  mag=     0.0000
       N       E                     dE             d eps       ncg     rms          rms(c)
DAV:   1    -0.125541699576E+03   -0.29161E-03   -0.30838E-02 14208   0.710E-01    0.397E-02
DAV:   2    -0.125541692410E+03    0.71659E-05   -0.31383E-04 27360   0.725E-02    0.212E-02
DAV:   3    -0.125541689013E+03    0.33970E-05   -0.23822E-05 17136   0.186E-02    0.777E-03
DAV:   4    -0.125541689516E+03   -0.50353E-06   -0.37773E-06 24672   0.740E-03
  17 F= -.12712651E+03 E0= -.12712572E+03  d E =-.536852E-03  mag=     0.0000
       N       E                     dE             d eps       ncg     rms          rms(c)
DAV:   1    -0.125542026771E+03   -0.33776E-03   -0.15554E-02 14208   0.501E-01    0.275E-02
DAV:   2    -0.125542025178E+03    0.15928E-05   -0.14516E-04 27360   0.494E-02    0.149E-02
DAV:   3    -0.125542024110E+03    0.10685E-05   -0.11153E-05 18192   0.127E-02    0.550E-03
DAV:   4    -0.125542024479E+03   -0.36868E-06   -0.18252E-06 22080   0.516E-03
  18 F= -.12712680E+03 E0= -.12712602E+03  d E =-.297615E-03  mag=     0.0000
       N       E                     dE             d eps       ncg     rms          rms(c)
DAV:   1    -0.125542134855E+03   -0.11074E-03   -0.10798E-02 14208   0.418E-01    0.229E-02
DAV:   2    -0.125542134165E+03    0.68991E-06   -0.10130E-04 27936   0.412E-02    0.123E-02
DAV:   3    -0.125542133535E+03    0.62977E-06   -0.73771E-06 16944   0.104E-02
  19 F= -.12712688E+03 E0= -.12712610E+03  d E =-.375018E-03  mag=    -0.0000
       N       E                     dE             d eps       ncg     rms          rms(c)
DAV:   1    -0.125542246860E+03   -0.11270E-03   -0.49524E-03 14496   0.281E-01    0.170E-02
DAV:   2    -0.125542243670E+03    0.31905E-05   -0.75050E-05 27840   0.349E-02    0.897E-03
DAV:   3    -0.125542243014E+03    0.65542E-06   -0.67862E-06 19680   0.100E-02
  20 F= -.12712697E+03 E0= -.12712619E+03  d E =-.924543E-04  mag=    -0.0000
       N       E                     dE             d eps       ncg     rms          rms(c)
DAV:   1    -0.125542273558E+03   -0.29888E-04   -0.20638E-03 15216   0.181E-01    0.116E-02
DAV:   2    -0.125542272157E+03    0.14017E-05   -0.30316E-05 20832   0.225E-02    0.613E-03
DAV:   3    -0.125542271942E+03    0.21492E-06   -0.37151E-06 22368   0.749E-03
  21 F= -.12712699E+03 E0= -.12712621E+03  d E =-.110207E-03  mag=    -0.0000
       N       E                     dE             d eps       ncg     rms          rms(c)
DAV:   1    -0.125542376764E+03   -0.10461E-03   -0.42430E-03 14304   0.267E-01    0.139E-02
DAV:   2    -0.125542376147E+03    0.61749E-06   -0.42887E-05 15168   0.273E-02    0.772E-03
DAV:   3    -0.125542375929E+03    0.21773E-06   -0.43864E-06 16992   0.839E-03
  22 F= -.12712706E+03 E0= -.12712628E+03  d E =-.690817E-04  mag=    -0.0000
       N       E                     dE             d eps       ncg     rms          rms(c)
DAV:   1    -0.125542408322E+03   -0.32175E-04   -0.14733E-03 14784   0.158E-01    0.879E-03
DAV:   2    -0.125542408131E+03    0.19142E-06   -0.14817E-05 15504   0.163E-02    0.492E-03
DAV:   3    -0.125542408118E+03    0.12536E-07   -0.17872E-06 17424   0.568E-03
  23 F= -.12712707E+03 E0= -.12712629E+03  d E =-.806543E-04  mag=     0.0000
       N       E                     dE             d eps       ncg     rms          rms(c)
DAV:   1    -0.125542527353E+03   -0.11922E-03   -0.46089E-03 14304   0.264E-01    0.156E-02
DAV:   2    -0.125542526754E+03    0.59819E-06   -0.56554E-05 17376   0.307E-02    0.871E-03
DAV:   3    -0.125542526253E+03    0.50126E-06   -0.53577E-06 16992   0.924E-03
  24 F= -.12712713E+03 E0= -.12712635E+03  d E =-.574618E-04  mag=     0.0000
       N       E                     dE             d eps       ncg     rms          rms(c)
DAV:   1    -0.125542568442E+03   -0.41688E-04   -0.13851E-03 14688   0.145E-01    0.901E-03
DAV:   2    -0.125542568334E+03    0.10862E-06   -0.16974E-05 19392   0.170E-02    0.510E-03
DAV:   3    -0.125542568286E+03    0.47597E-07   -0.19054E-06 15264   0.607E-03
  25 F= -.12712714E+03 E0= -.12712636E+03  d E =-.662189E-04  mag=    -0.0000
       N       E                     dE             d eps       ncg     rms          rms(c)
DAV:   1    -0.125542689965E+03   -0.12163E-03   -0.51950E-03 14304   0.285E-01    0.153E-02
DAV:   2    -0.125542689810E+03    0.15518E-06   -0.58785E-05 18912   0.330E-02    0.879E-03
DAV:   3    -0.125542689554E+03    0.25617E-06   -0.68340E-06 15792   0.109E-02
  26 F= -.12712719E+03 E0= -.12712640E+03  d E =-.490574E-04  mag=     0.0000
       N       E                     dE             d eps       ncg     rms          rms(c)
DAV:   1    -0.125542739654E+03   -0.49844E-04   -0.17307E-03 14208   0.165E-01    0.966E-03
DAV:   2    -0.125542739705E+03   -0.50224E-07   -0.20151E-05 21120   0.197E-02    0.558E-03
DAV:   3    -0.125542739781E+03   -0.76626E-07   -0.28716E-06 14928   0.765E-03
  27 F= -.12712720E+03 E0= -.12712641E+03  d E =-.576266E-04  mag=    -0.0000
       N       E                     dE             d eps       ncg     rms          rms(c)
DAV:   1    -0.125542835411E+03   -0.95707E-04   -0.22653E-03 14208   0.176E-01    0.916E-03
DAV:   2    -0.125542836013E+03   -0.60174E-06   -0.17601E-05 18768   0.173E-02    0.567E-03
DAV:   3    -0.125542836291E+03   -0.27822E-06   -0.20423E-06 15408   0.631E-03
  28 F= -.12712724E+03 E0= -.12712646E+03  d E =-.441514E-04  mag=    -0.0000
       N       E                     dE             d eps       ncg     rms          rms(c)
DAV:   1    -0.125543087705E+03   -0.25169E-03   -0.20420E-02 14208   0.527E-01    0.265E-02
DAV:   2    -0.125543093817E+03   -0.61120E-05   -0.14783E-04 22080   0.496E-02    0.163E-02
DAV:   3    -0.125543093661E+03    0.15672E-06   -0.12695E-05 16032   0.134E-02    0.324E-03
DAV:   4    -0.125543093716E+03   -0.54892E-07   -0.30760E-06 14784   0.870E-03
  29 F= -.12712734E+03 E0= -.12712656E+03  d E =-.144617E-03  mag=     0.0000
       N       E                     dE             d eps       ncg     rms          rms(c)
DAV:   1    -0.125543439310E+03   -0.34565E-03   -0.81729E-02 14208   0.105E+00    0.530E-02
DAV:   2    -0.125543464379E+03   -0.25069E-04   -0.58446E-04 25248   0.984E-02    0.326E-02
DAV:   3    -0.125543460901E+03    0.34778E-05   -0.46899E-05 19248   0.239E-02    0.628E-03
DAV:   4    -0.125543461164E+03   -0.26302E-06   -0.64698E-06 19920   0.118E-02
  30 F= -.12712739E+03 E0= -.12712661E+03  d E =-.198630E-03  mag=    -0.0000
       N       E                     dE             d eps       ncg     rms          rms(c)
DAV:   1    -0.125543545847E+03   -0.84946E-04   -0.24422E-03 14688   0.187E-01    0.962E-03
DAV:   2    -0.125543546255E+03   -0.40726E-06   -0.22352E-05 21072   0.210E-02    0.605E-03
DAV:   3    -0.125543548426E+03   -0.21715E-05   -0.50166E-06 17040   0.115E-02    0.159E-03
DAV:   4    -0.125543546881E+03    0.15445E-05   -0.43022E-06 16224   0.104E-02    0.842E-04
DAV:   5    -0.125543546034E+03    0.84756E-06   -0.83300E-07 22416   0.448E-03
  31 F= -.12712742E+03 E0= -.12712664E+03  d E =-.298394E-04  mag=    -0.0000
       N       E                     dE             d eps       ncg     rms          rms(c)
DAV:   1    -0.125543745849E+03   -0.19897E-03   -0.21877E-02 14208   0.561E-01    0.280E-02
DAV:   2    -0.125543753197E+03   -0.73486E-05   -0.16888E-04 25248   0.543E-02    0.173E-02
DAV:   3    -0.125543752076E+03    0.11211E-05   -0.14327E-05 22752   0.138E-02    0.298E-03
DAV:   4    -0.125543752270E+03   -0.19348E-06   -0.11985E-06 20880   0.436E-03
  32 F= -.12712747E+03 E0= -.12712668E+03  d E =-.710911E-04  mag=    -0.0000
       N       E                     dE             d eps       ncg     rms          rms(c)
DAV:   1    -0.125543812161E+03   -0.60084E-04   -0.61662E-04 14688   0.971E-02    0.487E-03
DAV:   2    -0.125543812468E+03   -0.30718E-06   -0.63159E-06 24672   0.102E-02
  33 F= -.12712750E+03 E0= -.12712672E+03  d E =-.344569E-04  mag=     0.0000
       N       E                     dE             d eps       ncg     rms          rms(c)
DAV:   1    -0.125543966825E+03   -0.15466E-03   -0.54915E-03 14304   0.290E-01    0.150E-02
DAV:   2    -0.125543968547E+03   -0.17222E-05   -0.53601E-05 25776   0.297E-02    0.905E-03
DAV:   3    -0.125543968699E+03   -0.15144E-06   -0.38138E-06 15072   0.744E-03
  34 F= -.12712758E+03 E0= -.12712680E+03  d E =-.113458E-03  mag=     0.0000
       N       E                     dE             d eps       ncg     rms          rms(c)
DAV:   1    -0.125544164930E+03   -0.19638E-03   -0.22122E-02 14208   0.582E-01    0.291E-02
DAV:   2    -0.125544172345E+03   -0.74151E-05   -0.22039E-04 27936   0.601E-02    0.175E-02
DAV:   3    -0.125544172046E+03    0.29896E-06   -0.14314E-05 17664   0.142E-02    0.533E-03
DAV:   4    -0.125544172545E+03   -0.49853E-06   -0.23747E-06 17472   0.633E-03
  35 F= -.12712763E+03 E0= -.12712685E+03  d E =-.162689E-03  mag=     0.0000
       N       E                     dE             d eps       ncg     rms          rms(c)
DAV:   1    -0.125544237076E+03   -0.65030E-04   -0.11747E-03 14352   0.136E-01    0.641E-03
DAV:   2    -0.125544237536E+03   -0.46026E-06   -0.10948E-05 21888   0.140E-02    0.400E-03
DAV:   3    -0.125544237709E+03   -0.17288E-06   -0.10681E-06 19104   0.472E-03
  36 F= -.12712766E+03 E0= -.12712688E+03  d E =-.321225E-04  mag=    -0.0000
       N       E                     dE             d eps       ncg     rms          rms(c)
DAV:   1    -0.125544384109E+03   -0.14657E-03   -0.10566E-02 14208   0.409E-01    0.192E-02
DAV:   2    -0.125544387633E+03   -0.35243E-05   -0.94886E-05 22320   0.409E-02    0.118E-02
DAV:   3    -0.125544387643E+03   -0.10034E-07   -0.79865E-06 15168   0.114E-02
  37 F= -.12712771E+03 E0= -.12712693E+03  d E =-.827447E-04  mag=    -0.0000
       N       E                     dE             d eps       ncg     rms          rms(c)
DAV:   1    -0.125544412397E+03   -0.24764E-04   -0.56078E-04 14592   0.945E-02    0.513E-03
DAV:   2    -0.125544412677E+03   -0.28001E-06   -0.54440E-06 14304   0.104E-02
  38 F= -.12712771E+03 E0= -.12712693E+03  d E =-.849505E-04  mag=     0.0000
       N       E                     dE             d eps       ncg     rms          rms(c)
DAV:   1    -0.125544438928E+03   -0.26531E-04   -0.25540E-04 21984   0.646E-02    0.442E-03
DAV:   2    -0.125544438489E+03    0.43896E-06   -0.45542E-06 14304   0.929E-03
  39 F= -.12712773E+03 E0= -.12712695E+03  d E =-.191460E-04  mag=     0.0000
       N       E                     dE             d eps       ncg     rms          rms(c)
DAV:   1    -0.125544487650E+03   -0.48722E-04   -0.22739E-03 14640   0.193E-01    0.129E-02
DAV:   2    -0.125544484957E+03    0.26933E-05   -0.39814E-05 14784   0.255E-02    0.685E-03
DAV:   3    -0.125544484454E+03    0.50304E-06   -0.54843E-06 15984   0.958E-03
  40 F= -.12712776E+03 E0= -.12712698E+03  d E =-.450183E-04  mag=     0.0000
       N       E                     dE             d eps       ncg     rms          rms(c)
DAV:   1    -0.125544513698E+03   -0.28741E-04   -0.45828E-04 14208   0.909E-02    0.477E-03
DAV:   2    -0.125544513463E+03    0.23525E-06   -0.54544E-06 14688   0.109E-02
  41 F= -.12712777E+03 E0= -.12712699E+03  d E =-.151275E-04  mag=    -0.0000
       N       E                     dE             d eps       ncg     rms          rms(c)
DAV:   1    -0.125544545655E+03   -0.31956E-04   -0.12153E-03 14208   0.148E-01    0.784E-03
DAV:   2    -0.125544545234E+03    0.42032E-06   -0.12875E-05 14688   0.161E-02    0.449E-03
DAV:   3    -0.125544545255E+03   -0.20947E-07   -0.22677E-06 14400   0.729E-03
  42 F= -.12712778E+03 E0= -.12712700E+03  d E =-.241255E-04  mag=     0.0000
       N       E                     dE             d eps       ncg     rms          rms(c)
DAV:   1    -0.125544578152E+03   -0.32918E-04   -0.63086E-04 14592   0.989E-02    0.504E-03
DAV:   2    -0.125544577775E+03    0.37689E-06   -0.70253E-06 19152   0.113E-02
  43 F= -.12712779E+03 E0= -.12712701E+03  d E =-.952519E-05  mag=    -0.0000
       N       E                     dE             d eps       ncg     rms          rms(c)
DAV:   1    -0.125544615663E+03   -0.37511E-04   -0.12808E-03 14304   0.141E-01    0.762E-03
DAV:   2    -0.125544614904E+03    0.75904E-06   -0.12967E-05 14880   0.150E-02    0.431E-03
DAV:   3    -0.125544614857E+03    0.46586E-07   -0.22549E-06 14688   0.657E-03
  44 F= -.12712780E+03 E0= -.12712701E+03  d E =-.135513E-04  mag=    -0.0000
       N       E                     dE             d eps       ncg     rms          rms(c)
DAV:   1    -0.125544652570E+03   -0.37666E-04   -0.79406E-04 14400   0.115E-01    0.508E-03
DAV:   2    -0.125544652544E+03    0.25420E-07   -0.69885E-06 16704   0.123E-02
  45 F= -.12712780E+03 E0= -.12712702E+03  d E =-.887733E-05  mag=     0.0000
       N       E                     dE             d eps       ncg     rms          rms(c)
DAV:   1    -0.125544708075E+03   -0.55506E-04   -0.23529E-03 14256   0.199E-01    0.893E-03
DAV:   2    -0.125544708084E+03   -0.89030E-08   -0.19094E-05 14304   0.198E-02    0.558E-03
DAV:   3    -0.125544708584E+03   -0.49988E-06   -0.37657E-06 15552   0.959E-03
  46 F= -.12712781E+03 E0= -.12712703E+03  d E =-.149978E-04  mag=     0.0000
       N       E                     dE             d eps       ncg     rms          rms(c)
DAV:   1    -0.125544737511E+03   -0.29427E-04   -0.46041E-04 14832   0.885E-02    0.397E-03
DAV:   2    -0.125544737361E+03    0.15048E-06   -0.48003E-06 20448   0.104E-02
  47 F= -.12712782E+03 E0= -.12712703E+03  d E =-.717478E-05  mag=     0.0000
       N       E                     dE             d eps       ncg     rms          rms(c)
DAV:   1    -0.125544813138E+03   -0.75626E-04   -0.40928E-03 14208   0.263E-01    0.119E-02
DAV:   2    -0.125544813040E+03    0.97372E-07   -0.34943E-05 14688   0.257E-02    0.723E-03
DAV:   3    -0.125544813210E+03   -0.16975E-06   -0.45443E-06 14544   0.983E-03
  48 F= -.12712783E+03 E0= -.12712705E+03  d E =-.181032E-04  mag=    -0.0000
       N       E                     dE             d eps       ncg     rms          rms(c)
DAV:   1    -0.125544839204E+03   -0.26164E-04   -0.33190E-04 14208   0.770E-02    0.371E-03
DAV:   2    -0.125544839024E+03    0.18035E-06   -0.47813E-06 14448   0.111E-02
  49 F= -.12712784E+03 E0= -.12712705E+03  d E =-.630007E-05  mag=     0.0000
       N       E                     dE             d eps       ncg     rms          rms(c)
DAV:   1    -0.125544908631E+03   -0.69427E-04   -0.29496E-03 14256   0.228E-01    0.103E-02
DAV:   2    -0.125544909169E+03   -0.53785E-06   -0.29433E-05 14400   0.245E-02    0.658E-03
DAV:   3    -0.125544909710E+03   -0.54125E-06   -0.44166E-06 15216   0.106E-02
  50 F= -.12712785E+03 E0= -.12712706E+03  d E =-.184176E-04  mag=    -0.0000
       N       E                     dE             d eps       ncg     rms          rms(c)
DAV:   1    -0.125544932919E+03   -0.23751E-04   -0.43985E-04 14208   0.886E-02    0.412E-03
DAV:   2    -0.125544932821E+03    0.98464E-07   -0.57084E-06 14688   0.120E-02
  51 F= -.12712785E+03 E0= -.12712706E+03  d E =-.190448E-04  mag=    -0.0000
       N       E                     dE             d eps       ncg     rms          rms(c)
DAV:   1    -0.125544952902E+03   -0.19983E-04   -0.17257E-04 16176   0.560E-02    0.313E-03
DAV:   2    -0.125544952656E+03    0.24595E-06   -0.31925E-06 14208   0.934E-03
  52 F= -.12712785E+03 E0= -.12712707E+03  d E =-.478540E-05  mag=     0.0000
       N       E                     dE             d eps       ncg     rms          rms(c)
DAV:   1    -0.125545008978E+03   -0.56076E-04   -0.15484E-03 14256   0.166E-01    0.740E-03
DAV:   2    -0.125545009263E+03   -0.28470E-06   -0.15757E-05 14256   0.184E-02    0.484E-03
DAV:   3    -0.125545009856E+03   -0.59321E-06   -0.32300E-06 17664   0.926E-03
  53 F= -.12712787E+03 E0= -.12712708E+03  d E =-.168359E-04  mag=    -0.0000
       N       E                     dE             d eps       ncg     rms          rms(c)
DAV:   1    -0.125545107568E+03   -0.98305E-04   -0.62157E-03 14208   0.331E-01    0.136E-02
DAV:   2    -0.125545110024E+03   -0.24565E-05   -0.58583E-05 19488   0.330E-02    0.900E-03
DAV:   3    -0.125545110270E+03   -0.24553E-06   -0.49429E-06 16560   0.104E-02
  54 F= -.12712788E+03 E0= -.12712709E+03  d E =-.269490E-04  mag=    -0.0000
       N       E                     dE             d eps       ncg     rms          rms(c)
DAV:   1    -0.125545143160E+03   -0.33135E-04   -0.45406E-04 14208   0.899E-02    0.428E-03
DAV:   2    -0.125545143169E+03   -0.89813E-08   -0.59313E-06 14208   0.121E-02
  55 F= -.12712788E+03 E0= -.12712710E+03  d E =-.689681E-05  mag=    -0.0000
       N       E                     dE             d eps       ncg     rms          rms(c)
DAV:   1    -0.125545236936E+03   -0.93777E-04   -0.40540E-03 14208   0.267E-01    0.122E-02
DAV:   2    -0.125545238374E+03   -0.14379E-05   -0.39745E-05 14304   0.283E-02    0.797E-03
DAV:   3    -0.125545239025E+03   -0.65037E-06   -0.50131E-06 15312   0.114E-02
  56 F= -.12712790E+03 E0= -.12712712E+03  d E =-.246588E-04  mag=    -0.0000
       N       E                     dE             d eps       ncg     rms          rms(c)
DAV:   1    -0.125545402367E+03   -0.16399E-03   -0.16259E-02 14208   0.534E-01    0.229E-02
DAV:   2    -0.125545409480E+03   -0.71133E-05   -0.15284E-04 18384   0.536E-02    0.151E-02
DAV:   3    -0.125545409622E+03   -0.14248E-06   -0.11259E-05 15168   0.156E-02    0.428E-03
DAV:   4    -0.125545409683E+03   -0.60648E-07   -0.57855E-06 14208   0.123E-02
  57 F= -.12712791E+03 E0= -.12712713E+03  d E =-.391972E-04  mag=     0.0000
       N       E                     dE             d eps       ncg     rms          rms(c)
DAV:   1    -0.125545429309E+03   -0.19686E-04   -0.17523E-04 20736   0.562E-02    0.272E-03
DAV:   2    -0.125545429247E+03    0.61521E-07   -0.17130E-06 18528   0.662E-03
  58 F= -.12712792E+03 E0= -.12712713E+03  d E =-.322985E-05  mag=     0.0000
       N       E                     dE             d eps       ncg     rms          rms(c)
DAV:   1    -0.125545489506E+03   -0.60197E-04   -0.15338E-03 14592   0.165E-01    0.724E-03
DAV:   2    -0.125545490001E+03   -0.49506E-06   -0.14256E-05 14784   0.173E-02    0.478E-03
DAV:   3    -0.125545490485E+03   -0.48407E-06   -0.23447E-06 16128   0.795E-03
  59 F= -.12712793E+03 E0= -.12712715E+03  d E =-.154686E-04  mag=    -0.0000
       N       E                     dE             d eps       ncg     rms          rms(c)
DAV:   1    -0.125545604313E+03   -0.11431E-03   -0.61573E-03 14208   0.329E-01    0.137E-02
DAV:   2    -0.125545607228E+03   -0.29149E-05   -0.55418E-05 18432   0.324E-02    0.916E-03
DAV:   3    -0.125545607460E+03   -0.23238E-06   -0.41474E-06 15456   0.972E-03
  60 F= -.12712795E+03 E0= -.12712717E+03  d E =-.344785E-04  mag=     0.0000
       N       E                     dE             d eps       ncg     rms          rms(c)
DAV:   1    -0.125545814976E+03   -0.20775E-03   -0.24639E-02 14208   0.659E-01    0.275E-02
DAV:   2    -0.125545826281E+03   -0.11305E-04   -0.20960E-04 16656   0.629E-02    0.183E-02
DAV:   3    -0.125545825949E+03    0.33160E-06   -0.13959E-05 14880   0.166E-02    0.442E-03
DAV:   4    -0.125545825938E+03    0.11887E-07   -0.44494E-06 14784   0.108E-02
  61 F= -.12712797E+03 E0= -.12712719E+03  d E =-.571077E-04  mag=     0.0000
       N       E                     dE             d eps       ncg     rms          rms(c)
DAV:   1    -0.125546155196E+03   -0.32925E-03   -0.98606E-02 14208   0.132E+00    0.548E-02
DAV:   2    -0.125546202444E+03   -0.47248E-04   -0.84507E-04 24288   0.125E-01    0.366E-02
DAV:   3    -0.125546196263E+03    0.61814E-05   -0.45981E-05 19008   0.262E-02    0.810E-03
DAV:   4    -0.125546196594E+03   -0.33126E-06   -0.74864E-06 15024   0.124E-02
  62 F= -.12712795E+03 E0= -.12712717E+03  d E =-.364660E-04  mag=     0.0000
       N       E                     dE             d eps       ncg     rms          rms(c)
DAV:   1    -0.125545907778E+03    0.28848E-03   -0.54725E-02 14208   0.981E-01    0.405E-02
DAV:   2    -0.125545931654E+03   -0.23876E-04   -0.46308E-04 22128   0.928E-02    0.269E-02
DAV:   3    -0.125545928449E+03    0.32051E-05   -0.27193E-05 20256   0.210E-02    0.611E-03
DAV:   4    -0.125545928690E+03   -0.24061E-06   -0.59416E-06 14208   0.120E-02
  63 F= -.12712797E+03 E0= -.12712719E+03  d E =-.602952E-04  mag=     0.0000
       N       E                     dE             d eps       ncg     rms          rms(c)
DAV:   1    -0.125546051642E+03   -0.12319E-03   -0.64640E-03 14208   0.337E-01    0.137E-02
DAV:   2    -0.125546054223E+03   -0.25817E-05   -0.58837E-05 15648   0.335E-02    0.906E-03
DAV:   3    -0.125546054250E+03   -0.26586E-07   -0.49394E-06 17856   0.105E-02
  64 F= -.12712800E+03 E0= -.12712722E+03  d E =-.242002E-04  mag=    -0.0000
       N       E                     dE             d eps       ncg     rms          rms(c)
DAV:   1    -0.125546378806E+03   -0.32458E-03   -0.58306E-02 14208   0.101E+00    0.423E-02
DAV:   2    -0.125546406115E+03   -0.27309E-04   -0.50120E-04 17616   0.968E-02    0.281E-02
DAV:   3    -0.125546403266E+03    0.28493E-05   -0.32280E-05 14736   0.234E-02    0.683E-03
DAV:   4    -0.125546403348E+03   -0.81895E-07   -0.70491E-06 15648   0.127E-02
  65 F= -.12712804E+03 E0= -.12712726E+03  d E =-.695781E-04  mag=    -0.0000
       N       E                     dE             d eps       ncg     rms          rms(c)
DAV:   1    -0.125546881464E+03   -0.47820E-03   -0.23339E-01 14208   0.203E+00    0.844E-02
DAV:   2    -0.125546993359E+03   -0.11189E-03   -0.20044E-03 23088   0.192E-01    0.563E-02
DAV:   3    -0.125546975664E+03    0.17695E-04   -0.11880E-04 22176   0.410E-02    0.128E-02
DAV:   4    -0.125546975843E+03   -0.17851E-06   -0.17827E-05 19680   0.174E-02    0.460E-03
DAV:   5    -0.125546975701E+03    0.14208E-06   -0.28896E-06 18192   0.805E-03
  66 F= -.12712801E+03 E0= -.12712723E+03  d E =-.356330E-04  mag=    -0.0000
       N       E                     dE             d eps       ncg     rms          rms(c)
DAV:   1    -0.125546538643E+03    0.43720E-03   -0.11840E-01 14208   0.144E+00    0.599E-02
DAV:   2    -0.125546593377E+03   -0.54734E-04   -0.10171E-03 24096   0.137E-01    0.400E-02
DAV:   3    -0.125546584786E+03    0.85905E-05   -0.59530E-05 20304   0.292E-02    0.900E-03
DAV:   4    -0.125546585067E+03   -0.28124E-06   -0.10503E-05 14208   0.142E-02    0.330E-03
DAV:   5    -0.125546585013E+03    0.54818E-07   -0.24442E-06 14688   0.762E-03
  67 F= -.12712805E+03 E0= -.12712727E+03  d E =-.768672E-04  mag=    -0.0000
       N       E                     dE             d eps       ncg     rms          rms(c)
DAV:   1    -0.125546709274E+03   -0.12421E-03   -0.78390E-03 14208   0.375E-01    0.157E-02
DAV:   2    -0.125546712200E+03   -0.29259E-05   -0.72600E-05 20160   0.370E-02    0.103E-02
DAV:   3    -0.125546711918E+03    0.28195E-06   -0.49168E-06 20688   0.971E-03
  68 F= -.12712807E+03 E0= -.12712729E+03  d E =-.209015E-04  mag=     0.0000
       N       E                     dE             d eps       ncg     rms          rms(c)
DAV:   1    -0.125546805849E+03   -0.93649E-04   -0.56682E-03 14208   0.319E-01    0.139E-02
DAV:   2    -0.125546808274E+03   -0.24241E-05   -0.52600E-05 14208   0.320E-02    0.912E-03
DAV:   3    -0.125546808377E+03   -0.10381E-06   -0.44323E-06 16080   0.101E-02
  69 F= -.12712808E+03 E0= -.12712730E+03  d E =-.272309E-04  mag=    -0.0000
       N       E                     dE             d eps       ncg     rms          rms(c)
DAV:   1    -0.125546900363E+03   -0.92090E-04   -0.52288E-03 14208   0.307E-01    0.134E-02
DAV:   2    -0.125546902312E+03   -0.19489E-05   -0.49866E-05 15792   0.310E-02    0.880E-03
DAV:   3    -0.125546902394E+03   -0.81865E-07   -0.46851E-06 14256   0.103E-02
  70 F= -.12712809E+03 E0= -.12712731E+03  d E =-.155256E-04  mag=    -0.0000
       N       E                     dE             d eps       ncg     rms          rms(c)
DAV:   1    -0.125546950526E+03   -0.48214E-04   -0.18107E-03 14208   0.181E-01    0.814E-03
DAV:   2    -0.125546951152E+03   -0.62614E-06   -0.18185E-05 15648   0.195E-02    0.534E-03
DAV:   3    -0.125546951496E+03   -0.34349E-06   -0.26331E-06 14976   0.828E-03
  71 F= -.12712810E+03 E0= -.12712731E+03  d E =-.184810E-04  mag=    -0.0000
       N       E                     dE             d eps       ncg     rms          rms(c)
DAV:   1    -0.125546989504E+03   -0.38352E-04   -0.13106E-03 14256   0.155E-01    0.638E-03
DAV:   2    -0.125546989860E+03   -0.35570E-06   -0.11477E-05 19632   0.154E-02    0.429E-03
DAV:   3    -0.125546990043E+03   -0.18386E-06   -0.16195E-06 16464   0.642E-03
  72 F= -.12712811E+03 E0= -.12712732E+03  d E =-.813929E-05  mag=     0.0000
       N       E                     dE             d eps       ncg     rms          rms(c)
DAV:   1    -0.125547088447E+03   -0.98587E-04   -0.11789E-02 14208   0.463E-01    0.186E-02
DAV:   2    -0.125547092320E+03   -0.38730E-05   -0.95420E-05 17904   0.420E-02    0.124E-02
DAV:   3    -0.125547091791E+03    0.52869E-06   -0.72168E-06 15024   0.114E-02
  73 F= -.12712812E+03 E0= -.12712733E+03  d E =-.186597E-04  mag=    -0.0000
       N       E                     dE             d eps       ncg     rms          rms(c)
DAV:   1    -0.125547114393E+03   -0.22073E-04   -0.52265E-04 14208   0.983E-02    0.447E-03
DAV:   2    -0.125547114524E+03   -0.13129E-06   -0.50037E-06 14208   0.109E-02
  74 F= -.12712812E+03 E0= -.12712734E+03  d E =-.466457E-05  mag=    -0.0000
       N       E                     dE             d eps       ncg     rms          rms(c)
DAV:   1    -0.125547174655E+03   -0.60262E-04   -0.46811E-03 14352   0.293E-01    0.126E-02
DAV:   2    -0.125547175945E+03   -0.12905E-05   -0.37836E-05 14208   0.275E-02    0.835E-03
DAV:   3    -0.125547176081E+03   -0.13545E-06   -0.43903E-06 18576   0.104E-02
  75 F= -.12712813E+03 E0= -.12712734E+03  d E =-.119685E-04  mag=     0.0000
       N       E                     dE             d eps       ncg     rms          rms(c)
DAV:   1    -0.125547185505E+03   -0.95593E-05   -0.10664E-04 14208   0.453E-02    0.232E-03
DAV:   2    -0.125547185376E+03    0.12828E-06   -0.21025E-06 14784   0.765E-03
  76 F= -.12712813E+03 E0= -.12712735E+03  d E =-.258773E-05  mag=     0.0000
       N       E                     dE             d eps       ncg     rms          rms(c)
DAV:   1    -0.125547212286E+03   -0.26781E-04   -0.94041E-04 14208   0.131E-01    0.618E-03
DAV:   2    -0.125547212352E+03   -0.65662E-07   -0.83071E-06 14208   0.131E-02
  77 F= -.12712814E+03 E0= -.12712735E+03  d E =-.943861E-05  mag=     0.0000
       N       E                     dE             d eps       ncg     rms          rms(c)
DAV:   1    -0.125547257284E+03   -0.44999E-04   -0.37418E-03 14208   0.262E-01    0.120E-02
DAV:   2    -0.125547257757E+03   -0.47229E-06   -0.30792E-05 14400   0.244E-02    0.780E-03
DAV:   3    -0.125547257679E+03    0.77257E-07   -0.37831E-06 14688   0.924E-03
  78 F= -.12712814E+03 E0= -.12712736E+03  d E =-.145092E-04  mag=    -0.0000
       N       E                     dE             d eps       ncg     rms          rms(c)
DAV:   1    -0.125547266380E+03   -0.86237E-05   -0.14015E-04 14208   0.518E-02    0.248E-03
DAV:   2    -0.125547266267E+03    0.11382E-06   -0.21353E-06 16128   0.779E-03
  79 F= -.12712814E+03 E0= -.12712736E+03  d E =-.221991E-05  mag=    -0.0000
       N       E                     dE             d eps       ncg     rms          rms(c)
DAV:   1    -0.125547290915E+03   -0.24535E-04   -0.12467E-03 14208   0.152E-01    0.674E-03
DAV:   2    -0.125547291091E+03   -0.17624E-06   -0.10014E-05 14208   0.146E-02    0.449E-03
DAV:   3    -0.125547291221E+03   -0.12930E-06   -0.17604E-06 14400   0.684E-03
  80 F= -.12712815E+03 E0= -.12712737E+03  d E =-.806755E-05  mag=    -0.0000
       N       E                     dE             d eps       ncg     rms          rms(c)
DAV:   1    -0.125547331850E+03   -0.40759E-04   -0.49907E-03 14208   0.304E-01    0.123E-02
DAV:   2    -0.125547333160E+03   -0.13097E-05   -0.37622E-05 16032   0.269E-02    0.824E-03
DAV:   3    -0.125547332938E+03    0.22237E-06   -0.34120E-06 14544   0.870E-03
  81 F= -.12712815E+03 E0= -.12712737E+03  d E =-.115779E-04  mag=     0.0000
       N       E                     dE             d eps       ncg     rms          rms(c)
DAV:   1    -0.125547348132E+03   -0.14972E-04   -0.67665E-04 14208   0.111E-01    0.493E-03
DAV:   2    -0.125547348167E+03   -0.35472E-07   -0.59823E-06 16416   0.116E-02
  82 F= -.12712816E+03 E0= -.12712738E+03  d E =-.559809E-05  mag=    -0.0000
       N       E                     dE             d eps       ncg     rms          rms(c)
DAV:   1    -0.125547386939E+03   -0.38807E-04   -0.60727E-03 14208   0.333E-01    0.147E-02
DAV:   2    -0.125547387635E+03   -0.69532E-06   -0.47120E-05 14208   0.301E-02    0.961E-03
DAV:   3    -0.125547387299E+03    0.33536E-06   -0.53053E-06 15888   0.106E-02
  83 F= -.12712817E+03 E0= -.12712739E+03  d E =-.159075E-04  mag=     0.0000
       N       E                     dE             d eps       ncg     rms          rms(c)
DAV:   1    -0.125547409782E+03   -0.22148E-04   -0.14524E-03 14208   0.164E-01    0.717E-03
DAV:   2    -0.125547409825E+03   -0.42072E-07   -0.12205E-05 14496   0.165E-02    0.473E-03
DAV:   3    -0.125547410019E+03   -0.19432E-06   -0.23682E-06 14400   0.788E-03
  84 F= -.12712818E+03 E0= -.12712740E+03  d E =-.118894E-04  mag=    -0.0000
       N       E                     dE             d eps       ncg     rms          rms(c)
DAV:   1    -0.125547459719E+03   -0.49894E-04   -0.13081E-02 14208   0.490E-01    0.203E-02
DAV:   2    -0.125547461639E+03   -0.19207E-05   -0.97448E-05 15600   0.427E-02    0.134E-02
DAV:   3    -0.125547460472E+03    0.11671E-05   -0.88221E-06 15072   0.129E-02    0.388E-03
DAV:   4    -0.125547460486E+03   -0.13434E-07   -0.27072E-06 14208   0.835E-03
  85 F= -.12712820E+03 E0= -.12712742E+03  d E =-.298658E-04  mag=    -0.0000
       N       E                     dE             d eps       ncg     rms          rms(c)
DAV:   1    -0.125547474461E+03   -0.13989E-04   -0.84619E-04 14208   0.125E-01    0.527E-03
DAV:   2    -0.125547474623E+03   -0.16202E-06   -0.67982E-06 14832   0.122E-02
  86 F= -.12712821E+03 E0= -.12712742E+03  d E =-.745697E-05  mag=    -0.0000
       N       E                     dE             d eps       ncg     rms          rms(c)
DAV:   1    -0.125547506783E+03   -0.32322E-04   -0.75688E-03 14208   0.373E-01    0.161E-02
DAV:   2    -0.125547508037E+03   -0.12533E-05   -0.54764E-05 14496   0.325E-02    0.107E-02
DAV:   3    -0.125547507477E+03    0.55986E-06   -0.56968E-06 19536   0.111E-02
  87 F= -.12712822E+03 E0= -.12712744E+03  d E =-.202518E-04  mag=     0.0000
       N       E                     dE             d eps       ncg     rms          rms(c)
DAV:   1    -0.125547513900E+03   -0.58637E-05   -0.64198E-04 14208   0.109E-01    0.484E-03
DAV:   2    -0.125547513961E+03   -0.60462E-07   -0.58400E-06 14208   0.121E-02
  88 F= -.12712822E+03 E0= -.12712744E+03  d E =-.208962E-04  mag=     0.0000
       N       E                     dE             d eps       ncg     rms          rms(c)
DAV:   1    -0.125547530882E+03   -0.16982E-04   -0.20877E-03 15552   0.197E-01    0.876E-03
DAV:   2    -0.125547531112E+03   -0.23011E-06   -0.14046E-05 14208   0.177E-02    0.585E-03
DAV:   3    -0.125547531733E+03   -0.62065E-06   -0.37375E-06 19152   0.101E-02
  89 F= -.12712823E+03 E0= -.12712745E+03  d E =-.990979E-05  mag=     0.0000
       N       E                     dE             d eps       ncg     rms          rms(c)
DAV:   1    -0.125547568799E+03   -0.37687E-04   -0.18798E-02 14208   0.590E-01    0.231E-02
DAV:   2    -0.125547574946E+03   -0.61465E-05   -0.12621E-04 21504   0.482E-02    0.160E-02
DAV:   3    -0.125547573468E+03    0.14777E-05   -0.92310E-06 17856   0.133E-02    0.372E-03
DAV:   4    -0.125547573366E+03    0.10247E-06   -0.29652E-06 14208   0.878E-03
  90 F= -.12712825E+03 E0= -.12712747E+03  d E =-.279556E-04  mag=    -0.0000
       N       E                     dE             d eps       ncg     rms          rms(c)
DAV:   1    -0.125547601915E+03   -0.28446E-04   -0.75242E-02 14208   0.118E+00    0.465E-02
DAV:   2    -0.125547626043E+03   -0.24128E-04   -0.49688E-04 19392   0.945E-02    0.321E-02
DAV:   3    -0.125547618784E+03    0.72589E-05   -0.33410E-05 18432   0.228E-02    0.719E-03
DAV:   4    -0.125547618770E+03    0.13770E-07   -0.47763E-06 14976   0.101E-02
  91 F= -.12712825E+03 E0= -.12712746E+03  d E =-.259617E-04  mag=    -0.0000
       N       E                     dE             d eps       ncg     rms          rms(c)
DAV:   1    -0.125547594715E+03    0.24069E-04   -0.23932E-02 14208   0.665E-01    0.259E-02
DAV:   2    -0.125547601709E+03   -0.69939E-05   -0.15826E-04 14304   0.538E-02    0.177E-02
DAV:   3    -0.125547599471E+03    0.22375E-05   -0.11751E-05 20352   0.149E-02    0.471E-03
DAV:   4    -0.125547599518E+03   -0.46557E-07   -0.26600E-06 14208   0.834E-03
  92 F= -.12712825E+03 E0= -.12712747E+03  d E =-.334955E-04  mag=    -0.0000
       N       E                     dE             d eps       ncg     rms          rms(c)
DAV:   1    -0.125547611708E+03   -0.12237E-04   -0.93479E-04 17184   0.131E-01    0.514E-03
DAV:   2    -0.125547611815E+03   -0.10663E-06   -0.57348E-06 20832   0.113E-02
  93 F= -.12712826E+03 E0= -.12712748E+03  d E =-.698606E-05  mag=    -0.0000
       N       E                     dE             d eps       ncg     rms          rms(c)
DAV:   1    -0.125547644789E+03   -0.33081E-04   -0.83891E-03 14208   0.394E-01    0.160E-02
DAV:   2    -0.125547647260E+03   -0.24703E-05   -0.56279E-05 14208   0.332E-02    0.110E-02
DAV:   3    -0.125547647255E+03    0.49149E-08   -0.59579E-06 14832   0.123E-02
  94 F= -.12712828E+03 E0= -.12712750E+03  d E =-.264865E-04  mag=     0.0000
       N       E                     dE             d eps       ncg     rms          rms(c)
DAV:   1    -0.125547699452E+03   -0.52192E-04   -0.33683E-02 14208   0.789E-01    0.310E-02
DAV:   2    -0.125547710805E+03   -0.11353E-04   -0.22164E-04 17712   0.638E-02    0.215E-02
