<?xml version="1.0" encoding="ISO-8859-1"?>
<modeling>
 <generator>
  <i name="program" type="string">vasp </i>
  <i name="version" type="string">6.3.2  </i>
  <i name="subversion" type="string">27Jun22 (build Dec 22 2022 13:13:19) complex                          parallel </i>
  <i name="platform" type="string">LinuxIFC </i>
  <i name="date" type="string">2023 08 23 </i>
  <i name="time" type="string">00:30:33 </i>
 </generator>
 <incar>
  <i type="string" name="SYSTEM">Lattice</i>
  <i type="int" name="ISTART">     0</i>
  <i type="string" name="PREC">Accurate</i>
  <i type="string" name="ALGO">Normal</i>
  <i type="int" name="ISPIN">     2</i>
  <i type="int" name="ICHARG">     2</i>
  <i type="int" name="NELM">    64</i>
  <i type="int" name="IBRION">     2</i>
  <i name="EDIFF">      0.00000100</i>
  <i name="EDIFFG">     -0.00100000</i>
  <i type="int" name="NSW">   128</i>
  <i type="int" name="ISIF">     2</i>
  <i name="ENCUT">    450.00000000</i>
  <i name="POTIM">      0.50000000</i>
  <i type="int" name="ISMEAR">     0</i>
  <i name="SIGMA">      0.10000000</i>
  <i type="logical" name="LWAVE"> F  </i>
  <i type="logical" name="LCHARG"> F  </i>
  <i type="string" name="GGA">PE</i>
  <i type="int" name="IVDW">    12</i>
 </incar>
 <primitive_cell>
  <structure name="primitive_cell" >
   <crystal>
    <varray name="basis" >
     <v>       4.19416103       2.42150000       0.00000000 </v>
     <v>      -4.19416103       2.42150000       0.00000000 </v>
     <v>       0.00000000       0.00000000      15.00000000 </v>
    </varray>
    <i name="volume">    304.68482806 </i>
    <varray name="rec_basis" >
     <v>       0.11921335       0.20648358       0.00000000 </v>
     <v>      -0.11921335       0.20648358       0.00000000 </v>
     <v>       0.00000000       0.00000000       0.06666667 </v>
    </varray>
   </crystal>
   <varray name="positions" >
    <v>       0.00415361       0.00267210       0.12034134 </v>
    <v>       0.35695335       0.00285503       0.09748893 </v>
    <v>       0.00423858       0.35550699       0.09749256 </v>
    <v>       0.65142295       0.65006557       0.09747688 </v>
    <v>       0.32808646       0.32671938       0.10030508 </v>
    <v>       0.68027775       0.00278085       0.10027562 </v>
    <v>       0.00416530       0.67883808       0.10026559 </v>
    <v>       0.11111044       0.38888856       0.33726667 </v>
    <v>       0.27777744       0.22222156       0.33726667 </v>
    <v>       0.11111044       0.88888856       0.33726667 </v>
    <v>       0.27777744       0.72222156       0.33726667 </v>
    <v>       0.61111044       0.38888856       0.33726667 </v>
    <v>       0.77777744       0.22222156       0.33726667 </v>
    <v>       0.61111044       0.88888856       0.33726667 </v>
    <v>       0.77777744       0.72222156       0.33726667 </v>
   </varray>
  </structure>
  <varray name="primitive_index" >
   <v type="int" >        1 </v>
   <v type="int" >        2 </v>
   <v type="int" >        3 </v>
   <v type="int" >        4 </v>
   <v type="int" >        5 </v>
   <v type="int" >        6 </v>
   <v type="int" >        7 </v>
   <v type="int" >        8 </v>
   <v type="int" >        9 </v>
   <v type="int" >       10 </v>
   <v type="int" >       11 </v>
   <v type="int" >       12 </v>
   <v type="int" >       13 </v>
   <v type="int" >       14 </v>
   <v type="int" >       15 </v>
  </varray>
 </primitive_cell>
 <kpoints>
  <generation param="Gamma">
   <v type="int" name="divisions">      12       12        1 </v>
   <v name="usershift">      0.00000000       0.00000000       0.00000000 </v>
   <v name="genvec1">      0.08333333      -0.00000000       0.00000000 </v>
   <v name="genvec2">     -0.00000000       0.08333333       0.00000000 </v>
   <v name="genvec3">      0.00000000       0.00000000       1.00000000 </v>
   <v name="shift">      0.00000000       0.00000000       0.00000000 </v>
  </generation>
  <varray name="kpointlist" >
   <v>       0.00000000       0.00000000       0.00000000 </v>
   <v>       0.08333333       0.00000000       0.00000000 </v>
   <v>       0.00000000       0.08333333       0.00000000 </v>
   <v>      -0.08333333       0.08333333       0.00000000 </v>
   <v>       0.16666667       0.00000000       0.00000000 </v>
   <v>      -0.00000000       0.16666667       0.00000000 </v>
   <v>      -0.16666667       0.16666667       0.00000000 </v>
   <v>       0.25000000       0.00000000       0.00000000 </v>
   <v>      -0.00000000       0.25000000       0.00000000 </v>
   <v>      -0.25000000       0.25000000       0.00000000 </v>
   <v>       0.33333333       0.00000000       0.00000000 </v>
   <v>      -0.00000000       0.33333333       0.00000000 </v>
   <v>      -0.33333333       0.33333333       0.00000000 </v>
   <v>       0.41666667      -0.00000000       0.00000000 </v>
   <v>      -0.00000000       0.41666667       0.00000000 </v>
   <v>      -0.41666667       0.41666667       0.00000000 </v>
   <v>       0.50000000       0.00000000       0.00000000 </v>
   <v>      -0.00000000       0.50000000       0.00000000 </v>
   <v>       0.50000000       0.50000000       0.00000000 </v>
   <v>       0.08333333       0.08333333       0.00000000 </v>
   <v>      -0.08333333       0.16666667       0.00000000 </v>
   <v>      -0.16666667       0.08333333       0.00000000 </v>
   <v>       0.16666667       0.08333333       0.00000000 </v>
   <v>      -0.08333333       0.25000000       0.00000000 </v>
   <v>      -0.25000000       0.16666667       0.00000000 </v>
   <v>      -0.16666667       0.25000000       0.00000000 </v>
   <v>       0.08333333       0.16666667       0.00000000 </v>
   <v>       0.25000000      -0.08333333       0.00000000 </v>
   <v>       0.25000000       0.08333333       0.00000000 </v>
   <v>      -0.08333333       0.33333333       0.00000000 </v>
   <v>      -0.33333333       0.25000000       0.00000000 </v>
   <v>      -0.25000000       0.33333333       0.00000000 </v>
   <v>       0.08333333       0.25000000       0.00000000 </v>
   <v>       0.33333333      -0.08333333       0.00000000 </v>
   <v>       0.33333333       0.08333333       0.00000000 </v>
   <v>      -0.08333333       0.41666667       0.00000000 </v>
   <v>      -0.41666667       0.33333333       0.00000000 </v>
   <v>      -0.33333333       0.41666667       0.00000000 </v>
   <v>       0.08333333       0.33333333       0.00000000 </v>
   <v>       0.41666667      -0.08333333       0.00000000 </v>
   <v>       0.41666667       0.08333333       0.00000000 </v>
   <v>      -0.08333333       0.50000000       0.00000000 </v>
   <v>       0.50000000       0.41666667       0.00000000 </v>
   <v>      -0.41666667       0.50000000       0.00000000 </v>
   <v>       0.08333333       0.41666667       0.00000000 </v>
   <v>       0.50000000      -0.08333333       0.00000000 </v>
   <v>       0.16666667       0.16666667       0.00000000 </v>
   <v>      -0.16666667       0.33333333       0.00000000 </v>
   <v>      -0.33333333       0.16666667       0.00000000 </v>
   <v>       0.25000000       0.16666667       0.00000000 </v>
   <v>      -0.16666667       0.41666667       0.00000000 </v>
   <v>      -0.41666667       0.25000000       0.00000000 </v>
   <v>      -0.25000000       0.41666667       0.00000000 </v>
   <v>       0.16666667       0.25000000       0.00000000 </v>
   <v>       0.41666667      -0.16666667       0.00000000 </v>
   <v>       0.33333333       0.16666667       0.00000000 </v>
   <v>      -0.16666667       0.50000000       0.00000000 </v>
   <v>       0.50000000       0.33333333       0.00000000 </v>
   <v>      -0.33333333       0.50000000       0.00000000 </v>
   <v>       0.16666667       0.33333333       0.00000000 </v>
   <v>       0.50000000      -0.16666667       0.00000000 </v>
   <v>       0.41666667       0.16666667       0.00000000 </v>
   <v>      -0.16666667      -0.41666667       0.00000000 </v>
   <v>       0.41666667       0.41666667       0.00000000 </v>
   <v>       0.25000000       0.25000000       0.00000000 </v>
   <v>      -0.25000000       0.50000000       0.00000000 </v>
   <v>       0.50000000       0.25000000       0.00000000 </v>
   <v>       0.33333333       0.25000000       0.00000000 </v>
   <v>      -0.25000000      -0.41666667       0.00000000 </v>
   <v>       0.41666667       0.33333333       0.00000000 </v>
   <v>      -0.33333333      -0.41666667       0.00000000 </v>
   <v>       0.25000000       0.33333333       0.00000000 </v>
   <v>      -0.41666667      -0.25000000       0.00000000 </v>
   <v>       0.33333333       0.33333333       0.00000000 </v>
  </varray>
  <varray name="weights" >
   <v>       0.00694444 </v>
   <v>       0.01388889 </v>
   <v>       0.01388889 </v>
   <v>       0.01388889 </v>
   <v>       0.01388889 </v>
   <v>       0.01388889 </v>
   <v>       0.01388889 </v>
   <v>       0.01388889 </v>
   <v>       0.01388889 </v>
   <v>       0.01388889 </v>
   <v>       0.01388889 </v>
   <v>       0.01388889 </v>
   <v>       0.01388889 </v>
   <v>       0.01388889 </v>
   <v>       0.01388889 </v>
   <v>       0.01388889 </v>
   <v>       0.00694444 </v>
   <v>       0.00694444 </v>
   <v>       0.00694444 </v>
   <v>       0.01388889 </v>
   <v>       0.01388889 </v>
   <v>       0.01388889 </v>
   <v>       0.01388889 </v>
   <v>       0.01388889 </v>
   <v>       0.01388889 </v>
   <v>       0.01388889 </v>
   <v>       0.01388889 </v>
   <v>       0.01388889 </v>
   <v>       0.01388889 </v>
   <v>       0.01388889 </v>
   <v>       0.01388889 </v>
   <v>       0.01388889 </v>
   <v>       0.01388889 </v>
   <v>       0.01388889 </v>
   <v>       0.01388889 </v>
   <v>       0.01388889 </v>
   <v>       0.01388889 </v>
   <v>       0.01388889 </v>
   <v>       0.01388889 </v>
   <v>       0.01388889 </v>
   <v>       0.01388889 </v>
   <v>       0.01388889 </v>
   <v>       0.01388889 </v>
   <v>       0.01388889 </v>
   <v>       0.01388889 </v>
   <v>       0.01388889 </v>
   <v>       0.01388889 </v>
   <v>       0.01388889 </v>
   <v>       0.01388889 </v>
   <v>       0.01388889 </v>
   <v>       0.01388889 </v>
   <v>       0.01388889 </v>
   <v>       0.01388889 </v>
   <v>       0.01388889 </v>
   <v>       0.01388889 </v>
   <v>       0.01388889 </v>
   <v>       0.01388889 </v>
   <v>       0.01388889 </v>
   <v>       0.01388889 </v>
   <v>       0.01388889 </v>
   <v>       0.01388889 </v>
   <v>       0.01388889 </v>
   <v>       0.01388889 </v>
   <v>       0.01388889 </v>
   <v>       0.01388889 </v>
   <v>       0.01388889 </v>
   <v>       0.01388889 </v>
   <v>       0.01388889 </v>
   <v>       0.01388889 </v>
   <v>       0.01388889 </v>
   <v>       0.01388889 </v>
   <v>       0.01388889 </v>
   <v>       0.01388889 </v>
   <v>       0.01388889 </v>
  </varray>
 </kpoints>
 <parameters>
  <separator name="general" >
   <i type="string" name="SYSTEM">Lattice</i>
   <i type="logical" name="LCOMPAT"> F  </i>
  </separator>
  <separator name="electronic" >
   <i type="string" name="PREC">accura</i>
   <i name="ENMAX">    450.00000000</i>
   <i name="ENAUG">    644.87300000</i>
   <i name="EDIFF">      0.00000100</i>
   <i type="int" name="IALGO">    38</i>
   <i type="int" name="IWAVPR">    11</i>
   <i type="int" name="NBANDS">    48</i>
   <i type="int" name="NBANDSLOW">    -1</i>
   <i type="int" name="NBANDSHIGH">    -1</i>
   <i name="NELECT">     56.00000000</i>
   <i type="int" name="TURBO">     0</i>
   <i type="int" name="IRESTART">     0</i>
   <i type="int" name="NREBOOT">     0</i>
   <i type="int" name="NMIN">     0</i>
   <i name="EREF">      0.00000000</i>
   <separator name="electronic smearing" >
    <i type="int" name="ISMEAR">     0</i>
    <i name="SIGMA">      0.10000000</i>
    <i name="KSPACING">      0.50000000</i>
    <i type="logical" name="KGAMMA"> T  </i>
    <i type="logical" name="KBLOWUP"> T  </i>
   </separator>
   <separator name="electronic projectors" >
    <i type="logical" name="LREAL"> F  </i>
    <v name="ROPT">      0.00000000      0.00000000</v>
    <i type="int" name="LMAXPAW">  -100</i>
    <i type="int" name="LMAXMIX">     2</i>
    <i type="logical" name="NLSPLINE"> F  </i>
   </separator>
   <separator name="electronic startup" >
    <i type="int" name="ISTART">     0</i>
    <i type="int" name="ICHARG">     2</i>
    <i type="int" name="INIWAV">     1</i>
   </separator>
   <separator name="electronic spin" >
    <i type="int" name="ISPIN">     2</i>
    <i type="logical" name="LNONCOLLINEAR"> F  </i>
    <v name="MAGMOM">      1.00000000      1.00000000      1.00000000      1.00000000      1.00000000      1.00000000      1.00000000      1.00000000      1.00000000      1.00000000      1.00000000      1.00000000      1.00000000      1.00000000      1.00000000</v>
    <i name="NUPDOWN">     -1.00000000</i>
    <i type="logical" name="LSORBIT"> F  </i>
    <v name="SAXIS">      0.00000000      0.00000000      1.00000000</v>
    <i type="logical" name="LSPIRAL"> F  </i>
    <v name="QSPIRAL">      0.00000000      0.00000000      0.00000000</v>
    <i type="logical" name="LZEROZ"> F  </i>
   </separator>
   <separator name="electronic exchange-correlation" >
    <i type="logical" name="LASPH"> F  </i>
    <i type="logical" name="LMETAGGA"> F  </i>
   </separator>
   <separator name="electronic convergence" >
    <i type="int" name="NELM">    64</i>
    <i type="int" name="NELMDL">    -5</i>
    <i type="int" name="NELMIN">     2</i>
    <i name="ENINI">    450.00000000</i>
    <separator name="electronic convergence detail" >
     <i type="logical" name="LDIAG"> T  </i>
     <i type="logical" name="LSUBROT"> F  </i>
     <i name="WEIMIN">      0.00100000</i>
     <i name="EBREAK">      0.00000001</i>
     <i name="DEPER">      0.30000000</i>
     <i type="int" name="NRMM">     4</i>
     <i name="TIME">      0.40000000</i>
    </separator>
   </separator>
   <separator name="electronic mixer" >
    <i name="AMIX">      0.40000000</i>
    <i name="BMIX">      1.00000000</i>
    <i name="AMIN">      0.10000000</i>
    <i name="AMIX_MAG">      1.60000000</i>
    <i name="BMIX_MAG">      1.00000000</i>
    <separator name="electronic mixer details" >
     <i type="int" name="IMIX">     4</i>
     <i type="logical" name="MIXFIRST"> F  </i>
     <i type="int" name="MAXMIX">   -45</i>
     <i name="WC">    100.00000000</i>
     <i type="int" name="INIMIX">     1</i>
     <i type="int" name="MIXPRE">     1</i>
     <i type="int" name="MREMOVE">     5</i>
    </separator>
   </separator>
   <separator name="electronic dipolcorrection" >
    <i type="logical" name="LDIPOL"> F  </i>
    <i type="logical" name="LMONO"> F  </i>
    <i type="int" name="IDIPOL">     0</i>
    <i name="EPSILON">      1.00000000</i>
    <v name="DIPOL">   -100.00000000   -100.00000000   -100.00000000</v>
    <i name="EFIELD">      0.00000000</i>
   </separator>
  </separator>
  <separator name="grids" >
   <i type="int" name="NGX">    36</i>
   <i type="int" name="NGY">    36</i>
   <i type="int" name="NGZ">   108</i>
   <i type="int" name="NGXF">    72</i>
   <i type="int" name="NGYF">    72</i>
   <i type="int" name="NGZF">   216</i>
   <i type="logical" name="ADDGRID"> F  </i>
  </separator>
  <separator name="ionic" >
   <i type="int" name="NSW">   128</i>
   <i type="int" name="IBRION">     2</i>
   <i type="int" name="MDALGO">     0</i>
   <i type="int" name="ISIF">     2</i>
   <i name="PSTRESS">      0.00000000</i>
   <i name="EDIFFG">     -0.00100000</i>
   <i type="int" name="NFREE">     1</i>
   <i name="POTIM">      0.50000000</i>
   <i name="SMASS">     -3.00000000</i>
   <i name="SCALEE">      1.00000000</i>
  </separator>
  <separator name="ionic md" >
   <i name="TEBEG">      0.00010000</i>
   <i name="TEEND">      0.00010000</i>
   <i type="int" name="NBLOCK">     1</i>
   <i type="int" name="KBLOCK">   128</i>
   <i type="int" name="NPACO">   256</i>
   <i name="APACO">     10.00000000</i>
  </separator>
  <separator name="symmetry" >
   <i type="int" name="ISYM">     2</i>
   <i name="SYMPREC">      0.00001000</i>
  </separator>
  <separator name="dos" >
   <i type="int" name="LORBIT">     0</i>
   <v name="RWIGS">     -1.00000000     -1.00000000</v>
   <i type="int" name="NEDOS">   301</i>
   <i name="EMIN">     10.00000000</i>
   <i name="EMAX">    -10.00000000</i>
   <i name="EFERMI">      0.00000000</i>
  </separator>
  <separator name="writing" >
   <i type="int" name="NWRITE">     2</i>
   <i type="logical" name="LWAVE"> F  </i>
   <i type="logical" name="LDOWNSAMPLE"> F  </i>
   <i type="logical" name="LCHARG"> F  </i>
   <i type="logical" name="LPARD"> F  </i>
   <i type="logical" name="LVTOT"> F  </i>
   <i type="logical" name="LVHAR"> F  </i>
   <i type="logical" name="LELF"> F  </i>
   <i type="logical" name="LOPTICS"> F  </i>
   <v name="STM">      0.00000000      0.00000000      0.00000000      0.00000000      0.00000000      0.00000000      0.00000000</v>
  </separator>
  <separator name="performance" >
   <i type="int" name="NPAR">    48</i>
   <i type="int" name="NSIM">     4</i>
   <i type="int" name="NBLK">    -1</i>
   <i type="logical" name="LPLANE"> T  </i>
   <i type="logical" name="LSCALAPACK"> T  </i>
   <i type="logical" name="LSCAAWARE"> F  </i>
   <i type="logical" name="LSCALU"> F  </i>
   <i type="logical" name="LASYNC"> F  </i>
   <i type="logical" name="LORBITALREAL"> F  </i>
  </separator>
  <separator name="miscellaneous" >
   <i type="int" name="IDIOT">     3</i>
   <i type="int" name="PHON_NSTRUCT">    -1</i>
   <i type="logical" name="LMUSIC"> F  </i>
   <v name="POMASS">     10.81100000     12.01100000</v>
   <v name="DARWINR">      0.00000000      0.00000000</v>
   <v name="DARWINV">      1.00000000      1.00000000</v>
   <i type="logical" name="LCORR"> T  </i>
  </separator>
  <i type="logical" name="GGA_COMPAT"> T  </i>
  <i type="logical" name="LBERRY"> F  </i>
  <i type="int" name="ICORELEVEL">     0</i>
  <i type="logical" name="LDAU"> F  </i>
  <i type="int" name="I_CONSTRAINED_M">     0</i>
  <separator name="electronic exchange-correlation" >
   <i type="string" name="GGA">PE</i>
   <i type="int" name="VOSKOWN">     0</i>
   <i type="logical" name="LHFCALC"> F  </i>
   <i type="string" name="PRECFOCK"></i>
   <i type="logical" name="LSYMGRAD"> F  </i>
   <i type="logical" name="LHFONE"> F  </i>
   <i type="logical" name="LRHFCALC"> F  </i>
   <i type="logical" name="LTHOMAS"> F  </i>
   <i type="logical" name="LMODELHF"> F  </i>
   <i type="logical" name="LFOCKACE"> F  </i>
   <i name="ENCUT4O">     -1.00000000</i>
   <i type="int" name="EXXOEP">     0</i>
   <i type="int" name="FOURORBIT">     0</i>
   <i name="AEXX">      0.00000000</i>
   <i name="HFALPHA">      0.00000000</i>
   <i name="MCALPHA">      0.00000000</i>
   <i name="ALDAX">      1.00000000</i>
   <i name="AGGAX">      1.00000000</i>
   <i name="ALDAC">      1.00000000</i>
   <i name="AGGAC">      1.00000000</i>
   <i type="int" name="NKREDX">     1</i>
   <i type="int" name="NKREDY">     1</i>
   <i type="int" name="NKREDZ">     1</i>
   <i type="logical" name="SHIFTRED"> F  </i>
   <i type="logical" name="ODDONLY"> F  </i>
   <i type="logical" name="EVENONLY"> F  </i>
   <i type="int" name="LMAXFOCK">     0</i>
   <i type="int" name="NMAXFOCKAE">     0</i>
   <i type="logical" name="LFOCKAEDFT"> F  </i>
   <i name="HFSCREEN">      0.00000000</i>
   <i name="HFSCREENC">      0.00000000</i>
   <i type="int" name="NBANDSGWLOW">     0</i>
  </separator>
  <separator name="vdW DFT" >
   <i type="logical" name="LUSE_VDW"> F  </i>
   <i name="Zab_VDW">     -0.84910000</i>
   <i name="PARAM1">      0.12340000</i>
   <i name="PARAM2">      1.00000000</i>
   <i name="PARAM3">      0.00000000</i>
  </separator>
  <separator name="model GW" >
   <i type="int" name="MODEL_GW">     0</i>
   <i name="MODEL_EPS0">     12.18739312</i>
   <i name="MODEL_ALPHA">      1.00000000</i>
  </separator>
  <separator name="linear response parameters" >
   <i type="logical" name="LEPSILON"> F  </i>
   <i type="logical" name="LRPA"> F  </i>
   <i type="logical" name="LNABLA"> F  </i>
   <i type="logical" name="LVEL"> F  </i>
   <i name="CSHIFT">      0.10000000</i>
   <i name="OMEGAMAX">     -1.00000000</i>
   <i name="DEG_THRESHOLD">      0.00200000</i>
   <i name="RTIME">     -0.10000000</i>
   <i name="WPLASMAI">      0.00000000</i>
   <v name="DFIELD">      0.00000000      0.00000000      0.00000000</v>
   <v name="WPLASMA">      0.00000000      0.00000000      0.00000000      0.00000000      0.00000000      0.00000000      0.00000000      0.00000000      0.00000000</v>
  </separator>
  <separator name="orbital magnetization" >
   <i type="logical" name="NUCIND"> F  </i>
   <v name="MAGPOS">      0.00000000      0.00000000      0.00000000</v>
   <i type="logical" name="LNICSALL"> T  </i>
   <i type="logical" name="ORBITALMAG"> F  </i>
   <i type="logical" name="LMAGBLOCH"> F  </i>
   <i type="logical" name="LCHIMAG"> F  </i>
   <i type="logical" name="LGAUGE"> T  </i>
   <i type="int" name="MAGATOM">     0</i>
   <v name="MAGDIPOL">      0.00000000      0.00000000      0.00000000</v>
   <v name="AVECCONST">      0.00000000      0.00000000      0.00000000</v>
  </separator>
  <separator name="response functions" >
   <i type="logical" name="LFINITE_TEMPERATURE"> F  </i>
   <i type="logical" name="LADDER"> F  </i>
   <i type="logical" name="LRPAFORCE"> F  </i>
   <i type="logical" name="LFXC"> F  </i>
   <i type="logical" name="LHARTREE"> T  </i>
   <i type="int" name="IBSE">     0</i>
   <v type="int" name="KPOINT">    -1     0     0     0</v>
   <i type="logical" name="LTCTC"> F  </i>
   <i type="logical" name="LTCTE"> F  </i>
   <i type="logical" name="LTETE"> F  </i>
   <i type="logical" name="LTRIPLET"> F  </i>
   <i type="logical" name="LFXCEPS"> F  </i>
   <i type="logical" name="LFXHEG"> F  </i>
   <i type="int" name="NATURALO">     2</i>
   <i type="logical" name="LHOLEGF"> F  </i>
   <i type="logical" name="L2ORDER"> F  </i>
   <i type="logical" name="LDMP1"> F  </i>
   <i type="logical" name="LMP2LT"> F  </i>
   <i type="logical" name="LSMP2LT"> F  </i>
   <i type="logical" name="LGWLF"> F  </i>
   <i name="ENCUTGW">     -2.00000000</i>
   <i name="ENCUTGWSOFT">     -2.00000000</i>
   <i name="ENCUTLF">     -1.00000000</i>
   <i type="logical" name="LESF_SPLINES"> F  </i>
   <i type="int" name="LMAXMP2">    -1</i>
   <i name="SCISSOR">      0.00000000</i>
   <i type="int" name="NOMEGA">     0</i>
   <i type="int" name="NOMEGAR">     0</i>
   <i type="int" name="NBANDSGW">    -1</i>
   <i type="int" name="NBANDSO">    -1</i>
   <i type="int" name="NBANDSV">    -1</i>
   <i type="int" name="NELMGW">     1</i>
   <i type="int" name="NELMHF">     1</i>
   <i type="int" name="DIM">     3</i>
   <i type="int" name="IESPILON">     4</i>
   <i type="int" name="ANTIRES">     0</i>
   <i name="OMEGAMAX">    -30.00000000</i>
   <i name="OMEGAMIN">    -30.00000000</i>
   <i name="OMEGATL">   -200.00000000</i>
   <i type="int" name="OMEGAGRID">     0</i>
   <i name="CSHIFT">     -0.10000000</i>
   <i type="logical" name="LSELFENERGY"> F  </i>
   <i type="logical" name="LSPECTRAL"> F  </i>
   <i type="logical" name="LSPECTRALGW"> F  </i>
   <i type="logical" name="LSINGLES"> F  </i>
   <i type="logical" name="LFERMIGW"> F  </i>
   <i type="logical" name="ODDONLYGW"> F  </i>
   <i type="logical" name="EVENONLYGW"> F  </i>
   <i type="int" name="NKREDLFX">     1</i>
   <i type="int" name="NKREDLFY">     1</i>
   <i type="int" name="NKREDLFZ">     1</i>
   <i type="int" name="MAXMEM">  2800</i>
   <i type="int" name="TELESCOPE">     0</i>
   <i type="int" name="NTAUPAR">    -1</i>
   <i type="int" name="NOMEGAPAR">    -1</i>
   <i name="DAMP_NEWTON">      0.80000001</i>
   <i name="LAMBDA">      1.00000000</i>
  </separator>
  <separator name="External order field" >
   <i name="OFIELD_KAPPA">      0.00000000</i>
   <v name="OFIELD_K">      0.00000000      0.00000000      0.00000000</v>
   <i name="OFIELD_Q6_NEAR">      0.00000000</i>
   <i name="OFIELD_Q6_FAR">      0.00000000</i>
   <i name="OFIELD_A">      0.00000000</i>
  </separator>
  <separator name="optional k-points parameters" >
   <i type="int" name="KPOINTS_OPT_MODE">     1</i>
   <i type="logical" name="LKPOINTS_OPT"> F  </i>
  </separator>
  <separator name="solvation model" >
   <i type="logical" name="LSOL"> F  </i>
  </separator>
 </parameters>
 <atominfo>
  <atoms>      15 </atoms>
  <types>       2 </types>
  <array name="atoms" >
   <dimension dim="1">ion</dimension>
   <field type="string">element</field>
   <field type="int">atomtype</field>
   <set>
    <rc><c>B </c><c>   1</c></rc>
    <rc><c>B </c><c>   1</c></rc>
    <rc><c>B </c><c>   1</c></rc>
    <rc><c>B </c><c>   1</c></rc>
    <rc><c>C </c><c>   2</c></rc>
    <rc><c>C </c><c>   2</c></rc>
    <rc><c>C </c><c>   2</c></rc>
    <rc><c>C </c><c>   2</c></rc>
    <rc><c>C </c><c>   2</c></rc>
    <rc><c>C </c><c>   2</c></rc>
    <rc><c>C </c><c>   2</c></rc>
    <rc><c>C </c><c>   2</c></rc>
    <rc><c>C </c><c>   2</c></rc>
    <rc><c>C </c><c>   2</c></rc>
    <rc><c>C </c><c>   2</c></rc>
   </set>
  </array>
  <array name="atomtypes" >
   <dimension dim="1">type</dimension>
   <field type="int">atomspertype</field>
   <field type="string">element</field>
   <field>mass</field>
   <field>valence</field>
   <field type="string">pseudopotential</field>
   <set>
    <rc><c>   4</c><c>B </c><c>     10.81100000</c><c>      3.00000000</c><c>  PAW_PBE B 06Sep2000                   </c></rc>
    <rc><c>  11</c><c>C </c><c>     12.01100000</c><c>      4.00000000</c><c>  PAW_PBE C 08Apr2002                   </c></rc>
   </set>
  </array>
 </atominfo>
 <structure name="initialpos" >
  <crystal>
   <varray name="basis" >
    <v>       4.19416103       2.42150000       0.00000000 </v>
    <v>      -4.19416103       2.42150000       0.00000000 </v>
    <v>       0.00000000       0.00000000      15.00000000 </v>
   </varray>
   <i name="volume">    304.68482806 </i>
   <varray name="rec_basis" >
    <v>       0.11921335       0.20648358       0.00000000 </v>
    <v>      -0.11921335       0.20648358       0.00000000 </v>
    <v>       0.00000000       0.00000000       0.06666667 </v>
   </varray>
  </crystal>
  <varray name="positions" >
   <v>       0.00415361       0.00267210       0.12034134 </v>
   <v>       0.35695335       0.00285503       0.09748893 </v>
   <v>       0.00423858       0.35550699       0.09749256 </v>
   <v>       0.65142295       0.65006557       0.09747688 </v>
   <v>       0.32808646       0.32671938       0.10030508 </v>
   <v>       0.68027775       0.00278085       0.10027562 </v>
   <v>       0.00416530       0.67883808       0.10026559 </v>
   <v>       0.11111044       0.38888856       0.33726667 </v>
   <v>       0.27777744       0.22222156       0.33726667 </v>
   <v>       0.11111044       0.88888856       0.33726667 </v>
   <v>       0.27777744       0.72222156       0.33726667 </v>
   <v>       0.61111044       0.38888856       0.33726667 </v>
   <v>       0.77777744       0.22222156       0.33726667 </v>
   <v>       0.61111044       0.88888856       0.33726667 </v>
   <v>       0.77777744       0.72222156       0.33726667 </v>
  </varray>
 </structure>
 <calculation>
  <scstep>
   <time name="dav">    5.45    5.51</time>
   <time name="total">    5.50    5.56</time>
   <energy>
    <i name="alphaZ">     58.37932579 </i>
    <i name="ewald">   4693.90165688 </i>
    <i name="hartreedc">  -6249.76959533 </i>
    <i name="XCdc">    175.14584603 </i>
    <i name="pawpsdc">   1365.87943566 </i>
    <i name="pawaedc">  -1368.52100941 </i>
    <i name="eentropy">     -0.02053639 </i>
    <i name="bandstr">   -376.27295083 </i>
    <i name="atom">   1903.26342058 </i>
    <i name="e_fr_energy">    201.98559297 </i>
    <i name="e_wo_entrp">    202.00612937 </i>
    <i name="e_0_energy">    201.99586117 </i>
   </energy>
  </scstep>
  <scstep>
   <time name="dav">    7.87    7.94</time>
   <time name="total">    7.87    7.94</time>
   <energy>
    <i name="e_fr_energy">   -116.39900262 </i>
    <i name="e_wo_entrp">   -116.39660087 </i>
    <i name="e_0_energy">   -116.39780174 </i>
   </energy>
  </scstep>
  <scstep>
   <time name="dav">   11.18   11.27</time>
   <time name="total">   11.18   11.28</time>
   <energy>
    <i name="e_fr_energy">   -129.42869735 </i>
    <i name="e_wo_entrp">   -129.42557368 </i>
    <i name="e_0_energy">   -129.42713552 </i>
   </energy>
  </scstep>
  <scstep>
   <time name="dav">    8.14    8.21</time>
   <time name="total">    8.14    8.21</time>
   <energy>
    <i name="e_fr_energy">   -129.45215795 </i>
    <i name="e_wo_entrp">   -129.44905908 </i>
    <i name="e_0_energy">   -129.45060851 </i>
   </energy>
  </scstep>
  <scstep>
   <time name="dav">   10.51   10.58</time>
   <time name="total">   10.78   10.86</time>
   <energy>
    <i name="e_fr_energy">   -129.45222277 </i>
    <i name="e_wo_entrp">   -129.44912386 </i>
    <i name="e_0_energy">   -129.45067332 </i>
   </energy>
  </scstep>
  <scstep>
   <time name="dav">   10.71   10.77</time>
   <time name="total">   11.00   11.09</time>
   <energy>
    <i name="e_fr_energy">    -92.04735782 </i>
    <i name="e_wo_entrp">    -92.04103301 </i>
    <i name="e_0_energy">    -92.04419542 </i>
   </energy>
  </scstep>
  <scstep>
   <time name="dav">    9.04    9.11</time>
   <time name="total">    9.33    9.42</time>
   <energy>
    <i name="e_fr_energy">   -100.46375343 </i>
    <i name="e_wo_entrp">   -100.45812765 </i>
    <i name="e_0_energy">   -100.46094054 </i>
   </energy>
  </scstep>
  <scstep>
   <time name="dav">    9.87    9.93</time>
   <time name="total">   10.16   10.23</time>
   <energy>
    <i name="e_fr_energy">   -110.46494278 </i>
    <i name="e_wo_entrp">   -110.46491442 </i>
    <i name="e_0_energy">   -110.46492860 </i>
   </energy>
  </scstep>
  <scstep>
   <time name="dav">    7.77    7.83</time>
   <time name="total">    8.06    8.13</time>
   <energy>
    <i name="e_fr_energy">   -117.16405350 </i>
    <i name="e_wo_entrp">   -117.16404944 </i>
    <i name="e_0_energy">   -117.16405147 </i>
   </energy>
  </scstep>
  <scstep>
   <time name="dav">    9.85    9.92</time>
   <time name="total">   10.15   10.22</time>
   <energy>
    <i name="e_fr_energy">   -123.44837038 </i>
    <i name="e_wo_entrp">   -123.44777253 </i>
    <i name="e_0_energy">   -123.44807146 </i>
   </energy>
  </scstep>
  <scstep>
   <time name="dav">   10.10   10.17</time>
   <time name="total">   10.39   10.47</time>
   <energy>
    <i name="e_fr_energy">   -125.28396699 </i>
    <i name="e_wo_entrp">   -125.28277358 </i>
    <i name="e_0_energy">   -125.28337028 </i>
   </energy>
  </scstep>
  <scstep>
   <time name="dav">    7.83    7.88</time>
   <time name="total">    8.12    8.18</time>
   <energy>
    <i name="e_fr_energy">   -125.43619825 </i>
    <i name="e_wo_entrp">   -125.43471520 </i>
    <i name="e_0_energy">   -125.43545672 </i>
   </energy>
  </scstep>
  <scstep>
   <time name="dav">    6.86    6.91</time>
   <time name="total">    7.15    7.21</time>
   <energy>
    <i name="e_fr_energy">   -125.46223431 </i>
    <i name="e_wo_entrp">   -125.46067534 </i>
    <i name="e_0_energy">   -125.46145483 </i>
   </energy>
  </scstep>
  <scstep>
   <time name="dav">    8.38    8.45</time>
   <time name="total">    8.67    8.75</time>
   <energy>
    <i name="e_fr_energy">   -125.48522219 </i>
    <i name="e_wo_entrp">   -125.48365808 </i>
    <i name="e_0_energy">   -125.48444013 </i>
   </energy>
  </scstep>
  <scstep>
   <time name="dav">    7.87    7.91</time>
   <time name="total">    8.16    8.21</time>
   <energy>
    <i name="e_fr_energy">   -125.49298684 </i>
    <i name="e_wo_entrp">   -125.49142199 </i>
    <i name="e_0_energy">   -125.49220442 </i>
   </energy>
  </scstep>
  <scstep>
   <time name="dav">    6.55    6.60</time>
   <time name="total">    6.84    6.90</time>
   <energy>
    <i name="e_fr_energy">   -125.49498676 </i>
    <i name="e_wo_entrp">   -125.49342188 </i>
    <i name="e_0_energy">   -125.49420432 </i>
   </energy>
  </scstep>
  <scstep>
   <time name="dav">    5.84    5.87</time>
   <time name="total">    6.13    6.18</time>
   <energy>
    <i name="e_fr_energy">   -125.49625906 </i>
    <i name="e_wo_entrp">   -125.49469421 </i>
    <i name="e_0_energy">   -125.49547663 </i>
   </energy>
  </scstep>
  <scstep>
   <time name="dav">    6.60    6.66</time>
   <time name="total">    6.90    6.96</time>
   <energy>
    <i name="e_fr_energy">   -125.49695456 </i>
    <i name="e_wo_entrp">   -125.49538972 </i>
    <i name="e_0_energy">   -125.49617214 </i>
   </energy>
  </scstep>
  <scstep>
   <time name="dav">    7.50    7.55</time>
   <time name="total">    7.80    7.86</time>
   <energy>
    <i name="e_fr_energy">   -125.49739922 </i>
    <i name="e_wo_entrp">   -125.49583436 </i>
    <i name="e_0_energy">   -125.49661679 </i>
   </energy>
  </scstep>
  <scstep>
   <time name="dav">    9.09    9.16</time>
   <time name="total">    9.38    9.46</time>
   <energy>
    <i name="e_fr_energy">   -125.49744510 </i>
    <i name="e_wo_entrp">   -125.49588023 </i>
    <i name="e_0_energy">   -125.49666267 </i>
   </energy>
  </scstep>
  <scstep>
   <time name="dav">    7.92    7.98</time>
   <time name="total">    8.22    8.29</time>
   <energy>
    <i name="e_fr_energy">   -125.49746697 </i>
    <i name="e_wo_entrp">   -125.49590210 </i>
    <i name="e_0_energy">   -125.49668453 </i>
   </energy>
  </scstep>
  <scstep>
   <time name="dav">    8.77    8.83</time>
   <time name="total">    9.06    9.13</time>
   <energy>
    <i name="e_fr_energy">   -125.49748845 </i>
    <i name="e_wo_entrp">   -125.49592358 </i>
    <i name="e_0_energy">   -125.49670602 </i>
   </energy>
  </scstep>
  <scstep>
   <time name="dav">    8.34    8.39</time>
   <time name="total">    8.63    8.69</time>
   <energy>
    <i name="e_fr_energy">   -125.49750443 </i>
    <i name="e_wo_entrp">   -125.49593956 </i>
    <i name="e_0_energy">   -125.49672199 </i>
   </energy>
  </scstep>
  <scstep>
   <time name="dav">    9.44    9.51</time>
   <time name="total">    9.74    9.81</time>
   <energy>
    <i name="e_fr_energy">   -125.49750764 </i>
    <i name="e_wo_entrp">   -125.49594276 </i>
    <i name="e_0_energy">   -125.49672520 </i>
   </energy>
  </scstep>
  <scstep>
   <time name="dav">    9.33    9.39</time>
   <time name="total">    9.36    9.42</time>
   <energy>
    <i name="alphaZ">     58.37932579 </i>
    <i name="ewald">   4693.90165688 </i>
    <i name="hartreedc">  -6452.08364360 </i>
    <i name="XCdc">    180.55096746 </i>
    <i name="pawpsdc">   5754.03748673 </i>
    <i name="pawaedc">  -5758.45549426 </i>
    <i name="eentropy">     -0.00156487 </i>
    <i name="bandstr">   -505.08966330 </i>
    <i name="atom">   1903.26342058 </i>
    <i name="e_fr_energy">   -125.49750860 </i>
    <i name="e_wo_entrp">   -125.49594373 </i>
    <i name="e_0_energy">   -125.49672616 </i>
   </energy>
  </scstep>
  <structure>
   <crystal>
    <varray name="basis" >
     <v>       4.19416103       2.42150000       0.00000000 </v>
     <v>      -4.19416103       2.42150000       0.00000000 </v>
     <v>       0.00000000       0.00000000      15.00000000 </v>
    </varray>
    <i name="volume">    304.68482806 </i>
    <varray name="rec_basis" >
     <v>       0.11921335       0.20648358       0.00000000 </v>
     <v>      -0.11921335       0.20648358       0.00000000 </v>
     <v>       0.00000000       0.00000000       0.06666667 </v>
    </varray>
   </crystal>
   <varray name="positions" >
    <v>       0.00415361       0.00267210       0.12034134 </v>
    <v>       0.35695335       0.00285503       0.09748893 </v>
    <v>       0.00423858       0.35550699       0.09749256 </v>
    <v>       0.65142295       0.65006557       0.09747688 </v>
    <v>       0.32808646       0.32671938       0.10030508 </v>
    <v>       0.68027775       0.00278085       0.10027562 </v>
    <v>       0.00416530       0.67883808       0.10026559 </v>
    <v>       0.11111044       0.38888856       0.33726667 </v>
    <v>       0.27777744       0.22222156       0.33726667 </v>
    <v>       0.11111044       0.88888856       0.33726667 </v>
    <v>       0.27777744       0.72222156       0.33726667 </v>
    <v>       0.61111044       0.38888856       0.33726667 </v>
    <v>       0.77777744       0.22222156       0.33726667 </v>
    <v>       0.61111044       0.88888856       0.33726667 </v>
    <v>       0.77777744       0.72222156       0.33726667 </v>
   </varray>
  </structure>
  <varray name="forces" >
   <v>      -0.00089567       0.00197522      -0.39324260 </v>
   <v>      -0.09932843      -0.06371380       0.10200470 </v>
   <v>       0.08060506      -0.05152615       0.11840264 </v>
   <v>       0.00948274       0.10449259       0.11410912 </v>
   <v>       0.01406310      -0.33593376       0.00225926 </v>
   <v>       0.30585464       0.17797877       0.01570239 </v>
   <v>      -0.28048774       0.16795329       0.00479990 </v>
   <v>      -0.01513755       0.00161185       0.00401275 </v>
   <v>       0.00117032       0.01323728       0.02689343 </v>
   <v>       0.00496708       0.01589072       0.00738347 </v>
   <v>       0.01686714       0.00942869      -0.01913913 </v>
   <v>       0.00112178      -0.00458932      -0.02066084 </v>
   <v>      -0.00754756       0.00021897       0.00694035 </v>
   <v>      -0.01174229      -0.01166671       0.02350356 </v>
   <v>      -0.01899261      -0.02535764       0.00703098 </v>
  </varray>
  <varray name="stress" >
   <v>      -3.51575853       0.07603899      -0.54594553 </v>
   <v>       0.07603897      -3.64646416      -0.01991183 </v>
   <v>      -0.54594550      -0.01991183      -2.14458208 </v>
  </varray>
  <energy>
   <i name="e_fr_energy">   -127.08526146 </i>
   <i name="e_wo_entrp">   -127.08369659 </i>
   <i name="e_0_energy">   -127.08447903 </i>
  </energy>
  <time name="totalsc">  221.46  223.26</time>
 </calculation>
 <calculation>
  <scstep>
   <time name="dav">    5.47    5.52</time>
   <time name="total">    5.76    5.82</time>
   <energy>
    <i name="alphaZ">     58.37932579 </i>
    <i name="ewald">   4697.31038879 </i>
    <i name="hartreedc">  -6454.14076280 </i>
    <i name="XCdc">    180.62933717 </i>
    <i name="pawpsdc">   5754.06694701 </i>
    <i name="pawaedc">  -5758.48495280 </i>
    <i name="eentropy">     -0.00156392 </i>
    <i name="bandstr">   -506.52923313 </i>
    <i name="atom">   1903.26342058 </i>
    <i name="e_fr_energy">   -125.50709333 </i>
    <i name="e_wo_entrp">   -125.50552941 </i>
    <i name="e_0_energy">   -125.50631137 </i>
   </energy>
  </scstep>
  <scstep>
   <time name="dav">   10.69   10.76</time>
   <time name="total">   10.98   11.06</time>
   <energy>
    <i name="e_fr_energy">   -125.49916376 </i>
    <i name="e_wo_entrp">   -125.49759974 </i>
    <i name="e_0_energy">   -125.49838175 </i>
   </energy>
  </scstep>
  <scstep>
   <time name="dav">    8.34    8.40</time>
   <time name="total">    8.63    8.70</time>
   <energy>
    <i name="e_fr_energy">   -125.49828088 </i>
    <i name="e_wo_entrp">   -125.49671681 </i>
    <i name="e_0_energy">   -125.49749884 </i>
   </energy>
  </scstep>
  <scstep>
   <time name="dav">   11.21   11.29</time>
   <time name="total">   11.50   11.59</time>
   <energy>
    <i name="e_fr_energy">   -125.49824425 </i>
    <i name="e_wo_entrp">   -125.49668017 </i>
    <i name="e_0_energy">   -125.49746221 </i>
   </energy>
  </scstep>
  <scstep>
   <time name="dav">   10.21   10.28</time>
   <time name="total">   10.50   10.58</time>
   <energy>
    <i name="e_fr_energy">   -125.49824746 </i>
    <i name="e_wo_entrp">   -125.49668339 </i>
    <i name="e_0_energy">   -125.49746542 </i>
   </energy>
  </scstep>
  <scstep>
   <time name="dav">    9.19    9.25</time>
   <time name="total">    9.23    9.29</time>
   <energy>
    <i name="alphaZ">     58.37932579 </i>
    <i name="ewald">   4697.31038879 </i>
    <i name="hartreedc">  -6454.84404979 </i>
    <i name="XCdc">    180.64502256 </i>
    <i name="pawpsdc">   5779.81451417 </i>
    <i name="pawaedc">  -5784.24086368 </i>
    <i name="eentropy">     -0.00156407 </i>
    <i name="bandstr">   -505.82444180 </i>
    <i name="atom">   1903.26342058 </i>
    <i name="e_fr_energy">   -125.49824746 </i>
    <i name="e_wo_entrp">   -125.49668339 </i>
    <i name="e_0_energy">   -125.49746542 </i>
   </energy>
  </scstep>
  <structure>
   <crystal>
    <varray name="basis" >
     <v>       4.19416103       2.42150000       0.00000000 </v>
     <v>      -4.19416103       2.42150000       0.00000000 </v>
     <v>       0.00000000       0.00000000      15.00000000 </v>
    </varray>
    <i name="volume">    304.68482806 </i>
    <varray name="rec_basis" >
     <v>       0.11921335       0.20648358       0.00000000 </v>
     <v>      -0.11921335       0.20648358       0.00000000 </v>
     <v>       0.00000000       0.00000000       0.06666667 </v>
    </varray>
   </crystal>
   <varray name="positions" >
    <v>       0.00416813       0.00269693       0.11907660 </v>
    <v>       0.35574742       0.00279161       0.09781700 </v>
    <v>       0.00418888       0.35453015       0.09787337 </v>
    <v>       0.65251837       0.65105192       0.09784387 </v>
    <v>       0.32482100       0.32329215       0.10031234 </v>
    <v>       0.68380967       0.00279473       0.10032612 </v>
    <v>       0.00422520       0.68212425       0.10028102 </v>
    <v>       0.11103944       0.38899167       0.33727957 </v>
    <v>       0.27791604       0.22234669       0.33735316 </v>
    <v>       0.11129730       0.88901828       0.33729041 </v>
    <v>       0.27796837       0.72221847       0.33720511 </v>
    <v>       0.61107118       0.38883639       0.33720022 </v>
    <v>       0.77773622       0.22226714       0.33728899 </v>
    <v>       0.61092670       0.88883987       0.33734226 </v>
    <v>       0.77741562       0.72207819       0.33728928 </v>
   </varray>
  </structure>
  <varray name="forces" >
   <v>      -0.00281458       0.00224488      -0.17577543 </v>
   <v>       0.25747042       0.14383228       0.05789762 </v>
   <v>      -0.21714162       0.13257543       0.06948661 </v>
   <v>       0.01075490      -0.26764515       0.06608018 </v>
   <v>       0.00162925       0.54895818      -0.02106487 </v>
   <v>      -0.49169585      -0.28730336      -0.01325857 </v>
   <v>       0.47062749      -0.27158332      -0.01935055 </v>
   <v>       0.03930507      -0.00738390       0.00461908 </v>
   <v>      -0.02783031      -0.04365188       0.00896182 </v>
   <v>      -0.03311764      -0.06082269       0.00733516 </v>
   <v>      -0.07670259      -0.03391836      -0.00168055 </v>
   <v>      -0.01378041       0.01405800      -0.00022919 </v>
   <v>       0.01169494      -0.00473905       0.00341995 </v>
   <v>       0.02304428       0.04556422       0.00892067 </v>
   <v>       0.04855666       0.08981471       0.00463806 </v>
  </varray>
  <varray name="stress" >
   <v>      -1.00517548       0.10479580      -0.55420695 </v>
   <v>       0.10479577      -1.06775765      -0.01954641 </v>
   <v>      -0.55420694      -0.01954641      -1.75583796 </v>
  </varray>
  <energy>
   <i name="e_fr_energy">   -127.08541829 </i>
   <i name="e_wo_entrp">   -127.08385422 </i>
   <i name="e_0_energy">   -127.08463625 </i>
  </energy>
  <time name="totalsc">   61.30   61.76</time>
 </calculation>
 <calculation>
  <scstep>
   <time name="dav">    5.47    5.51</time>
   <time name="total">    5.76    5.80</time>
   <energy>
    <i name="alphaZ">     58.37932579 </i>
    <i name="ewald">   4695.58023236 </i>
    <i name="hartreedc">  -6453.79359536 </i>
    <i name="XCdc">    180.60499187 </i>
    <i name="pawpsdc">   5779.82527748 </i>
    <i name="pawaedc">  -5784.25161715 </i>
    <i name="eentropy">     -0.00156457 </i>
    <i name="bandstr">   -505.11347761 </i>
    <i name="atom">   1903.26342058 </i>
    <i name="e_fr_energy">   -125.50700661 </i>
    <i name="e_wo_entrp">   -125.50544204 </i>
    <i name="e_0_energy">   -125.50622432 </i>
   </energy>
  </scstep>
  <scstep>
   <time name="dav">   10.52   10.59</time>
   <time name="total">   10.81   10.89</time>
   <energy>
    <i name="e_fr_energy">   -125.50499483 </i>
    <i name="e_wo_entrp">   -125.50343031 </i>
    <i name="e_0_energy">   -125.50421257 </i>
   </energy>
  </scstep>
  <scstep>
   <time name="dav">    9.17    9.24</time>
   <time name="total">    9.46    9.53</time>
   <energy>
    <i name="e_fr_energy">   -125.50478358 </i>
    <i name="e_wo_entrp">   -125.50321908 </i>
    <i name="e_0_energy">   -125.50400133 </i>
   </energy>
  </scstep>
  <scstep>
   <time name="dav">    9.47    9.52</time>
   <time name="total">    9.76    9.83</time>
   <energy>
    <i name="e_fr_energy">   -125.50477497 </i>
    <i name="e_wo_entrp">   -125.50321047 </i>
    <i name="e_0_energy">   -125.50399272 </i>
   </energy>
  </scstep>
  <scstep>
   <time name="dav">    8.98    9.04</time>
   <time name="total">    9.02    9.08</time>
   <energy>
    <i name="alphaZ">     58.37932579 </i>
    <i name="ewald">   4695.58023236 </i>
    <i name="hartreedc">  -6453.46438705 </i>
    <i name="XCdc">    180.59724817 </i>
    <i name="pawpsdc">   5766.49886250 </i>
    <i name="pawaedc">  -5770.92078525 </i>
    <i name="eentropy">     -0.00156450 </i>
    <i name="bandstr">   -505.43712826 </i>
    <i name="atom">   1903.26342058 </i>
    <i name="e_fr_energy">   -125.50477567 </i>
    <i name="e_wo_entrp">   -125.50321117 </i>
    <i name="e_0_energy">   -125.50399342 </i>
   </energy>
  </scstep>
  <structure>
   <crystal>
    <varray name="basis" >
     <v>       4.19416103       2.42150000       0.00000000 </v>
     <v>      -4.19416103       2.42150000       0.00000000 </v>
     <v>       0.00000000       0.00000000      15.00000000 </v>
    </varray>
    <i name="volume">    304.68482806 </i>
    <varray name="rec_basis" >
     <v>       0.11921335       0.20648358       0.00000000 </v>
     <v>      -0.11921335       0.20648358       0.00000000 </v>
     <v>       0.00000000       0.00000000       0.06666667 </v>
    </varray>
   </crystal>
   <varray name="positions" >
    <v>       0.00416090       0.00268457       0.11970599 </v>
    <v>       0.35634755       0.00282317       0.09765374 </v>
    <v>       0.00421361       0.35501627       0.09768386 </v>
    <v>       0.65197324       0.65056107       0.09766124 </v>
    <v>       0.32644604       0.32499769       0.10030873 </v>
    <v>       0.68205203       0.00278783       0.10030099 </v>
    <v>       0.00419539       0.68048890       0.10027334 </v>
    <v>       0.11107478       0.38894036       0.33727315 </v>
    <v>       0.27784707       0.22228442       0.33731012 </v>
    <v>       0.11120431       0.88895372       0.33727860 </v>
    <v>       0.27787336       0.72222001       0.33723574 </v>
    <v>       0.61109072       0.38886235       0.33723329 </v>
    <v>       0.77775673       0.22224446       0.33727788 </v>
    <v>       0.61101814       0.88886410       0.33730464 </v>
    <v>       0.77759568       0.72214953       0.33727803 </v>
   </varray>
  </structure>
  <varray name="forces" >
   <v>      -0.00235496       0.00203958      -0.28283617 </v>
   <v>       0.08336050       0.04250389       0.07973054 </v>
   <v>      -0.07182595       0.04239909       0.09367729 </v>
   <v>       0.01015990      -0.08591077       0.08984982 </v>
   <v>       0.00811615       0.10709787      -0.00963993 </v>
   <v>      -0.09383959      -0.05510110       0.00103129 </v>
   <v>       0.09547327      -0.05185815      -0.00757569 </v>
   <v>       0.01217402      -0.00290664       0.00427544 </v>
   <v>      -0.01331936      -0.01534924       0.01790075 </v>
   <v>      -0.01422009      -0.02261683       0.00736174 </v>
   <v>      -0.03005275      -0.01223110      -0.01042077 </v>
   <v>      -0.00639642       0.00474518      -0.01044895 </v>
   <v>       0.00208023      -0.00222386       0.00513465 </v>
   <v>       0.00573670       0.01691695       0.01615559 </v>
   <v>       0.01490834       0.03249513       0.00580441 </v>
  </varray>
  <varray name="stress" >
   <v>      -2.37069876       0.08591968      -0.55043697 </v>
   <v>       0.08591967      -2.46880451      -0.01927106 </v>
   <v>      -0.55043697      -0.01927105      -1.93596412 </v>
  </varray>
  <energy>
   <i name="e_fr_energy">   -127.09223287 </i>
   <i name="e_wo_entrp">   -127.09066837 </i>
   <i name="e_0_energy">   -127.09145062 </i>
  </energy>
  <time name="totalsc">   49.48   49.84</time>
 </calculation>
 <calculation>
  <scstep>
   <time name="dav">    5.45    5.49</time>
   <time name="total">    5.74    5.79</time>
   <energy>
    <i name="alphaZ">     58.37932579 </i>
    <i name="ewald">   4695.70879075 </i>
    <i name="hartreedc">  -6453.33587771 </i>
    <i name="XCdc">    180.61579084 </i>
    <i name="pawpsdc">   5766.45781074 </i>
    <i name="pawaedc">  -5770.87973786 </i>
    <i name="eentropy">     -0.00156628 </i>
    <i name="bandstr">   -505.71920389 </i>
    <i name="atom">   1903.26342058 </i>
    <i name="e_fr_energy">   -125.51124704 </i>
    <i name="e_wo_entrp">   -125.50968077 </i>
    <i name="e_0_energy">   -125.51046390 </i>
   </energy>
  </scstep>
  <scstep>
   <time name="dav">   11.68   11.75</time>
   <time name="total">   11.96   12.04</time>
   <energy>
    <i name="e_fr_energy">   -125.51130762 </i>
    <i name="e_wo_entrp">   -125.50974140 </i>
    <i name="e_0_energy">   -125.51052451 </i>
   </energy>
  </scstep>
  <scstep>
   <time name="dav">    8.75    8.81</time>
   <time name="total">    9.04    9.11</time>
   <energy>
    <i name="e_fr_energy">   -125.51130530 </i>
    <i name="e_wo_entrp">   -125.50973915 </i>
    <i name="e_0_energy">   -125.51052222 </i>
   </energy>
  </scstep>
  <scstep>
   <time name="dav">   11.11   11.18</time>
   <time name="total">   11.40   11.48</time>
   <energy>
    <i name="e_fr_energy">   -125.51130631 </i>
    <i name="e_wo_entrp">   -125.50974016 </i>
    <i name="e_0_energy">   -125.51052324 </i>
   </energy>
  </scstep>
  <scstep>
   <time name="dav">    8.58    8.64</time>
   <time name="total">    8.61    8.67</time>
   <energy>
    <i name="alphaZ">     58.37932579 </i>
    <i name="ewald">   4695.70879075 </i>
    <i name="hartreedc">  -6453.32759738 </i>
    <i name="XCdc">    180.61499791 </i>
    <i name="pawpsdc">   5771.85504957 </i>
    <i name="pawaedc">  -5776.27883988 </i>
    <i name="eentropy">     -0.00156615 </i>
    <i name="bandstr">   -505.72488783 </i>
    <i name="atom">   1903.26342058 </i>
    <i name="e_fr_energy">   -125.51130666 </i>
    <i name="e_wo_entrp">   -125.50974051 </i>
    <i name="e_0_energy">   -125.51052359 </i>
   </energy>
  </scstep>
  <structure>
   <crystal>
    <varray name="basis" >
     <v>       4.19416103       2.42150000       0.00000000 </v>
     <v>      -4.19416103       2.42150000       0.00000000 </v>
     <v>       0.00000000       0.00000000      15.00000000 </v>
    </varray>
    <i name="volume">    304.68482806 </i>
    <varray name="rec_basis" >
     <v>       0.11921335       0.20648358       0.00000000 </v>
     <v>      -0.11921335       0.20648358       0.00000000 </v>
     <v>       0.00000000       0.00000000       0.06666667 </v>
    </varray>
   </crystal>
   <varray name="positions" >
    <v>       0.00417075       0.00272147       0.11856045 </v>
    <v>       0.35684926       0.00275635       0.09796932 </v>
    <v>       0.00420913       0.35551643       0.09805344 </v>
    <v>       0.65153798       0.64999242       0.09801617 </v>
    <v>       0.32660591       0.32503175       0.10028269 </v>
    <v>       0.68198339       0.00278313       0.10031701 </v>
    <v>       0.00424013       0.68037746       0.10025539 </v>
    <v>       0.11109342       0.38887785       0.33728886 </v>
    <v>       0.27767618       0.22224801       0.33738428 </v>
    <v>       0.11097603       0.88885798       0.33730604 </v>
    <v>       0.27765729       0.72226514       0.33718968 </v>
    <v>       0.61109002       0.38892457       0.33718587 </v>
    <v>       0.77773692       0.22222550       0.33729851 </v>
    <v>       0.61115216       0.88897357       0.33737094 </v>
    <v>       0.77787098       0.72232680       0.33730067 </v>
   </varray>
  </structure>
  <varray name="forces" >
   <v>       0.00129929       0.00086863      -0.25699848 </v>
   <v>       0.05568933       0.02935616       0.04791964 </v>
   <v>      -0.03841023       0.02739843       0.05469520 </v>
   <v>       0.00577012      -0.05324844       0.05273364 </v>
   <v>       0.00209186       0.10262794       0.02011528 </v>
   <v>      -0.08837459      -0.05567032       0.02628787 </v>
   <v>       0.08922839      -0.05026165       0.02164986 </v>
   <v>      -0.04070211       0.00706433       0.00371736 </v>
   <v>       0.02793120       0.02453671       0.00370533 </v>
   <v>       0.01315224       0.05480593       0.00575926 </v>
   <v>       0.05153230       0.02632958       0.00457781 </v>
   <v>      -0.00547730      -0.00899046       0.00558102 </v>
   <v>      -0.01399116       0.00882236       0.00280564 </v>
   <v>      -0.02008646      -0.04278337       0.00370373 </v>
   <v>      -0.03965289      -0.07085584       0.00374682 </v>
  </varray>
  <varray name="stress" >
   <v>      -1.89937091       0.08694699      -0.51363009 </v>
   <v>       0.08694696      -2.11747323      -0.02137271 </v>
   <v>      -0.51363010      -0.02137272      -1.91815645 </v>
  </varray>
  <energy>
   <i name="e_fr_energy">   -127.09860830 </i>
   <i name="e_wo_entrp">   -127.09704215 </i>
   <i name="e_0_energy">   -127.09782523 </i>
  </energy>
  <time name="totalsc">   51.44   51.81</time>
 </calculation>
 <calculation>
  <scstep>
   <time name="dav">    5.45    5.50</time>
   <time name="total">    5.74    5.79</time>
   <energy>
    <i name="alphaZ">     58.37932579 </i>
    <i name="ewald">   4695.58104610 </i>
    <i name="hartreedc">  -6452.54625008 </i>
    <i name="XCdc">    180.66206019 </i>
    <i name="pawpsdc">   5771.88590000 </i>
    <i name="pawaedc">  -5776.30970633 </i>
    <i name="eentropy">     -0.00156516 </i>
    <i name="bandstr">   -506.43444172 </i>
    <i name="atom">   1903.26342058 </i>
    <i name="e_fr_energy">   -125.52021063 </i>
    <i name="e_wo_entrp">   -125.51864547 </i>
    <i name="e_0_energy">   -125.51942805 </i>
   </energy>
  </scstep>
  <scstep>
   <time name="dav">   11.28   11.35</time>
   <time name="total">   11.56   11.64</time>
   <energy>
    <i name="e_fr_energy">   -125.52089701 </i>
    <i name="e_wo_entrp">   -125.51933162 </i>
    <i name="e_0_energy">   -125.52011432 </i>
   </energy>
  </scstep>
  <scstep>
   <time name="dav">    8.38    8.44</time>
   <time name="total">    8.67    8.74</time>
   <energy>
    <i name="e_fr_energy">   -125.52086184 </i>
    <i name="e_wo_entrp">   -125.51929623 </i>
    <i name="e_0_energy">   -125.52007904 </i>
   </energy>
  </scstep>
  <scstep>
   <time name="dav">   11.64   11.71</time>
   <time name="total">   11.92   12.01</time>
   <energy>
    <i name="e_fr_energy">   -125.52087190 </i>
    <i name="e_wo_entrp">   -125.51930625 </i>
    <i name="e_0_energy">   -125.52008908 </i>
   </energy>
  </scstep>
  <scstep>
   <time name="dav">    8.80    8.86</time>
   <time name="total">    9.08    9.16</time>
   <energy>
    <i name="e_fr_energy">   -125.52087533 </i>
    <i name="e_wo_entrp">   -125.51930968 </i>
    <i name="e_0_energy">   -125.52009251 </i>
   </energy>
  </scstep>
  <scstep>
   <time name="dav">   10.08   10.14</time>
   <time name="total">   10.11   10.18</time>
   <energy>
    <i name="alphaZ">     58.37932579 </i>
    <i name="ewald">   4695.58104610 </i>
    <i name="hartreedc">  -6452.50233146 </i>
    <i name="XCdc">    180.65931551 </i>
    <i name="pawpsdc">   5785.62154273 </i>
    <i name="pawaedc">  -5790.05023764 </i>
    <i name="eentropy">     -0.00156563 </i>
    <i name="bandstr">   -506.47139143 </i>
    <i name="atom">   1903.26342058 </i>
    <i name="e_fr_energy">   -125.52087547 </i>
    <i name="e_wo_entrp">   -125.51930984 </i>
    <i name="e_0_energy">   -125.52009265 </i>
   </energy>
  </scstep>
  <structure>
   <crystal>
    <varray name="basis" >
     <v>       4.19416103       2.42150000       0.00000000 </v>
     <v>      -4.19416103       2.42150000       0.00000000 </v>
     <v>       0.00000000       0.00000000      15.00000000 </v>
    </varray>
    <i name="volume">    304.68482806 </i>
    <varray name="rec_basis" >
     <v>       0.11921335       0.20648358       0.00000000 </v>
     <v>      -0.11921335       0.20648358       0.00000000 </v>
     <v>       0.00000000       0.00000000       0.06666667 </v>
    </varray>
   </crystal>
   <varray name="positions" >
    <v>       0.00420029       0.00283217       0.11512382 </v>
    <v>       0.35835439       0.00255590       0.09891605 </v>
    <v>       0.00419569       0.35701692       0.09916219 </v>
    <v>       0.65023218       0.64828647       0.09908097 </v>
    <v>       0.32708554       0.32513394       0.10020456 </v>
    <v>       0.68177748       0.00276905       0.10036508 </v>
    <v>       0.00437433       0.68004314       0.10020152 </v>
    <v>       0.11114937       0.38869034       0.33733600 </v>
    <v>       0.27716351       0.22213879       0.33760678 </v>
    <v>       0.11029118       0.88857074       0.33738839 </v>
    <v>       0.27700908       0.72240052       0.33705148 </v>
    <v>       0.61108794       0.38911125       0.33704364 </v>
    <v>       0.77767747       0.22216864       0.33736041 </v>
    <v>       0.61155425       0.88930197       0.33756983 </v>
    <v>       0.77869687       0.72285861       0.33736861 </v>
   </varray>
  </structure>
  <varray name="forces" >
   <v>       0.01282426      -0.00324662      -0.20709416 </v>
   <v>      -0.04549995      -0.02068072      -0.03910242 </v>
   <v>       0.07842593      -0.02872808      -0.05283164 </v>
   <v>      -0.00666947       0.06484268      -0.04947410 </v>
   <v>      -0.01433642       0.07321933       0.10945342 </v>
   <v>      -0.05723473      -0.04800747       0.10292307 </v>
   <v>       0.05533271      -0.03653425       0.10934419 </v>
   <v>      -0.20008369       0.03755760       0.00180973 </v>
   <v>       0.15158679       0.14524215      -0.03882910 </v>
   <v>       0.09852387       0.29127641       0.00074500 </v>
   <v>       0.29583761       0.14002640       0.04980806 </v>
   <v>      -0.00254664      -0.05023785       0.05386446 </v>
   <v>      -0.06261558       0.04133304      -0.00413568 </v>
   <v>      -0.09726715      -0.21969571      -0.03377439 </v>
   <v>      -0.20627755      -0.38636693      -0.00270644 </v>
  </varray>
  <varray name="stress" >
   <v>      -0.57293392       0.12282509      -0.41880300 </v>
   <v>       0.12282507      -1.13467501      -0.02606580 </v>
   <v>      -0.41880298      -0.02606577      -1.89097088 </v>
  </varray>
  <energy>
   <i name="e_fr_energy">   -127.10770067 </i>
   <i name="e_wo_entrp">   -127.10613504 </i>
   <i name="e_0_energy">   -127.10691786 </i>
  </energy>
  <time name="totalsc">   61.77   62.23</time>
 </calculation>
 <calculation>
  <scstep>
   <time name="dav">    5.54    5.59</time>
   <time name="total">    5.83    5.88</time>
   <energy>
    <i name="alphaZ">     58.37932579 </i>
    <i name="ewald">   4695.57937912 </i>
    <i name="hartreedc">  -6452.43187188 </i>
    <i name="XCdc">    180.66359877 </i>
    <i name="pawpsdc">   5785.61670134 </i>
    <i name="pawaedc">  -5790.04539436 </i>
    <i name="eentropy">     -0.00156686 </i>
    <i name="bandstr">   -506.54687759 </i>
    <i name="atom">   1903.26342058 </i>
    <i name="e_fr_energy">   -125.52328510 </i>
    <i name="e_wo_entrp">   -125.52171824 </i>
    <i name="e_0_energy">   -125.52250167 </i>
   </energy>
  </scstep>
  <scstep>
   <time name="dav">   11.16   11.22</time>
   <time name="total">   11.44   11.52</time>
   <energy>
    <i name="e_fr_energy">   -125.52328805 </i>
    <i name="e_wo_entrp">   -125.52172121 </i>
    <i name="e_0_energy">   -125.52250463 </i>
   </energy>
  </scstep>
  <scstep>
   <time name="dav">    8.50    8.55</time>
   <time name="total">    8.78    8.85</time>
   <energy>
    <i name="e_fr_energy">   -125.52328274 </i>
    <i name="e_wo_entrp">   -125.52171592 </i>
    <i name="e_0_energy">   -125.52249933 </i>
   </energy>
  </scstep>
  <scstep>
   <time name="dav">   10.60   10.66</time>
   <time name="total">   10.63   10.70</time>
   <energy>
    <i name="alphaZ">     58.37932579 </i>
    <i name="ewald">   4695.57937912 </i>
    <i name="hartreedc">  -6452.42525573 </i>
    <i name="XCdc">    180.66307936 </i>
    <i name="pawpsdc">   5786.65306576 </i>
    <i name="pawaedc">  -5791.08220036 </i>
    <i name="eentropy">     -0.00156681 </i>
    <i name="bandstr">   -506.55253090 </i>
    <i name="atom">   1903.26342058 </i>
    <i name="e_fr_energy">   -125.52328320 </i>
    <i name="e_wo_entrp">   -125.52171639 </i>
    <i name="e_0_energy">   -125.52249979 </i>
   </energy>
  </scstep>
  <structure>
   <crystal>
    <varray name="basis" >
     <v>       4.19416103       2.42150000       0.00000000 </v>
     <v>      -4.19416103       2.42150000       0.00000000 </v>
     <v>       0.00000000       0.00000000      15.00000000 </v>
    </varray>
    <i name="volume">    304.68482806 </i>
    <varray name="rec_basis" >
     <v>       0.11921335       0.20648358       0.00000000 </v>
     <v>      -0.11921335       0.20648358       0.00000000 </v>
     <v>       0.00000000       0.00000000       0.06666667 </v>
    </varray>
   </crystal>
   <varray name="positions" >
    <v>       0.00420655       0.00283639       0.11470133 </v>
    <v>       0.35848352       0.00253822       0.09900968 </v>
    <v>       0.00420636       0.35712571       0.09927017 </v>
    <v>       0.65013500       0.64815145       0.09918497 </v>
    <v>       0.32718528       0.32520481       0.10022198 </v>
    <v>       0.68169566       0.00275654       0.10039467 </v>
    <v>       0.00438554       0.67995660       0.10022156 </v>
    <v>       0.11109828       0.38878221       0.33734155 </v>
    <v>       0.27727849       0.22216925       0.33762177 </v>
    <v>       0.11047206       0.88871141       0.33739752 </v>
    <v>       0.27716658       0.72239267       0.33704825 </v>
    <v>       0.61104979       0.38909577       0.33704094 </v>
    <v>       0.77767481       0.22221928       0.33736615 </v>
    <v>       0.61139565       0.88921774       0.33758345 </v>
    <v>       0.77841596       0.72272040       0.33737535 </v>
   </varray>
  </structure>
  <varray name="forces" >
   <v>       0.01410043      -0.00350578      -0.19985343 </v>
   <v>      -0.05368242      -0.02495062      -0.04275009 </v>
   <v>       0.08430540      -0.03213547      -0.05825043 </v>
   <v>      -0.00772946       0.07250852      -0.05442959 </v>
   <v>      -0.01477086       0.06005013       0.11249592 </v>
   <v>      -0.04470700      -0.04074001       0.10470935 </v>
   <v>       0.04500827      -0.03038434       0.11199777 </v>
   <v>      -0.14600341       0.02755443       0.00165630 </v>
   <v>       0.10352723       0.11682182      -0.04084743 </v>
   <v>       0.07812890       0.21039137       0.00001401 </v>
   <v>       0.22232873       0.10693102       0.05212145 </v>
   <v>       0.00426085      -0.04043919       0.05600804 </v>
   <v>      -0.05042811       0.02703442      -0.00437010 </v>
   <v>      -0.07648473      -0.16233917      -0.03565942 </v>
   <v>      -0.15785382      -0.28679714      -0.00284234 </v>
  </varray>
  <varray name="stress" >
   <v>      -0.55533570       0.08218585      -0.40927261 </v>
   <v>       0.08218586      -0.96896375      -0.02400938 </v>
   <v>      -0.40927257      -0.02400936      -1.88138246 </v>
  </varray>
  <energy>
   <i name="e_fr_energy">   -127.11005304 </i>
   <i name="e_wo_entrp">   -127.10848623 </i>
   <i name="e_0_energy">   -127.10926963 </i>
  </energy>
  <time name="totalsc">   41.36   41.65</time>
 </calculation>
 <calculation>
  <scstep>
   <time name="dav">    5.51    5.55</time>
   <time name="total">    5.80    5.84</time>
   <energy>
    <i name="alphaZ">     58.37932579 </i>
    <i name="ewald">   4695.51777139 </i>
    <i name="hartreedc">  -6452.18479291 </i>
    <i name="XCdc">    180.67530134 </i>
    <i name="pawpsdc">   5786.80129585 </i>
    <i name="pawaedc">  -5791.23045383 </i>
    <i name="eentropy">     -0.00156268 </i>
    <i name="bandstr">   -506.74810425 </i>
    <i name="atom">   1903.26342058 </i>
    <i name="e_fr_energy">   -125.52779872 </i>
    <i name="e_wo_entrp">   -125.52623604 </i>
    <i name="e_0_energy">   -125.52701738 </i>
   </energy>
  </scstep>
  <scstep>
   <time name="dav">   11.25   11.31</time>
   <time name="total">   11.53   11.62</time>
   <energy>
    <i name="e_fr_energy">   -125.52782233 </i>
    <i name="e_wo_entrp">   -125.52625927 </i>
    <i name="e_0_energy">   -125.52704080 </i>
   </energy>
  </scstep>
  <scstep>
   <time name="dav">    8.00    8.05</time>
   <time name="total">    8.29    8.35</time>
   <energy>
    <i name="e_fr_energy">   -125.52777605 </i>
    <i name="e_wo_entrp">   -125.52621256 </i>
    <i name="e_0_energy">   -125.52699430 </i>
   </energy>
  </scstep>
  <scstep>
   <time name="dav">   11.02   11.08</time>
   <time name="total">   11.30   11.38</time>
   <energy>
    <i name="e_fr_energy">   -125.52777801 </i>
    <i name="e_wo_entrp">   -125.52621447 </i>
    <i name="e_0_energy">   -125.52699624 </i>
   </energy>
  </scstep>
  <scstep>
   <time name="dav">    7.82    7.86</time>
   <time name="total">    8.10    8.16</time>
   <energy>
    <i name="e_fr_energy">   -125.52777924 </i>
    <i name="e_wo_entrp">   -125.52621570 </i>
    <i name="e_0_energy">   -125.52699747 </i>
   </energy>
  </scstep>
  <scstep>
   <time name="dav">   10.44   10.51</time>
   <time name="total">   10.47   10.54</time>
   <energy>
    <i name="alphaZ">     58.37932579 </i>
    <i name="ewald">   4695.51777139 </i>
    <i name="hartreedc">  -6452.21301376 </i>
    <i name="XCdc">    180.67420342 </i>
    <i name="pawpsdc">   5790.59998091 </i>
    <i name="pawaedc">  -5795.03051752 </i>
    <i name="eentropy">     -0.00156352 </i>
    <i name="bandstr">   -506.71738641 </i>
    <i name="atom">   1903.26342058 </i>
    <i name="e_fr_energy">   -125.52777914 </i>
    <i name="e_wo_entrp">   -125.52621563 </i>
    <i name="e_0_energy">   -125.52699738 </i>
   </energy>
  </scstep>
  <structure>
   <crystal>
    <varray name="basis" >
     <v>       4.19416103       2.42150000       0.00000000 </v>
     <v>      -4.19416103       2.42150000       0.00000000 </v>
     <v>       0.00000000       0.00000000      15.00000000 </v>
    </varray>
    <i name="volume">    304.68482806 </i>
    <varray name="rec_basis" >
     <v>       0.11921335       0.20648358       0.00000000 </v>
     <v>      -0.11921335       0.20648358       0.00000000 </v>
     <v>       0.00000000       0.00000000       0.06666667 </v>
    </varray>
   </crystal>
   <varray name="positions" >
    <v>       0.00422533       0.00284904       0.11343385 </v>
    <v>       0.35887093       0.00248516       0.09929055 </v>
    <v>       0.00423839       0.35745207       0.09959410 </v>
    <v>       0.64984347       0.64774642       0.09949697 </v>
    <v>       0.32748452       0.32541741       0.10027426 </v>
    <v>       0.68145022       0.00271903       0.10048344 </v>
    <v>       0.00441920       0.67969695       0.10028166 </v>
    <v>       0.11094501       0.38905784       0.33735821 </v>
    <v>       0.27762342       0.22226063       0.33766672 </v>
    <v>       0.11101473       0.88913343       0.33742489 </v>
    <v>       0.27763906       0.72236910       0.33703858 </v>
    <v>       0.61093535       0.38904934       0.33703283 </v>
    <v>       0.77766683       0.22237120       0.33738339 </v>
    <v>       0.61091987       0.88896502       0.33762430 </v>
    <v>       0.77757321       0.72230579       0.33739558 </v>
   </varray>
  </structure>
  <varray name="forces" >
   <v>       0.01779357      -0.00436419      -0.18066607 </v>
   <v>      -0.08066207      -0.03896661      -0.05323032 </v>
   <v>       0.10408008      -0.04384118      -0.07403303 </v>
   <v>      -0.01090193       0.09805865      -0.06879810 </v>
   <v>      -0.01581039       0.01848047       0.12221516 </v>
   <v>      -0.00529586      -0.01769696       0.11085376 </v>
   <v>       0.01212496      -0.01103480       0.12066299 </v>
   <v>       0.01426071      -0.00235344       0.00115881 </v>
   <v>      -0.03887291       0.03150253      -0.04706847 </v>
   <v>       0.02006607      -0.02623004      -0.00246412 </v>
   <v>       0.00212000       0.00667587       0.05898292 </v>
   <v>       0.02497885      -0.01100090       0.06244089 </v>
   <v>      -0.01472678      -0.01494002      -0.00514649 </v>
   <v>      -0.01285662       0.00980529      -0.04144464 </v>
   <v>      -0.01629769       0.00590531      -0.00346329 </v>
  </varray>
  <varray name="stress" >
   <v>      -0.49765765      -0.01980227      -0.38064103 </v>
   <v>      -0.01980229      -0.45616143      -0.01749379 </v>
   <v>      -0.38064102      -0.01749378      -1.88600352 </v>
  </varray>
  <energy>
   <i name="e_fr_energy">   -127.11436440 </i>
   <i name="e_wo_entrp">   -127.11280089 </i>
   <i name="e_0_energy">   -127.11358265 </i>
  </energy>
  <time name="totalsc">   60.18   60.61</time>
 </calculation>
 <calculation>
  <scstep>
   <time name="dav">    5.45    5.49</time>
   <time name="total">    5.74    5.78</time>
   <energy>
    <i name="alphaZ">     58.37932579 </i>
    <i name="ewald">   4695.13688603 </i>
    <i name="hartreedc">  -6451.53516198 </i>
    <i name="XCdc">    180.69431746 </i>
    <i name="pawpsdc">   5790.64800889 </i>
    <i name="pawaedc">  -5795.07854445 </i>
    <i name="eentropy">     -0.00152035 </i>
    <i name="bandstr">   -507.03160441 </i>
    <i name="atom">   1903.26342058 </i>
    <i name="e_fr_energy">   -125.52487245 </i>
    <i name="e_wo_entrp">   -125.52335210 </i>
    <i name="e_0_energy">   -125.52411227 </i>
   </energy>
  </scstep>
  <scstep>
   <time name="dav">   11.22   11.29</time>
   <time name="total">   11.50   11.58</time>
   <energy>
    <i name="e_fr_energy">   -125.52497481 </i>
    <i name="e_wo_entrp">   -125.52345187 </i>
    <i name="e_0_energy">   -125.52421334 </i>
   </energy>
  </scstep>
  <scstep>
   <time name="dav">    8.50    8.55</time>
   <time name="total">    8.78    8.85</time>
   <energy>
    <i name="e_fr_energy">   -125.52478389 </i>
    <i name="e_wo_entrp">   -125.52325818 </i>
    <i name="e_0_energy">   -125.52402104 </i>
   </energy>
  </scstep>
  <scstep>
   <time name="dav">   10.75   10.82</time>
   <time name="total">   11.04   11.12</time>
   <energy>
    <i name="e_fr_energy">   -125.52479168 </i>
    <i name="e_wo_entrp">   -125.52326557 </i>
    <i name="e_0_energy">   -125.52402862 </i>
   </energy>
  </scstep>
  <scstep>
   <time name="dav">    8.35    8.40</time>
   <time name="total">    8.64    8.70</time>
   <energy>
    <i name="e_fr_energy">   -125.52479616 </i>
    <i name="e_wo_entrp">   -125.52327002 </i>
    <i name="e_0_energy">   -125.52403309 </i>
   </energy>
  </scstep>
  <scstep>
   <time name="dav">   10.04   10.10</time>
   <time name="total">   10.33   10.40</time>
   <energy>
    <i name="e_fr_energy">   -125.52479501 </i>
    <i name="e_wo_entrp">   -125.52326903 </i>
    <i name="e_0_energy">   -125.52403202 </i>
   </energy>
  </scstep>
  <scstep>
   <time name="dav">    8.70    8.76</time>
   <time name="total">    8.74    8.80</time>
   <energy>
    <i name="alphaZ">     58.37932579 </i>
    <i name="ewald">   4695.13688603 </i>
    <i name="hartreedc">  -6451.63299352 </i>
    <i name="XCdc">    180.69296750 </i>
    <i name="pawpsdc">   5797.20572563 </i>
    <i name="pawaedc">  -5801.63878148 </i>
    <i name="eentropy">     -0.00152595 </i>
    <i name="bandstr">   -506.92981938 </i>
    <i name="atom">   1903.26342058 </i>
    <i name="e_fr_energy">   -125.52479481 </i>
    <i name="e_wo_entrp">   -125.52326886 </i>
    <i name="e_0_energy">   -125.52403183 </i>
   </energy>
  </scstep>
  <structure>
   <crystal>
    <varray name="basis" >
     <v>       4.19416103       2.42150000       0.00000000 </v>
     <v>      -4.19416103       2.42150000       0.00000000 </v>
     <v>       0.00000000       0.00000000      15.00000000 </v>
    </varray>
    <i name="volume">    304.68482806 </i>
    <varray name="rec_basis" >
     <v>       0.11921335       0.20648358       0.00000000 </v>
     <v>      -0.11921335       0.20648358       0.00000000 </v>
     <v>       0.00000000       0.00000000       0.06666667 </v>
    </varray>
   </crystal>
   <varray name="positions" >
    <v>       0.00426289       0.00287436       0.11089890 </v>
    <v>       0.35964573       0.00237905       0.09985230 </v>
    <v>       0.00430245       0.35810480       0.10024198 </v>
    <v>       0.64926042       0.64693634       0.10012096 </v>
    <v>       0.32808299       0.32584262       0.10037880 </v>
    <v>       0.68095934       0.00264402       0.10066099 </v>
    <v>       0.00448652       0.67917766       0.10040187 </v>
    <v>       0.11063846       0.38960910       0.33739151 </v>
    <v>       0.27831328       0.22244339       0.33775664 </v>
    <v>       0.11210006       0.88997745       0.33747964 </v>
    <v>       0.27858403       0.72232196       0.33701922 </v>
    <v>       0.61070648       0.38895649       0.33701661 </v>
    <v>       0.77765087       0.22267505       0.33741787 </v>
    <v>       0.60996831       0.88845960       0.33770601 </v>
    <v>       0.77588773       0.72147656       0.33743603 </v>
   </varray>
  </structure>
  <varray name="forces" >
   <v>       0.02532091      -0.00610073      -0.15246796 </v>
   <v>      -0.14666434      -0.07408864      -0.07097829 </v>
   <v>       0.15520920      -0.07397627      -0.10202018 </v>
   <v>      -0.01708921       0.16286760      -0.09403174 </v>
   <v>      -0.01797008      -0.07647194       0.14130435 </v>
   <v>       0.08434293       0.03459821       0.12286028 </v>
   <v>      -0.06386244       0.03345466       0.13773935 </v>
   <v>       0.32918578      -0.06242327       0.00052740 </v>
   <v>      -0.32040137      -0.14036116      -0.05933831 </v>
   <v>      -0.08590621      -0.48202825      -0.00770547 </v>
   <v>      -0.44093210      -0.20198683       0.07241198 </v>
   <v>       0.06822632       0.04970423       0.07510578 </v>
   <v>       0.05569733      -0.09740861      -0.00650401 </v>
   <v>       0.11955072       0.36146640      -0.05242826 </v>
   <v>       0.25529256       0.57275459      -0.00447492 </v>
  </varray>
  <varray name="stress" >
   <v>      -0.35861404      -0.13773408      -0.32696588 </v>
   <v>      -0.13773408       0.65775368      -0.00247772 </v>
   <v>      -0.32696589      -0.00247770      -1.92599757 </v>
  </varray>
  <energy>
   <i name="e_fr_energy">   -127.11092756 </i>
   <i name="e_wo_entrp">   -127.10940161 </i>
   <i name="e_0_energy">   -127.11016458 </i>
  </energy>
  <time name="totalsc">   69.43   69.92</time>
 </calculation>
 <calculation>
  <scstep>
   <time name="dav">    5.55    5.59</time>
   <time name="total">    5.84    5.90</time>
   <energy>
    <i name="alphaZ">     58.37932579 </i>
    <i name="ewald">   4695.44393554 </i>
    <i name="hartreedc">  -6452.14268836 </i>
    <i name="XCdc">    180.68014454 </i>
    <i name="pawpsdc">   5797.19732847 </i>
    <i name="pawaedc">  -5801.63038405 </i>
    <i name="eentropy">     -0.00155883 </i>
    <i name="bandstr">   -506.71810964 </i>
    <i name="atom">   1903.26342058 </i>
    <i name="e_fr_energy">   -125.52858598 </i>
    <i name="e_wo_entrp">   -125.52702714 </i>
    <i name="e_0_energy">   -125.52780656 </i>
   </energy>
  </scstep>
  <scstep>
   <time name="dav">   11.57   11.64</time>
   <time name="total">   11.85   11.94</time>
   <energy>
    <i name="e_fr_energy">   -125.52862990 </i>
    <i name="e_wo_entrp">   -125.52707191 </i>
    <i name="e_0_energy">   -125.52785090 </i>
   </energy>
  </scstep>
  <scstep>
   <time name="dav">    8.82    8.88</time>
   <time name="total">    9.11    9.18</time>
   <energy>
    <i name="e_fr_energy">   -125.52853371 </i>
    <i name="e_wo_entrp">   -125.52697669 </i>
    <i name="e_0_energy">   -125.52775520 </i>
   </energy>
  </scstep>
  <scstep>
   <time name="dav">   10.49   10.56</time>
   <time name="total">   10.78   10.85</time>
   <energy>
    <i name="e_fr_energy">   -125.52853845 </i>
    <i name="e_wo_entrp">   -125.52698155 </i>
    <i name="e_0_energy">   -125.52776000 </i>
   </energy>
  </scstep>
  <scstep>
   <time name="dav">    9.11    9.17</time>
   <time name="total">    9.39    9.47</time>
   <energy>
    <i name="e_fr_energy">   -125.52854129 </i>
    <i name="e_wo_entrp">   -125.52698441 </i>
    <i name="e_0_energy">   -125.52776285 </i>
   </energy>
  </scstep>
  <scstep>
   <time name="dav">    7.72    7.77</time>
   <time name="total">    7.75    7.80</time>
   <energy>
    <i name="alphaZ">     58.37932579 </i>
    <i name="ewald">   4695.44393554 </i>
    <i name="hartreedc">  -6452.08255309 </i>
    <i name="XCdc">    180.68001018 </i>
    <i name="pawpsdc">   5792.68529659 </i>
    <i name="pawaedc">  -5797.11657182 </i>
    <i name="eentropy">     -0.00155694 </i>
    <i name="bandstr">   -506.77984797 </i>
    <i name="atom">   1903.26342058 </i>
    <i name="e_fr_energy">   -125.52854115 </i>
    <i name="e_wo_entrp">   -125.52698420 </i>
    <i name="e_0_energy">   -125.52776267 </i>
   </energy>
  </scstep>
  <structure>
   <crystal>
    <varray name="basis" >
     <v>       4.19416103       2.42150000       0.00000000 </v>
     <v>      -4.19416103       2.42150000       0.00000000 </v>
     <v>       0.00000000       0.00000000      15.00000000 </v>
    </varray>
    <i name="volume">    304.68482806 </i>
    <varray name="rec_basis" >
     <v>       0.11921335       0.20648358       0.00000000 </v>
     <v>      -0.11921335       0.20648358       0.00000000 </v>
     <v>       0.00000000       0.00000000       0.06666667 </v>
    </varray>
   </crystal>
   <varray name="positions" >
    <v>       0.00423609       0.00285629       0.11270759 </v>
    <v>       0.35909291       0.00245476       0.09945149 </v>
    <v>       0.00425675       0.35763908       0.09977972 </v>
    <v>       0.64967643       0.64751433       0.09967574 </v>
    <v>       0.32765598       0.32553923       0.10030421 </v>
    <v>       0.68130958       0.00269754       0.10053431 </v>
    <v>       0.00443849       0.67954817       0.10031610 </v>
    <v>       0.11085718       0.38921578       0.33736775 </v>
    <v>       0.27782106       0.22231299       0.33769248 </v>
    <v>       0.11132568       0.88937524       0.33744058 </v>
    <v>       0.27790980       0.72235559       0.33703303 </v>
    <v>       0.61086978       0.38902274       0.33702818 </v>
    <v>       0.77766226       0.22245826       0.33739327 </v>
    <v>       0.61064725       0.88882022       0.33764771 </v>
    <v>       0.77709032       0.72206822       0.33740717 </v>
   </varray>
  </structure>
  <varray name="forces" >
   <v>       0.01996758      -0.00485607      -0.17101195 </v>
   <v>      -0.09790850      -0.04808460      -0.05850826 </v>
   <v>       0.11714911      -0.05154198      -0.08225203 </v>
[...]
   <i name="e_0_energy">   -127.12744750 </i>
  </energy>
  <time name="totalsc">   24.35   24.53</time>
 </calculation>
 <calculation>
  <scstep>
   <time name="dav">    5.42    5.46</time>
   <time name="total">    5.71    5.76</time>
   <energy>
    <i name="alphaZ">     58.37932579 </i>
    <i name="ewald">   4673.39111536 </i>
    <i name="hartreedc">  -6430.71660338 </i>
    <i name="XCdc">    180.73439715 </i>
    <i name="pawpsdc">   5813.08512190 </i>
    <i name="pawaedc">  -5817.52338821 </i>
    <i name="eentropy">     -0.00156647 </i>
    <i name="bandstr">   -506.15939151 </i>
    <i name="atom">   1903.26342058 </i>
    <i name="e_fr_energy">   -125.54756880 </i>
    <i name="e_wo_entrp">   -125.54600233 </i>
    <i name="e_0_energy">   -125.54678556 </i>
   </energy>
  </scstep>
  <scstep>
   <time name="dav">    8.65    8.70</time>
   <time name="total">    8.93    9.00</time>
   <energy>
    <i name="e_fr_energy">   -125.54757495 </i>
    <i name="e_wo_entrp">   -125.54600848 </i>
    <i name="e_0_energy">   -125.54679171 </i>
   </energy>
  </scstep>
  <scstep>
   <time name="dav">    6.90    6.95</time>
   <time name="total">    7.19    7.25</time>
   <energy>
    <i name="e_fr_energy">   -125.54757347 </i>
    <i name="e_wo_entrp">   -125.54600703 </i>
    <i name="e_0_energy">   -125.54679025 </i>
   </energy>
  </scstep>
  <scstep>
   <time name="dav">    5.44    5.47</time>
   <time name="total">    5.47    5.51</time>
   <energy>
    <i name="alphaZ">     58.37932579 </i>
    <i name="ewald">   4673.39111536 </i>
    <i name="hartreedc">  -6430.70382763 </i>
    <i name="XCdc">    180.73438913 </i>
    <i name="pawpsdc">   5813.01954668 </i>
    <i name="pawaedc">  -5817.45779369 </i>
    <i name="eentropy">     -0.00156645 </i>
    <i name="bandstr">   -506.17218313 </i>
    <i name="atom">   1903.26342058 </i>
    <i name="e_fr_energy">   -125.54757337 </i>
    <i name="e_wo_entrp">   -125.54600692 </i>
    <i name="e_0_energy">   -125.54679014 </i>
   </energy>
  </scstep>
  <structure>
   <crystal>
    <varray name="basis" >
     <v>       4.19416103       2.42150000       0.00000000 </v>
     <v>      -4.19416103       2.42150000       0.00000000 </v>
     <v>       0.00000000       0.00000000      15.00000000 </v>
    </varray>
    <i name="volume">    304.68482806 </i>
    <varray name="rec_basis" >
     <v>       0.11921335       0.20648358       0.00000000 </v>
     <v>      -0.11921335       0.20648358       0.00000000 </v>
     <v>       0.00000000       0.00000000       0.06666667 </v>
    </varray>
   </crystal>
   <varray name="positions" >
    <v>       0.00682835       0.00038113       0.09975543 </v>
    <v>       0.36196398       0.00029567       0.10158569 </v>
    <v>       0.00682798       0.35544359       0.10164823 </v>
    <v>       0.65183249       0.64517965       0.10162790 </v>
    <v>       0.33067785       0.32388951       0.10126046 </v>
    <v>       0.68334841       0.00049407       0.10135125 </v>
    <v>       0.00697856       0.67669107       0.10128750 </v>
    <v>       0.10868299       0.39101382       0.33788023 </v>
    <v>       0.27538629       0.22436497       0.33799211 </v>
    <v>       0.10873564       0.89102491       0.33792711 </v>
    <v>       0.27543395       0.72437345       0.33784386 </v>
    <v>       0.60872716       0.39100501       0.33784370 </v>
    <v>       0.77537768       0.22432214       0.33789568 </v>
    <v>       0.60871381       0.89103953       0.33798568 </v>
    <v>       0.77533443       0.72435991       0.33789452 </v>
   </varray>
  </structure>
  <varray name="forces" >
   <v>       0.00384742      -0.00087259       0.00307279 </v>
   <v>      -0.00100679       0.00316988      -0.01019500 </v>
   <v>       0.00349192       0.00765957      -0.00185740 </v>
   <v>       0.00464930       0.00355777      -0.00472906 </v>
   <v>      -0.00742579       0.00429222       0.00716093 </v>
   <v>       0.01047539      -0.01111380       0.00214999 </v>
   <v>       0.00022854      -0.00624464       0.00705982 </v>
   <v>       0.00734304       0.00747257      -0.00186899 </v>
   <v>       0.00649277      -0.00524432      -0.00059646 </v>
   <v>      -0.01021673       0.00996296      -0.00060733 </v>
   <v>      -0.00575334      -0.00354707       0.00296432 </v>
   <v>      -0.01037954      -0.00510590       0.00123360 </v>
   <v>      -0.01224907       0.00545731      -0.00054400 </v>
   <v>       0.00326225      -0.00964619      -0.00402186 </v>
   <v>       0.00724064       0.00020221       0.00077865 </v>
  </varray>
  <varray name="stress" >
   <v>       1.36585465       0.06044591      -0.26651232 </v>
   <v>       0.06044592       1.25957451      -0.00975746 </v>
   <v>      -0.26651229      -0.00975746      -2.18647492 </v>
  </varray>
  <energy>
   <i name="e_fr_energy">   -127.12824858 </i>
   <i name="e_wo_entrp">   -127.12668213 </i>
   <i name="e_0_energy">   -127.12746536 </i>
  </energy>
  <time name="totalsc">   31.98   32.23</time>
 </calculation>
 <calculation>
  <scstep>
   <time name="dav">    5.44    5.48</time>
   <time name="total">    5.73    5.78</time>
   <energy>
    <i name="alphaZ">     58.37932579 </i>
    <i name="ewald">   4672.94556581 </i>
    <i name="hartreedc">  -6430.26507565 </i>
    <i name="XCdc">    180.73388697 </i>
    <i name="pawpsdc">   5813.01693317 </i>
    <i name="pawaedc">  -5817.45518071 </i>
    <i name="eentropy">     -0.00156681 </i>
    <i name="bandstr">   -506.16491105 </i>
    <i name="atom">   1903.26342058 </i>
    <i name="e_fr_energy">   -125.54760191 </i>
    <i name="e_wo_entrp">   -125.54603511 </i>
    <i name="e_0_energy">   -125.54681851 </i>
   </energy>
  </scstep>
  <scstep>
   <time name="dav">    7.58    7.62</time>
   <time name="total">    7.86    7.92</time>
   <energy>
    <i name="e_fr_energy">   -125.54762604 </i>
    <i name="e_wo_entrp">   -125.54605923 </i>
    <i name="e_0_energy">   -125.54684263 </i>
   </energy>
  </scstep>
  <scstep>
   <time name="dav">    7.14    7.19</time>
   <time name="total">    7.43    7.49</time>
   <energy>
    <i name="e_fr_energy">   -125.54761878 </i>
    <i name="e_wo_entrp">   -125.54605200 </i>
    <i name="e_0_energy">   -125.54683539 </i>
   </energy>
  </scstep>
  <scstep>
   <time name="dav">    5.78    5.82</time>
   <time name="total">    5.81    5.85</time>
   <energy>
    <i name="alphaZ">     58.37932579 </i>
    <i name="ewald">   4672.94556581 </i>
    <i name="hartreedc">  -6430.23992394 </i>
    <i name="XCdc">    180.73388610 </i>
    <i name="pawpsdc">   5812.88388392 </i>
    <i name="pawaedc">  -5817.32209277 </i>
    <i name="eentropy">     -0.00156680 </i>
    <i name="bandstr">   -506.19011746 </i>
    <i name="atom">   1903.26342058 </i>
    <i name="e_fr_energy">   -125.54761877 </i>
    <i name="e_wo_entrp">   -125.54605197 </i>
    <i name="e_0_energy">   -125.54683537 </i>
   </energy>
  </scstep>
  <structure>
   <crystal>
    <varray name="basis" >
     <v>       4.19416103       2.42150000       0.00000000 </v>
     <v>      -4.19416103       2.42150000       0.00000000 </v>
     <v>       0.00000000       0.00000000      15.00000000 </v>
    </varray>
    <i name="volume">    304.68482806 </i>
    <varray name="rec_basis" >
     <v>       0.11921335       0.20648358       0.00000000 </v>
     <v>      -0.11921335       0.20648358       0.00000000 </v>
     <v>       0.00000000       0.00000000       0.06666667 </v>
    </varray>
   </crystal>
   <varray name="positions" >
    <v>       0.00706023       0.00019186       0.09980595 </v>
    <v>       0.36220731       0.00010317       0.10162002 </v>
    <v>       0.00706179       0.35526818       0.10161638 </v>
    <v>       0.65202803       0.64494779       0.10161802 </v>
    <v>       0.33092785       0.32369072       0.10124277 </v>
    <v>       0.68355933       0.00031801       0.10129745 </v>
    <v>       0.00718855       0.67644776       0.10126794 </v>
    <v>       0.10843674       0.39116519       0.33788173 </v>
    <v>       0.27519249       0.22458846       0.33801370 </v>
    <v>       0.10851743       0.89113567       0.33792354 </v>
    <v>       0.27526401       0.72457002       0.33784506 </v>
    <v>       0.60856325       0.39116299       0.33782979 </v>
    <v>       0.77518778       0.22447966       0.33791353 </v>
    <v>       0.60853299       0.89123745       0.33799679 </v>
    <v>       0.77512179       0.72457152       0.33790667 </v>
   </varray>
  </structure>
  <varray name="forces" >
   <v>       0.00450715      -0.00401398       0.00122347 </v>
   <v>      -0.00310850       0.00051196      -0.01920715 </v>
   <v>       0.00712984       0.00445633      -0.00269968 </v>
   <v>       0.00491077       0.01001185      -0.00830623 </v>
   <v>      -0.00958234      -0.00035018       0.01129840 </v>
   <v>       0.01818648      -0.00964415       0.00959614 </v>
   <v>      -0.00800604      -0.00054186       0.01143587 </v>
   <v>       0.01418098       0.02549833       0.00109917 </v>
   <v>       0.02523105      -0.01822367      -0.00639180 </v>
   <v>      -0.02867329       0.03067530       0.00308639 </v>
   <v>      -0.00479224      -0.01525813       0.00228935 </v>
   <v>      -0.03044987      -0.00623048       0.00780036 </v>
   <v>      -0.02035766       0.00618177      -0.00507020 </v>
   <v>       0.00330440      -0.01671770      -0.00329706 </v>
   <v>       0.02751926      -0.00635539      -0.00285703 </v>
  </varray>
  <varray name="stress" >
   <v>       1.39522034       0.09837988      -0.26621644 </v>
   <v>       0.09837990       1.21191434      -0.00888316 </v>
   <v>      -0.26621644      -0.00888315      -2.19502222 </v>
  </varray>
  <energy>
   <i name="e_fr_energy">   -127.12824659 </i>
   <i name="e_wo_entrp">   -127.12667979 </i>
   <i name="e_0_energy">   -127.12746319 </i>
  </energy>
  <time name="totalsc">   31.53   31.78</time>
 </calculation>
 <calculation>
  <scstep>
   <time name="dav">    5.44    5.47</time>
   <time name="total">    5.73    5.78</time>
   <energy>
    <i name="alphaZ">     58.37932579 </i>
    <i name="ewald">   4673.19711915 </i>
    <i name="hartreedc">  -6430.48623501 </i>
    <i name="XCdc">    180.73413354 </i>
    <i name="pawpsdc">   5812.87642048 </i>
    <i name="pawaedc">  -5817.31463034 </i>
    <i name="eentropy">     -0.00156664 </i>
    <i name="bandstr">   -506.19558225 </i>
    <i name="atom">   1903.26342058 </i>
    <i name="e_fr_energy">   -125.54759471 </i>
    <i name="e_wo_entrp">   -125.54602807 </i>
    <i name="e_0_energy">   -125.54681139 </i>
   </energy>
  </scstep>
  <scstep>
   <time name="dav">    5.49    5.53</time>
   <time name="total">    5.78    5.83</time>
   <energy>
    <i name="e_fr_energy">   -125.54760171 </i>
    <i name="e_wo_entrp">   -125.54603506 </i>
    <i name="e_0_energy">   -125.54681839 </i>
   </energy>
  </scstep>
  <scstep>
   <time name="dav">    8.11    8.16</time>
   <time name="total">    8.40    8.47</time>
   <energy>
    <i name="e_fr_energy">   -125.54759947 </i>
    <i name="e_wo_entrp">   -125.54603280 </i>
    <i name="e_0_energy">   -125.54681614 </i>
   </energy>
  </scstep>
  <scstep>
   <time name="dav">    5.51    5.56</time>
   <time name="total">    5.55    5.59</time>
   <energy>
    <i name="alphaZ">     58.37932579 </i>
    <i name="ewald">   4673.19711915 </i>
    <i name="hartreedc">  -6430.49602845 </i>
    <i name="XCdc">    180.73412046 </i>
    <i name="pawpsdc">   5812.95266800 </i>
    <i name="pawaedc">  -5817.39090616 </i>
    <i name="eentropy">     -0.00156666 </i>
    <i name="bandstr">   -506.18575221 </i>
    <i name="atom">   1903.26342058 </i>
    <i name="e_fr_energy">   -125.54759952 </i>
    <i name="e_wo_entrp">   -125.54603285 </i>
    <i name="e_0_energy">   -125.54681619 </i>
   </energy>
  </scstep>
  <structure>
   <crystal>
    <varray name="basis" >
     <v>       4.19416103       2.42150000       0.00000000 </v>
     <v>      -4.19416103       2.42150000       0.00000000 </v>
     <v>       0.00000000       0.00000000      15.00000000 </v>
    </varray>
    <i name="volume">    304.68482806 </i>
    <varray name="rec_basis" >
     <v>       0.11921335       0.20648358       0.00000000 </v>
     <v>      -0.11921335       0.20648358       0.00000000 </v>
     <v>       0.00000000       0.00000000       0.06666667 </v>
    </varray>
   </crystal>
   <varray name="positions" >
    <v>       0.00692934       0.00029870       0.09977743 </v>
    <v>       0.36206996       0.00021183       0.10160064 </v>
    <v>       0.00692981       0.35536720       0.10163436 </v>
    <v>       0.65191766       0.64507866       0.10162360 </v>
    <v>       0.33078673       0.32380293       0.10125275 </v>
    <v>       0.68344027       0.00041739       0.10132782 </v>
    <v>       0.00707002       0.67658510       0.10127898 </v>
    <v>       0.10857574       0.39107975       0.33788088 </v>
    <v>       0.27530188       0.22446231       0.33800151 </v>
    <v>       0.10864060       0.89107315       0.33792555 </v>
    <v>       0.27535993       0.72445907       0.33784438 </v>
    <v>       0.60865577       0.39107382       0.33783764 </v>
    <v>       0.77529497       0.22439075       0.33790345 </v>
    <v>       0.60863506       0.89112573       0.33799052 </v>
    <v>       0.77524181       0.72445208       0.33789981 </v>
   </varray>
  </structure>
  <varray name="forces" >
   <v>       0.00405191      -0.00215279       0.00218301 </v>
   <v>      -0.00207472       0.00201559      -0.01420230 </v>
   <v>       0.00476886       0.00637204      -0.00228726 </v>
   <v>       0.00480537       0.00623847      -0.00635214 </v>
   <v>      -0.00753708       0.00236055       0.00886158 </v>
   <v>       0.01382276      -0.01066562       0.00505611 </v>
   <v>      -0.00286953      -0.00373725       0.00884122 </v>
   <v>       0.01019378       0.01513944      -0.00047726 </v>
   <v>       0.01444972      -0.01078489      -0.00298968 </v>
   <v>      -0.01820749       0.01879581       0.00109184 </v>
   <v>      -0.00555045      -0.00858253       0.00272794 </v>
   <v>      -0.01916168      -0.00561092       0.00415140 </v>
   <v>      -0.01574874       0.00575668      -0.00233604 </v>
   <v>       0.00322246      -0.01255865      -0.00353329 </v>
   <v>       0.01583482      -0.00258594      -0.00073514 </v>
  </varray>
  <varray name="stress" >
   <v>       1.37629925       0.07925295      -0.26697585 </v>
   <v>       0.07925294       1.24100246      -0.00961310 </v>
   <v>      -0.26697586      -0.00961310      -2.18727301 </v>
  </varray>
  <energy>
   <i name="e_fr_energy">   -127.12825412 </i>
   <i name="e_wo_entrp">   -127.12668745 </i>
   <i name="e_0_energy">   -127.12747079 </i>
  </energy>
  <time name="totalsc">   30.15   30.40</time>
 </calculation>
 <calculation>
  <scstep>
   <time name="dav">    6.69    6.73</time>
   <time name="total">    6.98    7.03</time>
   <energy>
    <i name="alphaZ">     58.37932579 </i>
    <i name="ewald">   4673.15379043 </i>
    <i name="hartreedc">  -6430.45292554 </i>
    <i name="XCdc">    180.73408988 </i>
    <i name="pawpsdc">   5812.95664683 </i>
    <i name="pawaedc">  -5817.39488401 </i>
    <i name="eentropy">     -0.00156666 </i>
    <i name="bandstr">   -506.18550899 </i>
    <i name="atom">   1903.26342058 </i>
    <i name="e_fr_energy">   -125.54761171 </i>
    <i name="e_wo_entrp">   -125.54604505 </i>
    <i name="e_0_energy">   -125.54682838 </i>
   </energy>
  </scstep>
  <scstep>
   <time name="dav">    8.28    8.33</time>
   <time name="total">    8.31    8.37</time>
   <energy>
    <i name="alphaZ">     58.37932579 </i>
    <i name="ewald">   4673.15379043 </i>
    <i name="hartreedc">  -6430.45191888 </i>
    <i name="XCdc">    180.73409321 </i>
    <i name="pawpsdc">   5812.95469901 </i>
    <i name="pawaedc">  -5817.39293454 </i>
    <i name="eentropy">     -0.00156666 </i>
    <i name="bandstr">   -506.18652074 </i>
    <i name="atom">   1903.26342058 </i>
    <i name="e_fr_energy">   -125.54761181 </i>
    <i name="e_wo_entrp">   -125.54604515 </i>
    <i name="e_0_energy">   -125.54682848 </i>
   </energy>
  </scstep>
  <structure>
   <crystal>
    <varray name="basis" >
     <v>       4.19416103       2.42150000       0.00000000 </v>
     <v>      -4.19416103       2.42150000       0.00000000 </v>
     <v>       0.00000000       0.00000000      15.00000000 </v>
    </varray>
    <i name="volume">    304.68482806 </i>
    <varray name="rec_basis" >
     <v>       0.11921335       0.20648358       0.00000000 </v>
     <v>      -0.11921335       0.20648358       0.00000000 </v>
     <v>       0.00000000       0.00000000       0.06666667 </v>
    </varray>
   </crystal>
   <varray name="positions" >
    <v>       0.00695505       0.00027600       0.09978330 </v>
    <v>       0.36209719       0.00019180       0.10160263 </v>
    <v>       0.00695926       0.35534922       0.10163054 </v>
    <v>       0.65194283       0.64505439       0.10162170 </v>
    <v>       0.33081359       0.32378359       0.10125192 </v>
    <v>       0.68346254       0.00039058       0.10132251 </v>
    <v>       0.00709111       0.67655737       0.10127794 </v>
    <v>       0.10855679       0.39110013       0.33788099 </v>
    <v>       0.27527949       0.22447949       0.33800352 </v>
    <v>       0.10861973       0.89109694       0.33792530 </v>
    <v>       0.27533650       0.72447868       0.33784486 </v>
    <v>       0.60863108       0.39109343       0.33783663 </v>
    <v>       0.77527266       0.22441402       0.33790513 </v>
    <v>       0.60861085       0.89114194       0.33799130 </v>
    <v>       0.77522088       0.72447086       0.33790106 </v>
   </varray>
  </structure>
  <varray name="forces" >
   <v>       0.00373026      -0.00215661       0.00211127 </v>
   <v>      -0.00214507       0.00170172      -0.01482541 </v>
   <v>       0.00508065       0.00581775      -0.00221170 </v>
   <v>       0.00463767       0.00644743      -0.00650508 </v>
   <v>      -0.00746816       0.00176413       0.00906290 </v>
   <v>       0.01412897      -0.01014191       0.00565790 </v>
   <v>      -0.00329307      -0.00302859       0.00907358 </v>
   <v>       0.00932181       0.01441685      -0.00019003 </v>
   <v>       0.01359171      -0.01020393      -0.00353851 </v>
   <v>      -0.01726944       0.01773228       0.00142887 </v>
   <v>      -0.00516995      -0.00832070       0.00256787 </v>
   <v>      -0.01839273      -0.00505809       0.00471067 </v>
   <v>      -0.01449298       0.00507751      -0.00280709 </v>
   <v>       0.00262683      -0.01141848      -0.00342131 </v>
   <v>       0.01511349      -0.00262936      -0.00111393 </v>
  </varray>
  <varray name="stress" >
   <v>       1.37518842       0.08004961      -0.26697681 </v>
   <v>       0.08004958       1.24107251      -0.00961063 </v>
   <v>      -0.26697678      -0.00961061      -2.18940076 </v>
  </varray>
  <energy>
   <i name="e_fr_energy">   -127.12826111 </i>
   <i name="e_wo_entrp">   -127.12669445 </i>
   <i name="e_0_energy">   -127.12747778 </i>
  </energy>
  <time name="totalsc">   19.97   20.12</time>
 </calculation>
 <calculation>
  <scstep>
   <time name="dav">    5.44    5.48</time>
   <time name="total">    5.73    5.78</time>
   <energy>
    <i name="alphaZ">     58.37932579 </i>
    <i name="ewald">   4673.02377562 </i>
    <i name="hartreedc">  -6430.32274993 </i>
    <i name="XCdc">    180.73398093 </i>
    <i name="pawpsdc">   5812.95037048 </i>
    <i name="pawaedc">  -5817.38860331 </i>
    <i name="eentropy">     -0.00156665 </i>
    <i name="bandstr">   -506.18559829 </i>
    <i name="atom">   1903.26342058 </i>
    <i name="e_fr_energy">   -125.54764479 </i>
    <i name="e_wo_entrp">   -125.54607814 </i>
    <i name="e_0_energy">   -125.54686147 </i>
   </energy>
  </scstep>
  <scstep>
