Lattice                                 
           1
     4.194161    2.421500    0.000000
    -4.194161    2.421500    0.000000
     0.000000    0.000000   15.000000
   B    C 
     4    11
Direct configuration=     1
   0.00415361  0.00267210  0.12034134
   0.35695335  0.00285503  0.09748893
   0.00423858  0.35550699  0.09749256
   0.65142295  0.65006557  0.09747688
   0.32808646  0.32671938  0.10030508
   0.68027775  0.00278085  0.10027562
   0.00416530  0.67883808  0.10026559
   0.11111044  0.38888856  0.33726667
   0.27777744  0.22222156  0.33726667
   0.11111044  0.88888856  0.33726667
   0.27777744  0.72222156  0.33726667
   0.61111044  0.38888856  0.33726667
   0.77777744  0.22222156  0.33726667
   0.61111044  0.88888856  0.33726667
   0.77777744  0.72222156  0.33726667
Direct configuration=     2
   0.00416813  0.00269693  0.11907660
   0.35574742  0.00279161  0.09781700
   0.00418888  0.35453015  0.09787337
   0.65251837  0.65105192  0.09784387
   0.32482100  0.32329215  0.10031234
   0.68380967  0.00279473  0.10032612
   0.00422520  0.68212425  0.10028102
   0.11103944  0.38899167  0.33727957
   0.27791604  0.22234669  0.33735316
   0.11129730  0.88901828  0.33729041
   0.27796837  0.72221847  0.33720511
   0.61107118  0.38883639  0.33720022
   0.77773622  0.22226714  0.33728899
   0.61092670  0.88883987  0.33734226
   0.77741562  0.72207819  0.33728928
Direct configuration=     3
   0.00416090  0.00268457  0.11970599
   0.35634755  0.00282317  0.09765374
   0.00421361  0.35501627  0.09768386
   0.65197324  0.65056107  0.09766124
   0.32644604  0.32499769  0.10030873
   0.68205203  0.00278783  0.10030099
   0.00419539  0.68048890  0.10027334
   0.11107478  0.38894036  0.33727315
   0.27784707  0.22228442  0.33731012
   0.11120431  0.88895372  0.33727860
   0.27787336  0.72222001  0.33723574
   0.61109072  0.38886235  0.33723329
   0.77775673  0.22224446  0.33727788
   0.61101814  0.88886410  0.33730464
   0.77759568  0.72214953  0.33727803
Direct configuration=     4
   0.00417075  0.00272147  0.11856045
   0.35684926  0.00275635  0.09796932
   0.00420913  0.35551643  0.09805344
   0.65153798  0.64999242  0.09801617
   0.32660591  0.32503175  0.10028269
   0.68198339  0.00278313  0.10031701
   0.00424013  0.68037746  0.10025539
   0.11109342  0.38887785  0.33728886
   0.27767618  0.22224801  0.33738428
   0.11097603  0.88885798  0.33730604
   0.27765729  0.72226514  0.33718968
   0.61109002  0.38892457  0.33718587
   0.77773692  0.22222550  0.33729851
   0.61115216  0.88897357  0.33737094
   0.77787098  0.72232680  0.33730067
Direct configuration=     5
   0.00420029  0.00283217  0.11512382
   0.35835439  0.00255590  0.09891605
   0.00419569  0.35701692  0.09916219
   0.65023218  0.64828647  0.09908097
   0.32708554  0.32513394  0.10020456
   0.68177748  0.00276905  0.10036508
   0.00437433  0.68004314  0.10020152
   0.11114937  0.38869034  0.33733600
   0.27716351  0.22213879  0.33760678
   0.11029118  0.88857074  0.33738839
   0.27700908  0.72240052  0.33705148
   0.61108794  0.38911125  0.33704364
   0.77767747  0.22216864  0.33736041
   0.61155425  0.88930197  0.33756983
   0.77869687  0.72285861  0.33736861
Direct configuration=     6
   0.00420655  0.00283639  0.11470133
   0.35848352  0.00253822  0.09900968
   0.00420636  0.35712571  0.09927017
   0.65013500  0.64815145  0.09918497
   0.32718528  0.32520481  0.10022198
   0.68169566  0.00275654  0.10039467
   0.00438554  0.67995660  0.10022156
   0.11109828  0.38878221  0.33734155
   0.27727849  0.22216925  0.33762177
   0.11047206  0.88871141  0.33739752
   0.27716658  0.72239267  0.33704825
   0.61104979  0.38909577  0.33704094
   0.77767481  0.22221928  0.33736615
   0.61139565  0.88921774  0.33758345
   0.77841596  0.72272040  0.33737535
Direct configuration=     7
   0.00422533  0.00284904  0.11343385
   0.35887093  0.00248516  0.09929055
   0.00423839  0.35745207  0.09959410
   0.64984347  0.64774642  0.09949697
   0.32748452  0.32541741  0.10027426
   0.68145022  0.00271903  0.10048344
   0.00441920  0.67969695  0.10028166
   0.11094501  0.38905784  0.33735821
   0.27762342  0.22226063  0.33766672
   0.11101473  0.88913343  0.33742489
   0.27763906  0.72236910  0.33703858
   0.61093535  0.38904934  0.33703283
   0.77766683  0.22237120  0.33738339
   0.61091987  0.88896502  0.33762430
   0.77757321  0.72230579  0.33739558
Direct configuration=     8
   0.00426289  0.00287436  0.11089890
   0.35964573  0.00237905  0.09985230
   0.00430245  0.35810480  0.10024198
   0.64926042  0.64693634  0.10012096
   0.32808299  0.32584262  0.10037880
   0.68095934  0.00264402  0.10066099
   0.00448652  0.67917766  0.10040187
   0.11063846  0.38960910  0.33739151
   0.27831328  0.22244339  0.33775664
   0.11210006  0.88997745  0.33747964
   0.27858403  0.72232196  0.33701922
   0.61070648  0.38895649  0.33701661
   0.77765087  0.22267505  0.33741787
   0.60996831  0.88845960  0.33770601
   0.77588773  0.72147656  0.33743603
Direct configuration=     9
   0.00423609  0.00285629  0.11270759
   0.35909291  0.00245476  0.09945149
   0.00425675  0.35763908  0.09977972
   0.64967643  0.64751433  0.09967574
   0.32765598  0.32553923  0.10030421
   0.68130958  0.00269754  0.10053431
   0.00443849  0.67954817  0.10031610
   0.11085718  0.38921578  0.33736775
   0.27782106  0.22231299  0.33769248
   0.11132568  0.88937524  0.33744058
   0.27790980  0.72235559  0.33703303
   0.61086978  0.38902274  0.33702818
   0.77766226  0.22245826  0.33739327
   0.61064725  0.88882022  0.33764771
   0.77709032  0.72206822  0.33740717
Direct configuration=    10
   0.00425269  0.00283772  0.11215062
   0.35908997  0.00244678  0.09953055
   0.00429177  0.35759235  0.09986410
   0.64971958  0.64753551  0.09975838
   0.32774527  0.32562287  0.10038260
   0.68122738  0.00266272  0.10062029
   0.00444574  0.67945827  0.10039644
   0.11085812  0.38920544  0.33737445
   0.27782767  0.22242130  0.33768615
   0.11129418  0.88931742  0.33744910
   0.27791184  0.72237499  0.33705830
   0.61086579  0.38898356  0.33705552
   0.77760853  0.22245559  0.33739721
   0.61064366  0.88886084  0.33764256
   0.77706736  0.72210311  0.33741306
Direct configuration=    11
   0.00430248  0.00278198  0.11047973
   0.35908116  0.00242282  0.09976771
   0.00439685  0.35745215  0.10011723
   0.64984903  0.64759906  0.10000631
   0.32801316  0.32587377  0.10061776
   0.68098078  0.00255824  0.10087824
   0.00446750  0.67918856  0.10063746
   0.11086091  0.38917441  0.33739455
   0.27784747  0.22274624  0.33766717
   0.11119969  0.88914395  0.33747465
   0.27791795  0.72243316  0.33713411
   0.61085382  0.38886601  0.33713755
   0.77744734  0.22244757  0.33740902
   0.61063292  0.88898271  0.33762712
   0.77699849  0.72220780  0.33743071
Direct configuration=    12
   0.00440205  0.00267051  0.10713795
   0.35906354  0.00237491  0.10024205
   0.00460701  0.35717176  0.10062350
   0.65010794  0.64772616  0.10050217
   0.32854892  0.32637559  0.10108810
   0.68048757  0.00234928  0.10139415
   0.00451102  0.67864914  0.10111951
   0.11086651  0.38911236  0.33743475
   0.27788709  0.22339611  0.33762919
   0.11101072  0.88879703  0.33752575
   0.27793018  0.72254952  0.33728572
   0.61082987  0.38863092  0.33730160
   0.77712497  0.22243155  0.33743264
   0.61061143  0.88922644  0.33759625
   0.77686075  0.72241717  0.33746602
Direct configuration=    13
   0.00444512  0.00262196  0.10617528
   0.35908096  0.00237055  0.10038980
   0.00465722  0.35715578  0.10076406
   0.65011942  0.64772598  0.10064465
   0.32858084  0.32638967  0.10122440
   0.68050491  0.00230721  0.10153192
   0.00453529  0.67857372  0.10125769
   0.11078364  0.38916294  0.33744532
   0.27761584  0.22289699  0.33761103
   0.11083842  0.88902301  0.33753694
   0.27764644  0.72249784  0.33734258
   0.61080609  0.38896286  0.33735819
   0.77729872  0.22242803  0.33744173
   0.61073222  0.88928933  0.33757838
   0.77720441  0.72247257  0.33747737
Direct configuration=    14
   0.00447737  0.00258560  0.10545418
   0.35909401  0.00236728  0.10050047
   0.00469483  0.35714381  0.10086935
   0.65012802  0.64772586  0.10075138
   0.32860476  0.32640022  0.10132649
   0.68051790  0.00227570  0.10163513
   0.00455347  0.67851723  0.10136119
   0.11072157  0.38920082  0.33745324
   0.27741266  0.22252311  0.33759742
   0.11070937  0.88919229  0.33754533
   0.27743390  0.72245913  0.33738517
   0.61078828  0.38921151  0.33740057
   0.77742887  0.22242539  0.33744853
   0.61082271  0.88933644  0.33756500
   0.77746183  0.72251406  0.33748588
Direct configuration=    15
   0.00447908  0.00258368  0.10541609
   0.35909470  0.00236711  0.10050632
   0.00469681  0.35714318  0.10087491
   0.65012848  0.64772585  0.10075702
   0.32860602  0.32640078  0.10133189
   0.68051858  0.00227403  0.10164058
   0.00455443  0.67851425  0.10136666
   0.11071830  0.38920282  0.33745366
   0.27740193  0.22250336  0.33759670
   0.11070255  0.88920123  0.33754577
   0.27742267  0.72245708  0.33738742
   0.61078734  0.38922465  0.33740281
   0.77743575  0.22242525  0.33744889
   0.61082749  0.88933892  0.33756429
   0.77747543  0.72251625  0.33748633
Direct configuration=    16
   0.00449525  0.00256206  0.10526066
   0.35918252  0.00237101  0.10056093
   0.00468621  0.35724002  0.10091067
   0.65002039  0.64763521  0.10079852
   0.32850166  0.32627475  0.10133572
   0.68066795  0.00229522  0.10163095
   0.00457216  0.67858840  0.10136958
   0.11073109  0.38919170  0.33745529
   0.27738620  0.22244817  0.33759329
   0.11075859  0.88925205  0.33754439
   0.27741664  0.72252950  0.33740233
   0.61075431  0.38922636  0.33741326
   0.77745391  0.22252296  0.33745433
   0.61077455  0.88920474  0.33755886
   0.77744812  0.72253631  0.33749055
Direct configuration=    17
   0.00452351  0.00252428  0.10498914
   0.35933593  0.00237783  0.10065633
   0.00466769  0.35740918  0.10097313
   0.64983157  0.64747688  0.10087102
   0.32831936  0.32605459  0.10134243
   0.68092887  0.00233222  0.10161413
   0.00460313  0.67871793  0.10137468
   0.11075344  0.38917226  0.33745813
   0.27735874  0.22235175  0.33758732
   0.11085648  0.88934084  0.33754199
   0.27740610  0.72265599  0.33742836
   0.61069662  0.38922935  0.33743150
   0.77748562  0.22269366  0.33746385
   0.61068207  0.88897034  0.33754939
   0.77740042  0.72257134  0.33749792
Direct configuration=    18
   0.00453937  0.00248480  0.10481098
   0.35952726  0.00238052  0.10074826
   0.00464410  0.35755381  0.10102633
   0.64964084  0.64730908  0.10093598
   0.32822498  0.32592273  0.10132971
   0.68108077  0.00237292  0.10157096
   0.00462835  0.67880245  0.10135980
   0.11076699  0.38921290  0.33746192
   0.27741039  0.22249210  0.33758491
   0.11081731  0.88928495  0.33753958
   0.27743829  0.72261346  0.33744565
   0.61069193  0.38920189  0.33744260
   0.77740567  0.22260814  0.33747308
   0.61067568  0.88909411  0.33754576
   0.77735764  0.72254460  0.33750381
Direct configuration=    19
   0.00455259  0.00245190  0.10466251
   0.35968669  0.00238275  0.10082487
   0.00462444  0.35767433  0.10107066
   0.64948191  0.64716927  0.10099011
   0.32814633  0.32581285  0.10131912
   0.68120734  0.00240684  0.10153499
   0.00464936  0.67887287  0.10134741
   0.11077829  0.38924676  0.33746507
   0.27745342  0.22260905  0.33758290
   0.11078467  0.88923838  0.33753758
   0.27746511  0.72257802  0.33746005
   0.61068802  0.38917900  0.33745184
   0.77733905  0.22253687  0.33748077
   0.61067036  0.88919725  0.33754274
   0.77732198  0.72252232  0.33750871
Direct configuration=    20
   0.00455183  0.00242796  0.10458465
   0.35975879  0.00237907  0.10087456
   0.00462012  0.35765572  0.10109422
   0.64945833  0.64713916  0.10102152
   0.32823406  0.32588508  0.10131066
   0.68112538  0.00241403  0.10150240
   0.00465303  0.67882234  0.10133735
   0.11070372  0.38923085  0.33747039
   0.27739954  0.22257037  0.33758493
   0.11074201  0.88925362  0.33753918
   0.27742942  0.72255216  0.33746125
   0.61072204  0.38921094  0.33745404
   0.77738188  0.22253127  0.33748520
   0.61071978  0.88925982  0.33754893
   0.77734960  0.72254607  0.33751007
Direct configuration=    21
   0.00455134  0.00241258  0.10453464
   0.35980511  0.00237671  0.10090647
   0.00461735  0.35764377  0.10110935
   0.64944319  0.64711982  0.10104169
   0.32829041  0.32593146  0.10130522
   0.68107274  0.00241864  0.10148147
   0.00465539  0.67878989  0.10133089
   0.11065583  0.38922064  0.33747380
   0.27736494  0.22254553  0.33758623
   0.11071462  0.88926341  0.33754021
   0.27740651  0.72253556  0.33746201
   0.61074388  0.38923145  0.33745545
   0.77740938  0.22252767  0.33748805
   0.61075153  0.88930001  0.33755291
   0.77736734  0.72256132  0.33751094
Direct configuration=    22
   0.00455856  0.00239414  0.10445157
   0.35978230  0.00237387  0.10095275
   0.00462343  0.35755882  0.10112669
   0.64950963  0.64716807  0.10106776
   0.32837149  0.32599860  0.10130335
   0.68100407  0.00241196  0.10144963
   0.00465694  0.67872457  0.10132708
   0.11068031  0.38922071  0.33748115
   0.27736373  0.22254710  0.33759141
   0.11073895  0.88927723  0.33754396
   0.27740236  0.72259211  0.33745905
   0.61071153  0.38922363  0.33745553
   0.77739381  0.22258575  0.33749302
   0.61070682  0.88922187  0.33756433
   0.77734562  0.72258003  0.33751206
Direct configuration=    23
   0.00456280  0.00238329  0.10440269
   0.35976888  0.00237220  0.10097998
   0.00462702  0.35750884  0.10113690
   0.64954873  0.64719646  0.10108309
   0.32841920  0.32603810  0.10130224
   0.68096366  0.00240803  0.10143090
   0.00465785  0.67868614  0.10132484
   0.11069471  0.38922075  0.33748547
   0.27736303  0.22254803  0.33759446
   0.11075327  0.88928537  0.33754617
   0.27739993  0.72262538  0.33745731
   0.61069249  0.38921902  0.33745558
   0.77738465  0.22261992  0.33749594
   0.61068051  0.88917589  0.33757104
   0.77733284  0.72259103  0.33751272
Direct configuration=    24
   0.00458599  0.00237377  0.10429998
   0.35967282  0.00237017  0.10101956
   0.00464353  0.35741651  0.10114724
   0.64966062  0.64728177  0.10110219
   0.32842314  0.32602388  0.10131216
   0.68099427  0.00238881  0.10140616
   0.00466468  0.67865250  0.10133251
   0.11072214  0.38927223  0.33749338
   0.27738384  0.22258114  0.33760304
   0.11074043  0.88929831  0.33755100
   0.27740218  0.72261446  0.33745446
   0.61065804  0.38923803  0.33745477
   0.77733611  0.22258575  0.33750287
   0.61064829  0.88921557  0.33758446
   0.77731348  0.72256554  0.33751554
Direct configuration=    25
   0.00459869  0.00236855  0.10424368
   0.35962015  0.00236906  0.10104126
   0.00465258  0.35736590  0.10115291
   0.64972197  0.64732853  0.10111266
   0.32842530  0.32601608  0.10131760
   0.68101105  0.00237828  0.10139260
   0.00466842  0.67863406  0.10133672
   0.11073718  0.38930046  0.33749772
   0.27739525  0.22259929  0.33760775
   0.11073340  0.88930540  0.33755364
   0.27740341  0.72260847  0.33745289
   0.61063915  0.38924845  0.33745432
   0.77730950  0.22256702  0.33750667
   0.61063062  0.88923732  0.33759182
   0.77730287  0.72255157  0.33751708
Direct configuration=    26
   0.00462668  0.00236395  0.10412402
   0.35958738  0.00235867  0.10106675
   0.00467619  0.35734361  0.10115630
   0.64977098  0.64734072  0.10112258
   0.32840730  0.32597140  0.10133953
   0.68106714  0.00235113  0.10138158
   0.00468373  0.67862339  0.10135658
   0.11064974  0.38926868  0.33750442
   0.27734031  0.22260778  0.33761834
   0.11069245  0.88930256  0.33755842
   0.27737111  0.72261074  0.33745473
   0.61066907  0.38925453  0.33745492
   0.77733873  0.22259272  0.33751565
   0.61066785  0.88928779  0.33760264
   0.77730090  0.72260077  0.33752288
Direct configuration=    27
   0.00464277  0.00236131  0.10405523
   0.35956854  0.00235270  0.10108140
   0.00468976  0.35733080  0.10115826
   0.64979916  0.64734773  0.10112828
   0.32839695  0.32594572  0.10135213
   0.68109939  0.00233552  0.10137524
   0.00469253  0.67861725  0.10136800
   0.11059947  0.38925040  0.33750828
   0.27730873  0.22261267  0.33762443
   0.11066890  0.88930093  0.33756116
   0.27735255  0.72261204  0.33745578
   0.61068626  0.38925803  0.33745526
   0.77735553  0.22260749  0.33752082
   0.61068925  0.88931681  0.33760886
   0.77729976  0.72262905  0.33752621
Direct configuration=    28
   0.00465782  0.00235537  0.10396370
   0.35960804  0.00233809  0.10109419
   0.00470735  0.35734797  0.10116057
   0.64978854  0.64730556  0.10113365
   0.32840866  0.32593322  0.10136972
   0.68110947  0.00231587  0.10137255
   0.00470659  0.67860848  0.10138443
   0.11059021  0.38925996  0.33751276
   0.27729514  0.22261666  0.33763165
   0.11066368  0.88931655  0.33756496
   0.27734169  0.72263050  0.33745993
   0.61067218  0.38926859  0.33745773
   0.77734462  0.22262885  0.33752740
   0.61067087  0.88931124  0.33761470
   0.77728470  0.72264151  0.33753142
Direct configuration=    29
   0.00470297  0.00233756  0.10368911
   0.35972655  0.00229426  0.10113256
   0.00476011  0.35739949  0.10116749
   0.64975670  0.64717905  0.10114974
   0.32844378  0.32589574  0.10142246
   0.68113969  0.00225695  0.10136450
   0.00474876  0.67858219  0.10143372
   0.11056244  0.38928864  0.33752619
   0.27725437  0.22262862  0.33765331
   0.11064800  0.88936340  0.33757633
   0.27730911  0.72268589  0.33747235
   0.61062994  0.38930028  0.33746514
   0.77731187  0.22269294  0.33754714
   0.61061575  0.88929455  0.33763222
   0.77723952  0.72267889  0.33754706
Direct configuration=    30
   0.00479328  0.00230193  0.10313994
   0.35996356  0.00220660  0.10120931
   0.00486564  0.35750253  0.10118135
   0.64969301  0.64692602  0.10118192
   0.32851402  0.32582077  0.10152796
   0.68120015  0.00213910  0.10134839
   0.00483310  0.67852959  0.10153230
   0.11050689  0.38934600  0.33755306
   0.27717282  0.22265254  0.33769663
   0.11061664  0.88945709  0.33759909
   0.27724396  0.72279666  0.33749720
   0.61054545  0.38936366  0.33747996
   0.77724636  0.22282113  0.33758661
   0.61050551  0.88926117  0.33766726
   0.77714917  0.72275366  0.33757834
Direct configuration=    31
   0.00480511  0.00229031  0.10304525
   0.35999778  0.00218929  0.10122376
   0.00488102  0.35750372  0.10118963
   0.64969381  0.64689519  0.10119194
   0.32853145  0.32580902  0.10154000
   0.68121013  0.00212340  0.10134467
   0.00484856  0.67852223  0.10154352
   0.11050778  0.38937369  0.33755841
   0.27717229  0.22267584  0.33770219
   0.11059415  0.88946424  0.33760413
   0.27723099  0.72279360  0.33750254
   0.61052302  0.38938140  0.33748523
   0.77721883  0.22280534  0.33759214
   0.61049218  0.88929931  0.33767261
   0.77714245  0.72275185  0.33758328
Direct configuration=    32
   0.00484062  0.00225544  0.10276119
   0.36010043  0.00213737  0.10126711
   0.00492714  0.35750731  0.10121449
   0.64969622  0.64680268  0.10122200
   0.32858375  0.32577377  0.10157613
   0.68124005  0.00207630  0.10133351
   0.00489495  0.67850016  0.10157718
   0.11051047  0.38945676  0.33757448
   0.27717072  0.22274574  0.33771886
   0.11052670  0.88948569  0.33761926
   0.27719207  0.72278443  0.33751857
   0.61045571  0.38943464  0.33750105
   0.77713621  0.22275796  0.33760873
   0.61045219  0.88941375  0.33768865
   0.77712231  0.72274641  0.33759811
Direct configuration=    33
   0.00484317  0.00224268  0.10272143
   0.36008882  0.00212848  0.10127620
   0.00492948  0.35747543  0.10122932
   0.64972456  0.64682054  0.10123503
   0.32859476  0.32576540  0.10156914
   0.68125137  0.00207766  0.10132977
   0.00490353  0.67849598  0.10157053
   0.11049490  0.38945553  0.33757796
   0.27716281  0.22276389  0.33771815
   0.11051373  0.88948175  0.33762321
   0.27718401  0.72278600  0.33752254
   0.61045530  0.38943432  0.33750766
   0.77713150  0.22275979  0.33760904
   0.61045550  0.88943384  0.33768982
   0.77711614  0.72275715  0.33759955
Direct configuration=    34
   0.00485082  0.00220438  0.10260215
   0.36005398  0.00210181  0.10130348
   0.00493647  0.35737980  0.10127380
   0.64980959  0.64687410  0.10127411
   0.32862778  0.32574029  0.10154819
   0.68128530  0.00208174  0.10131855
   0.00492924  0.67848343  0.10155057
   0.11044819  0.38945182  0.33758837
   0.27713907  0.22281833  0.33771600
   0.11047481  0.88946994  0.33763505
   0.27715985  0.72279070  0.33753442
   0.61045404  0.38943333  0.33752750
   0.77711737  0.22276528  0.33760998
   0.61046542  0.88949411  0.33769332
   0.77709763  0.72278938  0.33760384
Direct configuration=    35
   0.00486611  0.00212778  0.10236357
   0.35998430  0.00204847  0.10135805
   0.00495047  0.35718854  0.10136277
   0.64997965  0.64698121  0.10135227
   0.32869382  0.32569006  0.10150628
   0.68135317  0.00208989  0.10129612
   0.00498068  0.67845833  0.10151066
   0.11035477  0.38944440  0.33760920
   0.27709158  0.22292722  0.33771172
   0.11039696  0.88944632  0.33765874
   0.27711152  0.72280011  0.33755818
   0.61045154  0.38943137  0.33756716
   0.77708911  0.22277626  0.33761185
   0.61048526  0.88961465  0.33770034
   0.77706062  0.72285382  0.33761242
Direct configuration=    36
   0.00487593  0.00211355  0.10231064
   0.35997669  0.00203912  0.10136875
   0.00495609  0.35715849  0.10138439
   0.65000444  0.64699182  0.10137055
   0.32871526  0.32568593  0.10149441
   0.68136063  0.00209116  0.10129383
   0.00499314  0.67843806  0.10149957
   0.11035255  0.38946083  0.33761300
   0.27708114  0.22291252  0.33771161
   0.11040098  0.88947392  0.33766350
   0.27710655  0.72281595  0.33756439
   0.61043720  0.38944816  0.33757537
   0.77708223  0.22279660  0.33761292
   0.61046057  0.88959694  0.33770107
   0.77704616  0.72285542  0.33761534
Direct configuration=    37
   0.00490542  0.00207084  0.10215184
   0.35995385  0.00201105  0.10140088
   0.00497294  0.35706833  0.10144926
   0.65007881  0.64702363  0.10142537
   0.32877958  0.32567354  0.10145880
   0.68138300  0.00209494  0.10128698
   0.00503051  0.67837724  0.10146630
   0.11034589  0.38951012  0.33762442
   0.27704981  0.22286841  0.33771130
   0.11041305  0.88955671  0.33767775
   0.27709162  0.72286346  0.33758301
   0.61039420  0.38949854  0.33759999
   0.77706159  0.22285763  0.33761613
   0.61038651  0.88954380  0.33770323
   0.77700278  0.72286021  0.33762407
Direct configuration=    38
   0.00491219  0.00206103  0.10211537
   0.35994860  0.00200460  0.10140826
   0.00497681  0.35704762  0.10146416
   0.65009589  0.64703093  0.10143796
   0.32879435  0.32567070  0.10145062
   0.68138814  0.00209581  0.10128541
   0.00503909  0.67836327  0.10145865
   0.11034436  0.38952144  0.33762705
   0.27704262  0.22285828  0.33771123
   0.11041583  0.88957573  0.33768103
   0.27708819  0.72287438  0.33758728
   0.61038432  0.38951011  0.33760564
   0.77705685  0.22287165  0.33761686
   0.61036950  0.88953159  0.33770373
   0.77699282  0.72286131  0.33762608
Direct configuration=    39
   0.00492487  0.00206464  0.10210275
   0.35997752  0.00200744  0.10140497
   0.00498540  0.35707745  0.10146607
   0.65006606  0.64699456  0.10143837
   0.32880127  0.32567638  0.10144948
   0.68138058  0.00208869  0.10129344
   0.00504178  0.67834475  0.10145813
   0.11035988  0.38953145  0.33762576
   0.27704465  0.22285739  0.33771488
   0.11041224  0.88957796  0.33768026
   0.27708189  0.72288253  0.33758940
   0.61036994  0.38951745  0.33760378
   0.77704505  0.22287050  0.33761965
   0.61035990  0.88952553  0.33770322
   0.77699852  0.72286174  0.33762919
Direct configuration=    40
   0.00496292  0.00207548  0.10206488
   0.36006426  0.00201596  0.10139513
   0.00501115  0.35716693  0.10147179
   0.64997656  0.64688542  0.10143959
   0.32882204  0.32569342  0.10144604
   0.68135790  0.00206731  0.10131752
   0.00504986  0.67828919  0.10145658
   0.11040645  0.38956148  0.33762190
   0.27705075  0.22285471  0.33772582
   0.11040148  0.88958464  0.33767798
   0.27706299  0.72290699  0.33759573
   0.61032680  0.38953947  0.33759819
   0.77700966  0.22286704  0.33762799
   0.61033113  0.88950736  0.33770168
   0.77701560  0.72286302  0.33763853
Direct configuration=    41
   0.00497328  0.00207366  0.10204729
   0.36010146  0.00201761  0.10138710
   0.00502375  0.35719397  0.10147211
   0.64995270  0.64684907  0.10143753
   0.32880919  0.32567983  0.10144537
   0.68137029  0.00205128  0.10133441
   0.00505134  0.67829460  0.10145706
   0.11037542  0.38955202  0.33762060
   0.27703767  0.22286595  0.33773139
   0.11039483  0.88958521  0.33767747
   0.27706031  0.72290404  0.33759719
   0.61033901  0.38953584  0.33759496
   0.77701797  0.22287606  0.33763174
   0.61033978  0.88952572  0.33770259
   0.77700255  0.72287357  0.33764251
Direct configuration=    42
   0.00499021  0.00207068  0.10201856
   0.36016226  0.00202031  0.10137399
   0.00504435  0.35723817  0.10147262
   0.64991371  0.64678966  0.10143417
   0.32878819  0.32565762  0.10144427
   0.68139056  0.00202507  0.10136201
   0.00505378  0.67830345  0.10145785
   0.11032470  0.38953657  0.33761849
   0.27701628  0.22288433  0.33774051
   0.11038396  0.88958613  0.33767665
   0.27705592  0.72289921  0.33759958
   0.61035897  0.38952990  0.33758967
   0.77703154  0.22289080  0.33763787
   0.61035392  0.88955573  0.33770407
   0.77698122  0.72289081  0.33764903
Direct configuration=    43
   0.00499245  0.00205800  0.10199599
   0.36017938  0.00201541  0.10136498
   0.00505551  0.35723184  0.10147348
   0.64992538  0.64678348  0.10143232
   0.32877192  0.32563402  0.10144157
   0.68141759  0.00200704  0.10138342
   0.00505699  0.67832465  0.10145672
   0.11032912  0.38955449  0.33761993
   0.27701703  0.22288853  0.33774462
   0.11038039  0.88959778  0.33767892
   0.27705343  0.72290413  0.33759893
   0.61034416  0.38954047  0.33758877
   0.77701647  0.22289040  0.33764002
   0.61033749  0.88955998  0.33770830
   0.77697225  0.72288822  0.33765136
Direct configuration=    44
   0.00499567  0.00203977  0.10196357
   0.36020397  0.00200837  0.10135205
   0.00507156  0.35722275  0.10147472
   0.64994215  0.64677460  0.10142966
   0.32874855  0.32560010  0.10143768
   0.68145643  0.00198113  0.10141417
   0.00506161  0.67835512  0.10145509
   0.11033547  0.38958025  0.33762200
   0.27701810  0.22289456  0.33775052
   0.11037526  0.88961451  0.33768219
   0.27704985  0.72291120  0.33759799
   0.61032288  0.38955566  0.33758749
   0.77699481  0.22288983  0.33764311
   0.61031388  0.88956610  0.33771437
   0.77695937  0.72288451  0.33765472
Direct configuration=    45
   0.00500367  0.00202577  0.10193436
   0.36020316  0.00199730  0.10134574
   0.00508233  0.35719840  0.10147863
   0.64996975  0.64677912  0.10143087
   0.32876778  0.32559838  0.10143036
   0.68146274  0.00196860  0.10143595
   0.00507362  0.67833986  0.10144964
   0.11033230  0.38958136  0.33762631
   0.27700312  0.22290250  0.33775262
   0.11036227  0.88961646  0.33768713
   0.27703056  0.72293281  0.33759671
   0.61030876  0.38956344  0.33759009
   0.77698453  0.22290826  0.33764403
   0.61030554  0.88956171  0.33772113
   0.77695944  0.72290448  0.33765576
Direct configuration=    46
   0.00501753  0.00200154  0.10188377
   0.36020175  0.00197814  0.10133481
   0.00510098  0.35715622  0.10148538
   0.65001755  0.64678696  0.10143296
   0.32880108  0.32559541  0.10141768
   0.68147367  0.00194690  0.10147367
   0.00509442  0.67831342  0.10144022
   0.11032681  0.38958327  0.33763377
   0.27697718  0.22291626  0.33775627
   0.11033977  0.88961983  0.33769569
   0.27699715  0.72297023  0.33759448
   0.61028430  0.38957691  0.33759459
   0.77696671  0.22294017  0.33764563
   0.61029110  0.88955410  0.33773284
   0.77695957  0.72293907  0.33765757
Direct configuration=    47
   0.00502877  0.00199406  0.10186118
   0.36019961  0.00196845  0.10133341
   0.00510917  0.35713829  0.10148987
   0.65003510  0.64678636  0.10143596
   0.32882509  0.32559839  0.10141052
   0.68147158  0.00194163  0.10148584
   0.00510701  0.67828936  0.10143429
   0.11031081  0.38959368  0.33763689
   0.27696766  0.22292131  0.33775753
   0.11033062  0.88963248  0.33769900
   0.27699095  0.72296999  0.33759498
   0.61027968  0.38958721  0.33759732
   0.77696119  0.22294342  0.33764680
   0.61028455  0.88957135  0.33773697
   0.77694778  0.72294246  0.33765876
Direct configuration=    48
   0.00506247  0.00197164  0.10179341
   0.36019320  0.00193938  0.10132920
   0.00513373  0.35708449  0.10150334
   0.65008775  0.64678456  0.10144497
   0.32889711  0.32560731  0.10138906
   0.68146529  0.00192583  0.10152237
   0.00514480  0.67821717  0.10141652
   0.11026281  0.38962490  0.33764625
   0.27693911  0.22293645  0.33776129
   0.11030317  0.88967043  0.33770893
   0.27697236  0.72296929  0.33759648
   0.61026581  0.38961810  0.33760551
   0.77694464  0.22295317  0.33765031
   0.61026491  0.88962307  0.33774936
   0.77691240  0.72295264  0.33766236
Direct configuration=    49
   0.00507552  0.00196643  0.10177375
   0.36020049  0.00192914  0.10133418
   0.00514199  0.35707405  0.10150884
   0.65009518  0.64677445  0.10145052
   0.32890690  0.32559371  0.10138198
   0.68147598  0.00192338  0.10152326
   0.00515717  0.67820748  0.10140994
   0.11025641  0.38963276  0.33764720
   0.27693676  0.22295566  0.33776306
   0.11029843  0.88967366  0.33770953
   0.27697023  0.72297931  0.33760092
   0.61025646  0.38961860  0.33760778
   0.77693080  0.22296137  0.33765341
   0.61025176  0.88962900  0.33774954
   0.77689546  0.72295944  0.33766543
Direct configuration=    50
   0.00511467  0.00195079  0.10171479
   0.36022235  0.00189843  0.10134912
   0.00516677  0.35704273  0.10152532
   0.65011744  0.64674410  0.10146719
   0.32893628  0.32555290  0.10136076
   0.68150808  0.00191605  0.10152594
   0.00519431  0.67817840  0.10139018
   0.11023722  0.38965634  0.33765008
   0.27692968  0.22301328  0.33776838
   0.11028421  0.88968334  0.33771134
   0.27696387  0.72300937  0.33761423
   0.61022841  0.38962012  0.33761459