  15  15   0  16
  0.2033749E+02  0.4846000E-09  0.4846000E-09  0.1500000E-08  0.5000000E-15
  1.000000000000000E-004
  CAR 
 Lattice                                 
     10.28980256    -21.65913256  301     -0.28083191      1.00000000
    -21.659  0.0000E+00  0.0000E+00
    -21.553  0.0000E+00  0.0000E+00
    -21.446  0.0000E+00  0.0000E+00
    -21.340  0.0000E+00  0.0000E+00
    -21.233  0.0000E+00  0.0000E+00
    -21.127  0.0000E+00  0.0000E+00
    -21.020  0.0000E+00  0.0000E+00
    -20.914  0.0000E+00  0.0000E+00
    -20.807  0.0000E+00  0.0000E+00
    -20.701  0.7895E-15  0.8408E-16
    -20.594  0.1293E-10  0.1377E-11
    -20.488  0.2574E-07  0.2742E-08
    -20.381  0.6848E-05  0.7321E-06
    -20.275  0.2719E-03  0.2969E-04
    -20.168  0.1972E-02  0.2397E-03
    -20.062  0.4146E-02  0.6812E-03
    -19.955  0.4515E-02  0.1162E-02
    -19.849  0.4935E-02  0.1688E-02
    -19.742  0.4151E-02  0.2130E-02
    -19.636  0.5368E-02  0.2701E-02
    -19.529  0.4243E-02  0.3153E-02
    -19.423  0.4211E-02  0.3602E-02
    -19.316  0.6008E-02  0.4241E-02
    -19.210  0.3871E-02  0.4654E-02
    -19.103  0.3808E-02  0.5059E-02
    -18.997  0.6089E-02  0.5708E-02
    -18.890  0.5264E-02  0.6268E-02
    -18.784  0.3020E-02  0.6590E-02
    -18.677  0.4212E-02  0.7039E-02
    -18.571  0.6929E-02  0.7776E-02
    -18.464  0.4657E-02  0.8272E-02
    -18.358  0.3823E-02  0.8680E-02
    -18.251  0.2927E-02  0.8991E-02
    -18.145  0.6427E-02  0.9676E-02
    -18.038  0.6752E-02  0.1039E-01
    -17.932  0.3680E-02  0.1079E-01
    -17.825  0.3197E-02  0.1113E-01
    -17.719  0.4064E-02  0.1156E-01
    -17.612  0.6025E-02  0.1220E-01
    -17.506  0.7029E-02  0.1295E-01
    -17.399  0.6891E-02  0.1368E-01
    -17.293  0.8303E-02  0.1457E-01
    -17.186  0.1049E-01  0.1569E-01
    -17.080  0.1485E-01  0.1727E-01
    -16.973  0.1656E-01  0.1903E-01
    -16.867  0.1928E-01  0.2108E-01
    -16.760  0.2099E-01  0.2332E-01
    -16.654  0.1183E-01  0.2458E-01
    -16.547  0.2927E-02  0.2489E-01
    -16.441  0.6516E-02  0.2558E-01
    -16.334  0.8508E-02  0.2649E-01
    -16.228  0.4705E-02  0.2699E-01
    -16.121  0.4214E-02  0.2744E-01
    -16.015  0.3811E-02  0.2785E-01
    -15.908  0.3941E-02  0.2827E-01
    -15.802  0.3391E-02  0.2863E-01
    -15.695  0.7595E-02  0.2944E-01
    -15.589  0.8490E-02  0.3034E-01
    -15.482  0.4197E-02  0.3079E-01
    -15.376  0.3872E-02  0.3120E-01
    -15.269  0.3345E-02  0.3156E-01
    -15.163  0.4452E-02  0.3203E-01
    -15.056  0.6473E-02  0.3272E-01
    -14.950  0.1279E-01  0.3408E-01
    -14.843  0.1893E-01  0.3610E-01
    -14.737  0.1908E-01  0.3813E-01
    -14.630  0.1591E-01  0.3982E-01
    -14.524  0.1047E-01  0.4094E-01
    -14.417  0.8322E-02  0.4182E-01
    -14.311  0.1334E-01  0.4324E-01
    -14.204  0.1616E-01  0.4497E-01
    -14.098  0.1315E-01  0.4637E-01
    -13.991  0.1058E-01  0.4749E-01
    -13.885  0.1431E-01  0.4902E-01
    -13.778  0.1908E-01  0.5105E-01
    -13.672  0.1782E-01  0.5295E-01
    -13.565  0.1707E-01  0.5476E-01
    -13.459  0.9460E-02  0.5577E-01
    -13.352  0.5832E-02  0.5639E-01
    -13.246  0.3528E-02  0.5677E-01
    -13.139  0.3617E-02  0.5715E-01
    -13.033  0.6382E-02  0.5783E-01
    -12.926  0.7286E-02  0.5861E-01
    -12.820  0.4872E-02  0.5913E-01
    -12.713  0.6297E-02  0.5980E-01
    -12.607  0.7314E-02  0.6058E-01
    -12.500  0.5672E-02  0.6118E-01
    -12.394  0.5588E-02  0.6178E-01
    -12.287  0.3601E-02  0.6216E-01
    -12.181  0.5301E-02  0.6272E-01
    -12.074  0.8479E-02  0.6363E-01
    -11.968  0.4154E-02  0.6407E-01
    -11.861  0.3085E-02  0.6440E-01
    -11.755  0.3429E-02  0.6476E-01
    -11.648  0.5157E-02  0.6531E-01
    -11.542  0.7053E-02  0.6606E-01
    -11.435  0.4608E-02  0.6655E-01
    -11.329  0.1828E-02  0.6675E-01
    -11.222  0.3996E-02  0.6717E-01
    -11.116  0.5829E-02  0.6779E-01
    -11.009  0.5266E-02  0.6836E-01
    -10.903  0.6865E-02  0.6909E-01
    -10.796  0.7451E-02  0.6988E-01
    -10.690  0.3217E-02  0.7022E-01
    -10.584  0.8074E-02  0.7108E-01
    -10.477  0.1397E-01  0.7257E-01
    -10.371  0.1519E-01  0.7419E-01
    -10.264  0.1518E-01  0.7580E-01
    -10.158  0.1590E-01  0.7750E-01
    -10.051  0.1720E-01  0.7933E-01
     -9.945  0.1586E-01  0.8102E-01
     -9.838  0.1057E-01  0.8214E-01
     -9.732  0.1026E-01  0.8324E-01
     -9.625  0.1333E-01  0.8466E-01
     -9.519  0.1125E-01  0.8585E-01
     -9.412  0.1644E-01  0.8761E-01
     -9.306  0.1962E-01  0.8969E-01
     -9.199  0.1357E-01  0.9114E-01
     -9.093  0.9016E-02  0.9210E-01
     -8.986  0.6860E-02  0.9283E-01
     -8.880  0.1700E-01  0.9464E-01
     -8.773  0.2113E-01  0.9689E-01
     -8.667  0.1280E-01  0.9825E-01
     -8.560  0.8275E-02  0.9913E-01
     -8.454  0.1222E-01  0.1004E+00
     -8.347  0.1896E-01  0.1025E+00
     -8.241  0.1713E-01  0.1043E+00
     -8.134  0.1332E-01  0.1057E+00
     -8.028  0.1750E-01  0.1076E+00
     -7.921  0.2291E-01  0.1100E+00
     -7.815  0.2462E-01  0.1126E+00
     -7.708  0.1914E-01  0.1147E+00
     -7.602  0.1140E-01  0.1159E+00
     -7.495  0.6856E-02  0.1166E+00
     -7.389  0.1594E-01  0.1183E+00
     -7.282  0.1899E-01  0.1203E+00
     -7.176  0.1344E-01  0.1218E+00
     -7.069  0.1097E-01  0.1229E+00
     -6.963  0.1531E-01  0.1246E+00
     -6.856  0.1822E-01  0.1265E+00
     -6.750  0.1922E-01  0.1285E+00
     -6.643  0.2245E-01  0.1309E+00
     -6.537  0.1968E-01  0.1330E+00
     -6.430  0.2147E-01  0.1353E+00
     -6.324  0.1791E-01  0.1372E+00
     -6.217  0.1811E-01  0.1392E+00
     -6.111  0.2586E-01  0.1419E+00
     -6.004  0.2504E-01  0.1446E+00
     -5.898  0.3032E-01  0.1478E+00
     -5.791  0.2687E-01  0.1507E+00
     -5.685  0.1920E-01  0.1527E+00
     -5.578  0.2094E-01  0.1549E+00
     -5.472  0.3254E-01  0.1584E+00
     -5.365  0.3437E-01  0.1621E+00
     -5.259  0.2063E-01  0.1643E+00
     -5.152  0.1617E-01  0.1660E+00
     -5.046  0.1077E-01  0.1671E+00
     -4.939  0.1050E-01  0.1682E+00
     -4.833  0.1364E-01  0.1697E+00
     -4.726  0.1145E-01  0.1709E+00
     -4.620  0.7968E-02  0.1718E+00
     -4.513  0.8689E-02  0.1727E+00
     -4.407  0.1571E-01  0.1744E+00
     -4.300  0.2419E-01  0.1769E+00
     -4.194  0.2228E-01  0.1793E+00
     -4.087  0.1714E-01  0.1811E+00
     -3.981  0.1889E-01  0.1832E+00
     -3.874  0.2456E-01  0.1858E+00
     -3.768  0.1943E-01  0.1878E+00
     -3.661  0.1931E-01  0.1899E+00
     -3.555  0.1997E-01  0.1920E+00
     -3.448  0.1643E-01  0.1938E+00
     -3.342  0.1252E-01  0.1951E+00
     -3.235  0.1252E-01  0.1964E+00
     -3.129  0.1785E-01  0.1983E+00
     -3.022  0.1775E-01  0.2002E+00
     -2.916  0.1232E-01  0.2015E+00
     -2.809  0.1233E-01  0.2029E+00
     -2.703  0.8574E-02  0.2038E+00
     -2.596  0.9437E-02  0.2048E+00
     -2.490  0.1635E-01  0.2065E+00
     -2.383  0.1774E-01  0.2084E+00
     -2.277  0.5641E-02  0.2090E+00
     -2.170  0.5232E-02  0.2096E+00
     -2.064  0.9458E-02  0.2106E+00
     -1.957  0.9282E-02  0.2116E+00
     -1.851  0.1051E-01  0.2127E+00
     -1.744  0.1100E-01  0.2138E+00
     -1.638  0.1033E-01  0.2149E+00
     -1.531  0.8728E-02  0.2159E+00
     -1.425  0.3819E-02  0.2163E+00
     -1.318  0.3954E-02  0.2167E+00
     -1.212  0.4589E-02  0.2172E+00
     -1.105  0.3095E-02  0.2175E+00
     -0.999  0.4887E-02  0.2180E+00
     -0.892  0.4406E-02  0.2185E+00
     -0.786  0.1114E-02  0.2186E+00
     -0.679  0.1019E-03  0.2186E+00
     -0.573  0.2233E-05  0.2186E+00
     -0.466  0.8838E-05  0.2186E+00
     -0.360  0.2599E-03  0.2187E+00
     -0.253  0.1058E-02  0.2188E+00
     -0.147  0.6514E-03  0.2189E+00
     -0.040  0.5853E-04  0.2189E+00
      0.066  0.6884E-06  0.2189E+00
      0.173  0.3067E-05  0.2189E+00
      0.279  0.2249E-03  0.2189E+00
      0.386  0.2162E-02  0.2191E+00
      0.492  0.3067E-02  0.2194E+00
      0.599  0.1210E-02  0.2196E+00
      0.705  0.3919E-02  0.2200E+00
      0.812  0.7115E-02  0.2207E+00
      0.918  0.1203E-01  0.2220E+00
      1.025  0.2377E-01  0.2246E+00
      1.131  0.1809E-01  0.2265E+00
      1.238  0.4197E-02  0.2269E+00
      1.344  0.9650E-03  0.2270E+00
      1.451  0.4168E-02  0.2275E+00
      1.557  0.1394E-01  0.2290E+00
      1.664  0.2061E-01  0.2312E+00
      1.770  0.1486E-01  0.2327E+00
      1.877  0.9796E-02  0.2338E+00
      1.983  0.8651E-02  0.2347E+00
      2.090  0.9894E-02  0.2358E+00
      2.196  0.7102E-02  0.2365E+00
      2.303  0.8991E-02  0.2375E+00
      2.409  0.6367E-02  0.2381E+00
      2.516  0.6012E-02  0.2388E+00
      2.622  0.1360E-01  0.2402E+00
      2.729  0.1012E-01  0.2413E+00
      2.835  0.4960E-02  0.2418E+00
      2.942  0.6282E-02  0.2425E+00
      3.048  0.9985E-02  0.2436E+00
      3.155  0.1218E-01  0.2449E+00
      3.261  0.9602E-02  0.2459E+00
      3.368  0.1063E-01  0.2470E+00
      3.474  0.8316E-02  0.2479E+00
      3.581  0.1631E-01  0.2497E+00
      3.687  0.2430E-01  0.2522E+00
      3.794  0.2432E-01  0.2548E+00
      3.900  0.2208E-01  0.2572E+00
      4.007  0.2173E-01  0.2595E+00
      4.113  0.2634E-01  0.2623E+00
      4.220  0.2647E-01  0.2651E+00
      4.326  0.2301E-01  0.2676E+00
      4.432  0.2408E-01  0.2701E+00
      4.539  0.2316E-01  0.2726E+00
      4.645  0.1897E-01  0.2746E+00
      4.752  0.2639E-01  0.2774E+00
      4.858  0.2832E-01  0.2804E+00
      4.965  0.2164E-01  0.2827E+00
      5.071  0.2391E-01  0.2853E+00
      5.178  0.2614E-01  0.2881E+00
      5.284  0.2147E-01  0.2904E+00
      5.391  0.2158E-01  0.2927E+00
      5.497  0.2380E-01  0.2952E+00
      5.604  0.2810E-01  0.2982E+00
      5.710  0.2175E-01  0.3005E+00
      5.817  0.2168E-01  0.3028E+00
      5.923  0.2031E-01  0.3050E+00
      6.030  0.2137E-01  0.3073E+00
      6.136  0.1631E-01  0.3090E+00
      6.243  0.1672E-01  0.3108E+00
      6.349  0.2302E-01  0.3132E+00
      6.456  0.2346E-01  0.3157E+00
      6.562  0.2560E-01  0.3184E+00
      6.669  0.2608E-01  0.3212E+00
      6.775  0.3402E-01  0.3248E+00
      6.882  0.2846E-01  0.3279E+00
      6.988  0.2488E-01  0.3305E+00
      7.095  0.2535E-01  0.3332E+00
      7.201  0.2166E-01  0.3355E+00
      7.308  0.1770E-01  0.3374E+00
      7.414  0.2175E-01  0.3397E+00
      7.521  0.2315E-01  0.3422E+00
      7.627  0.2157E-01  0.3445E+00
      7.734  0.2642E-01  0.3473E+00
      7.840  0.3217E-01  0.3507E+00
      7.947  0.3133E-01  0.3541E+00
      8.053  0.3128E-01  0.3574E+00
      8.160  0.3286E-01  0.3609E+00
      8.266  0.2796E-01  0.3639E+00
      8.373  0.3536E-01  0.3677E+00
      8.479  0.3452E-01  0.3713E+00
      8.586  0.1761E-01  0.3732E+00
      8.692  0.9191E-02  0.3742E+00
      8.799  0.4416E-02  0.3747E+00
      8.905  0.2676E-02  0.3749E+00
      9.012  0.5676E-03  0.3750E+00
      9.118  0.2155E-04  0.3750E+00
      9.225  0.1103E-06  0.3750E+00
      9.331  0.6633E-10  0.3750E+00
      9.438  0.4425E-14  0.3750E+00
      9.544  0.0000E+00  0.3750E+00
      9.651  0.0000E+00  0.3750E+00
      9.757  0.0000E+00  0.3750E+00
      9.864  0.0000E+00  0.3750E+00
      9.970  0.0000E+00  0.3750E+00
     10.077  0.0000E+00  0.3750E+00
     10.183  0.0000E+00  0.3750E+00
     10.290  0.0000E+00  0.3750E+00
