Lattice                                 
           1
     4.196759    2.423000    0.000000
    -4.196759    2.423000    0.000000
     0.000000    0.000000   15.000000
   B    C 
     4    11
Direct configuration=     1
   0.00415361  0.00267210  0.12034134
   0.35695335  0.00285503  0.09748893
   0.00423858  0.35550699  0.09749256
   0.65142295  0.65006557  0.09747688
   0.32808646  0.32671938  0.10030508
   0.68027775  0.00278085  0.10027562
   0.00416530  0.67883808  0.10026559
   0.16666600  0.33333300  0.33600000
   0.33333300  0.16666600  0.33600000
   0.16666600  0.83333300  0.33600000
   0.33333300  0.66666600  0.33600000
   0.66666600  0.33333300  0.33600000
   0.83333300  0.16666600  0.33600000
   0.66666600  0.83333300  0.33600000
   0.83333300  0.66666600  0.33600000
Direct configuration=     2
   0.00418479  0.00275048  0.11895946
   0.35589952  0.00280337  0.09784199
   0.00419539  0.35446637  0.09784492
   0.65244747  0.65105862  0.09783770
   0.32472484  0.32332191  0.10031264
   0.68366061  0.00280202  0.10029387
   0.00420291  0.68224714  0.10028749
   0.16658556  0.33342482  0.33607154
   0.33342523  0.16658835  0.33607265
   0.16683008  0.83339982  0.33607442
   0.33333503  0.66667243  0.33591615
   0.66667153  0.33333134  0.33591613
   0.83339699  0.16682764  0.33607426
   0.66657185  0.83316701  0.33607189
   0.83316220  0.66657268  0.33607092
Direct configuration=     3
   0.00417002  0.00271337  0.11961379
   0.35639852  0.00282783  0.09767481
   0.00421584  0.35495911  0.09767807
   0.65196235  0.65058840  0.09766685
   0.32631660  0.32493064  0.10030906
   0.68205880  0.00279200  0.10028523
   0.00418510  0.68063292  0.10027712
   0.16662365  0.33338134  0.33603766
   0.33338156  0.16662512  0.33603825
   0.16675239  0.83336818  0.33603918
   0.33333407  0.66666939  0.33595585
   0.66666891  0.33333213  0.33595584
   0.83336669  0.16675110  0.33603910
   0.66661643  0.83324561  0.33603785
   0.83324307  0.66661687  0.33603734
Direct configuration=     4
   0.00418685  0.00277398  0.11828901
   0.35695560  0.00278279  0.09802926
   0.00418259  0.35553792  0.09803176
   0.65140814  0.65000398  0.09802959
   0.32647011  0.32505534  0.10027814
   0.68191973  0.00279714  0.10026561
   0.00420538  0.68050744  0.10026076
   0.16671302  0.33328470  0.33610950
   0.33328316  0.16671384  0.33611105
   0.16656513  0.83328258  0.33611342
   0.33332859  0.66666021  0.33589820
   0.66665916  0.33333126  0.33589818
   0.83328240  0.16656771  0.33611314
   0.66670784  0.83342611  0.33610983
   0.83342630  0.66670901  0.33610855
Direct configuration=     5
   0.00423731  0.00295582  0.11431468
   0.35862686  0.00264767  0.09909260
   0.00408283  0.35727436  0.09909283
   0.64974548  0.64825069  0.09911782
   0.32693066  0.32542943  0.10018539
   0.68150252  0.00281255  0.10020675
   0.00426623  0.68013100  0.10021168
   0.16698112  0.33299477  0.33632502
   0.33298796  0.16698001  0.33632944
   0.16600335  0.83302577  0.33633612
   0.33331217  0.66663267  0.33572523
   0.66662990  0.33332867  0.33572519
   0.83302955  0.16601756  0.33633528
   0.66698205  0.83396760  0.33632578
   0.83397599  0.66698543  0.33632218
Direct configuration=     6
   0.00423844  0.00296182  0.11370188
   0.35875908  0.00264124  0.09921425
   0.00408242  0.35741407  0.09921431
   0.64962103  0.64811871  0.09924180
   0.32706421  0.32556003  0.10021367
   0.68137323  0.00280646  0.10023898
   0.00426352  0.68000596  0.10024492
   0.16680908  0.33314064  0.33634713
   0.33313451  0.16680991  0.33635169
   0.16631970  0.83318445  0.33635850
   0.33331366  0.66664353  0.33573471
   0.66663967  0.33332512  0.33573468
   0.83318403  0.16632944  0.33635758
   0.66683494  0.83365379  0.33634779
   0.83365648  0.66683881  0.33634411
Direct configuration=     7
   0.00424097  0.00297542  0.11231499
   0.35905831  0.00262669  0.09948956
   0.00408151  0.35773026  0.09948925
   0.64933938  0.64782002  0.09952241
   0.32736648  0.32585561  0.10027767
   0.68108063  0.00279267  0.10031191
   0.00425737  0.67972298  0.10032014
   0.16641970  0.33347075  0.33639716
   0.33346616  0.16642495  0.33640205
   0.16703568  0.83354359  0.33640915
   0.33331701  0.66666812  0.33575617
   0.66666178  0.33331709  0.33575614
   0.83353365  0.16703530  0.33640806
   0.66650200  0.83294359  0.33639758
   0.83293338  0.66650697  0.33639375
Direct configuration=     8
   0.00423693  0.00295692  0.11165516
   0.35900343  0.00264083  0.09956544
   0.00410052  0.35767646  0.09956526
   0.64940549  0.64788887  0.09959847
   0.32747510  0.32597483  0.10036392
   0.68097179  0.00277997  0.10040023
   0.00424264  0.67961335  0.10040877
   0.16644481  0.33349731  0.33640560
   0.33349320  0.16645226  0.33641024
   0.16702686  0.83351126  0.33641679
   0.33331958  0.66666855  0.33581626
   0.66666162  0.33331803  0.33581625
   0.83350093  0.16702643  0.33641565
   0.66647379  0.83294928  0.33640574
   0.83293733  0.66647964  0.33640222
Direct configuration=     9
   0.00422481  0.00290140  0.10967565
   0.35883877  0.00268327  0.09979307
   0.00415756  0.35751507  0.09979329
   0.64960382  0.64809545  0.09982662
   0.32780097  0.32633248  0.10062267
   0.68064527  0.00274189  0.10066518
   0.00419843  0.67928446  0.10067468
   0.16652015  0.33357700  0.33643095
   0.33357430  0.16653417  0.33643480
   0.16700040  0.83341429  0.33643970
   0.33332729  0.66666983  0.33599653
   0.66666112  0.33332087  0.33599657
   0.83340276  0.16699984  0.33643842
   0.66638919  0.83296636  0.33643022
   0.83294916  0.66639762  0.33642765
Direct configuration=    10
   0.00420056  0.00279038  0.10571664
   0.35850946  0.00276815  0.10024833
   0.00427165  0.35719229  0.10024933
   0.65000048  0.64850860  0.10028292
   0.32845272  0.32704778  0.10114017
   0.67999222  0.00266573  0.10119507
   0.00411003  0.67862667  0.10120651
   0.16667082  0.33373638  0.33648164
   0.33373651  0.16669801  0.33648392
   0.16694748  0.83322033  0.33648554
   0.33334271  0.66667239  0.33635708
   0.66666013  0.33332655  0.33635720
   0.83320643  0.16694664  0.33648397
   0.66621997  0.83300051  0.33647917
   0.83297284  0.66623359  0.33647851
Direct configuration=    11
   0.00424106  0.00283078  0.10432747
   0.35881754  0.00281765  0.10048086
   0.00429186  0.35743899  0.10048261
   0.64964985  0.64819848  0.10051023
   0.32812791  0.32673823  0.10123924
   0.68028497  0.00272447  0.10129071
   0.00415166  0.67886976  0.10130103
   0.16661500  0.33287078  0.33650756
   0.33284921  0.16660997  0.33650921
   0.16629157  0.83337692  0.33650988
   0.33325971  0.66662583  0.33648428
   0.66662066  0.33329520  0.33648439
   0.83336857  0.16630930  0.33650841
   0.66707129  0.83365210  0.33650510
   0.83365315  0.66707552  0.33650502
Direct configuration=    12
   0.00422586  0.00281562  0.10484877
   0.35870193  0.00279907  0.10039360
   0.00428427  0.35734641  0.10039507
   0.64978143  0.64831486  0.10042493
   0.32824980  0.32685439  0.10120206
   0.68017511  0.00270243  0.10125482
   0.00413604  0.67877854  0.10126556
   0.16663595  0.33319561  0.33649784
   0.33318218  0.16664301  0.33649972
   0.16653771  0.83331816  0.33650075
   0.33329086  0.66664330  0.33643655
   0.66663547  0.33330696  0.33643666
   0.83330772  0.16654847  0.33649924
   0.66675182  0.83340758  0.33649537
   0.83339785  0.66675958  0.33649507
Direct configuration=    13
   0.00424778  0.00284857  0.10448467
   0.35911384  0.00281198  0.10052775
   0.00426345  0.35771086  0.10052961
   0.64932851  0.64789178  0.10055344
   0.32788022  0.32647580  0.10114511
   0.68053617  0.00277083  0.10119022
   0.00419545  0.67910893  0.10119923
   0.16655683  0.33321793  0.33651705
   0.33320614  0.16656330  0.33651881
   0.16662490  0.83340088  0.33652000
   0.33329321  0.66663419  0.33645571
   0.66662076  0.33330814  0.33645577
   0.83339138  0.16663957  0.33651864
   0.66671929  0.83331969  0.33651516
   0.83331606  0.66673156  0.33651483
Direct configuration=    14
   0.00426402  0.00287296  0.10421501
   0.35941890  0.00282154  0.10062710
   0.00424803  0.35798078  0.10062925
   0.64899307  0.64757844  0.10064862
   0.32760650  0.32619541  0.10110292
   0.68080357  0.00282148  0.10114237
   0.00423946  0.67935363  0.10115011
   0.16649824  0.33323446  0.33653129
   0.33322389  0.16650426  0.33653294
   0.16668948  0.83346214  0.33653426
   0.33329495  0.66662744  0.33646990
   0.66660987  0.33330902  0.33646993
   0.83345335  0.16670703  0.33653302
   0.66669519  0.83325460  0.33652981
   0.83325548  0.66671082  0.33652946
Direct configuration=    15
   0.00421810  0.00279808  0.10399808
   0.35959365  0.00280632  0.10072535
   0.00422063  0.35816169  0.10072755
   0.64883945  0.64743029  0.10074141
   0.32774560  0.32631812  0.10104113
   0.68071267  0.00283164  0.10107131
   0.00425362  0.67928524  0.10107715
   0.16673763  0.33341629  0.33655447
   0.33340308  0.16675181  0.33655618
   0.16664110  0.83318195  0.33655803
   0.33329632  0.66666297  0.33646576
   0.66665719  0.33330431  0.33646576
   0.83316454  0.16664321  0.33655691
   0.66653488  0.83330073  0.33655373
   0.83327553  0.66654134  0.33655317
Direct configuration=    16
   0.00423246  0.00282150  0.10406592
   0.35953900  0.00281108  0.10069463
   0.00422920  0.35810512  0.10069681
   0.64888749  0.64747662  0.10071239
   0.32770210  0.32627975  0.10106045
   0.68074110  0.00282846  0.10109353
   0.00424919  0.67930663  0.10109997
   0.16666277  0.33335943  0.33654722
   0.33334704  0.16667440  0.33654892
   0.16665623  0.83326957  0.33655060
   0.33329589  0.66665186  0.33646706
   0.66664239  0.33330578  0.33646707
   0.83325485  0.16666317  0.33654944
   0.66658501  0.83328630  0.33654625
   0.83326926  0.66659434  0.33654576
Direct configuration=    17
   0.00419705  0.00276267  0.10394085
   0.35947710  0.00279969  0.10074281
   0.00421796  0.35805980  0.10074495
   0.64897727  0.64756112  0.10075665
   0.32790777  0.32647735  0.10102668
   0.68057064  0.00281589  0.10105205
   0.00424089  0.67915829  0.10105694
   0.16661766  0.33331672  0.33656675
   0.33330677  0.16663331  0.33656855
   0.16663482  0.83331066  0.33657073
   0.33330415  0.66664448  0.33645873
   0.66663294  0.33331220  0.33645873
   0.83329976  0.16664604  0.33656966
   0.66662318  0.83330039  0.33656633
   0.83328603  0.66663540  0.33656560
Direct configuration=    18
   0.00418219  0.00273798  0.10388835
   0.35945111  0.00279491  0.10076303
   0.00421324  0.35804078  0.10076516
   0.64901496  0.64759659  0.10077523
   0.32799410  0.32656029  0.10101250
   0.68049909  0.00281061  0.10103465
   0.00423741  0.67909602  0.10103888
   0.16659873  0.33329879  0.33657494
   0.33328986  0.16661607  0.33657679
   0.16662584  0.83332791  0.33657918
   0.33330761  0.66664138  0.33645523
   0.66662897  0.33331489  0.33645523
   0.83331861  0.16663885  0.33657815
   0.66663921  0.83330630  0.33657475
   0.83329306  0.66665264  0.33657393
Direct configuration=    19
   0.00420268  0.00276776  0.10374375
   0.35929308  0.00280619  0.10078883
   0.00422283  0.35787388  0.10079096
   0.64916912  0.64774898  0.10079716
   0.32795422  0.32652551  0.10100034
   0.68052463  0.00281323  0.10101400
   0.00423588  0.67910885  0.10101648
   0.16658765  0.33329107  0.33659614
   0.33327581  0.16659410  0.33659808
   0.16667808  0.83335781  0.33660081
   0.33328353  0.66664167  0.33645400
   0.66662955  0.33329946  0.33645399
   0.83334214  0.16668861  0.33659990
   0.66664256  0.83326346  0.33659631
   0.83325223  0.66665341  0.33659525
Direct configuration=    20
   0.00421123  0.00278019  0.10368342
   0.35922714  0.00281090  0.10079960
   0.00422684  0.35780424  0.10080172
   0.64923345  0.64781257  0.10080632
   0.32793758  0.32651099  0.10099527
   0.68053529  0.00281432  0.10100538
   0.00423524  0.67911420  0.10100714
   0.16658303  0.33328786  0.33660499
   0.33326995  0.16658493  0.33660696
   0.16669988  0.83337029  0.33660984
   0.33327348  0.66664180  0.33645348
   0.66662979  0.33329302  0.33645347
   0.83335197  0.16670938  0.33660898
   0.66664395  0.83324558  0.33660530
   0.83323520  0.66665373  0.33660415
Direct configuration=    21
   0.00423920  0.00282268  0.10351725
   0.35918475  0.00282283  0.10080625
   0.00423944  0.35775130  0.10080840
   0.64926763  0.64784514  0.10080988
   0.32787970  0.32645960  0.10100074
   0.68057341  0.00281738  0.10100285
   0.00423506  0.67913702  0.10100301
   0.16662001  0.33332488  0.33662608
   0.33331559  0.16663667  0.33662806
   0.16662504  0.83330518  0.33663105
   0.33330253  0.66663539  0.33646520
   0.66661886  0.33331083  0.33646519
   0.83329475  0.16663998  0.33663031
   0.66660433  0.83330471  0.33662650
   0.83329370  0.66662042  0.33662522
Direct configuration=    22
   0.00424860  0.00283696  0.10346138
   0.35917050  0.00282683  0.10080849
   0.00424368  0.35773350  0.10081064
   0.64927912  0.64785609  0.10081108
   0.32786024  0.32644232  0.10100258
   0.68058622  0.00281840  0.10100200
   0.00423500  0.67914469  0.10100162
   0.16663245  0.33333733  0.33663317
   0.33333094  0.16665407  0.33663516
   0.16659988  0.83328329  0.33663818
   0.33331230  0.66663323  0.33646914
   0.66661518  0.33331681  0.33646913
   0.83327551  0.16661664  0.33663749
   0.66659101  0.83332459  0.33663363
   0.83331338  0.66660923  0.33663231
Direct configuration=    23
   0.00425551  0.00284713  0.10335856
   0.35919418  0.00282903  0.10080861
   0.00424789  0.35775637  0.10081076
   0.64925614  0.64783133  0.10080980
   0.32785732  0.32644093  0.10100843
   0.68058641  0.00281692  0.10100369
   0.00423384  0.67914252  0.10100249
   0.16663211  0.33333344  0.33664529
   0.33332619  0.16665495  0.33664727
   0.16659689  0.83327843  0.33665029
   0.33331179  0.66663608  0.33648050
   0.66661969  0.33331646  0.33648048
   0.83326986  0.16661275  0.33664965
   0.66659571  0.83332466  0.33664577
   0.83331048  0.66661300  0.33664441
Direct configuration=    24
   0.00427625  0.00287763  0.10305011
   0.35926520  0.00283561  0.10080896
   0.00426053  0.35782499  0.10081112
   0.64918721  0.64775705  0.10080596
   0.32784854  0.32643673  0.10102598
   0.68058699  0.00281247  0.10100874
   0.00423035  0.67913603  0.10100508
   0.16663111  0.33332175  0.33668167
   0.33331195  0.16665760  0.33668362
   0.16658792  0.83326384  0.33668661
   0.33331025  0.66664464  0.33651455
   0.66663320  0.33331542  0.33651452
   0.83325290  0.16660106  0.33668615
   0.66660980  0.83332486  0.33668221
   0.83330180  0.66662431  0.33668074
Direct configuration=    25
   0.00431771  0.00293862  0.10243319
   0.35940725  0.00284878  0.10080965
   0.00428581  0.35796222  0.10081183
   0.64904936  0.64760850  0.10079827
   0.32783100  0.32642834  0.10106109
   0.68058814  0.00280356  0.10101884
   0.00422339  0.67912304  0.10101026
   0.16662910  0.33329839  0.33675443
   0.33328346  0.16666289  0.33675631
   0.16656998  0.83323468  0.33675925
   0.33330718  0.66666174  0.33658266
   0.66666022  0.33331332  0.33658262
   0.83321898  0.16657770  0.33675915
   0.66663799  0.83332527  0.33675509
   0.83328444  0.66664695  0.33675339
Direct configuration=    26
   0.00440065  0.00306061  0.10119936
   0.35969135  0.00287512  0.10081103
   0.00433637  0.35823668  0.10081324
   0.64877364  0.64731140  0.10078291
   0.32779592  0.32641156  0.10113130
   0.68059044  0.00278575  0.10103903
   0.00420946  0.67909707  0.10102062
   0.16662508  0.33325167  0.33689994
   0.33322648  0.16667346  0.33690170
   0.16653409  0.83317635  0.33690453
   0.33330103  0.66669595  0.33671887
   0.66671427  0.33330913  0.33671880
   0.83315114  0.16653097  0.33690514
   0.66669437  0.83332607  0.33690084
   0.83324972  0.66669221  0.33689868
Direct configuration=    27
   0.00435579  0.00299462  0.10186676
   0.35953767  0.00286088  0.10081028
   0.00430902  0.35808822  0.10081248
   0.64892278  0.64747211  0.10079122
   0.32781490  0.32642064  0.10109332
   0.68058919  0.00279538  0.10102811
   0.00421699  0.67911112  0.10101502
   0.16662725  0.33327694  0.33682123
   0.33325730  0.16666774  0.33682306
   0.16655350  0.83320790  0.33682595
   0.33330435  0.66667744  0.33664519
   0.66668504  0.33331139  0.33664513
   0.83318784  0.16655624  0.33682617
   0.66666387  0.83332564  0.33682200
   0.83326850  0.66666773  0.33682009
Direct configuration=    28
   0.00433514  0.00296070  0.10166919
   0.35955179  0.00285045  0.10082130
   0.00430309  0.35811583  0.10082348
   0.64892794  0.64747351  0.10080104
   0.32784147  0.32644074  0.10108809
   0.68058745  0.00278825  0.10101779
   0.00421565  0.67912451  0.10100370
   0.16659134  0.33328361  0.33684420
   0.33326512  0.16662201  0.33684598
   0.16659681  0.83327414  0.33684875
   0.33329160  0.66665003  0.33667284
   0.66664308  0.33330337  0.33667280
   0.83325523  0.16660871  0.33684901
   0.66663462  0.83329084  0.33684487
   0.83325367  0.66664730  0.33684296
Direct configuration=    29
   0.00429940  0.00290195  0.10132706
   0.35957625  0.00283240  0.10084037
   0.00429282  0.35816364  0.10084255
   0.64893688  0.64747593  0.10081805
   0.32788748  0.32647555  0.10107903
   0.68058443  0.00277589  0.10099992
   0.00421331  0.67914769  0.10098410
   0.16652915  0.33329515  0.33688397
   0.33327866  0.16654282  0.33688566
   0.16667181  0.83338884  0.33688824
   0.33326951  0.66660256  0.33672074
   0.66657043  0.33328949  0.33672070
   0.83337195  0.16669957  0.33688857
   0.66658395  0.83323058  0.33688449
   0.83322798  0.66661193  0.33688256
Direct configuration=    30
   0.00426503  0.00284682  0.10113962
   0.35953922  0.00281648  0.10086604
   0.00427760  0.35814121  0.10086824
   0.64899583  0.64753494  0.10084476
   0.32792037  0.32649610  0.10105059
   0.68058917  0.00277626  0.10097123
   0.00422017  0.67917264  0.10095539
   0.16655072  0.33329382  0.33690578
   0.33327409  0.16655841  0.33690739
   0.16667168  0.83337768  0.33690969
   0.33325424  0.66659876  0.33675357
   0.66656448  0.33327955  0.33675355
   0.83335729  0.16669919  0.33690999
   0.66657894  0.83323532  0.33690601
   0.83323517  0.66660681  0.33690415
Direct configuration=    31
   0.00416194  0.00268143  0.10057728
   0.35942813  0.00276872  0.10094306
   0.00423193  0.35807392  0.10094531
   0.64917266  0.64771198  0.10092488
   0.32801904  0.32655775  0.10096529
   0.68060337  0.00277738  0.10088517
   0.00424075  0.67924750  0.10086927
   0.16661544  0.33328981  0.33697120
   0.33326040  0.16660519  0.33697257
   0.16667130  0.83334419  0.33697405
   0.33320845  0.66658735  0.33685208
   0.66654663  0.33324973  0.33685208
   0.83331331  0.16669804  0.33697423
   0.66656392  0.83324956  0.33697059
   0.83325672  0.66659143  0.33696893
Direct configuration=    32
   0.00412001  0.00261415  0.10034856
   0.35938294  0.00274929  0.10097439
   0.00421335  0.35804655  0.10097666
   0.64924459  0.64778399  0.10095747
   0.32805918  0.32658283  0.10093059
   0.68060915  0.00277784  0.10085016
   0.00424912  0.67927794  0.10083424
   0.16664176  0.33328819  0.33699781
   0.33325483  0.16662421  0.33699908
   0.16667115  0.83333057  0.33700023
   0.33318983  0.66658271  0.33689215
   0.66653937  0.33323761  0.33689216
   0.83329542  0.16669758  0.33700036
   0.66655781  0.83325535  0.33699686
   0.83326549  0.66658518  0.33699527
Direct configuration=    33
   0.00419190  0.00272576  0.10002539
   0.35935239  0.00278264  0.10102103
   0.00422813  0.35796097  0.10102334
   0.64922394  0.64778223  0.10100919
   0.32802257  0.32655329  0.10086678
   0.68059990  0.00283450  0.10079434
   0.00429072  0.67921432  0.10078022
   0.16656006  0.33327513  0.33703818
   0.33325370  0.16659626  0.33703939
   0.16658121  0.83328200  0.33704007
   0.33327607  0.66662629  0.33694815
   0.66660728  0.33329235  0.33694815
   0.83325972  0.16660325  0.33704012
   0.66660415  0.83327777  0.33703654
   0.83324226  0.66662724  0.33703511
Direct configuration=    34
   0.00420927  0.00275273  0.09994730
   0.35934501  0.00279070  0.10103230
   0.00423170  0.35794029  0.10103462
   0.64921895  0.64778180  0.10102169
   0.32801373  0.32654616  0.10085136
   0.68059766  0.00284820  0.10078085
   0.00430077  0.67919895  0.10076717
   0.16654031  0.33327197  0.33704794
   0.33325343  0.16658951  0.33704913
   0.16655948  0.83327026  0.33704970
   0.33329691  0.66663682  0.33696168
   0.66662369  0.33330557  0.33696168
   0.83325109  0.16658046  0.33704972
   0.66661535  0.83328319  0.33704613
   0.83323665  0.66663740  0.33704473
Direct configuration=    35
   0.00428180  0.00286202  0.09984439
   0.35938442  0.00282981  0.10103656
   0.00426157  0.35793673  0.10103888
   0.64913856  0.64770954  0.10102986
   0.32796226  0.32651291  0.10083167
   0.68059046  0.00287235  0.10077134
   0.00431009  0.67914343  0.10075981
   0.16655878  0.33327881  0.33706425
   0.33325296  0.16658361  0.33706551
   0.16661853  0.83330715  0.33706619
   0.33325333  0.66661481  0.33697418
   0.66659005  0.33327829  0.33697416
   0.83328061  0.16664262  0.33706610
   0.66658833  0.83324874  0.33706220
   0.83322223  0.66661318  0.33706091
Direct configuration=    36
   0.00428460  0.00286624  0.09984042
   0.35938594  0.00283131  0.10103673
   0.00426273  0.35793659  0.10103904
   0.64913546  0.64770676  0.10103018
   0.32796028  0.32651163  0.10083091
   0.68059018  0.00287328  0.10077098
   0.00431044  0.67914129  0.10075953
   0.16655950  0.33327907  0.33706488
   0.33325294  0.16658338  0.33706614
   0.16662081  0.83330858  0.33706683
   0.33325165  0.66661396  0.33697466
   0.66658876  0.33327723  0.33697465
   0.83328175  0.16664501  0.33706673
   0.66658729  0.83324742  0.33706281
   0.83322168  0.66661225  0.33706153
Direct configuration=    37
   0.00428791  0.00286587  0.09980401
   0.35941691  0.00284123  0.10102748
   0.00427540  0.35796864  0.10102983
   0.64911302  0.64768042  0.10102380
   0.32794891  0.32650715  0.10082600
   0.68059731  0.00286107  0.10077548
   0.00429664  0.67914698  0.10076595
   0.16657350  0.33327766  0.33707366
   0.33325136  0.16659344  0.33707506
   0.16661127  0.83330460  0.33707601
   0.33324428  0.66660655  0.33697536
   0.66657673  0.33327236  0.33697534
   0.83327741  0.16663767  0.33707582
   0.66658168  0.83326154  0.33707173
   0.83324168  0.66660882  0.33707048
Direct configuration=    38
   0.00429168  0.00286546  0.09976252
   0.35945219  0.00285252  0.10101694
   0.00428984  0.35800515  0.10101932
   0.64908744  0.64765042  0.10101654
   0.32793596  0.32650205  0.10082041
   0.68060543  0.00284716  0.10078062
   0.00428091  0.67915346  0.10077326
   0.16658945  0.33327605  0.33708366
   0.33324955  0.16660490  0.33708522
   0.16660041  0.83330008  0.33708648
   0.33323589  0.66659810  0.33697616
   0.66656303  0.33326680  0.33697613
   0.83327246  0.16662931  0.33708617
   0.66657530  0.83327763  0.33708189
   0.83326447  0.66660492  0.33708068
Direct configuration=    39
   0.00428448  0.00285029  0.09973480
   0.35946611  0.00285497  0.10100788
   0.00429530  0.35802516  0.10101029
   0.64908639  0.64764549  0.10100993
   0.32793510  0.32650359  0.10081542
   0.68061168  0.00283569  0.10078426
   0.00427051  0.67916511  0.10077866
   0.16657452  0.33327399  0.33709116
   0.33324748  0.16659571  0.33709282
   0.16660158  0.83329912  0.33709435
   0.33324369  0.66660581  0.33697726
   0.66657536  0.33327183  0.33697723
   0.83327163  0.16662858  0.33709395
   0.66658274  0.83326815  0.33708959
   0.83324742  0.66661052  0.33708840
Direct configuration=    40
   0.00427518  0.00283066  0.09969895
   0.35948412  0.00285815  0.10099617
   0.00430235  0.35805103  0.10099862
   0.64908503  0.64763911  0.10100137
   0.32793398  0.32650559  0.10080897
   0.68061975  0.00282086  0.10078897
   0.00425707  0.67918017  0.10078563
   0.16655522  0.33327133  0.33710085
   0.33324482  0.16658383  0.33710266
   0.16660310  0.83329789  0.33710453
   0.33325378  0.66661579  0.33697869
   0.66659131  0.33327832  0.33697866
   0.83327056  0.16662764  0.33710400
   0.66659236  0.83325588  0.33709954
   0.83322538  0.66661775  0.33709838
Direct configuration=    41
   0.00427649  0.00283343  0.09970400
   0.35948158  0.00285770  0.10099782
   0.00430136  0.35804739  0.10100026
   0.64908522  0.64764001  0.10100258
   0.32793414  0.32650531  0.10080988
   0.68061861  0.00282295  0.10078831
   0.00425896  0.67917805  0.10078465
   0.16655794  0.33327171  0.33709949
   0.33324519  0.16658550  0.33710127
   0.16660288  0.83329806  0.33710309
   0.33325235  0.66661439  0.33697849
   0.66658906  0.33327741  0.33697846
   0.83327071  0.16662777  0.33710259
   0.66659101  0.83325761  0.33709814
   0.83322849  0.66661673  0.33709697
Direct configuration=    42
   0.00427442  0.00283085  0.09969271
   0.35946981  0.00285534  0.10099435
   0.00429852  0.35803603  0.10099677
   0.64909785  0.64765309  0.10100002
   0.32793983  0.32650900  0.10080402
   0.68061721  0.00282566  0.10078685
   0.00426291  0.67917764  0.10078405
   0.16655611  0.33327459  0.33710317
   0.33324838  0.16658459  0.33710497
   0.16660332  0.83329818  0.33710691
   0.33325355  0.66661346  0.33698154
   0.66658771  0.33327815  0.33698152
   0.83327121  0.16662884  0.33710635
   0.66658700  0.83325526  0.33710197
   0.83322618  0.66661333  0.33710080
Direct configuration=    43
   0.00426818  0.00282310  0.09965884
   0.35943450  0.00284824  0.10098393
   0.00429000  0.35800195  0.10098629
   0.64913573  0.64769234  0.10099233
   0.32795692  0.32652007  0.10078644
   0.68061299  0.00283380  0.10078246
   0.00427475  0.67917642  0.10078226
   0.16655063  0.33328325  0.33711422
   0.33325795  0.16658184  0.33711607
   0.16660463  0.83329853  0.33711834
   0.33325713  0.66661070  0.33699070
   0.66658363  0.33328036  0.33699071
   0.83327273  0.16663207  0.33711764
   0.66657497  0.83324821  0.33711346
   0.83321927  0.66660312  0.33711230
Direct configuration=    44
   0.00425572  0.00280761  0.09959109
   0.35936388  0.00283406  0.10096309
   0.00427296  0.35793379  0.10096533
   0.64921151  0.64777083  0.10097697
   0.32799108  0.32654223  0.10075127
   0.68060457  0.00285007  0.10077368
   0.00429843  0.67917398  0.10077867
   0.16653966  0.33330058  0.33713633
   0.33327708  0.16657635  0.33713828
   0.16660724  0.83329923  0.33714122
   0.33326430  0.66660516  0.33700902
   0.66657547  0.33328478  0.33700909
   0.83327576  0.16663853  0.33714022
   0.66655091  0.83323410  0.33713645
   0.83320545  0.66658271  0.33713530
Direct configuration=    45
   0.00426397  0.00281787  0.09963593
   0.35941062  0.00284345  0.10097688
   0.00428424  0.35797890  0.10097920
   0.64916135  0.64771888  0.10098714
   0.32796847  0.32652757  0.10077455
   0.68061014  0.00283930  0.10077949
   0.00428275  0.67917560  0.10078105
   0.16654692  0.33328911  0.33712170
   0.33326441  0.16657998  0.33712358
   0.16660551  0.83329876  0.33712608
   0.33325955  0.66660882  0.33699689
   0.66658087  0.33328185  0.33699692
   0.83327375  0.16663426  0.33712527
   0.66656683  0.83324344  0.33712124
   0.83321460  0.66659622  0.33712008
Direct configuration=    46
   0.00426480  0.00281951  0.09962804
   0.35940557  0.00284253  0.10097474
   0.00428286  0.35797288  0.10097704
   0.64916570  0.64772375  0.10098549
   0.32797133  0.32652923  0.10076951
   0.68060856  0.00284217  0.10077729
   0.00428611  0.67917373  0.10077940
   0.16654973  0.33328575  0.33712444
   0.33326022  0.16658157  0.33712634
   0.16660436  0.83329746  0.33712889
   0.33325628  0.66660871  0.33699987
   0.66658066  0.33327977  0.33699990
   0.83327155  0.16663278  0.33712806
   0.66656943  0.83324566  0.33712408
   0.83321685  0.66659850  0.33712293
Direct configuration=    47
   0.00426728  0.00282444  0.09960436
   0.35939044  0.00283978  0.10096829
   0.00427872  0.35795480  0.10097053
   0.64917874  0.64773839  0.10098055
   0.32797992  0.32653423  0.10075439
   0.68060379  0.00285079  0.10077068
   0.00429617  0.67916811  0.10077447
   0.16655817  0.33327565  0.33713268
   0.33324762  0.16658633  0.33713460
   0.16660090  0.83329354  0.33713732
   0.33324644  0.66660838  0.33700879
   0.66658005  0.33327353  0.33700882
   0.83326495  0.16662836  0.33713641
   0.66657723  0.83325232  0.33713262
   0.83322359  0.66660534  0.33713149
Direct configuration=    48
   0.00427225  0.00283429  0.09955700
   0.35936016  0.00283428  0.10095541
   0.00427044  0.35791865  0.10095753
   0.64920482  0.64776765  0.10097068
   0.32799710  0.32654422  0.10072415
   0.68059425  0.00286802  0.10075748
   0.00431630  0.67915688  0.10076459
   0.16657504  0.33325547  0.33714915
   0.33322242  0.16659586  0.33715112
   0.16659400  0.83328571  0.33715418
   0.33322676  0.66660773  0.33702662
   0.66657882  0.33326105  0.33702667
   0.83325175  0.16661951  0.33715311
   0.66659283  0.83326565  0.33714971
   0.83323708  0.66661902  0.33714861
Direct configuration=    49
   0.00426972  0.00282929  0.09958105
   0.35937554  0.00283707  0.10096195
   0.00427464  0.35793701  0.10096414
   0.64919157  0.64775279  0.10097569
   0.32798838  0.32653914  0.10073951
   0.68059910  0.00285927  0.10076419
   0.00430607  0.67916258  0.10076961
   0.16656647  0.33326572  0.33714078
   0.33323522  0.16659102  0.33714273
   0.16659751  0.83328969  0.33714561
   0.33323676  0.66660806  0.33701756
   0.66657944  0.33326739  0.33701761
   0.83325845  0.16662401  0.33714462
   0.66658491  0.83325888  0.33714103
   0.83323023  0.66661207  0.33713992
Direct configuration=    50
   0.00427406  0.00283564  0.09956683
   0.35937985  0.00283775  0.10095862
   0.00427517  0.35793882  0.10096077
   0.64918602  0.64774762  0.10097281
   0.32798829  0.32653826  0.10072935
   0.68059908  0.00286293  0.10075777
   0.00430964  0.67916090  0.10076392
   0.16656244  0.33326363  0.33714606
   0.33323333  0.16658766  0.33714802
   0.16659527  0.83329175  0.33715096
   0.33323688  0.66660681  0.33702452
   0.66657732  0.33326735  0.33702456