  15  15   0  16
  0.2016161E+02  0.4825000E-09  0.4825000E-09  0.1500000E-08  0.5000000E-15
  1.000000000000000E-004
  CAR 
 Lattice                                 
     10.36059561    -21.71369777  301     -0.22303440      1.00000000
    -21.714  0.0000E+00  0.0000E+00  0.0000E+00  0.0000E+00
    -21.607  0.0000E+00  0.0000E+00  0.0000E+00  0.0000E+00
    -21.500  0.0000E+00  0.0000E+00  0.0000E+00  0.0000E+00
    -21.393  0.0000E+00  0.0000E+00  0.0000E+00  0.0000E+00
    -21.286  0.0000E+00  0.0000E+00  0.0000E+00  0.0000E+00
    -21.179  0.0000E+00  0.0000E+00  0.0000E+00  0.0000E+00
    -21.072  0.0000E+00  0.0000E+00  0.0000E+00  0.0000E+00
    -20.965  0.0000E+00  0.0000E+00  0.0000E+00  0.0000E+00
    -20.858  0.0000E+00  0.0000E+00  0.0000E+00  0.0000E+00
    -20.751  0.6445E-15  0.6445E-15  0.6891E-16  0.6891E-16
    -20.645  0.1134E-10  0.1134E-10  0.1212E-11  0.1212E-11
    -20.538  0.2380E-07  0.2380E-07  0.2546E-08  0.2546E-08
    -20.431  0.6572E-05  0.6572E-05  0.7052E-06  0.7052E-06
    -20.324  0.2671E-03  0.2671E-03  0.2926E-04  0.2926E-04
    -20.217  0.1956E-02  0.1956E-02  0.2384E-03  0.2384E-03
    -20.110  0.4120E-02  0.4120E-02  0.6788E-03  0.6788E-03
    -20.003  0.4476E-02  0.4476E-02  0.1157E-02  0.1157E-02
    -19.896  0.4909E-02  0.4909E-02  0.1682E-02  0.1682E-02
    -19.789  0.4107E-02  0.4107E-02  0.2121E-02  0.2121E-02
    -19.682  0.5327E-02  0.5327E-02  0.2691E-02  0.2691E-02
    -19.575  0.4245E-02  0.4245E-02  0.3145E-02  0.3145E-02
    -19.468  0.4119E-02  0.4119E-02  0.3585E-02  0.3585E-02
    -19.362  0.5981E-02  0.5981E-02  0.4225E-02  0.4225E-02
    -19.255  0.3916E-02  0.3916E-02  0.4643E-02  0.4643E-02
    -19.148  0.3684E-02  0.3684E-02  0.5037E-02  0.5037E-02
    -19.041  0.6024E-02  0.6024E-02  0.5681E-02  0.5681E-02
    -18.934  0.5304E-02  0.5304E-02  0.6248E-02  0.6248E-02
    -18.827  0.3076E-02  0.3076E-02  0.6577E-02  0.6577E-02
    -18.720  0.3968E-02  0.3968E-02  0.7001E-02  0.7001E-02
    -18.613  0.6907E-02  0.6907E-02  0.7740E-02  0.7740E-02
    -18.506  0.4749E-02  0.4749E-02  0.8248E-02  0.8248E-02
    -18.399  0.3835E-02  0.3835E-02  0.8658E-02  0.8658E-02
    -18.292  0.2848E-02  0.2848E-02  0.8962E-02  0.8962E-02
    -18.186  0.6108E-02  0.6108E-02  0.9615E-02  0.9615E-02
    -18.079  0.6897E-02  0.6897E-02  0.1035E-01  0.1035E-01
    -17.972  0.3857E-02  0.3857E-02  0.1076E-01  0.1076E-01
    -17.865  0.3053E-02  0.3053E-02  0.1109E-01  0.1109E-01
    -17.758  0.3995E-02  0.3995E-02  0.1152E-01  0.1152E-01
    -17.651  0.5716E-02  0.5716E-02  0.1213E-01  0.1213E-01
    -17.544  0.7124E-02  0.7124E-02  0.1289E-01  0.1289E-01
    -17.437  0.7024E-02  0.7024E-02  0.1364E-01  0.1364E-01
    -17.330  0.8500E-02  0.8500E-02  0.1455E-01  0.1455E-01
    -17.223  0.1006E-01  0.1006E-01  0.1563E-01  0.1563E-01
    -17.116  0.1445E-01  0.1445E-01  0.1717E-01  0.1717E-01
    -17.009  0.1652E-01  0.1652E-01  0.1894E-01  0.1894E-01
    -16.903  0.1911E-01  0.1911E-01  0.2098E-01  0.2098E-01
    -16.796  0.2097E-01  0.2097E-01  0.2322E-01  0.2322E-01
    -16.689  0.1229E-01  0.1229E-01  0.2454E-01  0.2454E-01
    -16.582  0.2944E-02  0.2944E-02  0.2485E-01  0.2485E-01
    -16.475  0.5540E-02  0.5540E-02  0.2544E-01  0.2544E-01
    -16.368  0.8872E-02  0.8872E-02  0.2639E-01  0.2639E-01
    -16.261  0.4954E-02  0.4954E-02  0.2692E-01  0.2692E-01
    -16.154  0.4251E-02  0.4251E-02  0.2738E-01  0.2738E-01
    -16.047  0.3713E-02  0.3713E-02  0.2777E-01  0.2777E-01
    -15.940  0.4065E-02  0.4065E-02  0.2821E-01  0.2821E-01
    -15.833  0.3125E-02  0.3125E-02  0.2854E-01  0.2854E-01
    -15.726  0.6699E-02  0.6699E-02  0.2926E-01  0.2926E-01
    -15.620  0.8872E-02  0.8872E-02  0.3021E-01  0.3021E-01
    -15.513  0.4753E-02  0.4753E-02  0.3071E-01  0.3071E-01
    -15.406  0.3762E-02  0.3762E-02  0.3112E-01  0.3112E-01
    -15.299  0.3320E-02  0.3320E-02  0.3147E-01  0.3147E-01
    -15.192  0.4059E-02  0.4059E-02  0.3191E-01  0.3191E-01
    -15.085  0.6144E-02  0.6144E-02  0.3256E-01  0.3256E-01
    -14.978  0.1205E-01  0.1205E-01  0.3385E-01  0.3385E-01
    -14.871  0.1850E-01  0.1850E-01  0.3583E-01  0.3583E-01
    -14.764  0.1961E-01  0.1961E-01  0.3793E-01  0.3793E-01
    -14.657  0.1554E-01  0.1554E-01  0.3959E-01  0.3959E-01
    -14.550  0.1170E-01  0.1170E-01  0.4084E-01  0.4084E-01
    -14.444  0.8378E-02  0.8378E-02  0.4173E-01  0.4173E-01
    -14.337  0.1133E-01  0.1133E-01  0.4294E-01  0.4294E-01
    -14.230  0.1600E-01  0.1600E-01  0.4466E-01  0.4466E-01
    -14.123  0.1484E-01  0.1484E-01  0.4624E-01  0.4624E-01
    -14.016  0.1078E-01  0.1078E-01  0.4740E-01  0.4740E-01
    -13.909  0.1361E-01  0.1361E-01  0.4885E-01  0.4885E-01
    -13.802  0.1864E-01  0.1864E-01  0.5084E-01  0.5084E-01
    -13.695  0.1755E-01  0.1755E-01  0.5272E-01  0.5272E-01
    -13.588  0.1705E-01  0.1705E-01  0.5454E-01  0.5454E-01
    -13.481  0.1087E-01  0.1087E-01  0.5571E-01  0.5571E-01
    -13.374  0.6154E-02  0.6154E-02  0.5636E-01  0.5636E-01
    -13.267  0.3542E-02  0.3542E-02  0.5674E-01  0.5674E-01
    -13.161  0.3258E-02  0.3258E-02  0.5709E-01  0.5709E-01
    -13.054  0.5770E-02  0.5770E-02  0.5771E-01  0.5771E-01
    -12.947  0.7395E-02  0.7395E-02  0.5850E-01  0.5850E-01
    -12.840  0.5129E-02  0.5129E-02  0.5905E-01  0.5905E-01
    -12.733  0.5689E-02  0.5689E-02  0.5965E-01  0.5965E-01
    -12.626  0.6972E-02  0.6972E-02  0.6040E-01  0.6040E-01
    -12.519  0.6108E-02  0.6108E-02  0.6105E-01  0.6105E-01
    -12.412  0.5562E-02  0.5562E-02  0.6165E-01  0.6165E-01
    -12.305  0.4093E-02  0.4093E-02  0.6209E-01  0.6209E-01
    -12.198  0.4367E-02  0.4367E-02  0.6255E-01  0.6255E-01
    -12.091  0.8263E-02  0.8263E-02  0.6344E-01  0.6344E-01
    -11.984  0.5159E-02  0.5159E-02  0.6399E-01  0.6399E-01
    -11.878  0.2976E-02  0.2976E-02  0.6431E-01  0.6431E-01
    -11.771  0.3557E-02  0.3557E-02  0.6469E-01  0.6469E-01
    -11.664  0.4123E-02  0.4123E-02  0.6513E-01  0.6513E-01
    -11.557  0.6927E-02  0.6927E-02  0.6587E-01  0.6587E-01
    -11.450  0.5640E-02  0.5640E-02  0.6647E-01  0.6647E-01
    -11.343  0.2174E-02  0.2174E-02  0.6670E-01  0.6670E-01
    -11.236  0.3192E-02  0.3192E-02  0.6704E-01  0.6704E-01
    -11.129  0.5720E-02  0.5720E-02  0.6766E-01  0.6766E-01
    -11.022  0.5711E-02  0.5711E-02  0.6827E-01  0.6827E-01
    -10.915  0.6671E-02  0.6671E-02  0.6898E-01  0.6898E-01
    -10.808  0.7546E-02  0.7546E-02  0.6979E-01  0.6979E-01
    -10.702  0.3938E-02  0.3938E-02  0.7021E-01  0.7021E-01
    -10.595  0.7530E-02  0.7530E-02  0.7101E-01  0.7101E-01
    -10.488  0.1342E-01  0.1342E-01  0.7245E-01  0.7245E-01
    -10.381  0.1466E-01  0.1466E-01  0.7402E-01  0.7402E-01
    -10.274  0.1607E-01  0.1607E-01  0.7573E-01  0.7573E-01
    -10.167  0.1655E-01  0.1655E-01  0.7750E-01  0.7750E-01
    -10.060  0.1625E-01  0.1625E-01  0.7924E-01  0.7924E-01
     -9.953  0.1502E-01  0.1502E-01  0.8085E-01  0.8085E-01
     -9.846  0.1073E-01  0.1073E-01  0.8199E-01  0.8199E-01
     -9.739  0.1113E-01  0.1113E-01  0.8318E-01  0.8318E-01
     -9.632  0.1307E-01  0.1307E-01  0.8458E-01  0.8458E-01
     -9.525  0.9994E-02  0.9994E-02  0.8565E-01  0.8565E-01
     -9.419  0.1543E-01  0.1543E-01  0.8730E-01  0.8730E-01
     -9.312  0.2082E-01  0.2082E-01  0.8953E-01  0.8953E-01
     -9.205  0.1433E-01  0.1433E-01  0.9106E-01  0.9106E-01
     -9.098  0.9101E-02  0.9101E-02  0.9203E-01  0.9203E-01
     -8.991  0.6142E-02  0.6142E-02  0.9269E-01  0.9269E-01
     -8.884  0.1479E-01  0.1479E-01  0.9427E-01  0.9427E-01
     -8.777  0.2278E-01  0.2278E-01  0.9670E-01  0.9670E-01
     -8.670  0.1369E-01  0.1369E-01  0.9817E-01  0.9817E-01
     -8.563  0.8390E-02  0.8390E-02  0.9906E-01  0.9906E-01
     -8.456  0.1151E-01  0.1151E-01  0.1003E+00  0.1003E+00
     -8.349  0.1798E-01  0.1798E-01  0.1022E+00  0.1022E+00
     -8.242  0.1840E-01  0.1840E-01  0.1042E+00  0.1042E+00
     -8.136  0.1372E-01  0.1372E-01  0.1057E+00  0.1057E+00
     -8.029  0.1635E-01  0.1635E-01  0.1074E+00  0.1074E+00
     -7.922  0.2233E-01  0.2233E-01  0.1098E+00  0.1098E+00
     -7.815  0.2366E-01  0.2366E-01  0.1123E+00  0.1123E+00
     -7.708  0.2076E-01  0.2076E-01  0.1145E+00  0.1145E+00
     -7.601  0.1274E-01  0.1274E-01  0.1159E+00  0.1159E+00
     -7.494  0.6639E-02  0.6639E-02  0.1166E+00  0.1166E+00
     -7.387  0.1440E-01  0.1440E-01  0.1181E+00  0.1181E+00
     -7.280  0.1884E-01  0.1884E-01  0.1202E+00  0.1202E+00
     -7.173  0.1317E-01  0.1317E-01  0.1216E+00  0.1216E+00
     -7.066  0.1217E-01  0.1217E-01  0.1229E+00  0.1229E+00
     -6.960  0.1534E-01  0.1534E-01  0.1245E+00  0.1245E+00
     -6.853  0.1778E-01  0.1778E-01  0.1264E+00  0.1264E+00
     -6.746  0.1791E-01  0.1791E-01  0.1283E+00  0.1283E+00
     -6.639  0.2198E-01  0.2198E-01  0.1307E+00  0.1307E+00
     -6.532  0.2224E-01  0.2224E-01  0.1331E+00  0.1331E+00
     -6.425  0.2183E-01  0.2183E-01  0.1354E+00  0.1354E+00
     -6.318  0.1734E-01  0.1734E-01  0.1372E+00  0.1372E+00
     -6.211  0.1749E-01  0.1749E-01  0.1391E+00  0.1391E+00
     -6.104  0.2307E-01  0.2307E-01  0.1416E+00  0.1416E+00
     -5.997  0.2732E-01  0.2732E-01  0.1445E+00  0.1445E+00
     -5.890  0.3070E-01  0.3070E-01  0.1478E+00  0.1478E+00
     -5.783  0.2458E-01  0.2458E-01  0.1504E+00  0.1504E+00
     -5.677  0.1968E-01  0.1968E-01  0.1525E+00  0.1525E+00
     -5.570  0.2259E-01  0.2259E-01  0.1549E+00  0.1549E+00
     -5.463  0.3128E-01  0.3128E-01  0.1583E+00  0.1583E+00
     -5.356  0.3229E-01  0.3229E-01  0.1617E+00  0.1617E+00
     -5.249  0.2192E-01  0.2192E-01  0.1641E+00  0.1641E+00
     -5.142  0.1674E-01  0.1674E-01  0.1659E+00  0.1659E+00
     -5.035  0.1113E-01  0.1113E-01  0.1670E+00  0.1670E+00
     -4.928  0.8613E-02  0.8613E-02  0.1680E+00  0.1680E+00
     -4.821  0.1288E-01  0.1288E-01  0.1693E+00  0.1693E+00
     -4.714  0.1331E-01  0.1331E-01  0.1708E+00  0.1708E+00
     -4.607  0.8931E-02  0.8931E-02  0.1717E+00  0.1717E+00
     -4.500  0.8513E-02  0.8513E-02  0.1726E+00  0.1726E+00
     -4.394  0.1275E-01  0.1275E-01  0.1740E+00  0.1740E+00
     -4.287  0.2258E-01  0.2258E-01  0.1764E+00  0.1764E+00
     -4.180  0.2385E-01  0.2385E-01  0.1790E+00  0.1790E+00
     -4.073  0.1822E-01  0.1822E-01  0.1809E+00  0.1809E+00
     -3.966  0.1858E-01  0.1858E-01  0.1829E+00  0.1829E+00
     -3.859  0.2471E-01  0.2471E-01  0.1855E+00  0.1855E+00
     -3.752  0.2034E-01  0.2034E-01  0.1877E+00  0.1877E+00
     -3.645  0.1939E-01  0.1939E-01  0.1898E+00  0.1898E+00
     -3.538  0.1913E-01  0.1913E-01  0.1918E+00  0.1918E+00
     -3.431  0.1694E-01  0.1694E-01  0.1936E+00  0.1936E+00
     -3.324  0.1179E-01  0.1179E-01  0.1949E+00  0.1949E+00
     -3.218  0.1325E-01  0.1325E-01  0.1963E+00  0.1963E+00
     -3.111  0.1845E-01  0.1845E-01  0.1983E+00  0.1983E+00
     -3.004  0.1729E-01  0.1729E-01  0.2001E+00  0.2001E+00
     -2.897  0.1266E-01  0.1266E-01  0.2015E+00  0.2015E+00
     -2.790  0.1243E-01  0.1243E-01  0.2028E+00  0.2028E+00
     -2.683  0.8749E-02  0.8749E-02  0.2038E+00  0.2038E+00
     -2.576  0.9502E-02  0.9502E-02  0.2048E+00  0.2048E+00
     -2.469  0.1526E-01  0.1526E-01  0.2064E+00  0.2064E+00
     -2.362  0.1806E-01  0.1806E-01  0.2083E+00  0.2083E+00
     -2.255  0.6126E-02  0.6126E-02  0.2090E+00  0.2090E+00
     -2.148  0.5333E-02  0.5333E-02  0.2096E+00  0.2096E+00
     -2.041  0.9433E-02  0.9433E-02  0.2106E+00  0.2106E+00
     -1.935  0.9054E-02  0.9054E-02  0.2115E+00  0.2115E+00
     -1.828  0.1005E-01  0.1005E-01  0.2126E+00  0.2126E+00
     -1.721  0.1078E-01  0.1078E-01  0.2138E+00  0.2138E+00
     -1.614  0.1020E-01  0.1020E-01  0.2149E+00  0.2149E+00
     -1.507  0.9297E-02  0.9297E-02  0.2159E+00  0.2159E+00
     -1.400  0.3831E-02  0.3831E-02  0.2163E+00  0.2163E+00
     -1.293  0.3671E-02  0.3671E-02  0.2167E+00  0.2167E+00
     -1.186  0.4844E-02  0.4844E-02  0.2172E+00  0.2172E+00
     -1.079  0.2993E-02  0.2993E-02  0.2175E+00  0.2175E+00
     -0.972  0.4284E-02  0.4284E-02  0.2179E+00  0.2179E+00
     -0.865  0.4814E-02  0.4814E-02  0.2185E+00  0.2185E+00
     -0.758  0.1518E-02  0.1518E-02  0.2186E+00  0.2186E+00
     -0.652  0.1395E-03  0.1395E-03  0.2186E+00  0.2186E+00
     -0.545  0.3068E-05  0.3068E-05  0.2186E+00  0.2186E+00
     -0.438  0.2433E-05  0.2433E-05  0.2186E+00  0.2186E+00
     -0.331  0.1268E-03  0.1268E-03  0.2187E+00  0.2187E+00
     -0.224  0.8755E-03  0.8755E-03  0.2187E+00  0.2187E+00
     -0.117  0.8893E-03  0.8893E-03  0.2188E+00  0.2188E+00
     -0.010  0.1331E-03  0.1331E-03  0.2189E+00  0.2189E+00
      0.097  0.2633E-05  0.2633E-05  0.2189E+00  0.2189E+00
      0.204  0.5099E-06  0.5099E-06  0.2189E+00  0.2189E+00
      0.311  0.7307E-04  0.7307E-04  0.2189E+00  0.2189E+00
      0.418  0.1320E-02  0.1320E-02  0.2190E+00  0.2190E+00
      0.524  0.3355E-02  0.3355E-02  0.2194E+00  0.2194E+00
      0.631  0.1592E-02  0.1592E-02  0.2195E+00  0.2195E+00
      0.738  0.3336E-02  0.3336E-02  0.2199E+00  0.2199E+00
      0.845  0.7033E-02  0.7033E-02  0.2206E+00  0.2206E+00
      0.952  0.1051E-01  0.1051E-01  0.2218E+00  0.2218E+00
      1.059  0.2123E-01  0.2123E-01  0.2240E+00  0.2240E+00
      1.166  0.2009E-01  0.2009E-01  0.2262E+00  0.2262E+00
      1.273  0.6563E-02  0.6563E-02  0.2269E+00  0.2269E+00
      1.380  0.1085E-02  0.1085E-02  0.2270E+00  0.2270E+00
      1.487  0.2808E-02  0.2808E-02  0.2273E+00  0.2273E+00
      1.594  0.1132E-01  0.1132E-01  0.2285E+00  0.2285E+00
      1.701  0.2029E-01  0.2029E-01  0.2307E+00  0.2307E+00
      1.807  0.1563E-01  0.1563E-01  0.2324E+00  0.2324E+00
      1.914  0.1044E-01  0.1044E-01  0.2335E+00  0.2335E+00
      2.021  0.8865E-02  0.8865E-02  0.2344E+00  0.2344E+00
      2.128  0.1010E-01  0.1010E-01  0.2355E+00  0.2355E+00
      2.235  0.7694E-02  0.7694E-02  0.2363E+00  0.2363E+00
      2.342  0.8146E-02  0.8146E-02  0.2372E+00  0.2372E+00
      2.449  0.7498E-02  0.7498E-02  0.2380E+00  0.2380E+00
      2.556  0.4711E-02  0.4711E-02  0.2385E+00  0.2385E+00
      2.663  0.1116E-01  0.1116E-01  0.2397E+00  0.2397E+00
      2.770  0.1257E-01  0.1257E-01  0.2410E+00  0.2410E+00
      2.877  0.6667E-02  0.6667E-02  0.2417E+00  0.2417E+00
      2.984  0.6567E-02  0.6568E-02  0.2424E+00  0.2424E+00
      3.090  0.8350E-02  0.8350E-02  0.2433E+00  0.2433E+00
      3.197  0.1220E-01  0.1220E-01  0.2446E+00  0.2446E+00
      3.304  0.1032E-01  0.1032E-01  0.2458E+00  0.2458E+00
      3.411  0.1024E-01  0.1024E-01  0.2468E+00  0.2468E+00
      3.518  0.8071E-02  0.8071E-02  0.2477E+00  0.2477E+00
      3.625  0.1287E-01  0.1287E-01  0.2491E+00  0.2491E+00
      3.732  0.2230E-01  0.2230E-01  0.2515E+00  0.2515E+00
      3.839  0.2312E-01  0.2312E-01  0.2539E+00  0.2539E+00
      3.946  0.2089E-01  0.2089E-01  0.2562E+00  0.2562E+00
      4.053  0.1996E-01  0.1996E-01  0.2583E+00  0.2583E+00
      4.160  0.2431E-01  0.2431E-01  0.2609E+00  0.2609E+00
      4.266  0.2616E-01  0.2616E-01  0.2637E+00  0.2637E+00
      4.373  0.2594E-01  0.2593E-01  0.2665E+00  0.2665E+00
      4.480  0.2386E-01  0.2386E-01  0.2690E+00  0.2690E+00
      4.587  0.2581E-01  0.2581E-01  0.2718E+00  0.2718E+00
      4.694  0.2152E-01  0.2152E-01  0.2741E+00  0.2741E+00
      4.801  0.2254E-01  0.2254E-01  0.2765E+00  0.2765E+00
      4.908  0.2808E-01  0.2808E-01  0.2795E+00  0.2795E+00
      5.015  0.2528E-01  0.2528E-01  0.2822E+00  0.2822E+00
      5.122  0.2367E-01  0.2367E-01  0.2847E+00  0.2847E+00
      5.229  0.2543E-01  0.2543E-01  0.2875E+00  0.2875E+00
      5.336  0.1998E-01  0.1998E-01  0.2896E+00  0.2896E+00
      5.443  0.1918E-01  0.1918E-01  0.2916E+00  0.2916E+00
      5.549  0.2262E-01  0.2262E-01  0.2941E+00  0.2941E+00
      5.656  0.3177E-01  0.3177E-01  0.2975E+00  0.2975E+00
      5.763  0.2515E-01  0.2515E-01  0.3001E+00  0.3001E+00
      5.870  0.2035E-01  0.2035E-01  0.3023E+00  0.3023E+00
      5.977  0.1824E-01  0.1824E-01  0.3043E+00  0.3043E+00
      6.084  0.2148E-01  0.2148E-01  0.3066E+00  0.3066E+00
      6.191  0.1834E-01  0.1834E-01  0.3085E+00  0.3085E+00
      6.298  0.1562E-01  0.1562E-01  0.3102E+00  0.3102E+00
      6.405  0.2027E-01  0.2027E-01  0.3124E+00  0.3124E+00
      6.512  0.2423E-01  0.2423E-01  0.3150E+00  0.3150E+00
      6.619  0.2640E-01  0.2640E-01  0.3178E+00  0.3178E+00
      6.726  0.2358E-01  0.2358E-01  0.3203E+00  0.3203E+00
      6.832  0.3116E-01  0.3116E-01  0.3236E+00  0.3236E+00
      6.939  0.3224E-01  0.3224E-01  0.3271E+00  0.3271E+00
      7.046  0.2713E-01  0.2713E-01  0.3300E+00  0.3300E+00
      7.153  0.2579E-01  0.2579E-01  0.3327E+00  0.3327E+00
      7.260  0.2143E-01  0.2143E-01  0.3350E+00  0.3350E+00
      7.367  0.1649E-01  0.1649E-01  0.3368E+00  0.3368E+00
      7.474  0.2106E-01  0.2106E-01  0.3390E+00  0.3390E+00
      7.581  0.2490E-01  0.2490E-01  0.3417E+00  0.3417E+00
      7.688  0.2028E-01  0.2028E-01  0.3439E+00  0.3439E+00
      7.795  0.2243E-01  0.2244E-01  0.3463E+00  0.3463E+00
      7.902  0.2762E-01  0.2762E-01  0.3492E+00  0.3492E+00
      8.008  0.2973E-01  0.2973E-01  0.3524E+00  0.3524E+00
      8.115  0.3738E-01  0.3738E-01  0.3564E+00  0.3564E+00
      8.222  0.3045E-01  0.3045E-01  0.3597E+00  0.3597E+00
      8.329  0.2725E-01  0.2725E-01  0.3626E+00  0.3626E+00
      8.436  0.3039E-01  0.3039E-01  0.3658E+00  0.3658E+00
      8.543  0.3233E-01  0.3233E-01  0.3693E+00  0.3693E+00
      8.650  0.2616E-01  0.2616E-01  0.3721E+00  0.3721E+00
      8.757  0.1564E-01  0.1564E-01  0.3737E+00  0.3737E+00
      8.864  0.7507E-02  0.7507E-02  0.3745E+00  0.3745E+00
      8.971  0.3552E-02  0.3552E-02  0.3749E+00  0.3749E+00
      9.078  0.7141E-03  0.7141E-03  0.3750E+00  0.3750E+00
      9.185  0.2464E-04  0.2464E-04  0.3750E+00  0.3750E+00
      9.291  0.1129E-06  0.1129E-06  0.3750E+00  0.3750E+00
      9.398  0.6133E-10  0.6133E-10  0.3750E+00  0.3750E+00
      9.505  0.3709E-14  0.3709E-14  0.3750E+00  0.3750E+00
      9.612  0.0000E+00  0.0000E+00  0.3750E+00  0.3750E+00
      9.719  0.0000E+00  0.0000E+00  0.3750E+00  0.3750E+00
      9.826  0.0000E+00  0.0000E+00  0.3750E+00  0.3750E+00
      9.933  0.0000E+00  0.0000E+00  0.3750E+00  0.3750E+00
     10.040  0.0000E+00  0.0000E+00  0.3750E+00  0.3750E+00
     10.147  0.0000E+00  0.0000E+00  0.3750E+00  0.3750E+00
     10.254  0.0000E+00  0.0000E+00  0.3750E+00  0.3750E+00
     10.361  0.0000E+00  0.0000E+00  0.3750E+00  0.3750E+00
