Lattice                                 
           1
     4.178573    2.412500    0.000000
    -4.178573    2.412500    0.000000
     0.000000    0.000000   15.000000
   B    C 
     4    11
Direct configuration=     1
   0.00415361  0.00267210  0.12034134
   0.35695335  0.00285503  0.09748893
   0.00423858  0.35550699  0.09749256
   0.65142295  0.65006557  0.09747688
   0.32808646  0.32671938  0.10030508
   0.68027775  0.00278085  0.10027562
   0.00416530  0.67883808  0.10026559
   0.16666600  0.33333300  0.33720000
   0.33333300  0.16666600  0.33720000
   0.16666600  0.83333300  0.33720000
   0.33333300  0.66666600  0.33720000
   0.66666600  0.33333300  0.33720000
   0.83333300  0.16666600  0.33720000
   0.66666600  0.83333300  0.33720000
   0.83333300  0.66666600  0.33720000
Direct configuration=     2
   0.00418608  0.00275473  0.11912066
   0.35603180  0.00280102  0.09781104
   0.00419290  0.35459901  0.09781398
   0.65231507  0.65092478  0.09780644
   0.32512859  0.32372420  0.10031801
   0.68325649  0.00280253  0.10029871
   0.00420350  0.68184293  0.10029217
   0.16659727  0.33342527  0.33725885
   0.33342576  0.16660006  0.33725988
   0.16681916  0.83338852  0.33726159
   0.33333484  0.66667220  0.33711276
   0.66667133  0.33333130  0.33711275
   0.83338591  0.16681671  0.33726149
   0.66657194  0.83317807  0.33725930
   0.83317336  0.66657264  0.33725837
Direct configuration=     3
   0.00417022  0.00271437  0.11971686
   0.35648190  0.00282740  0.09765372
   0.00421521  0.35504248  0.09765699
   0.65187935  0.65050513  0.09764548
   0.32657326  0.32518709  0.10031170
   0.68180163  0.00279194  0.10028743
   0.00418484  0.68037532  0.10027919
   0.16663084  0.33338020  0.33723011
   0.33338046  0.16663227  0.33723063
   0.16674435  0.83336141  0.33723151
   0.33333394  0.66666917  0.33715537
   0.66666873  0.33333213  0.33715536
   0.83336007  0.16674310  0.33723146
   0.66661788  0.83325374  0.33723034
   0.83325133  0.66661824  0.33722986
Direct configuration=     4
   0.00418812  0.00277820  0.11852371
   0.35701091  0.00277958  0.09798617
   0.00417978  0.35559436  0.09798865
   0.65135318  0.64994704  0.09798609
   0.32669020  0.32527375  0.10029125
   0.68169844  0.00279653  0.10027800
   0.00420534  0.68028754  0.10027298
   0.16670823  0.33328532  0.33728930
   0.33328386  0.16670899  0.33729074
   0.16657066  0.83328764  0.33729308
   0.33332920  0.66666058  0.33708741
   0.66665973  0.33333166  0.33708739
   0.83328751  0.16657311  0.33729290
   0.66670763  0.83342099  0.33728980
   0.83342121  0.66670871  0.33728853
Direct configuration=     5
   0.00424180  0.00296966  0.11494428
   0.35859796  0.00263612  0.09898353
   0.00407350  0.35724999  0.09898362
   0.64977466  0.64827275  0.09900791
   0.32704104  0.32553372  0.10022992
   0.68138889  0.00281029  0.10024971
   0.00426684  0.68002423  0.10025435
   0.16694041  0.33300068  0.33746687
   0.33299408  0.16693918  0.33747105
   0.16604957  0.83306633  0.33747780
   0.33331498  0.66663480  0.33688351
   0.66663273  0.33333025  0.33688347
   0.83306983  0.16606313  0.33747723
   0.66697686  0.83392275  0.33746820
   0.83393084  0.66698013  0.33746455
Direct configuration=     6
   0.00424320  0.00297674  0.11444257
   0.35871109  0.00262887  0.09909221
   0.00407198  0.35737051  0.09909211
   0.64966786  0.64815855  0.09911883
   0.32714908  0.32563850  0.10025319
   0.68128502  0.00280478  0.10027666
   0.00426488  0.67992451  0.10028227
   0.16681535  0.33311791  0.33748300
   0.33311191  0.16681565  0.33748734
   0.16629128  0.83318106  0.33749428
   0.33331539  0.66664308  0.33688255
   0.66663995  0.33332692  0.33688251
   0.83318136  0.16630133  0.33749365
   0.66685886  0.83368312  0.33748429
   0.83368680  0.66686247  0.33748054
Direct configuration=     7
   0.00424719  0.00299693  0.11301115
   0.35903386  0.00260820  0.09940228
   0.00406767  0.35771437  0.09940163
   0.64936314  0.64783272  0.09943529
   0.32745734  0.32593742  0.10031958
   0.68098865  0.00278908  0.10035355
   0.00425930  0.67963999  0.10036192
   0.16645854  0.33345236  0.33752902
   0.33344809  0.16646323  0.33753382
   0.16698088  0.83350840  0.33754129
   0.33331656  0.66666672  0.33687980
   0.66666054  0.33331740  0.33687977
   0.83349956  0.16698095  0.33754052
   0.66652217  0.83299943  0.33753021
   0.83299053  0.66652678  0.33752616
Direct configuration=     8
   0.00424289  0.00297859  0.11248670
   0.35896301  0.00262190  0.09946933
   0.00408576  0.35764438  0.09946878
   0.64944327  0.64791629  0.09950258
   0.32755469  0.32604543  0.10039207
   0.68089127  0.00277716  0.10042803
   0.00424544  0.67954120  0.10043674
   0.16648646  0.33347330  0.33753192
   0.33346940  0.16649302  0.33753651
   0.16696473  0.83347449  0.33754356
   0.33331895  0.66666685  0.33692256
   0.66666026  0.33331847  0.33692255
   0.83346539  0.16696482  0.33754274
   0.66649996  0.83301284  0.33753286
   0.83300250  0.66650527  0.33752906
Direct configuration=     9
   0.00422999  0.00292355  0.11091336
   0.35875048  0.00266299  0.09967050
   0.00414004  0.35743439  0.09967021
   0.64968367  0.64816699  0.09970445
   0.32784675  0.32636944  0.10060952
   0.68059914  0.00274142  0.10065147
   0.00420388  0.67924481  0.10066119
   0.16657023  0.33353609  0.33754061
   0.33353335  0.16658238  0.33754460
   0.16691628  0.83337277  0.33755034
   0.33332614  0.66666724  0.33705086
   0.66665943  0.33332169  0.33705089
   0.83336290  0.16691645  0.33754941
   0.66643333  0.83305305  0.33754083
   0.83303839  0.66644073  0.33753777
Direct configuration=    10
   0.00420419  0.00281347  0.10776667
   0.35832541  0.00274516  0.10007282
   0.00424860  0.35701443  0.10007307
   0.65016446  0.64866839  0.10010820
   0.32843087  0.32701746  0.10104443
   0.68001487  0.00266994  0.10109834
   0.00412076  0.67865204  0.10111009
   0.16673778  0.33366168  0.33755799
   0.33366125  0.16676112  0.33756077
   0.16681939  0.83316932  0.33756392
   0.33334052  0.66666802  0.33730746
   0.66665775  0.33332812  0.33730757
   0.83315791  0.16681971  0.33756274
   0.66630006  0.83313347  0.33755675
   0.83311019  0.66631166  0.33755519
Direct configuration=    11
   0.00423606  0.00283703  0.10677271
   0.35862544  0.00279445  0.10023078
   0.00427135  0.35725950  0.10023180
   0.64983320  0.64837471  0.10026153
   0.32826920  0.32687203  0.10114920
   0.68014226  0.00271906  0.10120024
   0.00415254  0.67873820  0.10121100
   0.16656005  0.33301863  0.33755891
   0.33300204  0.16655908  0.33756104
   0.16647869  0.83342138  0.33756305
   0.33327636  0.66663824  0.33741492
   0.66663279  0.33330153  0.33741501
   0.83341310  0.16649203  0.33756188
   0.66693082  0.83347242  0.33755741
   0.83347009  0.66693572  0.33755652
Direct configuration=    12
   0.00422814  0.00283117  0.10701970
   0.35855089  0.00278220  0.10019153
   0.00426570  0.35719860  0.10019236
   0.64991551  0.64844768  0.10022343
   0.32830937  0.32690817  0.10112316
   0.68011061  0.00270686  0.10117492
   0.00414465  0.67871679  0.10118593
   0.16660421  0.33317842  0.33755868
   0.33316584  0.16660928  0.33756097
   0.16656335  0.83335874  0.33756327
   0.33329230  0.66664564  0.33738822
   0.66663899  0.33330813  0.33738831
   0.83334969  0.16657346  0.33756209
   0.66677408  0.83338820  0.33755724
   0.83338066  0.66678065  0.33755619
Direct configuration=    13
   0.00424620  0.00285034  0.10663659
   0.35898797  0.00280401  0.10029159
   0.00425430  0.35758747  0.10029301
   0.64944586  0.64800931  0.10031785
   0.32805149  0.32664613  0.10112218
   0.68035548  0.00276908  0.10116709
   0.00419479  0.67893267  0.10117642
   0.16655781  0.33321332  0.33756031
   0.33320226  0.16656251  0.33756223
   0.16662709  0.83340695  0.33756410
   0.33329538  0.66663667  0.33743712
   0.66662485  0.33330994  0.33743718
   0.83339839  0.16664024  0.33756300
   0.66673060  0.83332420  0.33755904
   0.83332155  0.66674117  0.33755828
Direct configuration=    14
   0.00426284  0.00286801  0.10628347
   0.35939083  0.00282410  0.10038382
   0.00424379  0.35794591  0.10038577
   0.64901297  0.64760525  0.10040489
   0.32781380  0.32640460  0.10112127
   0.68058118  0.00282643  0.10115988
   0.00424101  0.67913165  0.10116767
   0.16651503  0.33324548  0.33756181
   0.33323582  0.16651940  0.33756340
   0.16668584  0.83345138  0.33756488
   0.33329822  0.66662841  0.33748220
   0.66661181  0.33331161  0.33748222
   0.83344329  0.16670179  0.33756383
   0.66669051  0.83326521  0.33756069
   0.83326706  0.66670477  0.33756021
Direct configuration=    15
   0.00421219  0.00278602  0.10607403
   0.35946853  0.00281032  0.10045941
   0.00422137  0.35803538  0.10046143
   0.64895920  0.64755446  0.10047569
   0.32788940  0.32646694  0.10109669
   0.68056027  0.00282659  0.10112753
   0.00424466  0.67913242  0.10113362
   0.16673791  0.33340889  0.33757132
   0.33339719  0.16675158  0.33757284
   0.16664120  0.83318785  0.33757449
   0.33329953  0.66666601  0.33749234
   0.66666117  0.33330621  0.33749234
   0.83317242  0.16664323  0.33757349
   0.66654715  0.83330507  0.33757064
   0.83328180  0.66655303  0.33757014
Direct configuration=    16
   0.00422835  0.00281219  0.10614088
   0.35944373  0.00281472  0.10043528
   0.00422853  0.35800683  0.10043728
   0.64897636  0.64757067  0.10045309
   0.32786527  0.32644704  0.10110453
   0.68056694  0.00282654  0.10113785
   0.00424349  0.67913217  0.10114449
   0.16666678  0.33335674  0.33756828
   0.33334569  0.16667748  0.33756982
   0.16665544  0.83327195  0.33757142
   0.33329911  0.66665401  0.33748910
   0.66664542  0.33330793  0.33748911
   0.83325887  0.16666192  0.33757041
   0.66659290  0.83329235  0.33756746
   0.83327710  0.66660146  0.33756697
Direct configuration=    17
   0.00418717  0.00274679  0.10600074
   0.35934299  0.00280076  0.10049035
   0.00421541  0.35792598  0.10049229
   0.64910594  0.64769390  0.10050416
   0.32800832  0.32658127  0.10108115
   0.68046802  0.00281118  0.10110704
   0.00423313  0.67905584  0.10111209
   0.16664909  0.33334213  0.33758076
   0.33333273  0.16666463  0.33758237
   0.16663640  0.83328023  0.33758435
   0.33330773  0.66665198  0.33748360
   0.66664354  0.33331409  0.33748360
   0.83326928  0.16664447  0.33758338
   0.66660683  0.83330424  0.33758038
   0.83328742  0.66661652  0.33757974
Direct configuration=    18
   0.00413162  0.00265857  0.10581169
   0.35920709  0.00278194  0.10056463
   0.00419771  0.35781692  0.10056649
   0.64928073  0.64786012  0.10057304
   0.32820129  0.32676235  0.10104962
   0.68033459  0.00279046  0.10106548
   0.00421914  0.67895288  0.10106839
   0.16662524  0.33332242  0.33759760
   0.33331525  0.16664729  0.33759930
   0.16661070  0.83329138  0.33760178
   0.33331934  0.66664925  0.33747618
   0.66664101  0.33332239  0.33747617
   0.83328333  0.16662092  0.33760087
   0.66662561  0.83332029  0.33759780
   0.83330135  0.66663683  0.33759696
Direct configuration=    19
   0.00421254  0.00278301  0.10561909
   0.35912740  0.00281336  0.10060472
   0.00422312  0.35769828  0.10060680
   0.64932542  0.64790829  0.10060860
   0.32808046  0.32665544  0.10105027
   0.68038163  0.00281666  0.10105684
   0.00423430  0.67895679  0.10105771
   0.16656998  0.33327787  0.33761459
   0.33326113  0.16656864  0.33761639
   0.16671249  0.83339656  0.33761914
   0.33327185  0.66663865  0.33747223
   0.66662423  0.33329195  0.33747222
   0.83337975  0.16672346  0.33761835
   0.66665392  0.83324026  0.33761504
   0.83323575  0.66666478  0.33761399
Direct configuration=    20
   0.00420783  0.00277575  0.10563032
   0.35913205  0.00281153  0.10060238
   0.00422164  0.35770519  0.10060445
   0.64932281  0.64790548  0.10060653
   0.32808751  0.32666168  0.10105023
   0.68037889  0.00281514  0.10105735
   0.00423341  0.67895656  0.10105833
   0.16657320  0.33328046  0.33761360
   0.33326429  0.16657323  0.33761539
   0.16670656  0.83339043  0.33761813
   0.33327462  0.66663927  0.33747246
   0.66662521  0.33329372  0.33747245
   0.83337413  0.16671748  0.33761733
   0.66665227  0.83324493  0.33761404
   0.83323958  0.66666315  0.33761300
Direct configuration=    21
   0.00426995  0.00287170  0.10546572
   0.35914391  0.00283362  0.10061995
   0.00424280  0.35769041  0.10062218
   0.64928348  0.64786758  0.10062139
   0.32798255  0.32656816  0.10106537
   0.68042941  0.00283188  0.10106574
   0.00424350  0.67897577  0.10106528
   0.16660064  0.33330089  0.33762690
   0.33328665  0.16660366  0.33762875
   0.16667619  0.83335636  0.33763158
   0.33328070  0.66663423  0.33747435
   0.66661742  0.33329767  0.33747434
   0.83334162  0.16668923  0.33763087
   0.66662830  0.83327115  0.33762738
   0.83326688  0.66664170  0.33762620
Direct configuration=    22
   0.00437327  0.00303127  0.10519200
   0.35916362  0.00287036  0.10064917
   0.00427799  0.35766583  0.10065167
   0.64921807  0.64780454  0.10064610
   0.32780800  0.32641263  0.10109054
   0.68051342  0.00285971  0.10107970
   0.00426028  0.67900770  0.10107683
   0.16664628  0.33333485  0.33764902
   0.33332385  0.16665428  0.33765096
   0.16662569  0.83329970  0.33765394
   0.33329080  0.66662585  0.33747749
   0.66660447  0.33330424  0.33747747
   0.83328756  0.16664224  0.33765339
   0.66658843  0.83331477  0.33764956
   0.83331228  0.66660603  0.33764817
Direct configuration=    23
   0.00437677  0.00303668  0.10509419
   0.35919094  0.00287009  0.10065788
   0.00428093  0.35769518  0.10066039
   0.64919239  0.64777629  0.10065373
   0.32780875  0.32641417  0.10110028
   0.68051329  0.00285660  0.10108608
   0.00425857  0.67900778  0.10108252
   0.16664590  0.33333447  0.33765630
   0.33332345  0.16665683  0.33765826
   0.16661973  0.83329155  0.33766126
   0.33329366  0.66662928  0.33748107
   0.66660969  0.33330593  0.33748106
   0.83327940  0.16663559  0.33766074
   0.66659042  0.83331618  0.33765685
   0.83331009  0.66660738  0.33765540
Direct configuration=    24
   0.00438729  0.00305291  0.10480075
   0.35927291  0.00286927  0.10068400
   0.00428975  0.35778324  0.10068655
   0.64911533  0.64769155  0.10067662
   0.32781102  0.32641876  0.10112950
   0.68051289  0.00284726  0.10110523
   0.00425345  0.67900800  0.10109959
   0.16664478  0.33333332  0.33767814
   0.33332226  0.16666447  0.33768017
   0.16660184  0.83326711  0.33768321
   0.33330225  0.66663957  0.33749182
   0.66662536  0.33331103  0.33749181
   0.83325493  0.16661564  0.33768280
   0.66659641  0.83332043  0.33767870
   0.83330353  0.66661144  0.33767710
Direct configuration=    25
   0.00440832  0.00308538  0.10421388
   0.35943685  0.00286763  0.10073623
   0.00430739  0.35795935  0.10073889
   0.64896121  0.64752207  0.10072239
   0.32781555  0.32642796  0.10118794
   0.68051210  0.00282858  0.10114353
   0.00424321  0.67900845  0.10113373
   0.16664254  0.33333103  0.33772183
   0.33331989  0.16667977  0.33772399
   0.16656606  0.83321823  0.33772711
   0.33331943  0.66666014  0.33751332
   0.66665668  0.33332121  0.33751331
   0.83320599  0.16657572  0.33772692
   0.66660837  0.83332892  0.33772240
   0.83329041  0.66661955  0.33772051
Direct configuration=    26
   0.00445039  0.00315030  0.10304014
   0.35976473  0.00286434  0.10084071
   0.00434268  0.35831159  0.10084355
   0.64865298  0.64718310  0.10081393
   0.32782461  0.32644635  0.10130483
   0.68051051  0.00279122  0.10122014
   0.00422273  0.67900936  0.10120202
   0.16663805  0.33332645  0.33780921
   0.33331513  0.16671036  0.33781163
   0.16649450  0.83312048  0.33781492
   0.33335379  0.66670129  0.33755633
   0.66671933  0.33334158  0.33755632
   0.83310810  0.16649590  0.33781516
   0.66663230  0.83334591  0.33780981
   0.83326417  0.66663577  0.33780732
Direct configuration=    27
   0.00442905  0.00311737  0.10363546
   0.35959843  0.00286601  0.10078772
   0.00432478  0.35813294  0.10079046
   0.64880932  0.64735502  0.10076750
   0.32782002  0.32643702  0.10124555
   0.68051131  0.00281017  0.10118128
   0.00423312  0.67900890  0.10116738
   0.16664033  0.33332877  0.33776489
   0.33331754  0.16669485  0.33776718
   0.16653080  0.83317006  0.33777039
   0.33333636  0.66668042  0.33753452
   0.66668755  0.33333125  0.33753450
   0.83315775  0.16653638  0.33777040
   0.66662016  0.83333730  0.33776548
   0.83327748  0.66662754  0.33776329
Direct configuration=    28
   0.00434352  0.00298427  0.10332380
   0.35960640  0.00283002  0.10082934
   0.00430072  0.35818831  0.10083198
   0.64886117  0.64739575  0.10080825
   0.32795806  0.32655588  0.10125679
   0.68046205  0.00277848  0.10118640
   0.00421764  0.67901058  0.10117126
   0.16657561  0.33329624  0.33778429
   0.33327974  0.16660381  0.33778653
   0.16662049  0.83330256  0.33778957
   0.33329279  0.66664122  0.33756046
   0.66662899  0.33330445  0.33756045
   0.83328562  0.16663598  0.33778962
   0.66661787  0.83327244  0.33778473
   0.83324334  0.66663402  0.33778254
Direct configuration=    29
   0.00427826  0.00288271  0.10308601
   0.35961248  0.00280256  0.10086110
   0.00428236  0.35823055  0.10086366
   0.64890074  0.64742683  0.10083933
   0.32806338  0.32664656  0.10126537
   0.68042446  0.00275430  0.10119030
   0.00420582  0.67901186  0.10117422
   0.16652624  0.33327142  0.33779909
   0.33325089  0.16653435  0.33780129
   0.16668892  0.83340365  0.33780421
   0.33325955  0.66661131  0.33758025
   0.66658431  0.33328400  0.33758024
   0.83338318  0.16671197  0.33780427
   0.66661612  0.83322295  0.33779941
   0.83321729  0.66663897  0.33779723
Direct configuration=    30
   0.00421335  0.00278025  0.10286729
   0.35952382  0.00277934  0.10090734
   0.00425676  0.35816445  0.10090985
   0.64903025  0.64755770  0.10088772
   0.32815610  0.32672012  0.10124919
   0.68039530  0.00275089  0.10117548
   0.00420993  0.67901472  0.10115975
   0.16656678  0.33327502  0.33780893
   0.33325223  0.16656887  0.33781098
   0.16666933  0.83337507  0.33781350
   0.33324482  0.66660396  0.33761332
   0.66657260  0.33327419  0.33761332
   0.83335184  0.16669333  0.33781352
   0.66660372  0.83324819  0.33780890
   0.83324716  0.66662789  0.33780689
Direct configuration=    31
   0.00409987  0.00260110  0.10248485
   0.35936879  0.00273874  0.10098821
   0.00421200  0.35804887  0.10099061
   0.64925670  0.64778652  0.10097233
   0.32831821  0.32684873  0.10122091
   0.68034431  0.00274493  0.10114956
   0.00421712  0.67901972  0.10113445
   0.16663768  0.33328132  0.33782614
   0.33325458  0.16662924  0.33782791
   0.16663507  0.83332511  0.33782975
   0.33321907  0.66659109  0.33767115
   0.66655212  0.33325703  0.33767116
   0.83329702  0.16666074  0.33782968
   0.66658204  0.83329232  0.33782550
   0.83329940  0.66660853  0.33782378
Direct configuration=    32
   0.00417889  0.00271773  0.10224951
   0.35929634  0.00277786  0.10104665
   0.00422526  0.35791359  0.10104913
   0.64927262  0.64782628  0.10103565
   0.32824533  0.32678221  0.10118704
   0.68035687  0.00281002  0.10112409
   0.00426297  0.67897523  0.10111086
   0.16658507  0.33329490  0.33783562
   0.33327481  0.16661535  0.33783716
   0.16660044  0.83327885  0.33783843
   0.33327815  0.66663185  0.33771315
   0.66661451  0.33329407  0.33771316
   0.83325763  0.16661939  0.33783830
   0.66659861  0.83327789  0.33783436
   0.83324651  0.66661879  0.33783289
Direct configuration=    33
   0.00422249  0.00278209  0.10211964
   0.35925635  0.00279944  0.10107890
   0.00423258  0.35783893  0.10108142
   0.64928141  0.64784822  0.10107059
   0.32820511  0.32674550  0.10116835
   0.68036380  0.00284594  0.10111003
   0.00428828  0.67895067  0.10109783
   0.16655603  0.33330239  0.33784085
   0.33328597  0.16660768  0.33784227
   0.16658133  0.83325332  0.33784322
   0.33331075  0.66665434  0.33773633
   0.66664894  0.33331451  0.33773634
   0.83323589  0.16659657  0.33784306
   0.66660775  0.83326993  0.33783925
   0.83321732  0.66662445  0.33783792
Direct configuration=    34
   0.00428951  0.00287781  0.10200257
   0.35932514  0.00283562  0.10110239
   0.00425764  0.35786671  0.10110491
   0.64916966  0.64774694  0.10109811
   0.32813975  0.32669579  0.10115137
   0.68037779  0.00287433  0.10110316
   0.00430282  0.67892186  0.10109310
   0.16656594  0.33327902  0.33784752
   0.33325555  0.16658508  0.33784891
   0.16662455  0.83332399  0.33784976
   0.33325819  0.66661369  0.33775220
   0.66658812  0.33328262  0.33775221
   0.83330005  0.16664820  0.33784954
   0.66659783  0.83326047  0.33784573
   0.83324147  0.66662186  0.33784452
Direct configuration=    35
   0.00430461  0.00289936  0.10197620
   0.35934063  0.00284376  0.10110767
   0.00426328  0.35787297  0.10111020
   0.64914449  0.64772413  0.10110431
   0.32812502  0.32668459  0.10114754
   0.68038095  0.00288072  0.10110162
   0.00430610  0.67891537  0.10109204
   0.16656817  0.33327376  0.33784902
   0.33324870  0.16657999  0.33785041
   0.16663428  0.83333991  0.33785123
   0.33324636  0.66660454  0.33775577
   0.66657441  0.33327544  0.33775578
   0.83331450  0.16665983  0.33785100
   0.66659559  0.83325834  0.33784719
   0.83324691  0.66662127  0.33784601
Direct configuration=    36
   0.00429358  0.00287487  0.10188911
   0.35943163  0.00284967  0.10111629
   0.00427403  0.35797215  0.10111878
   0.64907021  0.64764511  0.10111670
   0.32811893  0.32668493  0.10114049
   0.68039835  0.00286229  0.10110575
   0.00428889  0.67893895  0.10109857
   0.16659188  0.33327842  0.33785634
   0.33325279  0.16660420  0.33785780
   0.16662188  0.83331196  0.33785882
   0.33324145  0.66660800  0.33776040
   0.66657776  0.33327096  0.33776040
   0.83328556  0.16664680  0.33785848
   0.66658988  0.83327030  0.33785460
   0.83325718  0.66661539  0.33785349
Direct configuration=    37
   0.00428533  0.00285654  0.10182393
   0.35949973  0.00285408  0.10112274
   0.00428208  0.35804638  0.10112519
   0.64901462  0.64758596  0.10112596
   0.32811436  0.32668519  0.10113521
   0.68041138  0.00284849  0.10110884
   0.00427601  0.67895660  0.10110346
   0.16660962  0.33328191  0.33786181
   0.33325585  0.16662232  0.33786333
   0.16661259  0.83329104  0.33786449
   0.33323778  0.66661059  0.33776385
   0.66658026  0.33326760  0.33776385
   0.83326391  0.16663704  0.33786408
   0.66658561  0.83327925  0.33786016
   0.83326487  0.66661099  0.33785909
Direct configuration=    38
   0.00424765  0.00279356  0.10172451
   0.35953072  0.00284601  0.10112606
   0.00428380  0.35810194  0.10112844
   0.64902535  0.64758721  0.10113317
   0.32811626  0.32668685  0.10113289
   0.68043860  0.00281897  0.10112012
   0.00425455  0.67900767  0.10111767
   0.16654431  0.33328840  0.33787185
   0.33326683  0.16658012  0.33787351
   0.16660392  0.83330083  0.33787507
   0.33328059  0.66662531  0.33776409
   0.66660671  0.33329684  0.33776409
   0.83327860  0.16662602  0.33787451
   0.66659437  0.83325695  0.33787053
   0.83322175  0.66661731  0.33786949
Direct configuration=    39
   0.00425131  0.00279968  0.10173417
   0.35952771  0.00284679  0.10112574
   0.00428363  0.35809655  0.10112813
   0.64902431  0.64758709  0.10113247
   0.32811608  0.32668669  0.10113311
   0.68043596  0.00282184  0.10111903
   0.00425663  0.67900271  0.10111629
   0.16655065  0.33328777  0.33787087
   0.33326576  0.16658422  0.33787252
   0.16660476  0.83329988  0.33787404
   0.33327643  0.66662389  0.33776406
   0.66660414  0.33329400  0.33776407
   0.83327717  0.16662709  0.33787350
   0.66659352  0.83325912  0.33786953
   0.83322594  0.66661670  0.33786848
Direct configuration=    40
   0.00424500  0.00279024  0.10165351
   0.35948621  0.00284230  0.10112641
   0.00428292  0.35806154  0.10112870
   0.64908012  0.64763934  0.10113536
   0.32811753  0.32668597  0.10113354
   0.68044001  0.00281679  0.10112989
   0.00425608  0.67901338  0.10112937
   0.16655547  0.33327700  0.33787971
   0.33325307  0.16658486  0.33788146
   0.16660888  0.83330424  0.33788337
   0.33326474  0.66662090  0.33776275
   0.66659883  0.33328603  0.33776276
   0.83327982  0.16663223  0.33788272
   0.66659843  0.83325685  0.33787876
   0.83322690  0.66662233  0.33787769
Direct configuration=    41
   0.00423519  0.00277556  0.10152812
   0.35942168  0.00283531  0.10112746
   0.00428182  0.35800712  0.10112959
   0.64916688  0.64772057  0.10113986
   0.32811978  0.32668484  0.10113421
   0.68044630  0.00280895  0.10114678
   0.00425523  0.67902996  0.10114971
   0.16656295  0.33326024  0.33789344
   0.33323333  0.16658586  0.33789537
   0.16661529  0.83331102  0.33789787
   0.33324658  0.66661625  0.33776070
   0.66659057  0.33327365  0.33776072
   0.83328394  0.16664024  0.33789706
   0.66660606  0.83325332  0.33789312
   0.83322841  0.66663110  0.33789200
Direct configuration=    42
   0.00424957  0.00279870  0.10146763
   0.35940550  0.00283709  0.10113096
   0.00428294  0.35798468  0.10113302
   0.64917345  0.64772783  0.10114440
   0.32813527  0.32669971  0.10113231
   0.68042656  0.00281739  0.10115127
   0.00426352  0.67900359  0.10115555
   0.16656929  0.33327101  0.33789954
   0.33324426  0.16659188  0.33790152
   0.16660774  0.83330382  0.33790424
   0.33324688  0.66661081  0.33776216
   0.66658285  0.33327430  0.33776218
   0.83327654  0.16663372  0.33790338
   0.66659143  0.83326159  0.33789949
   0.83323820  0.66661787  0.33789835
Direct configuration=    43
   0.00426418  0.00282223  0.10140613
   0.35938906  0.00283890  0.10113452
   0.00428408  0.35796187  0.10113651
   0.64918013  0.64773521  0.10114901
   0.32815102  0.32671483  0.10113038
   0.68040649  0.00282597  0.10115583
   0.00427195  0.67897678  0.10116149
   0.16657574  0.33328196  0.33790574
   0.33325537  0.16659800  0.33790777
   0.16660007  0.83329650  0.33791072
   0.33324719  0.66660529  0.33776365
   0.66657500  0.33327495  0.33776367
   0.83326902  0.16662710  0.33790981
   0.66657655  0.83326999  0.33790596
   0.83324815  0.66660443  0.33790482
Direct configuration=    44
   0.00429340  0.00286928  0.10128311
   0.35935616  0.00284252  0.10114165
   0.00428635  0.35791624  0.10114348
   0.64919349  0.64774997  0.10115824
   0.32818253  0.32674507  0.10112651
   0.68036635  0.00284312  0.10116496
   0.00428881  0.67892314  0.10117337
   0.16658863  0.33330385  0.33791813
   0.33327760  0.16661025  0.33792027
   0.16658471  0.83328187  0.33792369
   0.33324781  0.66659423  0.33776662
   0.66655930  0.33327626  0.33776665
   0.83325397  0.16661385  0.33792266
   0.66654681  0.83328681  0.33791892
   0.83326806  0.66657754  0.33791774
Direct configuration=    45
   0.00427402  0.00283807  0.10136472
   0.35937798  0.00284012  0.10113692
   0.00428484  0.35794651  0.10113885
   0.64918463  0.64774018  0.10115212
   0.32816163  0.32672501  0.10112907
   0.68039298  0.00283174  0.10115890
   0.00427763  0.67895872  0.10116549
   0.16658008  0.33328933  0.33790991
   0.33326285  0.16660212  0.33791197
   0.16659490  0.83329158  0.33791509
   0.33324740  0.66660156  0.33776465
   0.66656972  0.33327539  0.33776467
   0.83326395  0.16662264  0.33791413
   0.66656654  0.83327566  0.33791032
   0.83325486  0.66659538  0.33790917
Direct configuration=    46
   0.00429096  0.00286495  0.10129312
   0.35938741  0.00284251  0.10114691
   0.00428533  0.35794725  0.10114876
   0.64916074  0.64771807  0.10116234
   0.32817964  0.32674129  0.10112263
   0.68037392  0.00284437  0.10115717
   0.00428860  0.67893058  0.10116474
   0.16656755  0.33328284  0.33791594
   0.33325588  0.16659399  0.33791802
   0.16660062  0.83329105  0.33792128
   0.33324905  0.66660952  0.33777134
   0.66658088  0.33327556  0.33777135
   0.83326314  0.16662740  0.33792029
   0.66657518  0.83326167  0.33791662
   0.83323509  0.66660294  0.33791548
Direct configuration=    47
   0.00432634  0.00292107  0.10114367
   0.35940710  0.00284751  0.10116775
   0.00428634  0.35794879  0.10116944
   0.64911089  0.64767192  0.10118368
   0.32821724  0.32677527  0.10110917
   0.68033413  0.00287073  0.10115355
   0.00431152  0.67887185  0.10116319
   0.16654140  0.33326929  0.33792853
   0.33324132  0.16657700  0.33793064
   0.16661256  0.83328995  0.33793419
   0.33325250  0.66662614  0.33778530
   0.66660417  0.33327592  0.33778529
   0.83326144  0.16663734  0.33793315
   0.66659321  0.83323249  0.33792976
   0.83319382  0.66661873  0.33792867
Direct configuration=    48
   0.00431254  0.00289918  0.10120198
   0.35939942  0.00284556  0.10115962
   0.00428595  0.35794819  0.10116137
   0.64913034  0.64768992  0.10117536
   0.32820257  0.32676201  0.10111442
   0.68034966  0.00286044  0.10115496
   0.00430258  0.67889476  0.10116380
   0.16655161  0.33327457  0.33792362
   0.33324700  0.16658363  0.33792572
   0.16660790  0.83329038  0.33792915
   0.33325116  0.66661966  0.33777986
   0.66659509  0.33327578  0.33777985
   0.83326210  0.16663346  0.33792813
   0.66658618  0.83324388  0.33792463
   0.83320992  0.66661257  0.33792352
Direct configuration=    49
   0.00431083  0.00289600  0.10113167
   0.35941576  0.00284369  0.10117286
   0.00428436  0.35796525  0.10117455
   0.64911832  0.64767748  0.10118811
   0.32819868  0.32675450  0.10110635
   0.68036245  0.00286385  0.10114891
   0.00430618  0.67890839  0.10115815
   0.16654718  0.33326892  0.33792871
   0.33324088  0.16657983  0.33793078
   0.16660214  0.83329316  0.33793428
   0.33325076  0.66661680  0.33778983
   0.66659160  0.33327606  0.33778982
   0.83326465  0.16662867  0.33793325
   0.66658874  0.83324559  0.33792991
   0.83321148  0.66661583  0.33792884
Direct configuration=    50
   0.00430572  0.00288646  0.10092075
   0.35946478  0.00283808  0.10121258
   0.00427959  0.35801641  0.10121408
   0.64908225  0.64764013  0.10122637
   0.32818700  0.32673197  0.10108212
   0.68040081  0.00287405  0.10113074
   0.00431698  0.67894926  0.10114121
   0.16653391  0.33325196  0.33794397
   0.33322250  0.16656842  0.33794598
   0.16658488  0.83330151  0.33794964
   0.33324956  0.66660823  0.33781974
   0.66658115  0.33327688  0.33781970