   16   16    1    1
  0.2012733E+02  0.4979000E-09  0.4979000E-09  0.1500000E-08  0.5000000E-15
  1.000000000000000E-004
  CAR 
 SC                                      
     56     36     48
 
  0.0000000E+00  0.0000000E+00  0.0000000E+00  0.8264463E-02
      1        -19.768037   1.000000
      2        -15.920276   1.000000
      3        -14.655659   1.000000
      4        -14.652739   1.000000
      5        -14.650891   1.000000
      6        -13.531221   1.000000
      7        -13.526486   1.000000
      8        -13.525512   1.000000
      9        -11.717235   1.000000
     10        -11.567006   1.000000
     11        -11.564627   1.000000
     12         -9.365298   1.000000
     13         -9.361743   1.000000
     14         -8.061974   1.000000
     15         -7.371031   1.000000
     16         -6.807680   1.000000
     17         -6.807667   1.000000
     18         -6.804109   1.000000
     19         -6.596673   1.000000
     20         -3.522664   1.000000
     21         -3.512807   1.000000
     22         -2.838369   1.000000
     23         -2.821692   1.000000
     24         -2.809199   1.000000
     25         -1.571505   1.000000
     26         -1.568316   1.000000
     27         -0.313641   0.970820
     28         -0.183447   0.520641
     29         -0.127409   0.229425
     30          0.706182   0.000000
     31          0.809813   0.000000
     32          1.139352   0.000000
     33          1.164704   0.000000
     34          1.396853   0.000000
     35          1.515847   0.000000
     36          1.639683   0.000000
     37          2.963917   0.000000
     38          3.582888   0.000000
     39          4.503120   0.000000
     40          4.779841   0.000000
     41          6.613495   0.000000
     42          6.615837   0.000000
     43          6.619388   0.000000
     44          6.992367   0.000000
     45          7.654914   0.000000
     46          7.667993   0.000000
     47          7.713178   0.000000
     48          8.311521   0.000000
 
  0.9090909E-01  0.2187897E-17  0.0000000E+00  0.3305785E-01
      1        -19.719998   1.000000
      2        -15.881822   1.000000
      3        -15.190150   1.000000
      4        -14.799281   1.000000
      5        -14.796826   1.000000
      6        -13.306527   1.000000
      7        -13.302373   1.000000
      8        -12.918450   1.000000
      9        -12.237393   1.000000
     10        -11.605054   1.000000
     11        -11.076392   1.000000
     12         -9.431977   1.000000
     13         -9.263333   1.000000
     14         -8.001434   1.000000
     15         -7.187386   1.000000
     16         -6.956797   1.000000
     17         -6.953367   1.000000
     18         -6.760283   1.000000
     19         -6.537955   1.000000
     20         -3.714679   1.000000
     21         -3.622600   1.000000
     22         -3.125862   1.000000
     23         -2.867544   1.000000
     24         -2.847267   1.000000
     25         -2.032366   1.000000
     26         -1.969749   1.000000
     27         -0.948595   1.000000
     28         -0.212117   0.676244
     29          0.307469   0.000000
     30          0.857611   0.000000
     31          0.967578   0.000000
     32          1.278854   0.000000
     33          1.430275   0.000000
     34          1.495516   0.000000
     35          1.991632   0.000000
     36          2.105372   0.000000
     37          3.040296   0.000000
     38          3.662437   0.000000
     39          4.672874   0.000000
     40          4.866056   0.000000
     41          6.641383   0.000000
     42          6.839132   0.000000
     43          6.843520   0.000000
     44          7.046193   0.000000
     45          7.669518   0.000000
     46          7.762843   0.000000
     47          7.870947   0.000000
     48          7.971553   0.000000
 
 -0.9090909E-01  0.9090909E-01  0.0000000E+00  0.1652893E-01
      1        -19.720000   1.000000
      2        -15.881797   1.000000
      3        -15.189472   1.000000
      4        -14.799695   1.000000
      5        -14.797854   1.000000
      6        -13.302640   1.000000
      7        -13.302480   1.000000
      8        -12.921431   1.000000
      9        -12.238878   1.000000
     10        -11.602661   1.000000
     11        -11.077091   1.000000
     12         -9.429705   1.000000
     13         -9.265953   1.000000
     14         -8.001297   1.000000
     15         -7.187507   1.000000
     16         -6.956845   1.000000
     17         -6.956670   1.000000
     18         -6.756907   1.000000
     19         -6.537899   1.000000
     20         -3.721600   1.000000
     21         -3.615610   1.000000
     22         -3.112997   1.000000
     23         -2.869756   1.000000
     24         -2.860239   1.000000
     25         -2.029018   1.000000
     26         -1.972973   1.000000
     27         -0.958175   1.000000
     28         -0.216693   0.699142
     29          0.354308   0.000000
     30          0.849653   0.000000
     31          0.991156   0.000000
     32          1.273034   0.000000
     33          1.307217   0.000000
     34          1.563887   0.000000
     35          2.024725   0.000000
     36          2.087658   0.000000
     37          3.039017   0.000000
     38          3.661559   0.000000
     39          4.675953   0.000000
     40          4.864931   0.000000
     41          6.643887   0.000000
     42          6.839842   0.000000
     43          6.840212   0.000000
     44          7.046129   0.000000
     45          7.679245   0.000000
     46          7.761583   0.000000
     47          7.861375   0.000000
     48          7.970232   0.000000
 
  0.1818182E+00 -0.1668411E-16  0.0000000E+00  0.3305785E-01
      1        -19.575991   1.000000
      2        -15.992694   1.000000
      3        -15.767366   1.000000
      4        -15.062051   1.000000
      5        -15.060345   1.000000
      6        -12.821593   1.000000
      7        -12.808081   1.000000
      8        -12.806295   1.000000
      9        -11.903734   1.000000
     10        -11.696496   1.000000
     11        -10.666958   1.000000
     12         -9.450648   1.000000
     13         -8.992986   1.000000
     14         -7.825281   1.000000
     15         -7.370784   1.000000
     16         -7.367519   1.000000
     17         -6.775759   1.000000
     18         -6.619435   1.000000
     19         -6.363118   1.000000
     20         -4.275947   1.000000
     21         -3.905855   1.000000
     22         -3.795836   1.000000
     23         -2.984997   1.000000
     24         -2.947913   1.000000
     25         -2.845331   1.000000
     26         -2.690305   1.000000
     27         -1.813198   1.000000
     28         -0.508095   0.999998
     29          0.251711   0.000000
     30          1.351260   0.000000
     31          1.475269   0.000000
     32          1.749960   0.000000
     33          1.957702   0.000000
     34          2.353258   0.000000
     35          2.829455   0.000000
     36          2.897604   0.000000
     37          3.315940   0.000000
     38          3.890342   0.000000
     39          4.983978   0.000000
     40          5.251754   0.000000
     41          6.716547   0.000000
     42          6.907783   0.000000
     43          7.240673   0.000000
     44          7.476433   0.000000
     45          7.481801   0.000000
     46          7.707861   0.000000
     47          7.869315   0.000000
     48          8.028245   0.000000
 
 -0.1818182E+00  0.1818182E+00  0.0000000E+00  0.1652893E-01
      1        -19.576001   1.000000
      2        -15.992582   1.000000
      3        -15.767249   1.000000
      4        -15.062304   1.000000
      5        -15.060790   1.000000
      6        -12.821536   1.000000
      7        -12.807143   1.000000
      8        -12.805852   1.000000
      9        -11.906322   1.000000
     10        -11.694287   1.000000
     11        -10.666126   1.000000
     12         -9.449624   1.000000
     13         -8.995491   1.000000
     14         -7.824915   1.000000
     15         -7.371032   1.000000
     16         -7.370706   1.000000
     17         -6.776389   1.000000
     18         -6.615971   1.000000
     19         -6.362802   1.000000
     20         -4.282314   1.000000
     21         -3.899257   1.000000
     22         -3.786535   1.000000
     23         -2.989357   1.000000
     24         -2.967890   1.000000
     25         -2.833411   1.000000
     26         -2.692667   1.000000
     27         -1.818984   1.000000
     28         -0.514361   0.999999
     29          0.287441   0.000000
     30          1.392961   0.000000
     31          1.435981   0.000000
     32          1.749244   0.000000
     33          1.921761   0.000000
     34          2.370356   0.000000
     35          2.837220   0.000000
     36          2.893444   0.000000
     37          3.309950   0.000000
     38          3.886938   0.000000
     39          4.989176   0.000000
     40          5.254935   0.000000
     41          6.718369   0.000000
     42          6.906765   0.000000
     43          7.240949   0.000000
     44          7.476027   0.000000
     45          7.479422   0.000000
     46          7.713876   0.000000
     47          7.863129   0.000000
     48          8.031192   0.000000
 
  0.2727273E+00  0.3515830E-16  0.0000000E+00  0.3305785E-01
      1        -19.336529   1.000000
      2        -16.757264   1.000000
      3        -15.583258   1.000000
      4        -15.297240   1.000000
      5        -15.295712   1.000000
      6        -13.368999   1.000000
      7        -12.202079   1.000000
      8        -12.199297   1.000000
      9        -11.799350   1.000000
     10        -10.791627   1.000000
     11        -10.563903   1.000000
     12         -9.145379   1.000000
     13         -8.612949   1.000000
     14         -7.965976   1.000000
     15         -7.962960   1.000000
     16         -7.537615   1.000000
     17         -6.399975   1.000000
     18         -6.388405   1.000000
     19         -6.079142   1.000000
     20         -5.114243   1.000000
     21         -4.564843   1.000000
     22         -4.311484   1.000000
     23         -3.731432   1.000000
     24         -3.321373   1.000000
     25         -3.078951   1.000000
     26         -3.054116   1.000000
     27         -2.670072   1.000000
     28         -0.820989   1.000000
     29          0.085126   0.000090
     30          1.721197   0.000000
     31          1.763508   0.000000
     32          2.679456   0.000000
     33          2.853375   0.000000
     34          3.394664   0.000000
     35          3.505339   0.000000
     36          3.794687   0.000000
     37          3.939439   0.000000
     38          4.284686   0.000000
     39          5.323052   0.000000
     40          5.725881   0.000000
     41          5.874705   0.000000
     42          6.823100   0.000000
     43          7.086275   0.000000
     44          7.492128   0.000000
     45          7.631362   0.000000
     46          7.700546   0.000000
     47          7.780844   0.000000
     48          7.926124   0.000000
 
 -0.2727273E+00  0.2727273E+00  0.0000000E+00  0.1652893E-01
      1        -19.336551   1.000000
      2        -16.757300   1.000000
      3        -15.582949   1.000000
      4        -15.297235   1.000000
      5        -15.296040   1.000000
      6        -13.371085   1.000000
      7        -12.199124   1.000000
      8        -12.199020   1.000000
      9        -11.797240   1.000000
     10        -10.794250   1.000000
     11        -10.561665   1.000000
     12         -9.145384   1.000000
     13         -8.615498   1.000000
     14         -7.966610   1.000000
     15         -7.966034   1.000000
     16         -7.536985   1.000000
     17         -6.401444   1.000000
     18         -6.385252   1.000000
     19         -6.078066   1.000000
     20         -5.119774   1.000000
     21         -4.558473   1.000000
     22         -4.305537   1.000000
     23         -3.733709   1.000000
     24         -3.328129   1.000000
     25         -3.083739   1.000000
     26         -3.052429   1.000000
     27         -2.674790   1.000000
     28         -0.825569   1.000000
     29          0.105578   0.000027
     30          1.734739   0.000000
     31          1.758377   0.000000
     32          2.686013   0.000000
     33          2.849050   0.000000
     34          3.386077   0.000000
     35          3.513628   0.000000
     36          3.784499   0.000000
     37          3.934534   0.000000
     38          4.273860   0.000000
     39          5.328281   0.000000
     40          5.727765   0.000000
     41          5.886499   0.000000
     42          6.820942   0.000000
     43          7.085478   0.000000
     44          7.490012   0.000000
     45          7.637471   0.000000
     46          7.711451   0.000000
     47          7.783609   0.000000
     48          7.922870   0.000000
 
  0.3636364E+00  0.1436499E-16  0.0000000E+00  0.3305785E-01
      1        -19.002418   1.000000
      2        -17.448534   1.000000
      3        -15.463931   1.000000
      4        -15.463316   1.000000
      5        -15.343198   1.000000
      6        -13.859557   1.000000
      7        -11.882589   1.000000
      8        -11.559952   1.000000
      9        -11.557360   1.000000
     10        -10.628460   1.000000
     11         -9.628897   1.000000
     12         -8.640146   1.000000
     13         -8.631448   1.000000
     14         -8.626411   1.000000
     15         -8.205366   1.000000
     16         -7.141892   1.000000
     17         -6.319302   1.000000
     18         -6.136353   1.000000
     19         -6.075271   1.000000
     20         -5.718571   1.000000
     21         -5.292339   1.000000
     22         -4.775930   1.000000
     23         -4.457741   1.000000
     24         -3.642719   1.000000
     25         -3.527859   1.000000
     26         -3.152953   1.000000
     27         -3.091545   1.000000
     28         -1.045559   1.000000
     29         -0.056257   0.040320
     30          2.028589   0.000000
     31          2.040582   0.000000
     32          3.524152   0.000000
     33          3.857464   0.000000
     34          3.981151   0.000000
     35          4.515961   0.000000
     36          4.620615   0.000000
     37          4.738626   0.000000
     38          4.872131   0.000000
     39          4.940651   0.000000
     40          5.646585   0.000000
     41          5.922741   0.000000
     42          6.528422   0.000000
     43          6.898379   0.000000
     44          6.972100   0.000000
     45          7.045594   0.000000
     46          7.230777   0.000000
     47          7.575684   0.000000
     48          7.864634   0.000000
 
 -0.3636364E+00  0.3636364E+00  0.0000000E+00  0.1652893E-01
      1        -19.002455   1.000000
      2        -17.448607   1.000000
      3        -15.464782   1.000000
      4        -15.462621   1.000000
      5        -15.342420   1.000000
      6        -13.862152   1.000000
      7        -11.880874   1.000000
      8        -11.556814   1.000000
      9        -11.556101   1.000000
     10        -10.625728   1.000000
     11         -9.631840   1.000000
     12         -8.641723   1.000000
     13         -8.633493   1.000000
     14         -8.627573   1.000000
     15         -8.207726   1.000000
     16         -7.140855   1.000000
     17         -6.322593   1.000000
     18         -6.141044   1.000000
     19         -6.071387   1.000000
     20         -5.716525   1.000000
     21         -5.288479   1.000000
     22         -4.770636   1.000000
     23         -4.459396   1.000000
     24         -3.653888   1.000000
     25         -3.521735   1.000000
     26         -3.150294   1.000000
     27         -3.101869   1.000000
     28         -1.048994   1.000000
     29         -0.043585   0.027041
     30          2.036378   0.000000
     31          2.047749   0.000000
     32          3.533284   0.000000
     33          3.865117   0.000000
     34          3.981386   0.000000
     35          4.496215   0.000000
     36          4.641952   0.000000
     37          4.723239   0.000000
     38          4.876786   0.000000
     39          4.894803   0.000000
     40          5.664232   0.000000
     41          5.928013   0.000000
     42          6.541833   0.000000
     43          6.904051   0.000000
     44          6.975191   0.000000
     45          7.043424   0.000000
     46          7.240514   0.000000
     47          7.581198   0.000000
     48          7.885391   0.000000
 
  0.4545455E+00 -0.2640596E-16  0.0000000E+00  0.3305785E-01
      1        -18.574973   1.000000
      2        -18.056032   1.000000
      3        -15.549189   1.000000
      4        -15.548293   1.000000
      5        -15.113836   1.000000
      6        -14.217495   1.000000
      7        -11.927396   1.000000
      8        -11.032596   1.000000
      9        -11.030951   1.000000
     10        -10.686419   1.000000
     11         -9.182130   1.000000
     12         -9.180703   1.000000
     13         -8.443474   1.000000
     14         -8.203615   1.000000
     15         -7.908646   1.000000
     16         -7.265062   1.000000
     17         -6.667133   1.000000
     18         -6.483058   1.000000
     19         -6.024459   1.000000
     20         -5.689390   1.000000
     21         -5.257961   1.000000
     22         -5.247691   1.000000
     23         -4.915394   1.000000
     24         -4.175317   1.000000
     25         -3.616306   1.000000
     26         -3.206435   1.000000
     27         -3.161789   1.000000
     28         -1.160458   1.000000
     29         -0.134064   0.258939
     30          2.211243   0.000000
     31          2.212966   0.000000
     32          4.112695   0.000000
     33          4.308406   0.000000
     34          4.610130   0.000000
     35          4.835818   0.000000
     36          5.011259   0.000000
     37          5.159102   0.000000
     38          5.486778   0.000000
     39          5.499736   0.000000
     40          5.825368   0.000000
     41          6.013130   0.000000
     42          6.221487   0.000000
     43          6.344561   0.000000
     44          6.481746   0.000000
     45          6.666639   0.000000
     46          7.109094   0.000000
     47          7.133542   0.000000
     48          7.198173   0.000000
 
 -0.4545455E+00  0.4545455E+00  0.0000000E+00  0.1652893E-01
      1        -18.575024   1.000000
      2        -18.056107   1.000000
      3        -15.549594   1.000000
      4        -15.547969   1.000000
      5        -15.112075   1.000000
      6        -14.221090   1.000000
      7        -11.925640   1.000000
      8        -11.028897   1.000000
      9        -11.028409   1.000000
     10        -10.683374   1.000000
     11         -9.185403   1.000000
     12         -9.184539   1.000000
     13         -8.446864   1.000000
     14         -8.202359   1.000000
     15         -7.911498   1.000000
     16         -7.268999   1.000000
     17         -6.665469   1.000000
     18         -6.487392   1.000000
     19         -6.021854   1.000000
     20         -5.685124   1.000000
     21         -5.254397   1.000000
     22         -5.243066   1.000000
     23         -4.917149   1.000000
     24         -4.181440   1.000000
     25         -3.615935   1.000000
     26         -3.204098   1.000000
     27         -3.171264   1.000000
     28         -1.163369   1.000000
     29         -0.124560   0.217393
     30          2.218452   0.000000
     31          2.224474   0.000000
     32          4.116302   0.000000
     33          4.314803   0.000000
     34          4.609529   0.000000
     35          4.851645   0.000000
     36          5.001911   0.000000
     37          5.158735   0.000000
     38          5.480169   0.000000
     39          5.489384   0.000000
     40          5.748173   0.000000
     41          6.081936   0.000000
     42          6.226530   0.000000
     43          6.351882   0.000000
     44          6.477772   0.000000
     45          6.683799   0.000000
     46          7.103663   0.000000
     47          7.109967   0.000000
     48          7.187579   0.000000
 
  0.9090909E-01  0.9090909E-01  0.0000000E+00  0.1652893E-01
      1        -19.623972   1.000000
      2        -15.805807   1.000000
      3        -15.559869   1.000000
      4        -15.555611   1.000000
      5        -14.526961   1.000000
      6        -13.412770   1.000000
      7        -12.658298   1.000000
      8        -12.404131   1.000000
      9        -12.400463   1.000000
     10        -11.696865   1.000000
     11        -10.709720   1.000000
     12         -9.513186   1.000000
     13         -9.056200   1.000000
     14         -7.883587   1.000000
     15         -7.416277   1.000000
     16         -6.894151   1.000000
     17         -6.862158   1.000000
     18         -6.861632   1.000000
     19         -6.421153   1.000000
     20         -4.079971   1.000000
     21         -3.830663   1.000000
     22         -3.415334   1.000000
     23         -3.374764   1.000000
     24         -2.666694   1.000000
     25         -2.636653   1.000000
     26         -2.459843   1.000000
     27         -1.553002   1.000000
     28         -0.567812   1.000000
     29          0.464651   0.000000
     30          1.150565   0.000000
     31          1.378137   0.000000
     32          1.578561   0.000000
     33          1.863407   0.000000
     34          1.924010   0.000000
     35          2.516782   0.000000
     36          2.790321   0.000000
     37          3.230291   0.000000
     38          3.815944   0.000000
     39          4.905520   0.000000
     40          5.106705   0.000000
     41          6.890620   0.000000
     42          6.891711   0.000000
     43          7.121963   0.000000
     44          7.355059   0.000000
     45          7.455104   0.000000
     46          7.735622   0.000000
     47          7.922728   0.000000
     48          7.975869   0.000000
 
 -0.9090909E-01  0.1818182E+00  0.0000000E+00  0.3305785E-01
      1        -19.623979   1.000000
      2        -15.805733   1.000000
      3        -15.560119   1.000000
      4        -15.555031   1.000000
      5        -14.529205   1.000000
      6        -13.408200   1.000000
      7        -12.660032   1.000000
      8        -12.406226   1.000000
      9        -12.400935   1.000000
     10        -11.694474   1.000000
     11        -10.710008   1.000000
     12         -9.510924   1.000000
     13         -9.059036   1.000000
     14         -7.883322   1.000000
     15         -7.419449   1.000000
     16         -6.894645   1.000000
     17         -6.862041   1.000000
     18         -6.858499   1.000000
     19         -6.420970   1.000000
     20         -4.086981   1.000000
     21         -3.823489   1.000000
     22         -3.410832   1.000000
     23         -3.367240   1.000000
     24         -2.673976   1.000000
     25         -2.659584   1.000000
     26         -2.446730   1.000000
     27         -1.561163   1.000000
     28         -0.579492   1.000000
     29          0.597419   0.000000
     30          1.050387   0.000000
     31          1.361735   0.000000
     32          1.523065   0.000000
     33          1.886378   0.000000
     34          1.957576   0.000000
     35          2.539882   0.000000
     36          2.780760   0.000000
     37          3.224420   0.000000
     38          3.813746   0.000000
     39          4.909348   0.000000
     40          5.107427   0.000000
     41          6.890191   0.000000
     42          6.894622   0.000000
     43          7.122352   0.000000
     44          7.353739   0.000000
     45          7.451792   0.000000
     46          7.740817   0.000000
     47          7.928131   0.000000
     48          7.977766   0.000000
 
  0.1818182E+00  0.9090909E-01  0.0000000E+00  0.3305785E-01
      1        -19.432237   1.000000
      2        -16.349250   1.000000
      3        -15.859665   1.000000
      4        -15.655170   1.000000
      5        -14.545615   1.000000
      6        -13.164528   1.000000
      7        -13.079722   1.000000
      8        -11.845889   1.000000
      9        -11.805229   1.000000
     10        -11.333219   1.000000
     11        -10.400740   1.000000
     12         -9.454517   1.000000
     13         -8.695920   1.000000
     14         -8.064936   1.000000
     15         -7.652178   1.000000
     16         -7.225791   1.000000
     17         -6.674374   1.000000
     18         -6.516199   1.000000
     19         -6.191038   1.000000
     20         -4.753252   1.000000
     21         -4.202017   1.000000
     22         -4.140224   1.000000
     23         -3.648168   1.000000
     24         -3.422675   1.000000
     25         -3.084586   1.000000
     26         -2.513314   1.000000
     27         -2.332421   1.000000
     28         -1.029516   1.000000
     29          0.527128   0.000000
     30          1.218642   0.000000
     31          2.029639   0.000000
     32          2.250102   0.000000
     33          2.385318   0.000000
     34          2.882536   0.000000
     35          3.311437   0.000000
     36          3.455920   0.000000
     37          3.847550   0.000000
     38          4.146856   0.000000
     39          5.203885   0.000000
     40          5.600140   0.000000
     41          6.327939   0.000000
     42          6.984956   0.000000
     43          7.159071   0.000000
     44          7.382107   0.000000
     45          7.545179   0.000000
     46          7.591533   0.000000
     47          7.819241   0.000000
     48          8.116543   0.000000
 
 -0.9090909E-01  0.2727273E+00  0.0000000E+00  0.3305785E-01
      1        -19.432249   1.000000
      2        -16.349236   1.000000
      3        -15.859521   1.000000
      4        -15.655035   1.000000
      5        -14.547107   1.000000
      6        -13.165317   1.000000
      7        -13.076465   1.000000
      8        -11.843394   1.000000
      9        -11.808543   1.000000
     10        -11.333061   1.000000
     11        -10.401067   1.000000
     12         -9.452285   1.000000
     13         -8.698176   1.000000
     14         -8.067909   1.000000
     15         -7.651909   1.000000
     16         -7.222640   1.000000
     17         -6.674595   1.000000
     18         -6.517085   1.000000
     19         -6.190855   1.000000
     20         -4.757493   1.000000
     21         -4.197596   1.000000
     22         -4.140266   1.000000
     23         -3.630948   1.000000
     24         -3.434719   1.000000
     25         -3.088842   1.000000
     26         -2.523892   1.000000
     27         -2.331421   1.000000
     28         -1.038258   1.000000
     29          0.634997   0.000000
     30          1.121370   0.000000
     31          2.018894   0.000000
     32          2.214986   0.000000
     33          2.431485   0.000000
     34          2.889074   0.000000
     35          3.315938   0.000000
     36          3.460571   0.000000
     37          3.841294   0.000000
     38          4.143591   0.000000
     39          5.203811   0.000000
     40          5.604284   0.000000
     41          6.327055   0.000000
     42          6.985848   0.000000
     43          7.160585   0.000000
     44          7.380511   0.000000
     45          7.552477   0.000000
     46          7.588596   0.000000
     47          7.825079   0.000000
     48          8.109798   0.000000
 
 -0.2727273E+00  0.1818182E+00  0.0000000E+00  0.3305785E-01
      1        -19.432256   1.000000
      2        -16.349225   1.000000
      3        -15.859636   1.000000
      4        -15.654934   1.000000
      5        -14.547138   1.000000
      6        -13.166228   1.000000
      7        -13.076321   1.000000
      8        -11.843290   1.000000
      9        -11.805005   1.000000
     10        -11.335748   1.000000
     11        -10.399622   1.000000
     12         -9.453159   1.000000
     13         -8.698889   1.000000
     14         -8.068031   1.000000
     15         -7.651662   1.000000
     16         -7.226129   1.000000
     17         -6.670945   1.000000
     18         -6.517734   1.000000
     19         -6.190469   1.000000
     20         -4.760453   1.000000
     21         -4.194456   1.000000
     22         -4.132166   1.000000
     23         -3.646945   1.000000
     24         -3.427063   1.000000
     25         -3.090466   1.000000
     26         -2.524498   1.000000
     27         -2.333844   1.000000
     28         -1.036563   1.000000
     29          0.632370   0.000000
     30          1.133151   0.000000
     31          2.024621   0.000000
     32          2.234953   0.000000
     33          2.402706   0.000000
     34          2.890540   0.000000
     35          3.317627   0.000000
     36          3.454329   0.000000
     37          3.841540   0.000000
     38          4.138861   0.000000
     39          5.206595   0.000000
     40          5.609431   0.000000
     41          6.326066   0.000000
     42          6.985951   0.000000
     43          7.164445   0.000000
     44          7.382734   0.000000
     45          7.550346   0.000000
     46          7.578247   0.000000
     47          7.828525   0.000000
     48          8.120644   0.000000
 
  0.2727273E+00  0.9090909E-01  0.0000000E+00  0.3305785E-01
      1        -19.145443   1.000000
      2        -17.078504   1.000000
      3        -16.080273   1.000000
      4        -15.440807   1.000000
      5        -14.678284   1.000000
      6        -13.658039   1.000000
      7        -12.505399   1.000000
      8        -11.982070   1.000000