  16  16   0  16
  0.2012733E+02  0.4979000E-09  0.4979000E-09  0.1500000E-08  0.5000000E-15
  1.000000000000000E-004
  CAR 
 Lattice                                 
      9.82053222    -21.17671152  301     -0.26830275      1.00000000
    -21.177  0.0000E+00  0.0000E+00
    -21.073  0.0000E+00  0.0000E+00
    -20.970  0.0000E+00  0.0000E+00
    -20.867  0.0000E+00  0.0000E+00
    -20.763  0.0000E+00  0.0000E+00
    -20.660  0.0000E+00  0.0000E+00
    -20.557  0.0000E+00  0.0000E+00
    -20.453  0.0000E+00  0.0000E+00
    -20.350  0.2905E-19  0.3001E-20
    -20.247  0.2967E-14  0.3065E-15
    -20.143  0.3173E-10  0.3279E-11
    -20.040  0.4541E-07  0.4695E-08
    -19.937  0.9281E-05  0.9637E-06
    -19.833  0.3079E-03  0.3278E-04
    -19.730  0.2084E-02  0.2482E-03
    -19.627  0.4279E-02  0.6903E-03
    -19.524  0.4860E-02  0.1192E-02
    -19.420  0.4873E-02  0.1696E-02
    -19.317  0.4916E-02  0.2204E-02
    -19.214  0.4897E-02  0.2710E-02
    -19.110  0.4882E-02  0.3214E-02
    -19.007  0.4956E-02  0.3726E-02
    -18.904  0.4917E-02  0.4234E-02
    -18.800  0.4805E-02  0.4731E-02
    -18.697  0.5261E-02  0.5274E-02
    -18.594  0.4416E-02  0.5731E-02
    -18.490  0.5493E-02  0.6298E-02
    -18.387  0.4742E-02  0.6788E-02
    -18.284  0.4587E-02  0.7262E-02
    -18.180  0.5740E-02  0.7855E-02
    -18.077  0.4531E-02  0.8324E-02
    -17.974  0.4528E-02  0.8791E-02
    -17.870  0.6013E-02  0.9413E-02
    -17.767  0.4608E-02  0.9889E-02
    -17.664  0.4231E-02  0.1033E-01
    -17.560  0.5969E-02  0.1094E-01
    -17.457  0.5334E-02  0.1149E-01
    -17.354  0.3928E-02  0.1190E-01
    -17.250  0.5184E-02  0.1244E-01
    -17.147  0.6168E-02  0.1307E-01
    -17.044  0.4780E-02  0.1357E-01
    -16.940  0.3791E-02  0.1396E-01
    -16.837  0.5955E-02  0.1457E-01
    -16.734  0.5944E-02  0.1519E-01
    -16.630  0.4749E-02  0.1568E-01
    -16.527  0.3828E-02  0.1607E-01
    -16.424  0.5838E-02  0.1668E-01
    -16.320  0.6536E-02  0.1735E-01
    -16.217  0.4491E-02  0.1782E-01
    -16.114  0.4223E-02  0.1825E-01
    -16.011  0.5246E-02  0.1879E-01
    -15.907  0.8126E-02  0.1963E-01
    -15.804  0.9636E-02  0.2063E-01
    -15.701  0.9883E-02  0.2165E-01
    -15.597  0.1119E-01  0.2281E-01
    -15.494  0.1311E-01  0.2416E-01
    -15.391  0.1316E-01  0.2552E-01
    -15.287  0.1206E-01  0.2677E-01
    -15.184  0.1169E-01  0.2798E-01
    -15.081  0.1529E-01  0.2956E-01
    -14.977  0.1677E-01  0.3129E-01
    -14.874  0.1256E-01  0.3259E-01
    -14.771  0.8802E-02  0.3350E-01
    -14.667  0.7680E-02  0.3429E-01
    -14.564  0.9158E-02  0.3524E-01
    -14.461  0.9340E-02  0.3620E-01
    -14.357  0.8759E-02  0.3711E-01
    -14.254  0.8549E-02  0.3799E-01
    -14.151  0.1162E-01  0.3919E-01
    -14.047  0.1277E-01  0.4051E-01
    -13.944  0.8265E-02  0.4136E-01
    -13.841  0.5109E-02  0.4189E-01
    -13.737  0.6189E-02  0.4253E-01
    -13.634  0.6800E-02  0.4323E-01
    -13.531  0.6423E-02  0.4390E-01
    -13.427  0.6720E-02  0.4459E-01
    -13.324  0.7362E-02  0.4535E-01
    -13.221  0.8210E-02  0.4620E-01
    -13.117  0.8271E-02  0.4706E-01
    -13.014  0.6539E-02  0.4773E-01
    -12.911  0.7665E-02  0.4852E-01
    -12.807  0.9209E-02  0.4947E-01
    -12.704  0.8314E-02  0.5033E-01
    -12.601  0.9722E-02  0.5134E-01
    -12.497  0.1087E-01  0.5246E-01
    -12.394  0.1160E-01  0.5366E-01
    -12.291  0.1251E-01  0.5495E-01
    -12.188  0.1374E-01  0.5637E-01
    -12.084  0.1269E-01  0.5768E-01
    -11.981  0.1466E-01  0.5920E-01
    -11.878  0.1696E-01  0.6095E-01
    -11.774  0.1655E-01  0.6266E-01
    -11.671  0.1237E-01  0.6394E-01
    -11.568  0.1127E-01  0.6510E-01
    -11.464  0.8489E-02  0.6598E-01
    -11.361  0.4660E-02  0.6646E-01
    -11.258  0.5111E-02  0.6699E-01
    -11.154  0.5760E-02  0.6759E-01
    -11.051  0.4042E-02  0.6800E-01
    -10.948  0.5650E-02  0.6859E-01
    -10.844  0.6290E-02  0.6924E-01
    -10.741  0.6276E-02  0.6988E-01
    -10.638  0.9974E-02  0.7092E-01
    -10.534  0.1507E-01  0.7247E-01
    -10.431  0.1726E-01  0.7426E-01
    -10.328  0.1152E-01  0.7545E-01
    -10.224  0.1224E-01  0.7671E-01
    -10.121  0.1288E-01  0.7804E-01
    -10.018  0.9573E-02  0.7903E-01
     -9.914  0.8370E-02  0.7989E-01
     -9.811  0.9536E-02  0.8088E-01
     -9.708  0.1053E-01  0.8197E-01
     -9.604  0.9378E-02  0.8294E-01
     -9.501  0.9832E-02  0.8395E-01
     -9.398  0.1590E-01  0.8560E-01
     -9.294  0.1724E-01  0.8738E-01
     -9.191  0.1761E-01  0.8920E-01
     -9.088  0.1375E-01  0.9062E-01
     -8.984  0.1299E-01  0.9196E-01
     -8.881  0.1640E-01  0.9365E-01
     -8.778  0.1316E-01  0.9501E-01
     -8.674  0.1460E-01  0.9652E-01
     -8.571  0.1816E-01  0.9840E-01
     -8.468  0.1402E-01  0.9985E-01
     -8.365  0.9923E-02  0.1009E+00
     -8.261  0.1554E-01  0.1025E+00
     -8.158  0.1637E-01  0.1042E+00
     -8.055  0.1370E-01  0.1056E+00
     -7.951  0.1568E-01  0.1072E+00
     -7.848  0.1728E-01  0.1090E+00
     -7.745  0.2041E-01  0.1111E+00
     -7.641  0.1755E-01  0.1129E+00
     -7.538  0.1987E-01  0.1150E+00
     -7.435  0.1898E-01  0.1169E+00
     -7.331  0.1661E-01  0.1186E+00
     -7.228  0.1500E-01  0.1202E+00
     -7.125  0.1567E-01  0.1218E+00
     -7.021  0.2069E-01  0.1239E+00
     -6.918  0.2104E-01  0.1261E+00
     -6.815  0.2111E-01  0.1283E+00
     -6.711  0.2272E-01  0.1307E+00
     -6.608  0.2249E-01  0.1330E+00
     -6.505  0.2538E-01  0.1356E+00
     -6.401  0.2790E-01  0.1385E+00
     -6.298  0.3002E-01  0.1416E+00
     -6.195  0.2252E-01  0.1439E+00
     -6.091  0.1712E-01  0.1457E+00
     -5.988  0.1600E-01  0.1473E+00
     -5.885  0.1587E-01  0.1490E+00
     -5.781  0.1674E-01  0.1507E+00
     -5.678  0.1539E-01  0.1523E+00
     -5.575  0.1492E-01  0.1538E+00
     -5.471  0.1338E-01  0.1552E+00
     -5.368  0.1256E-01  0.1565E+00
     -5.265  0.1522E-01  0.1581E+00
     -5.161  0.1659E-01  0.1598E+00
     -5.058  0.1456E-01  0.1613E+00
     -4.955  0.1500E-01  0.1629E+00
     -4.851  0.1595E-01  0.1645E+00
     -4.748  0.1211E-01  0.1658E+00
     -4.645  0.1393E-01  0.1672E+00
     -4.542  0.1467E-01  0.1687E+00
     -4.438  0.1407E-01  0.1702E+00
     -4.335  0.1462E-01  0.1717E+00
     -4.232  0.1895E-01  0.1736E+00
     -4.128  0.2030E-01  0.1757E+00
     -4.025  0.2309E-01  0.1781E+00
     -3.922  0.2060E-01  0.1802E+00
     -3.818  0.2068E-01  0.1824E+00
     -3.715  0.2478E-01  0.1849E+00
     -3.612  0.3004E-01  0.1880E+00
     -3.508  0.2643E-01  0.1908E+00
     -3.405  0.1712E-01  0.1925E+00
     -3.302  0.1099E-01  0.1937E+00
     -3.198  0.1204E-01  0.1949E+00
     -3.095  0.1586E-01  0.1966E+00
     -2.992  0.1252E-01  0.1979E+00
     -2.888  0.1091E-01  0.1990E+00
     -2.785  0.1157E-01  0.2002E+00
     -2.682  0.1478E-01  0.2017E+00
     -2.578  0.1413E-01  0.2032E+00
     -2.475  0.9484E-02  0.2041E+00
     -2.372  0.9201E-02  0.2051E+00
     -2.268  0.1047E-01  0.2062E+00
     -2.165  0.1180E-01  0.2074E+00
     -2.062  0.1024E-01  0.2085E+00
     -1.958  0.7760E-02  0.2093E+00
     -1.855  0.5644E-02  0.2098E+00
     -1.752  0.9654E-02  0.2108E+00
     -1.648  0.9994E-02  0.2119E+00
     -1.545  0.6275E-02  0.2125E+00
     -1.442  0.6169E-02  0.2132E+00
     -1.338  0.7409E-02  0.2139E+00
     -1.235  0.7273E-02  0.2147E+00
     -1.132  0.7887E-02  0.2155E+00
     -1.029  0.6263E-02  0.2161E+00
     -0.925  0.4689E-02  0.2166E+00
     -0.822  0.3995E-02  0.2170E+00
     -0.719  0.4430E-02  0.2175E+00
     -0.615  0.2768E-02  0.2178E+00
     -0.512  0.2717E-02  0.2181E+00
     -0.409  0.2496E-02  0.2183E+00
     -0.305  0.3193E-02  0.2186E+00
     -0.202  0.2479E-02  0.2189E+00
     -0.099  0.2224E-02  0.2191E+00
      0.005  0.3341E-02  0.2195E+00
      0.108  0.4265E-02  0.2199E+00
      0.211  0.7965E-02  0.2207E+00
      0.315  0.9180E-02  0.2217E+00
      0.418  0.8027E-02  0.2225E+00
      0.521  0.6101E-02  0.2231E+00
      0.625  0.6237E-02  0.2238E+00
      0.728  0.1182E-01  0.2250E+00
      0.831  0.1203E-01  0.2263E+00
      0.935  0.8099E-02  0.2271E+00
      1.038  0.1019E-01  0.2281E+00
      1.141  0.1302E-01  0.2295E+00
      1.245  0.1333E-01  0.2309E+00
      1.348  0.1404E-01  0.2323E+00
      1.451  0.1211E-01  0.2336E+00
      1.555  0.9240E-02  0.2345E+00
      1.658  0.8724E-02  0.2354E+00
      1.761  0.9125E-02  0.2364E+00
      1.865  0.1048E-01  0.2374E+00
      1.968  0.1221E-01  0.2387E+00
      2.071  0.9687E-02  0.2397E+00
      2.175  0.8941E-02  0.2406E+00
      2.278  0.9805E-02  0.2416E+00
      2.381  0.1026E-01  0.2427E+00
      2.485  0.1079E-01  0.2438E+00
      2.588  0.1008E-01  0.2449E+00
      2.691  0.1164E-01  0.2461E+00
      2.794  0.1077E-01  0.2472E+00
      2.898  0.8581E-02  0.2481E+00
      3.001  0.1351E-01  0.2495E+00
      3.104  0.1779E-01  0.2513E+00
      3.208  0.1368E-01  0.2527E+00
      3.311  0.1656E-01  0.2544E+00
      3.414  0.1756E-01  0.2562E+00
      3.518  0.1515E-01  0.2578E+00
      3.621  0.1852E-01  0.2597E+00
      3.724  0.2042E-01  0.2618E+00
      3.828  0.2081E-01  0.2640E+00
      3.931  0.2023E-01  0.2661E+00
      4.034  0.2091E-01  0.2682E+00
      4.138  0.2036E-01  0.2703E+00
      4.241  0.1852E-01  0.2722E+00
      4.344  0.2423E-01  0.2748E+00
      4.448  0.2184E-01  0.2770E+00
      4.551  0.2131E-01  0.2792E+00
      4.654  0.2543E-01  0.2818E+00
      4.758  0.2317E-01  0.2842E+00
      4.861  0.2088E-01  0.2864E+00
      4.964  0.2600E-01  0.2891E+00
      5.068  0.2961E-01  0.2921E+00
      5.171  0.2753E-01  0.2950E+00
      5.274  0.2948E-01  0.2980E+00
      5.378  0.2906E-01  0.3010E+00
      5.481  0.2062E-01  0.3032E+00
      5.584  0.2497E-01  0.3057E+00
      5.688  0.2914E-01  0.3087E+00
      5.791  0.2403E-01  0.3112E+00
      5.894  0.2107E-01  0.3134E+00
      5.998  0.1961E-01  0.3154E+00
      6.101  0.2129E-01  0.3176E+00
      6.204  0.2435E-01  0.3202E+00
      6.308  0.2265E-01  0.3225E+00
      6.411  0.1809E-01  0.3244E+00
      6.514  0.2149E-01  0.3266E+00
      6.617  0.2668E-01  0.3293E+00
      6.721  0.2798E-01  0.3322E+00
      6.824  0.2881E-01  0.3352E+00
      6.927  0.2887E-01  0.3382E+00
      7.031  0.3300E-01  0.3416E+00
      7.134  0.3293E-01  0.3450E+00
      7.237  0.3003E-01  0.3481E+00
      7.341  0.2982E-01  0.3512E+00
      7.444  0.3596E-01  0.3549E+00
      7.547  0.3504E-01  0.3585E+00
      7.651  0.3372E-01  0.3620E+00
      7.754  0.3830E-01  0.3660E+00
      7.857  0.3397E-01  0.3695E+00
      7.961  0.2694E-01  0.3723E+00
      8.064  0.1752E-01  0.3741E+00
      8.167  0.6352E-02  0.3747E+00
      8.271  0.1764E-02  0.3749E+00
      8.374  0.6833E-03  0.3750E+00
      8.477  0.2063E-03  0.3750E+00
      8.581  0.4512E-04  0.3750E+00
      8.684  0.2185E-05  0.3750E+00
      8.787  0.1529E-07  0.3750E+00
      8.891  0.1406E-10  0.3750E+00
      8.994  0.1630E-14  0.3750E+00
      9.097  0.2905E-19  0.3750E+00
      9.201  0.0000E+00  0.3750E+00
      9.304  0.0000E+00  0.3750E+00
      9.407  0.0000E+00  0.3750E+00
      9.511  0.0000E+00  0.3750E+00
      9.614  0.0000E+00  0.3750E+00
      9.717  0.0000E+00  0.3750E+00
      9.821  0.0000E+00  0.3750E+00
