Lattice                                 
           1
     4.311940    2.489500    0.000000
    -4.311940    2.489500    0.000000
     0.000000    0.000000   15.000000
   B    C 
     8     8
Direct configuration=     1
   0.66888689  0.00000000  0.10000000
   0.33111211  0.00000000  0.10000000
   0.00000000  0.33111211  0.10000000
   0.00000000  0.66888689  0.10000000
   0.33111211  0.33111211  0.10000000
   0.66888689  0.66888689  0.10000000
   0.66666600  0.33333300  0.09922189
   0.33333300  0.66666600  0.10077811
   0.16666600  0.33333300  0.33600000
   0.33333300  0.16666600  0.33600000
   0.16666600  0.83333300  0.33600000
   0.33333300  0.66666600  0.33600000
   0.66666600  0.33333300  0.33600000
   0.83333300  0.16666600  0.33600000
   0.66666600  0.83333300  0.33600000
   0.83333300  0.66666600  0.33600000
Direct configuration=     2
   0.66994787  0.00000243  0.10001524
   0.33005355  0.00000243  0.10001524
  -0.00000243  0.33005113  0.10001524
  -0.00000243  0.66994545  0.10001524
   0.33005355  0.33005113  0.10001524
   0.66994787  0.66994545  0.10001524
   0.66666600  0.33333300  0.09920204
   0.33333300  0.66666600  0.10079428
   0.16665587  0.33331275  0.33598518
   0.33331645  0.16665773  0.33598064
   0.16665587  0.83334313  0.33598518
   0.33333300  0.66666600  0.33600914
   0.66666600  0.33333300  0.33600562
   0.83334127  0.16665773  0.33598064
   0.66668625  0.83334313  0.33598518
   0.83334127  0.66668255  0.33598064
Direct configuration=     3
   0.66945200  0.00000129  0.10000812
   0.33054829  0.00000129  0.10000812
  -0.00000129  0.33054700  0.10000812
  -0.00000129  0.66945071  0.10000812
   0.33054829  0.33054700  0.10000812
   0.66945200  0.66945071  0.10000812
   0.66666600  0.33333300  0.09921132
   0.33333300  0.66666600  0.10078672
   0.16666061  0.33332221  0.33599211
   0.33332419  0.16666159  0.33598969
   0.16666061  0.83333839  0.33599211
   0.33333300  0.66666600  0.33600487
   0.66666600  0.33333300  0.33600299
   0.83333741  0.16666159  0.33598969
   0.66667679  0.83333839  0.33599211
   0.83333741  0.66667481  0.33598969
Direct configuration=     4
   0.66945590  0.00000130  0.10000817
   0.33054440  0.00000130  0.10000817
  -0.00000130  0.33054310  0.10000817
  -0.00000130  0.66945460  0.10000817
   0.33054440  0.33054310  0.10000817
   0.66945590  0.66945460  0.10000817
   0.66666600  0.33333300  0.09921124
   0.33333300  0.66666600  0.10078678
   0.16666057  0.33332214  0.33599205
   0.33332413  0.16666156  0.33598962
   0.16666057  0.83333843  0.33599205
   0.33333300  0.66666600  0.33600490
   0.66666600  0.33333300  0.33600301
   0.83333744  0.16666156  0.33598962
   0.66667686  0.83333843  0.33599205
   0.83333744  0.66667487  0.33598962
Direct configuration=     5
   0.66945449  0.00000130  0.10000815
   0.33054580  0.00000130  0.10000815
  -0.00000130  0.33054451  0.10000815
  -0.00000130  0.66945320  0.10000815
   0.33054580  0.33054451  0.10000815
   0.66945449  0.66945320  0.10000815
   0.66666600  0.33333300  0.09921127
   0.33333300  0.66666600  0.10078676
   0.16666058  0.33332217  0.33599207
   0.33332415  0.16666157  0.33598964
   0.16666058  0.83333842  0.33599207
   0.33333300  0.66666600  0.33600489
   0.66666600  0.33333300  0.33600300
   0.83333743  0.16666157  0.33598964
   0.66667683  0.83333842  0.33599207
   0.83333743  0.66667485  0.33598964
Direct configuration=     6
   0.66945325  0.00000130  0.10000814
   0.33054705  0.00000130  0.10000814
  -0.00000130  0.33054575  0.10000814
  -0.00000130  0.66945195  0.10000814
   0.33054705  0.33054575  0.10000814
   0.66945325  0.66945195  0.10000814
   0.66666600  0.33333300  0.09921129
   0.33333300  0.66666600  0.10078674
   0.16666059  0.33332219  0.33599209
   0.33332417  0.16666158  0.33598967
   0.16666059  0.83333841  0.33599209
   0.33333300  0.66666600  0.33600488
   0.66666600  0.33333300  0.33600300
   0.83333742  0.16666158  0.33598967
   0.66667681  0.83333841  0.33599209
   0.83333742  0.66667483  0.33598967
Direct configuration=     7
   0.66945283  0.00000129  0.10000813
   0.33054746  0.00000129  0.10000813
  -0.00000129  0.33054617  0.10000813
  -0.00000129  0.66945154  0.10000813
   0.33054746  0.33054617  0.10000813
   0.66945283  0.66945154  0.10000813
   0.66666600  0.33333300  0.09921130
   0.33333300  0.66666600  0.10078674
   0.16666060  0.33332220  0.33599210
   0.33332417  0.16666159  0.33598967
   0.16666060  0.83333840  0.33599210
   0.33333300  0.66666600  0.33600488
   0.66666600  0.33333300  0.33600300
   0.83333741  0.16666159  0.33598967
   0.66667680  0.83333840  0.33599210
   0.83333741  0.66667483  0.33598967
Direct configuration=     8
   0.66945205  0.00000045  0.10002086
   0.33054739  0.00000045  0.10002086
  -0.00000045  0.33054695  0.10002086
  -0.00000045  0.66945161  0.10002086
   0.33054739  0.33054695  0.10002086
   0.66945205  0.66945161  0.10002086
   0.66666600  0.33333300  0.09919582
   0.33333300  0.66666600  0.10079878
   0.16666775  0.33333649  0.33598106
   0.33333535  0.16666718  0.33597687
   0.16666775  0.83333125  0.33598106
   0.33333300  0.66666600  0.33600607
   0.66666600  0.33333300  0.33600038
   0.83333182  0.16666718  0.33597687
   0.66666251  0.83333125  0.33598106
   0.83333182  0.66666365  0.33597687
Direct configuration=     9
   0.66944973 -0.00000210  0.10005904
   0.33054717 -0.00000210  0.10005904
   0.00000210  0.33054927  0.10005904
   0.00000210  0.66945183  0.10005904
   0.33054717  0.33054927  0.10005904
   0.66944973  0.66945183  0.10005904
   0.66666600  0.33333300  0.09914939
   0.33333300  0.66666600  0.10083490
   0.16668919  0.33337938  0.33594796
   0.33336888  0.16668394  0.33593846
   0.16668919  0.83330981  0.33594796
   0.33333300  0.66666600  0.33600964
   0.66666600  0.33333300  0.33599254
   0.83331506  0.16668394  0.33593846
   0.66661962  0.83330981  0.33594796
   0.83331506  0.66663012  0.33593846
Direct configuration=    10
   0.66944892 -0.00000298  0.10007232
   0.33054710 -0.00000298  0.10007232
   0.00000298  0.33055008  0.10007232
   0.00000298  0.66945190  0.10007232
   0.33054710  0.33055008  0.10007232
   0.66944892  0.66945190  0.10007232
   0.66666600  0.33333300  0.09913325
   0.33333300  0.66666600  0.10084746
   0.16669665  0.33339429  0.33593646
   0.33338054  0.16668977  0.33592511
   0.16669665  0.83330235  0.33593646
   0.33333300  0.66666600  0.33601088
   0.66666600  0.33333300  0.33598981
   0.83330923  0.16668977  0.33592511
   0.66660471  0.83330235  0.33593646
   0.83330923  0.66661846  0.33592511
Direct configuration=    11
   0.66944883 -0.00000292  0.10007458
   0.33054725 -0.00000292  0.10007458
   0.00000292  0.33055017  0.10007458
   0.00000292  0.66945175  0.10007458
   0.33054725  0.33055017  0.10007458
   0.66944883  0.66945175  0.10007458
   0.66666600  0.33333300  0.09913049
   0.33333300  0.66666600  0.10084970
   0.16669601  0.33339302  0.33593462
   0.33337955  0.16668928  0.33592304
   0.16669601  0.83330299  0.33593462
   0.33333300  0.66666600  0.33601051
   0.66666600  0.33333300  0.33598886
   0.83330972  0.16668928  0.33592304
   0.66660598  0.83330299  0.33593462
   0.83330972  0.66661945  0.33592304
Direct configuration=    12
   0.66944856 -0.00000273  0.10008135
   0.33054771 -0.00000273  0.10008135
   0.00000273  0.33055044  0.10008135
   0.00000273  0.66945129  0.10008135
   0.33054771  0.33055044  0.10008135
   0.66944856  0.66945129  0.10008135
   0.66666600  0.33333300  0.09912222
   0.33333300  0.66666600  0.10085643
   0.16669409  0.33338919  0.33592910
   0.33337659  0.16668779  0.33591683
   0.16669409  0.83330491  0.33592910
   0.33333300  0.66666600  0.33600942
   0.66666600  0.33333300  0.33598601
   0.83331121  0.16668779  0.33591683
   0.66660981  0.83330491  0.33592910
   0.83331121  0.66662241  0.33591683
Direct configuration=    13
   0.66944801 -0.00000236  0.10009491
   0.33054863 -0.00000236  0.10009491
   0.00000236  0.33055099  0.10009491
   0.00000236  0.66945037  0.10009491
   0.33054863  0.33055099  0.10009491
   0.66944801  0.66945037  0.10009491
   0.66666600  0.33333300  0.09910568
   0.33333300  0.66666600  0.10086990
   0.16669027  0.33338154  0.33591806
   0.33337067  0.16668483  0.33590442
   0.16669027  0.83330873  0.33591806
   0.33333300  0.66666600  0.33600723
   0.66666600  0.33333300  0.33598032
   0.83331417  0.16668483  0.33590442
   0.66661746  0.83330873  0.33591806
   0.83331417  0.66662833  0.33590442
Direct configuration=    14
   0.66944691 -0.00000161  0.10012201
   0.33055047 -0.00000161  0.10012201
   0.00000161  0.33055209  0.10012201
   0.00000161  0.66944853  0.10012201
   0.33055047  0.33055209  0.10012201
   0.66944691  0.66944853  0.10012201
   0.66666600  0.33333300  0.09907259
   0.33333300  0.66666600  0.10089682
   0.16668261  0.33336623  0.33589599
   0.33335882  0.16667891  0.33587959
   0.16668261  0.83331639  0.33589599
   0.33333300  0.66666600  0.33600285
   0.66666600  0.33333300  0.33596893
   0.83332009  0.16667891  0.33587959
   0.66663277  0.83331639  0.33589599
   0.83332009  0.66664018  0.33587959
Direct configuration=    15
   0.66944472 -0.00000012  0.10017622
   0.33055416 -0.00000012  0.10017622
   0.00000012  0.33055428  0.10017622
   0.00000012  0.66944484  0.10017622
   0.33055416  0.33055428  0.10017622
   0.66944472  0.66944484  0.10017622
   0.66666600  0.33333300  0.09900642
   0.33333300  0.66666600  0.10095068
   0.16666731  0.33333561  0.33585185
   0.33333514  0.16666707  0.33582992
   0.16666731  0.83333169  0.33585185
   0.33333300  0.66666600  0.33599410
   0.66666600  0.33333300  0.33594616
   0.83333193  0.16666707  0.33582992
   0.66666339  0.83333169  0.33585185
   0.83333193  0.66666386  0.33582992
Direct configuration=    16
   0.66944034  0.00000287  0.10028464
   0.33056153  0.00000287  0.10028464
  -0.00000287  0.33055866  0.10028464
  -0.00000287  0.66943747  0.10028464
   0.33056153  0.33055866  0.10028464
   0.66944034  0.66943747  0.10028464
   0.66666600  0.33333300  0.09887407
   0.33333300  0.66666600  0.10105838
   0.16663669  0.33327438  0.33576357
   0.33328776  0.16664338  0.33573060
   0.16663669  0.83336231  0.33576357
   0.33333300  0.66666600  0.33597659
   0.66666600  0.33333300  0.33590062
   0.83335562  0.16664338  0.33573060
   0.66672462  0.83336231  0.33576357
   0.83335562  0.66671124  0.33573060
Direct configuration=    17
   0.66944222  0.00000159  0.10023818
   0.33055837  0.00000159  0.10023818
  -0.00000159  0.33055678  0.10023818
  -0.00000159  0.66944063  0.10023818
   0.33055837  0.33055678  0.10023818
   0.66944222  0.66944063  0.10023818
   0.66666600  0.33333300  0.09893078
   0.33333300  0.66666600  0.10101223
   0.16664981  0.33330062  0.33580140
   0.33330806  0.16665353  0.33577316
   0.16664981  0.83334919  0.33580140
   0.33333300  0.66666600  0.33598410
   0.66666600  0.33333300  0.33592014
   0.83334547  0.16665353  0.33577316
   0.66669838  0.83334919  0.33580140
   0.83334547  0.66669094  0.33577316
Direct configuration=    18
   0.66944241  0.00000421  0.10027144
   0.33056079  0.00000421  0.10027144
  -0.00000421  0.33055659  0.10027144
  -0.00000421  0.66943821  0.10027144
   0.33056079  0.33055659  0.10027144
   0.66944241  0.66943821  0.10027144
   0.66666600  0.33333300  0.09889031
   0.33333300  0.66666600  0.10105054
   0.16665078  0.33330257  0.33577856
   0.33330945  0.16665423  0.33574980
   0.16665078  0.83334822  0.33577856
   0.33333300  0.66666600  0.33595670
   0.66666600  0.33333300  0.33588873
   0.83334477  0.16665423  0.33574980
   0.66669643  0.83334822  0.33577856
   0.83334477  0.66668955  0.33574980
Direct configuration=    19
   0.66944299  0.00001205  0.10037121
   0.33056806  0.00001205  0.10037121
  -0.00001205  0.33055601  0.10037121
  -0.00001205  0.66943094  0.10037121
   0.33056806  0.33055601  0.10037121
   0.66944299  0.66943094  0.10037121
   0.66666600  0.33333300  0.09876891
   0.33333300  0.66666600  0.10116547
   0.16665371  0.33330843  0.33571002
   0.33331362  0.16665631  0.33567974
   0.16665371  0.83334529  0.33571002
   0.33333300  0.66666600  0.33587453
   0.66666600  0.33333300  0.33579451
   0.83334269  0.16665631  0.33567974
   0.66669057  0.83334529  0.33571002
   0.83334269  0.66668538  0.33567974
Direct configuration=    20
   0.66944413  0.00002773  0.10057076
   0.33058259  0.00002773  0.10057076
  -0.00002773  0.33055487  0.10057076
  -0.00002773  0.66941641  0.10057076
   0.33058259  0.33055487  0.10057076
   0.66944413  0.66941641  0.10057076
   0.66666600  0.33333300  0.09852611
   0.33333300  0.66666600  0.10139533
   0.16665957  0.33332014  0.33557296
   0.33332197  0.16666048  0.33553962
   0.16665957  0.83333943  0.33557296
   0.33333300  0.66666600  0.33571019
   0.66666600  0.33333300  0.33560608
   0.83333852  0.16666048  0.33553962
   0.66667886  0.83333943  0.33557296
   0.83333852  0.66667703  0.33553962
Direct configuration=    21
   0.66944643  0.00005908  0.10096986
   0.33061165  0.00005908  0.10096986
  -0.00005908  0.33055257  0.10096986
  -0.00005908  0.66938735  0.10096986
   0.33061165  0.33055257  0.10096986
   0.66944643  0.66938735  0.10096986
   0.66666600  0.33333300  0.09804050
   0.33333300  0.66666600  0.10185504
   0.16667128  0.33334357  0.33529883
   0.33333865  0.16666882  0.33525937
   0.16667128  0.83332772  0.33529883
   0.33333300  0.66666600  0.33538151
   0.66666600  0.33333300  0.33522921
   0.83333018  0.16666882  0.33525937
   0.66665543  0.83332772  0.33529883
   0.83333018  0.66666035  0.33525937
Direct configuration=    22
   0.66938722 -0.00003275  0.10106391
   0.33057903 -0.00003275  0.10106391
   0.00003275  0.33061178  0.10106391
   0.00003275  0.66941997  0.10106391
   0.33057903  0.33061178  0.10106391
   0.66938722  0.66941997  0.10106391
   0.66666600  0.33333300  0.09792294
   0.33333300  0.66666600  0.10207708
   0.16664441  0.33328983  0.33522199
   0.33331032  0.16665466  0.33517813
   0.16664441  0.83335459  0.33522199
   0.33333300  0.66666600  0.33525107
   0.66666600  0.33333300  0.33516509
   0.83334434  0.16665466  0.33517813
   0.66670917  0.83335459  0.33522199
   0.83334434  0.66668868  0.33517813
Direct configuration=    23
   0.66938986 -0.00002866  0.10105972
   0.33058049 -0.00002866  0.10105972
   0.00002866  0.33060914  0.10105972
   0.00002866  0.66941851  0.10105972
   0.33058049  0.33060914  0.10105972
   0.66938986  0.66941851  0.10105972
   0.66666600  0.33333300  0.09792818
   0.33333300  0.66666600  0.10206718
   0.16664561  0.33329222  0.33522541
   0.33331159  0.16665529  0.33518175
   0.16664561  0.83335339  0.33522541
   0.33333300  0.66666600  0.33525688
   0.66666600  0.33333300  0.33516794
   0.83334371  0.16665529  0.33518175
   0.66670678  0.83335339  0.33522541
   0.83334371  0.66668741  0.33518175
Direct configuration=    24
   0.66938747 -0.00002157  0.10110556
   0.33058996 -0.00002157  0.10110556
   0.00002157  0.33061153  0.10110556
   0.00002157  0.66940904  0.10110556
   0.33058996  0.33061153  0.10110556
   0.66938747  0.66940904  0.10110556
   0.66666600  0.33333300  0.09786894
   0.33333300  0.66666600  0.10222319
   0.16665348  0.33330796  0.33517761
   0.33331965  0.16665932  0.33513852
   0.16665348  0.83334552  0.33517761
   0.33333300  0.66666600  0.33518547
   0.66666600  0.33333300  0.33514067
   0.83333968  0.16665932  0.33513852
   0.66669104  0.83334552  0.33517761
   0.83333968  0.66667935  0.33513852
Direct configuration=    25
   0.66938029 -0.00000033  0.10124306
   0.33061838 -0.00000033  0.10124306
   0.00000033  0.33061871  0.10124306
   0.00000033  0.66938062  0.10124306
   0.33061838  0.33061871  0.10124306
   0.66938029  0.66938062  0.10124306
   0.66666600  0.33333300  0.09769123
   0.33333300  0.66666600  0.10269123
   0.16667709  0.33335517  0.33503419
   0.33334382  0.16667141  0.33500884
   0.16667709  0.83332191  0.33503419
   0.33333300  0.66666600  0.33497125
   0.66666600  0.33333300  0.33505884
   0.83332759  0.16667141  0.33500884
   0.66664383  0.83332191  0.33503419
   0.83332759  0.66665518  0.33500884
Direct configuration=    26
   0.66936594  0.00004215  0.10151806
   0.33067521  0.00004215  0.10151806
  -0.00004215  0.33063306  0.10151806
  -0.00004215  0.66932379  0.10151806
   0.33067521  0.33063306  0.10151806
   0.66936594  0.66932379  0.10151806
   0.66666600  0.33333300  0.09733581
   0.33333300  0.66666600  0.10362730
   0.16672430  0.33344959  0.33474736
   0.33339218  0.16669559  0.33474948
   0.16672430  0.83327470  0.33474736
   0.33333300  0.66666600  0.33454280
   0.66666600  0.33333300  0.33489519
   0.83330341  0.16669559  0.33474948
   0.66654941  0.83327470  0.33474736
   0.83330341  0.66660682  0.33474948
Direct configuration=    27
   0.66936640  0.00004682  0.10154606
   0.33067942  0.00004682  0.10154606
  -0.00004682  0.33063260  0.10154606
  -0.00004682  0.66931958  0.10154606
   0.33067942  0.33063260  0.10154606
   0.66936640  0.66931958  0.10154606
   0.66666600  0.33333300  0.09729758
   0.33333300  0.66666600  0.10373196
   0.16671786  0.33343672  0.33471460
   0.33338595  0.16669247  0.33472350
   0.16671786  0.83328114  0.33471460
   0.33333300  0.66666600  0.33450708
   0.66666600  0.33333300  0.33487273
   0.83330653  0.16669247  0.33472350
   0.66656228  0.83328114  0.33471460
   0.83330653  0.66661305  0.33472350
Direct configuration=    28
   0.66936779  0.00006084  0.10163005
   0.33069205  0.00006084  0.10163005
  -0.00006084  0.33063121  0.10163005
  -0.00006084  0.66930695  0.10163005
   0.33069205  0.33063121  0.10163005
   0.66936779  0.66930695  0.10163005
   0.66666600  0.33333300  0.09718287
   0.33333300  0.66666600  0.10404595
   0.16669856  0.33339811  0.33461629
   0.33336727  0.16668313  0.33464558
   0.16669856  0.83330044  0.33461629
   0.33333300  0.66666600  0.33439993
   0.66666600  0.33333300  0.33480536
   0.83331587  0.16668313  0.33464558
   0.66660089  0.83330044  0.33461629
   0.83331587  0.66663173  0.33464558
Direct configuration=    29
   0.66937056  0.00008888  0.10179802
   0.33071731  0.00008888  0.10179802
  -0.00008888  0.33062844  0.10179802
  -0.00008888  0.66928169  0.10179802
   0.33071731  0.33062844  0.10179802
   0.66937056  0.66928169  0.10179802
   0.66666600  0.33333300  0.09695345
   0.33333300  0.66666600  0.10467393
   0.16665995  0.33332089  0.33441969
   0.33332991  0.16666445  0.33448972
   0.16665995  0.83333905  0.33441969
   0.33333300  0.66666600  0.33418564
   0.66666600  0.33333300  0.33467062
   0.83333455  0.16666445  0.33448972
   0.66667811  0.83333905  0.33441969
   0.83333455  0.66666909  0.33448972
Direct configuration=    30
   0.66937611  0.00014495  0.10213397
   0.33076784  0.00014495  0.10213397
  -0.00014495  0.33062289  0.10213397
  -0.00014495  0.66923116  0.10213397
   0.33076784  0.33062289  0.10213397
   0.66937611  0.66923116  0.10213397
   0.66666600  0.33333300  0.09649461
   0.33333300  0.66666600  0.10592989
   0.16658273  0.33316646  0.33402648
   0.33325518  0.16662709  0.33417802
   0.16658273  0.83341627  0.33402648
   0.33333300  0.66666600  0.33375704
   0.66666600  0.33333300  0.33440115
   0.83337191  0.16662709  0.33417802
   0.66683254  0.83341627  0.33402648
   0.83337191  0.66674382  0.33417802
Direct configuration=    31
   0.66936517  0.00013973  0.10220789
   0.33077356  0.00013973  0.10220789
  -0.00013973  0.33063383  0.10220789
  -0.00013973  0.66922544  0.10220789
   0.33077356  0.33063383  0.10220789
   0.66936517  0.66922544  0.10220789
   0.66666600  0.33333300  0.09638708
   0.33333300  0.66666600  0.10622199
   0.16658642  0.33317383  0.33393965
   0.33325855  0.16662877  0.33410566
   0.16658642  0.83341258  0.33393965
   0.33333300  0.66666600  0.33367835
   0.66666600  0.33333300  0.33432932
   0.83337023  0.16662877  0.33410566
   0.66682517  0.83341258  0.33393965
   0.83337023  0.66674045  0.33410566
Direct configuration=    32
   0.66933236  0.00012408  0.10242964
   0.33079072  0.00012408  0.10242964
  -0.00012408  0.33066664  0.10242964
  -0.00012408  0.66920828  0.10242964
   0.33079072  0.33066664  0.10242964
   0.66933236  0.66920828  0.10242964
   0.66666600  0.33333300  0.09606448
   0.33333300  0.66666600  0.10709828
   0.16659748  0.33319597  0.33367917
   0.33326863  0.16663382  0.33388858
   0.16659748  0.83340152  0.33367917
   0.33333300  0.66666600  0.33344228
   0.66666600  0.33333300  0.33411385
   0.83336518  0.16663382  0.33388858
   0.66680303  0.83340152  0.33367917
   0.83336518  0.66673037  0.33388858
Direct configuration=    33
   0.66926675  0.00009279  0.10287315
   0.33082504  0.00009279  0.10287315
  -0.00009279  0.33073225  0.10287315
  -0.00009279  0.66917396  0.10287315
   0.33082504  0.33073225  0.10287315
   0.66926675  0.66917396  0.10287315
   0.66666600  0.33333300  0.09541930
   0.33333300  0.66666600  0.10885087
   0.16661962  0.33324024  0.33315821
   0.33328880  0.16664390  0.33345443
   0.16661962  0.83337938  0.33315821
   0.33333300  0.66666600  0.33297013
   0.66666600  0.33333300  0.33368290
   0.83335510  0.16664390  0.33345443
   0.66675876  0.83337938  0.33315821
   0.83335510  0.66671020  0.33345443
Direct configuration=    34
   0.66913553  0.00003020  0.10376016
   0.33089367  0.00003020  0.10376016
  -0.00003020  0.33086347  0.10376016
  -0.00003020  0.66910533  0.10376016
   0.33089367  0.33086347  0.10376016
   0.66913553  0.66910533  0.10376016
   0.66666600  0.33333300  0.09412894
   0.33333300  0.66666600  0.11235604
   0.16666389  0.33332877  0.33211629
   0.33332915  0.16666407  0.33258613
   0.16666389  0.83333511  0.33211629
   0.33333300  0.66666600  0.33202583
   0.66666600  0.33333300  0.33282100
   0.83333493  0.16666407  0.33258613
   0.66667023  0.83333511  0.33211629
   0.83333493  0.66666985  0.33258613
Direct configuration=    35
   0.66918688  0.00005469  0.10341303
   0.33086681  0.00005469  0.10341303
  -0.00005469  0.33081212  0.10341303
  -0.00005469  0.66913219  0.10341303
   0.33086681  0.33081212  0.10341303
   0.66918688  0.66913219  0.10341303
   0.66666600  0.33333300  0.09463391
   0.33333300  0.66666600  0.11098433
   0.16664656  0.33329413  0.33252403
   0.33331336  0.16665618  0.33292593
   0.16664656  0.83335244  0.33252403
   0.33333300  0.66666600  0.33239537
   0.66666600  0.33333300  0.33315830
   0.83334282  0.16665618  0.33292593
   0.66670487  0.83335244  0.33252403
   0.83334282  0.66668564  0.33292593
Direct configuration=    36
   0.66906561  0.00004805  0.10367056
   0.33098143  0.00004805  0.10367056
  -0.00004805  0.33093339  0.10367056
  -0.00004805  0.66901757  0.10367056
   0.33098143  0.33093339  0.10367056
   0.66906561  0.66901757  0.10367056
   0.66666600  0.33333300  0.09421553
   0.33333300  0.66666600  0.11206767
   0.16667026  0.33334152  0.33226241
   0.33334332  0.16667116  0.33262883
   0.16667026  0.83332874  0.33226241
   0.33333300  0.66666600  0.33214986
   0.66666600  0.33333300  0.33286985
   0.83332784  0.16667116  0.33262883
   0.66665748  0.83332874  0.33226241
   0.83332784  0.66665568  0.33262883
Direct configuration=    37
   0.66870181  0.00002811  0.10444315
   0.33132530  0.00002811  0.10444315
  -0.00002811  0.33129719  0.10444315
  -0.00002811  0.66867370  0.10444315
   0.33132530  0.33129719  0.10444315
   0.66870181  0.66867370  0.10444315
   0.66666600  0.33333300  0.09296040
   0.33333300  0.66666600  0.11531771
   0.16674136  0.33348372  0.33147753
   0.33343319  0.16671609  0.33173753
   0.16674136  0.83325764  0.33147753
   0.33333300  0.66666600  0.33141330
   0.66666600  0.33333300  0.33200450
   0.83328291  0.16671609  0.33173753
   0.66651528  0.83325764  0.33147753
   0.83328291  0.66656581  0.33173753
Direct configuration=    38
   0.66882478  0.00003485  0.10418200
   0.33120907  0.00003485  0.10418200
  -0.00003485  0.33117422  0.10418200
  -0.00003485  0.66878993  0.10418200
   0.33120907  0.33117422  0.10418200
   0.66882478  0.66878993  0.10418200
   0.66666600  0.33333300  0.09338466
   0.33333300  0.66666600  0.11421913
   0.16671733  0.33343565  0.33174284
   0.33340281  0.16670090  0.33203881
   0.16671733  0.83328167  0.33174284
   0.33333300  0.66666600  0.33166227
   0.66666600  0.33333300  0.33229701
   0.83329810  0.16670090  0.33203881
   0.66656335  0.83328167  0.33174284
   0.83329810  0.66659619  0.33203881
Direct configuration=    39
   0.66878367  0.00003260  0.10426932
   0.33124793  0.00003260  0.10426932
  -0.00003260  0.33121533  0.10426932
  -0.00003260  0.66875107  0.10426932
   0.33124793  0.33121533  0.10426932
   0.66878367  0.66875107  0.10426932
   0.66666600  0.33333300  0.09324281
   0.33333300  0.66666600  0.11458646
   0.16672536  0.33345172  0.33165413
   0.33341297  0.16670598  0.33193807
   0.16672536  0.83327364  0.33165413
   0.33333300  0.66666600  0.33157903
   0.66666600  0.33333300  0.33219920
   0.83329302  0.16670598  0.33193807
   0.66654728  0.83327364  0.33165413
   0.83329302  0.66658603  0.33193807
Direct configuration=    40
   0.66871986  0.00006522  0.10429574
   0.33134437  0.00006522  0.10429574
  -0.00006522  0.33127914  0.10429574
  -0.00006522  0.66865463  0.10429574
   0.33134437  0.33127914  0.10429574
   0.66871986  0.66865463  0.10429574
   0.66666600  0.33333300  0.09311847
   0.33333300  0.66666600  0.11479836
   0.16664553  0.33329206  0.33167925
   0.33332793  0.16666346  0.33185850
   0.16664553  0.83335347  0.33167925
   0.33333300  0.66666600  0.33159154
   0.66666600  0.33333300  0.33210394
   0.83333554  0.16666346  0.33185850
   0.66670694  0.83335347  0.33167925
   0.83333554  0.66667107  0.33185850
Direct configuration=    41
   0.66864442  0.00010380  0.10432697
   0.33145838  0.00010380  0.10432697
  -0.00010380  0.33135458  0.10432697
  -0.00010380  0.66854062  0.10432697
   0.33145838  0.33135458  0.10432697
   0.66864442  0.66854062  0.10432697
   0.66666600  0.33333300  0.09297147
   0.33333300  0.66666600  0.11504888
   0.16655114  0.33310329  0.33170895
   0.33322739  0.16661319  0.33176443
   0.16655114  0.83344786  0.33170895
   0.33333300  0.66666600  0.33160633
   0.66666600  0.33333300  0.33199132
   0.83338581  0.16661319  0.33176443
   0.66689571  0.83344786  0.33170895
   0.83338581  0.66677161  0.33176443
Direct configuration=    42
   0.66859888  0.00009864  0.10433459
   0.33149876  0.00009864  0.10433459
  -0.00009864  0.33140012  0.10433459
  -0.00009864  0.66850024  0.10433459
   0.33149876  0.33140012  0.10433459
   0.66859888  0.66850024  0.10433459
   0.66666600  0.33333300  0.09278280
   0.33333300  0.66666600  0.11528849
   0.16661586  0.33323273  0.33176665
   0.33329515  0.16664708  0.33169402
   0.16661586  0.83338314  0.33176665
   0.33333300  0.66666600  0.33169051
   0.66666600  0.33333300  0.33184867
   0.83335192  0.16664708  0.33169402
   0.66676627  0.83338314  0.33176665
   0.83335192  0.66670385  0.33169402
Direct configuration=    43
   0.66853987  0.00009196  0.10434445
   0.33155109  0.00009196  0.10434445
  -0.00009196  0.33145913  0.10434445
  -0.00009196  0.66844791  0.10434445
   0.33155109  0.33145913  0.10434445
   0.66853987  0.66844791  0.10434445
   0.66666600  0.33333300  0.09253831
   0.33333300  0.66666600  0.11559897
   0.16669973  0.33340046  0.33184142
   0.33338297  0.16669098  0.33160278
   0.16669973  0.83329927  0.33184142
   0.33333300  0.66666600  0.33179959
   0.66666600  0.33333300  0.33166383
   0.83330802  0.16669098  0.33160278
   0.66659854  0.83329927  0.33184142
   0.83330802  0.66661603  0.33160278
Direct configuration=    44
   0.66859003  0.00005461  0.10432665
   0.33146358  0.00005461  0.10432665
  -0.00005461  0.33140897  0.10432665
  -0.00005461  0.66853542  0.10432665
   0.33146358  0.33140897  0.10432665
   0.66859003  0.66853542  0.10432665
   0.66666600  0.33333300  0.09233215
   0.33333300  0.66666600  0.11579054
   0.16666650  0.33333400  0.33185922
   0.33335276  0.16667588  0.33161763
   0.16666650  0.83333250  0.33185922
   0.33333300  0.66666600  0.33192814
   0.66666600  0.33333300  0.33155874
   0.83332312  0.16667588  0.33161763
   0.66666500  0.83333250  0.33185922
   0.83332312  0.66664624  0.33161763
Direct configuration=    45
   0.66864775  0.00001163  0.10430616
   0.33136288  0.00001163  0.10430616
  -0.00001163  0.33135125  0.10430616
  -0.00001163  0.66863612  0.10430616
   0.33136288  0.33135125  0.10430616
   0.66864775  0.66863612  0.10430616
   0.66666600  0.33333300  0.09209490
   0.33333300  0.66666600  0.11601101
   0.16662826  0.33325752  0.33187970
   0.33331800  0.16665850  0.33163472
   0.16662826  0.83337074  0.33187970
   0.33333300  0.66666600  0.33207608
   0.66666600  0.33333300  0.33143780
   0.83334050  0.16665850  0.33163472
   0.66674148  0.83337074  0.33187970
   0.83334050  0.66668100  0.33163472
Direct configuration=    46
   0.66863364  0.00007062  0.10426352
   0.33143598  0.00007062  0.10426352
  -0.00007062  0.33136536  0.10426352
  -0.00007062  0.66856302  0.10426352
   0.33143598  0.33136536  0.10426352
   0.66863364  0.66856302  0.10426352
   0.66666600  0.33333300  0.09187292
   0.33333300  0.66666600  0.11616899
   0.16665838  0.33331776  0.33190395
   0.33333789  0.16666844  0.33168295
   0.16665838  0.83334062  0.33190395
   0.33333300  0.66666600  0.33214766
   0.66666600  0.33333300  0.33146860
   0.83333056  0.16666844  0.33168295
   0.66668124  0.83334062  0.33190395
   0.83333056  0.66666111  0.33168295
Direct configuration=    47
   0.66859185  0.00024536  0.10413722
   0.33165251  0.00024536  0.10413722
  -0.00024536  0.33140715  0.10413722
  -0.00024536  0.66834649  0.10413722
   0.33165251  0.33140715  0.10413722
   0.66859185  0.66834649  0.10413722
   0.66666600  0.33333300  0.09121533
   0.33333300  0.66666600  0.11663699
   0.16674762  0.33349624  0.33197580
   0.33339679  0.16669790  0.33182581
   0.16674762  0.83325138  0.33197580
   0.33333300  0.66666600  0.33235972
   0.66666600  0.33333300  0.33155984