       N       E                     dE             d eps       ncg     rms          rms(c)
DAV:   1     0.204532236389E+03    0.20453E+03   -0.25881E+04 14208   0.862E+02
DAV:   2    -0.117487245914E+03   -0.32202E+03   -0.32049E+03 20448   0.164E+02
DAV:   3    -0.129937365780E+03   -0.12450E+02   -0.12435E+02 27120   0.424E+01
DAV:   4    -0.129956771050E+03   -0.19405E-01   -0.19401E-01 20016   0.164E+00
DAV:   5    -0.129956825781E+03   -0.54731E-04   -0.54731E-04 25968   0.847E-02    0.248E+01
DAV:   6    -0.921787231605E+02    0.37778E+02   -0.71248E+01 25488   0.255E+01    0.141E+01
DAV:   7    -0.100685226233E+03   -0.85065E+01   -0.10522E+01 22320   0.104E+01    0.818E+00
DAV:   8    -0.110389326157E+03   -0.97041E+01   -0.85856E+00 24576   0.891E+00    0.439E+00
DAV:   9    -0.117186928209E+03   -0.67976E+01   -0.39496E+00 20112   0.616E+00    0.279E+00
DAV:  10    -0.123387821863E+03   -0.62009E+01   -0.78058E+00 23712   0.698E+00    0.160E+00
DAV:  11    -0.125227839576E+03   -0.18400E+01   -0.28646E+00 24720   0.386E+00    0.100E+00
DAV:  12    -0.125397037987E+03   -0.16920E+00   -0.24174E-01 20208   0.142E+00    0.468E-01
DAV:  13    -0.125424084852E+03   -0.27047E-01   -0.23267E-02 16992   0.559E-01    0.188E-01
DAV:  14    -0.125446081157E+03   -0.21996E-01   -0.60614E-03 20928   0.284E-01    0.852E-02
DAV:  15    -0.125453676623E+03   -0.75955E-02   -0.32503E-03 19296   0.159E-01    0.448E-02
DAV:  16    -0.125455653373E+03   -0.19768E-02   -0.62791E-04 16848   0.813E-02    0.229E-02
DAV:  17    -0.125456944913E+03   -0.12915E-02   -0.18302E-04 15360   0.529E-02    0.179E-02
DAV:  18    -0.125457675982E+03   -0.73107E-03   -0.91248E-05 15312   0.392E-02    0.129E-02
DAV:  19    -0.125458115214E+03   -0.43923E-03   -0.43924E-05 19824   0.250E-02    0.751E-03
DAV:  20    -0.125458161048E+03   -0.45834E-04   -0.21906E-05 21888   0.180E-02    0.448E-03
DAV:  21    -0.125458185088E+03   -0.24041E-04   -0.58666E-06 21360   0.962E-03    0.221E-03
DAV:  22    -0.125458207635E+03   -0.22546E-04   -0.22217E-06 22128   0.549E-03    0.139E-03
DAV:  23    -0.125458223107E+03   -0.15472E-04   -0.16888E-06 21456   0.392E-03    0.716E-04
DAV:  24    -0.125458226226E+03   -0.31184E-05   -0.31043E-07 22368   0.205E-03    0.378E-04
DAV:  25    -0.125458227187E+03   -0.96193E-06   -0.11447E-07 22848   0.111E-03
   1 F= -.12705280E+03 E0= -.12705202E+03  d E =-.127053E+03  mag=    -0.0000
       N       E                     dE             d eps       ncg     rms          rms(c)
DAV:   1    -0.125463205492E+03   -0.49793E-02   -0.19813E+00 14208   0.444E+00    0.390E-01
DAV:   2    -0.125457802154E+03    0.54033E-02   -0.40272E-02 25872   0.584E-01    0.173E-01
DAV:   3    -0.125457186917E+03    0.61524E-03   -0.35193E-03 21600   0.170E-01    0.671E-02
DAV:   4    -0.125457161105E+03    0.25812E-04   -0.39112E-04 26352   0.580E-02    0.185E-02
DAV:   5    -0.125457163235E+03   -0.21306E-05   -0.11746E-05 24624   0.113E-02    0.605E-03
DAV:   6    -0.125457163248E+03   -0.12819E-07   -0.22916E-06 21552   0.462E-03
   2 F= -.12705135E+03 E0= -.12705057E+03  d E =0.145135E-02  mag=    -0.0000
       N       E                     dE             d eps       ncg     rms          rms(c)
DAV:   1    -0.125464308009E+03   -0.71448E-02   -0.57120E-01 14208   0.239E+00    0.210E-01
DAV:   2    -0.125462715348E+03    0.15927E-02   -0.11535E-02 25728   0.312E-01    0.924E-02
DAV:   3    -0.125462542509E+03    0.17284E-03   -0.10033E-03 22800   0.914E-02    0.363E-02
DAV:   4    -0.125462535559E+03    0.69505E-05   -0.11072E-04 22992   0.308E-02    0.976E-03
DAV:   5    -0.125462536110E+03   -0.55114E-06   -0.38117E-06 22032   0.637E-03
   3 F= -.12705693E+03 E0= -.12705615E+03  d E =-.412984E-02  mag=    -0.0000
       N       E                     dE             d eps       ncg     rms          rms(c)
DAV:   1    -0.125466361238E+03   -0.38257E-02   -0.20304E-01 14208   0.165E+00    0.976E-02
DAV:   2    -0.125466379786E+03   -0.18548E-04   -0.14479E-03 27696   0.158E-01    0.563E-02
DAV:   3    -0.125466375210E+03    0.45764E-05   -0.14745E-04 21216   0.444E-02    0.159E-02
DAV:   4    -0.125466375860E+03   -0.65037E-06   -0.24762E-05 25104   0.181E-02    0.607E-03
DAV:   5    -0.125466376274E+03   -0.41353E-06   -0.98518E-07 21360   0.417E-03
   4 F= -.12706070E+03 E0= -.12705992E+03  d E =-.377036E-02  mag=    -0.0000
       N       E                     dE             d eps       ncg     rms          rms(c)
DAV:   1    -0.125469652945E+03   -0.32771E-02   -0.85533E-01 14208   0.338E+00    0.199E-01
DAV:   2    -0.125469762350E+03   -0.10941E-03   -0.61338E-03 25248   0.325E-01    0.115E-01
DAV:   3    -0.125469741141E+03    0.21210E-04   -0.64017E-04 21360   0.924E-02    0.326E-02
DAV:   4    -0.125469743025E+03   -0.18841E-05   -0.10628E-04 25728   0.373E-02    0.126E-02
DAV:   5    -0.125469744728E+03   -0.17035E-05   -0.42043E-06 22416   0.861E-03    0.514E-03
DAV:   6    -0.125469744847E+03   -0.11879E-06   -0.16658E-06 23424   0.472E-03
   5 F= -.12706390E+03 E0= -.12706312E+03  d E =-.697240E-02  mag=    -0.0000
       N       E                     dE             d eps       ncg     rms          rms(c)
DAV:   1    -0.125470816249E+03   -0.10715E-02   -0.14329E-02 14400   0.441E-01    0.262E-02
DAV:   2    -0.125470817920E+03   -0.16707E-05   -0.11291E-04 26208   0.451E-02    0.150E-02
DAV:   3    -0.125470817268E+03    0.65263E-06   -0.12285E-05 20544   0.132E-02    0.410E-03
DAV:   4    -0.125470817559E+03   -0.29199E-06   -0.20226E-06 25296   0.530E-03
   6 F= -.12706496E+03 E0= -.12706418E+03  d E =-.105776E-02  mag=     0.0000
       N       E                     dE             d eps       ncg     rms          rms(c)
DAV:   1    -0.125473422496E+03   -0.26052E-02   -0.12903E-01 14208   0.132E+00    0.787E-02
DAV:   2    -0.125473436119E+03   -0.13623E-04   -0.98988E-04 24864   0.134E-01    0.449E-02
DAV:   3    -0.125473429102E+03    0.70173E-05   -0.10890E-04 20208   0.393E-02    0.122E-02
DAV:   4    -0.125473429418E+03   -0.31589E-06   -0.17465E-05 25728   0.153E-02    0.515E-03
DAV:   5    -0.125473429839E+03   -0.42112E-06   -0.61802E-07 20976   0.328E-03
   7 F= -.12706752E+03 E0= -.12706674E+03  d E =-.362083E-02  mag=     0.0000
       N       E                     dE             d eps       ncg     rms          rms(c)
DAV:   1    -0.125475954274E+03   -0.25249E-02   -0.51792E-01 14208   0.265E+00    0.157E-01
DAV:   2    -0.125476007521E+03   -0.53247E-04   -0.39959E-03 25056   0.269E-01    0.894E-02
DAV:   3    -0.125475976976E+03    0.30545E-04   -0.43666E-04 20592   0.787E-02    0.243E-02
DAV:   4    -0.125475977750E+03   -0.77361E-06   -0.69232E-05 26304   0.306E-02    0.103E-02
DAV:   5    -0.125475978882E+03   -0.11322E-05   -0.23150E-06 22176   0.643E-03    0.428E-03
DAV:   6    -0.125475978787E+03    0.95315E-07   -0.11590E-06 24336   0.407E-03
   8 F= -.12706996E+03 E0= -.12706918E+03  d E =-.605266E-02  mag=    -0.0000
       N       E                     dE             d eps       ncg     rms          rms(c)
DAV:   1    -0.125476064472E+03   -0.85590E-04   -0.17932E-02 14208   0.493E-01    0.291E-02
DAV:   2    -0.125476066490E+03   -0.20180E-05   -0.14449E-04 23424   0.510E-02    0.166E-02
DAV:   3    -0.125476065748E+03    0.74211E-06   -0.15970E-05 19008   0.152E-02    0.463E-03
DAV:   4    -0.125476065901E+03   -0.15365E-06   -0.25855E-06 24672   0.595E-03
   9 F= -.12707002E+03 E0= -.12706925E+03  d E =-.611525E-02  mag=    -0.0000
       N       E                     dE             d eps       ncg     rms          rms(c)
DAV:   1    -0.125477182146E+03   -0.11164E-02   -0.34337E-02 14208   0.638E-01    0.365E-02
DAV:   2    -0.125477188467E+03   -0.63211E-05   -0.20124E-04 21888   0.546E-02    0.217E-02
DAV:   3    -0.125477187205E+03    0.12621E-05   -0.23777E-05 18144   0.166E-02    0.386E-03
DAV:   4    -0.125477187390E+03   -0.18477E-06   -0.19733E-06 25200   0.555E-03
  10 F= -.12707108E+03 E0= -.12707030E+03  d E =-.105972E-02  mag=     0.0000
       N       E                     dE             d eps       ncg     rms          rms(c)
DAV:   1    -0.125479621453E+03   -0.24342E-02   -0.30963E-01 14208   0.191E+00    0.109E-01
DAV:   2    -0.125479680268E+03   -0.58815E-04   -0.17860E-03 25824   0.163E-01    0.647E-02
DAV:   3    -0.125479664381E+03    0.15887E-04   -0.21045E-04 20112   0.483E-02    0.112E-02
DAV:   4    -0.125479665155E+03   -0.77420E-06   -0.15402E-05 24192   0.157E-02    0.551E-03
DAV:   5    -0.125479664337E+03    0.81801E-06   -0.18061E-06 23088   0.528E-03
  11 F= -.12707337E+03 E0= -.12707259E+03  d E =-.335134E-02  mag=    -0.0000
       N       E                     dE             d eps       ncg     rms          rms(c)
DAV:   1    -0.125480761997E+03   -0.10968E-02   -0.12401E+00 14208   0.382E+00    0.215E-01
DAV:   2    -0.125481018213E+03   -0.25622E-03   -0.69970E-03 27744   0.323E-01    0.128E-01
DAV:   3    -0.125480949166E+03    0.69047E-04   -0.84203E-04 20304   0.962E-02    0.211E-02
DAV:   4    -0.125480951255E+03   -0.20887E-05   -0.57938E-05 25104   0.308E-02    0.109E-02
DAV:   5    -0.125480948319E+03    0.29361E-05   -0.66423E-06 22752   0.103E-02    0.419E-03
DAV:   6    -0.125480947244E+03    0.10747E-05   -0.23475E-06 24576   0.582E-03    0.216E-03
DAV:   7    -0.125480947397E+03   -0.15352E-06   -0.61481E-07 24384   0.274E-03
  12 F= -.12707428E+03 E0= -.12707353E+03  d E =-.426325E-02  mag=     0.0000
       N       E                     dE             d eps       ncg     rms          rms(c)
DAV:   1    -0.125481028396E+03   -0.81153E-04   -0.10355E-01 14208   0.111E+00    0.618E-02
DAV:   2    -0.125481054585E+03   -0.26188E-04   -0.60510E-04 27072   0.945E-02    0.371E-02
DAV:   3    -0.125481053016E+03    0.15684E-05   -0.70213E-05 23424   0.278E-02    0.597E-03
DAV:   4    -0.125481054125E+03   -0.11086E-05   -0.44650E-06 22272   0.864E-03    0.312E-03
DAV:   5    -0.125481054745E+03   -0.62021E-06   -0.55974E-07 20736   0.297E-03
  13 F= -.12707450E+03 E0= -.12707373E+03  d E =-.447789E-02  mag=    -0.0000
       N       E                     dE             d eps       ncg     rms          rms(c)
DAV:   1    -0.125482225776E+03   -0.11717E-02   -0.54818E-02 14208   0.850E-01    0.460E-02
DAV:   2    -0.125482234518E+03   -0.87419E-05   -0.36175E-04 27072   0.770E-02    0.274E-02
DAV:   3    -0.125482231128E+03    0.33904E-05   -0.42446E-05 16992   0.231E-02    0.555E-03
DAV:   4    -0.125482231416E+03   -0.28822E-06   -0.43401E-06 20208   0.836E-03
  14 F= -.12707560E+03 E0= -.12707482E+03  d E =-.110026E-02  mag=     0.0000
       N       E                     dE             d eps       ncg     rms          rms(c)
DAV:   1    -0.125484000354E+03   -0.17692E-02   -0.49439E-01 14208   0.255E+00    0.138E-01
DAV:   2    -0.125484078368E+03   -0.78014E-04   -0.30943E-03 28320   0.227E-01    0.819E-02
DAV:   3    -0.125484040089E+03    0.38279E-04   -0.38604E-04 20832   0.693E-02    0.163E-02
DAV:   4    -0.125484040507E+03   -0.41802E-06   -0.37172E-05 24528   0.245E-02    0.786E-03
DAV:   5    -0.125484039847E+03    0.65990E-06   -0.22564E-06 21984   0.667E-03
  15 F= -.12707717E+03 E0= -.12707639E+03  d E =-.267560E-02  mag=     0.0000
       N       E                     dE             d eps       ncg     rms          rms(c)
DAV:   1    -0.125484088901E+03   -0.48395E-04   -0.80382E-03 14784   0.326E-01    0.173E-02
DAV:   2    -0.125484090489E+03   -0.15875E-05   -0.55394E-05 25872   0.304E-02    0.105E-02
DAV:   3    -0.125484090346E+03    0.14299E-06   -0.75150E-06 18144   0.106E-02
  16 F= -.12707719E+03 E0= -.12707641E+03  d E =-.269608E-02  mag=    -0.0000
       N       E                     dE             d eps       ncg     rms          rms(c)
DAV:   1    -0.125484337635E+03   -0.24715E-03   -0.88784E-03 14352   0.370E-01    0.202E-02
DAV:   2    -0.125484337949E+03   -0.31384E-06   -0.77574E-05 22368   0.378E-02    0.119E-02
DAV:   3    -0.125484337735E+03    0.21340E-06   -0.97447E-06 18864   0.126E-02
  17 F= -.12707741E+03 E0= -.12707663E+03  d E =-.216305E-03  mag=     0.0000
       N       E                     dE             d eps       ncg     rms          rms(c)
DAV:   1    -0.125484630817E+03   -0.29287E-03   -0.48788E-02 14208   0.867E-01    0.476E-02
DAV:   2    -0.125484632060E+03   -0.12434E-05   -0.41571E-04 27360   0.874E-02    0.278E-02
DAV:   3    -0.125484627414E+03    0.46457E-05   -0.48268E-05 16752   0.266E-02    0.805E-03
DAV:   4    -0.125484627691E+03   -0.27646E-06   -0.87005E-06 18384   0.130E-02
  18 F= -.12707762E+03 E0= -.12707684E+03  d E =-.431565E-03  mag=    -0.0000
       N       E                     dE             d eps       ncg     rms          rms(c)
DAV:   1    -0.125484868454E+03   -0.24104E-03   -0.10647E-02 14208   0.403E-01    0.229E-02
DAV:   2    -0.125484867750E+03    0.70389E-06   -0.92653E-05 21936   0.396E-02    0.130E-02
DAV:   3    -0.125484867485E+03    0.26526E-06   -0.86200E-06 16272   0.122E-02
  19 F= -.12707783E+03 E0= -.12707705E+03  d E =-.207068E-03  mag=    -0.0000
       N       E                     dE             d eps       ncg     rms          rms(c)
DAV:   1    -0.125485058201E+03   -0.19045E-03   -0.29125E-02 14208   0.667E-01    0.384E-02
DAV:   2    -0.125485056492E+03    0.17090E-05   -0.24943E-04 27168   0.646E-02    0.216E-02
DAV:   3    -0.125485054868E+03    0.16247E-05   -0.21045E-05 17136   0.183E-02    0.711E-03
DAV:   4    -0.125485055890E+03   -0.10228E-05   -0.58669E-06 16224   0.120E-02    0.261E-03
DAV:   5    -0.125485055209E+03    0.68170E-06   -0.26444E-06 16320   0.822E-03
  20 F= -.12707796E+03 E0= -.12707718E+03  d E =-.340305E-03  mag=     0.0000
       N       E                     dE             d eps       ncg     rms          rms(c)
DAV:   1    -0.125485161738E+03   -0.10585E-03   -0.68556E-03 15072   0.340E-01    0.189E-02
DAV:   2    -0.125485161360E+03    0.37788E-06   -0.78004E-05 23376   0.381E-02    0.111E-02
DAV:   3    -0.125485160263E+03    0.10969E-05   -0.92106E-06 18096   0.121E-02    0.318E-03
DAV:   4    -0.125485160393E+03   -0.12986E-06   -0.16372E-06 17664   0.567E-03
  21 F= -.12707805E+03 E0= -.12707726E+03  d E =-.812137E-04  mag=    -0.0000
       N       E                     dE             d eps       ncg     rms          rms(c)
DAV:   1    -0.125485168202E+03   -0.79387E-05   -0.30341E-04 20016   0.716E-02    0.416E-03
DAV:   2    -0.125485168143E+03    0.58637E-07   -0.32442E-06 16560   0.821E-03
  22 F= -.12707805E+03 E0= -.12707727E+03  d E =-.838520E-04  mag=    -0.0000
       N       E                     dE             d eps       ncg     rms          rms(c)
DAV:   1    -0.125485248861E+03   -0.80660E-04   -0.26378E-03 14592   0.202E-01    0.104E-02
DAV:   2    -0.125485249297E+03   -0.43579E-06   -0.22685E-05 16224   0.203E-02    0.621E-03
DAV:   3    -0.125485249410E+03   -0.11291E-06   -0.28687E-06 21360   0.759E-03
  23 F= -.12707811E+03 E0= -.12707733E+03  d E =-.605304E-04  mag=    -0.0000
       N       E                     dE             d eps       ncg     rms          rms(c)
DAV:   1    -0.125485324912E+03   -0.75614E-04   -0.77467E-03 14208   0.345E-01    0.176E-02
DAV:   2    -0.125485326516E+03   -0.16044E-05   -0.65574E-05 20976   0.343E-02    0.105E-02
DAV:   3    -0.125485326338E+03    0.17810E-06   -0.70585E-06 20352   0.112E-02
  24 F= -.12707815E+03 E0= -.12707737E+03  d E =-.101913E-03  mag=     0.0000
       N       E                     dE             d eps       ncg     rms          rms(c)
DAV:   1    -0.125485396481E+03   -0.69965E-04   -0.22447E-03 14208   0.189E-01    0.103E-02
DAV:   2    -0.125485396734E+03   -0.25272E-06   -0.21079E-05 15360   0.202E-02    0.607E-03
DAV:   3    -0.125485396736E+03   -0.28003E-08   -0.30589E-06 21648   0.814E-03
  25 F= -.12707820E+03 E0= -.12707742E+03  d E =-.471399E-04  mag=     0.0000
       N       E                     dE             d eps       ncg     rms          rms(c)
DAV:   1    -0.125485458341E+03   -0.61607E-04   -0.49767E-03 14208   0.281E-01    0.150E-02
DAV:   2    -0.125485458988E+03   -0.64705E-06   -0.44844E-05 15840   0.292E-02    0.872E-03
DAV:   3    -0.125485458736E+03    0.25143E-06   -0.57180E-06 16416   0.106E-02
  26 F= -.12707823E+03 E0= -.12707744E+03  d E =-.744133E-04  mag=     0.0000
       N       E                     dE             d eps       ncg     rms          rms(c)
DAV:   1    -0.125485502272E+03   -0.43284E-04   -0.10713E-03 14208   0.136E-01    0.735E-03
DAV:   2    -0.125485502388E+03   -0.11578E-06   -0.11978E-05 14208   0.157E-02    0.435E-03
DAV:   3    -0.125485502403E+03   -0.15704E-07   -0.20339E-06 17424   0.705E-03
  27 F= -.12707825E+03 E0= -.12707747E+03  d E =-.226060E-04  mag=     0.0000
       N       E                     dE             d eps       ncg     rms          rms(c)
DAV:   1    -0.125485532687E+03   -0.30299E-04   -0.11709E-03 14976   0.142E-01    0.758E-03
DAV:   2    -0.125485532830E+03   -0.14310E-06   -0.12460E-05 18336   0.159E-02    0.445E-03
DAV:   3    -0.125485532796E+03    0.34338E-07   -0.18585E-06 14784   0.658E-03
  28 F= -.12707826E+03 E0= -.12707748E+03  d E =-.309406E-04  mag=    -0.0000
       N       E                     dE             d eps       ncg     rms          rms(c)
DAV:   1    -0.125485585589E+03   -0.52759E-04   -0.12803E-03 14208   0.144E-01    0.728E-03
DAV:   2    -0.125485585696E+03   -0.10650E-06   -0.11366E-05 17712   0.149E-02    0.447E-03
DAV:   3    -0.125485585735E+03   -0.39343E-07   -0.18168E-06 14592   0.630E-03
  29 F= -.12707828E+03 E0= -.12707750E+03  d E =-.243179E-04  mag=    -0.0000
       N       E                     dE             d eps       ncg     rms          rms(c)
DAV:   1    -0.125485690816E+03   -0.10512E-03   -0.92100E-03 14208   0.385E-01    0.191E-02
DAV:   2    -0.125485691708E+03   -0.89177E-06   -0.77923E-05 21312   0.382E-02    0.116E-02
DAV:   3    -0.125485690780E+03    0.92801E-06   -0.95229E-06 15456   0.125E-02
  30 F= -.12707831E+03 E0= -.12707753E+03  d E =-.525866E-04  mag=     0.0000
       N       E                     dE             d eps       ncg     rms          rms(c)
DAV:   1    -0.125485729674E+03   -0.37967E-04   -0.60380E-04 14688   0.974E-02    0.525E-03
DAV:   2    -0.125485729717E+03   -0.42905E-07   -0.55495E-06 22128   0.107E-02
  31 F= -.12707833E+03 E0= -.12707754E+03  d E =-.174170E-04  mag=     0.0000
       N       E                     dE             d eps       ncg     rms          rms(c)
DAV:   1    -0.125485832690E+03   -0.10302E-03   -0.53843E-03 14208   0.290E-01    0.145E-02
DAV:   2    -0.125485833589E+03   -0.89894E-06   -0.43571E-05 15072   0.286E-02    0.900E-03
DAV:   3    -0.125485834108E+03   -0.51890E-06   -0.62194E-06 15552   0.115E-02
  32 F= -.12707837E+03 E0= -.12707758E+03  d E =-.572355E-04  mag=    -0.0000
       N       E                     dE             d eps       ncg     rms          rms(c)
DAV:   1    -0.125485976168E+03   -0.14258E-03   -0.21705E-02 14208   0.582E-01    0.283E-02
DAV:   2    -0.125485981274E+03   -0.51057E-05   -0.17262E-04 22896   0.562E-02    0.175E-02
DAV:   3    -0.125485980616E+03    0.65806E-06   -0.18410E-05 15504   0.177E-02    0.399E-03
DAV:   4    -0.125485980412E+03    0.20306E-06   -0.53302E-06 15936   0.118E-02
  33 F= -.12707838E+03 E0= -.12707760E+03  d E =-.740761E-04  mag=     0.0000
       N       E                     dE             d eps       ncg     rms          rms(c)
DAV:   1    -0.125485945162E+03    0.35454E-04   -0.18683E-03 15504   0.171E-01    0.811E-03
DAV:   2    -0.125485945153E+03    0.88075E-08   -0.15345E-05 19344   0.172E-02    0.494E-03
DAV:   3    -0.125485945744E+03   -0.59136E-06   -0.28041E-06 16608   0.816E-03
  34 F= -.12707839E+03 E0= -.12707760E+03  d E =-.774743E-04  mag=    -0.0000
       N       E                     dE             d eps       ncg     rms          rms(c)
DAV:   1    -0.125486012091E+03   -0.66938E-04   -0.20044E-03 14592   0.179E-01    0.863E-03
DAV:   2    -0.125486012509E+03   -0.41878E-06   -0.18232E-05 16992   0.189E-02    0.531E-03
DAV:   3    -0.125486012874E+03   -0.36463E-06   -0.25133E-06 17568   0.794E-03
  35 F= -.12707841E+03 E0= -.12707763E+03  d E =-.259798E-04  mag=     0.0000
       N       E                     dE             d eps       ncg     rms          rms(c)
DAV:   1    -0.125486099630E+03   -0.87121E-04   -0.59332E-03 14208   0.307E-01    0.153E-02
DAV:   2    -0.125486101389E+03   -0.17590E-05   -0.51108E-05 17904   0.313E-02    0.951E-03
DAV:   3    -0.125486101643E+03   -0.25350E-06   -0.54765E-06 16464   0.109E-02
  36 F= -.12707843E+03 E0= -.12707765E+03  d E =-.439205E-04  mag=    -0.0000
       N       E                     dE             d eps       ncg     rms          rms(c)
DAV:   1    -0.125486172755E+03   -0.71366E-04   -0.21645E-03 14208   0.185E-01    0.919E-03
DAV:   2    -0.125486173501E+03   -0.74594E-06   -0.20591E-05 14880   0.202E-02    0.581E-03
DAV:   3    -0.125486174337E+03   -0.83571E-06   -0.32394E-06 15312   0.923E-03
  37 F= -.12707846E+03 E0= -.12707768E+03  d E =-.286988E-04  mag=    -0.0000
       N       E                     dE             d eps       ncg     rms          rms(c)
DAV:   1    -0.125486346701E+03   -0.17320E-03   -0.19458E-02 14208   0.554E-01    0.265E-02
DAV:   2    -0.125486354981E+03   -0.82794E-05   -0.16968E-04 18864   0.558E-02    0.166E-02
DAV:   3    -0.125486355401E+03   -0.42046E-06   -0.13363E-05 15312   0.160E-02    0.395E-03
DAV:   4    -0.125486355472E+03   -0.70901E-07   -0.44179E-06 14784   0.109E-02
  38 F= -.12707851E+03 E0= -.12707773E+03  d E =-.777312E-04  mag=     0.0000
       N       E                     dE             d eps       ncg     rms          rms(c)
DAV:   1    -0.125486466493E+03   -0.11109E-03   -0.46561E-03 14208   0.274E-01    0.129E-02
DAV:   2    -0.125486468435E+03   -0.19411E-05   -0.44100E-05 18864   0.288E-02    0.809E-03
DAV:   3    -0.125486469097E+03   -0.66238E-06   -0.45663E-06 15792   0.101E-02
  39 F= -.12707856E+03 E0= -.12707778E+03  d E =-.518969E-04  mag=     0.0000
       N       E                     dE             d eps       ncg     rms          rms(c)
DAV:   1    -0.125486683154E+03   -0.21472E-03   -0.33401E-02 14208   0.735E-01    0.345E-02
DAV:   2    -0.125486696757E+03   -0.13603E-04   -0.29598E-04 19536   0.742E-02    0.214E-02
DAV:   3    -0.125486696945E+03   -0.18762E-06   -0.25406E-05 14832   0.209E-02    0.548E-03
DAV:   4    -0.125486697016E+03   -0.71074E-07   -0.60105E-06 14976   0.122E-02
  40 F= -.12707862E+03 E0= -.12707784E+03  d E =-.114184E-03  mag=    -0.0000
       N       E                     dE             d eps       ncg     rms          rms(c)
DAV:   1    -0.125486802700E+03   -0.10576E-03   -0.64277E-03 14208   0.320E-01    0.147E-02
DAV:   2    -0.125486805650E+03   -0.29495E-05   -0.54681E-05 15552   0.321E-02    0.940E-03
DAV:   3    -0.125486807123E+03   -0.14734E-05   -0.60125E-06 16992   0.120E-02    0.227E-03
DAV:   4    -0.125486806536E+03    0.58673E-06   -0.41731E-06 14496   0.103E-02
  41 F= -.12707866E+03 E0= -.12707788E+03  d E =-.356062E-04  mag=    -0.0000
       N       E                     dE             d eps       ncg     rms          rms(c)
DAV:   1    -0.125486977779E+03   -0.17066E-03   -0.28504E-02 14208   0.674E-01    0.307E-02
DAV:   2    -0.125486992023E+03   -0.14245E-04   -0.23871E-04 23184   0.650E-02    0.196E-02
DAV:   3    -0.125486992024E+03   -0.75306E-09   -0.14481E-05 16896   0.145E-02    0.397E-03
DAV:   4    -0.125486992299E+03   -0.27462E-06   -0.20743E-06 15552   0.646E-03
  42 F= -.12707869E+03 E0= -.12707791E+03  d E =-.657870E-04  mag=    -0.0000
       N       E                     dE             d eps       ncg     rms          rms(c)
DAV:   1    -0.125487110912E+03   -0.11889E-03   -0.77614E-03 14208   0.352E-01    0.161E-02
DAV:   2    -0.125487114853E+03   -0.39413E-05   -0.65289E-05 16368   0.348E-02    0.104E-02
DAV:   3    -0.125487115450E+03   -0.59664E-06   -0.48491E-06 15600   0.988E-03
  43 F= -.12707873E+03 E0= -.12707795E+03  d E =-.406416E-04  mag=    -0.0000
       N       E                     dE             d eps       ncg     rms          rms(c)
DAV:   1    -0.125487292799E+03   -0.17795E-03   -0.28551E-02 14208   0.676E-01    0.309E-02
DAV:   2    -0.125487307080E+03   -0.14281E-04   -0.23206E-04 18768   0.656E-02    0.198E-02
DAV:   3    -0.125487308004E+03   -0.92413E-06   -0.15876E-05 15408   0.167E-02    0.440E-03
DAV:   4    -0.125487308103E+03   -0.99132E-07   -0.38458E-06 15648   0.994E-03
  44 F= -.12707876E+03 E0= -.12707798E+03  d E =-.748347E-04  mag=     0.0000
       N       E                     dE             d eps       ncg     rms          rms(c)
DAV:   1    -0.125487422013E+03   -0.11401E-03   -0.65280E-03 14208   0.323E-01    0.152E-02
DAV:   2    -0.125487424733E+03   -0.27192E-05   -0.56497E-05 16128   0.326E-02    0.968E-03
DAV:   3    -0.125487425458E+03   -0.72571E-06   -0.54615E-06 16032   0.111E-02
  45 F= -.12707880E+03 E0= -.12707802E+03  d E =-.411574E-04  mag=     0.0000
       N       E                     dE             d eps       ncg     rms          rms(c)
DAV:   1    -0.125487600825E+03   -0.17609E-03   -0.25977E-02 14208   0.645E-01    0.305E-02
DAV:   2    -0.125487611731E+03   -0.10906E-04   -0.21854E-04 20304   0.635E-02    0.194E-02
DAV:   3    -0.125487612240E+03   -0.50906E-06   -0.17116E-05 15168   0.179E-02    0.439E-03
DAV:   4    -0.125487612208E+03    0.32118E-07   -0.59405E-06 14880   0.125E-02
  46 F= -.12707884E+03 E0= -.12707806E+03  d E =-.757464E-04  mag=    -0.0000
       N       E                     dE             d eps       ncg     rms          rms(c)
DAV:   1    -0.125487730307E+03   -0.11807E-03   -0.77124E-03 14208   0.354E-01    0.165E-02
DAV:   2    -0.125487733319E+03   -0.30115E-05   -0.64604E-05 19248   0.347E-02    0.105E-02
DAV:   3    -0.125487733978E+03   -0.65932E-06   -0.60681E-06 15744   0.114E-02
  47 F= -.12707888E+03 E0= -.12707810E+03  d E =-.392892E-04  mag=     0.0000
       N       E                     dE             d eps       ncg     rms          rms(c)
DAV:   1    -0.125487917778E+03   -0.18446E-03   -0.29787E-02 14208   0.695E-01    0.322E-02
DAV:   2    -0.125487929175E+03   -0.11397E-04   -0.23627E-04 21552   0.661E-02    0.204E-02
DAV:   3    -0.125487929178E+03   -0.32405E-08   -0.18906E-05 15984   0.183E-02    0.411E-03
DAV:   4    -0.125487928954E+03    0.22377E-06   -0.60374E-06 15168   0.126E-02
  48 F= -.12707891E+03 E0= -.12707813E+03  d E =-.722595E-04  mag=    -0.0000
       N       E                     dE             d eps       ncg     rms          rms(c)
DAV:   1    -0.125488069968E+03   -0.14079E-03   -0.11838E-02 14208   0.439E-01    0.203E-02
DAV:   2    -0.125488074612E+03   -0.46447E-05   -0.97884E-05 20688   0.425E-02    0.129E-02
DAV:   3    -0.125488074796E+03   -0.18321E-06   -0.83470E-06 15456   0.121E-02
  49 F= -.12707896E+03 E0= -.12707817E+03  d E =-.454595E-04  mag=    -0.0000
       N       E                     dE             d eps       ncg     rms          rms(c)
DAV:   1    -0.125488276155E+03   -0.20154E-03   -0.37655E-02 14208   0.783E-01    0.361E-02
DAV:   2    -0.125488290104E+03   -0.13949E-04   -0.29619E-04 22368   0.741E-02    0.229E-02
DAV:   3    -0.125488289148E+03    0.95606E-06   -0.24473E-05 16320   0.195E-02    0.471E-03
DAV:   4    -0.125488288952E+03    0.19540E-06   -0.57854E-06 15264   0.119E-02
  50 F= -.12707899E+03 E0= -.12707821E+03  d E =-.806559E-04  mag=     0.0000
       N       E                     dE             d eps       ncg     rms          rms(c)
DAV:   1    -0.125488363492E+03   -0.74344E-04   -0.41717E-03 14976   0.266E-01    0.128E-02
DAV:   2    -0.125488364709E+03   -0.12173E-05   -0.39321E-05 21552   0.278E-02    0.805E-03
DAV:   3    -0.125488365186E+03   -0.47694E-06   -0.45324E-06 17136   0.102E-02
  51 F= -.12707901E+03 E0= -.12707823E+03  d E =-.222538E-04  mag=     0.0000
       N       E                     dE             d eps       ncg     rms          rms(c)
DAV:   1    -0.125488405935E+03   -0.41226E-04   -0.19494E-03 14496   0.182E-01    0.893E-03
DAV:   2    -0.125488406409E+03   -0.47363E-06   -0.19099E-05 17088   0.200E-02    0.560E-03
DAV:   3    -0.125488407145E+03   -0.73583E-06   -0.30910E-06 17616   0.896E-03
  52 F= -.12707902E+03 E0= -.12707824E+03  d E =-.273910E-04  mag=     0.0000
       N       E                     dE             d eps       ncg     rms          rms(c)
DAV:   1    -0.125488484134E+03   -0.77726E-04   -0.47554E-03 14688   0.281E-01    0.132E-02
DAV:   2    -0.125488485368E+03   -0.12339E-05   -0.43778E-05 16608   0.281E-02    0.826E-03
DAV:   3    -0.125488485734E+03   -0.36606E-06   -0.46580E-06 16464   0.966E-03
  53 F= -.12707904E+03 E0= -.12707826E+03  d E =-.240527E-04  mag=     0.0000
       N       E                     dE             d eps       ncg     rms          rms(c)
DAV:   1    -0.125488578482E+03   -0.93113E-04   -0.10557E-02 14304   0.418E-01    0.197E-02
DAV:   2    -0.125488581369E+03   -0.28868E-05   -0.95016E-05 16704   0.414E-02    0.123E-02
DAV:   3    -0.125488581562E+03   -0.19340E-06   -0.93441E-06 16992   0.132E-02
  54 F= -.12707906E+03 E0= -.12707828E+03  d E =-.386798E-04  mag=    -0.0000
       N       E                     dE             d eps       ncg     rms          rms(c)
DAV:   1    -0.125488667551E+03   -0.86182E-04   -0.82568E-03 14208   0.377E-01    0.181E-02
DAV:   2    -0.125488669782E+03   -0.22307E-05   -0.80082E-05 15456   0.399E-02    0.113E-02
DAV:   3    -0.125488670318E+03   -0.53597E-06   -0.92512E-06 15792   0.147E-02
  55 F= -.12707908E+03 E0= -.12707830E+03  d E =-.237316E-04  mag=     0.0000
       N       E                     dE             d eps       ncg     rms          rms(c)
DAV:   1    -0.125488683888E+03   -0.14106E-04   -0.33350E-04 14784   0.768E-02    0.432E-03
DAV:   2    -0.125488683496E+03    0.39239E-06   -0.55971E-06 14784   0.124E-02
  56 F= -.12707908E+03 E0= -.12707830E+03  d E =-.239292E-04  mag=     0.0000
       N       E                     dE             d eps       ncg     rms          rms(c)
DAV:   1    -0.125488740709E+03   -0.56821E-04   -0.36182E-03 14304   0.252E-01    0.117E-02
DAV:   2    -0.125488741224E+03   -0.51428E-06   -0.32155E-05 14880   0.263E-02    0.747E-03
DAV:   3    -0.125488742989E+03   -0.17653E-05   -0.65709E-06 18384   0.131E-02    0.220E-03
DAV:   4    -0.125488741591E+03    0.13977E-05   -0.55091E-06 14304   0.118E-02    0.105E-03
DAV:   5    -0.125488740824E+03    0.76770E-06   -0.10966E-06 20880   0.514E-03
  57 F= -.12707910E+03 E0= -.12707832E+03  d E =-.183091E-04  mag=    -0.0000
       N       E                     dE             d eps       ncg     rms          rms(c)
DAV:   1    -0.125488795190E+03   -0.53599E-04   -0.53994E-03 14352   0.307E-01    0.135E-02
DAV:   2    -0.125488796753E+03   -0.15627E-05   -0.42111E-05 24048   0.280E-02    0.856E-03
DAV:   3    -0.125488796544E+03    0.20913E-06   -0.29536E-06 19968   0.644E-03
  58 F= -.12707911E+03 E0= -.12707832E+03  d E =-.264020E-04  mag=    -0.0000
       N       E                     dE             d eps       ncg     rms          rms(c)
DAV:   1    -0.125488829453E+03   -0.32700E-04   -0.13036E-03 14496   0.151E-01    0.681E-03
DAV:   2    -0.125488829916E+03   -0.46350E-06   -0.10047E-05 21600   0.137E-02    0.442E-03
DAV:   3    -0.125488829977E+03   -0.61108E-07   -0.71100E-07 15744   0.321E-03
  59 F= -.12707912E+03 E0= -.12707834E+03  d E =-.113230E-04  mag=    -0.0000
       N       E                     dE             d eps       ncg     rms          rms(c)
DAV:   1    -0.125488910483E+03   -0.80567E-04   -0.11741E-02 14208   0.453E-01    0.196E-02
DAV:   2    -0.125488914340E+03   -0.38564E-05   -0.89907E-05 25872   0.408E-02    0.127E-02
DAV:   3    -0.125488913948E+03    0.39173E-06   -0.61166E-06 21024   0.905E-03
  60 F= -.12707914E+03 E0= -.12707835E+03  d E =-.289675E-04  mag=     0.0000
       N       E                     dE             d eps       ncg     rms          rms(c)
DAV:   1    -0.125488927903E+03   -0.13563E-04   -0.48814E-04 14688   0.926E-02    0.446E-03
DAV:   2    -0.125488928148E+03   -0.24579E-06   -0.38917E-06 20256   0.859E-03
  61 F= -.12707914E+03 E0= -.12707836E+03  d E =-.296595E-04  mag=     0.0000
       N       E                     dE             d eps       ncg     rms          rms(c)
DAV:   1    -0.125488962102E+03   -0.34199E-04   -0.14918E-03 14208   0.162E-01    0.775E-03
DAV:   2    -0.125488962510E+03   -0.40875E-06   -0.13766E-05 20592   0.161E-02    0.492E-03
DAV:   3    -0.125488962444E+03    0.66371E-07   -0.10735E-06 15312   0.423E-03
  62 F= -.12707915E+03 E0= -.12707837E+03  d E =-.126144E-04  mag=     0.0000
       N       E                     dE             d eps       ncg     rms          rms(c)
DAV:   1    -0.125489008102E+03   -0.45592E-04   -0.44950E-03 14208   0.281E-01    0.131E-02
DAV:   2    -0.125489009409E+03   -0.13071E-05   -0.40643E-05 23808   0.277E-02    0.827E-03
DAV:   3    -0.125489009077E+03    0.33220E-06   -0.30162E-06 16464   0.687E-03
  63 F= -.12707916E+03 E0= -.12707838E+03  d E =-.217209E-04  mag=     0.0000
       N       E                     dE             d eps       ncg     rms          rms(c)
DAV:   1    -0.125489047963E+03   -0.38553E-04   -0.22246E-03 14208   0.200E-01    0.903E-03
DAV:   2    -0.125489048704E+03   -0.74159E-06   -0.17896E-05 16848   0.184E-02    0.587E-03
DAV:   3    -0.125489048652E+03    0.51982E-07   -0.14062E-06 14544   0.496E-03
  64 F= -.12707917E+03 E0= -.12707839E+03  d E =-.139717E-04  mag=    -0.0000
       N       E                     dE             d eps       ncg     rms          rms(c)
DAV:   1    -0.125489094415E+03   -0.45711E-04   -0.50967E-03 14208   0.302E-01    0.133E-02
DAV:   2    -0.125489096135E+03   -0.17198E-05   -0.40791E-05 19392   0.276E-02    0.860E-03
DAV:   3    -0.125489095885E+03    0.24995E-06   -0.29440E-06 16128   0.692E-03
  65 F= -.12707918E+03 E0= -.12707840E+03  d E =-.224299E-04  mag=     0.0000
       N       E                     dE             d eps       ncg     rms          rms(c)
DAV:   1    -0.125489135885E+03   -0.39751E-04   -0.25488E-03 14208   0.215E-01    0.942E-03
DAV:   2    -0.125489136645E+03   -0.76020E-06   -0.18919E-05 16416   0.192E-02    0.611E-03
DAV:   3    -0.125489136564E+03    0.81600E-07   -0.15740E-06 14688   0.544E-03
  66 F= -.12707920E+03 E0= -.12707841E+03  d E =-.143695E-04  mag=     0.0000
       N       E                     dE             d eps       ncg     rms          rms(c)
DAV:   1    -0.125489192204E+03   -0.55558E-04   -0.81250E-03 14208   0.383E-01    0.165E-02
DAV:   2    -0.125489194703E+03   -0.24999E-05   -0.59328E-05 19584   0.339E-02    0.107E-02
DAV:   3    -0.125489194209E+03    0.49488E-06   -0.45457E-06 15840   0.872E-03
  67 F= -.12707921E+03 E0= -.12707842E+03  d E =-.249712E-04  mag=     0.0000
       N       E                     dE             d eps       ncg     rms          rms(c)
DAV:   1    -0.125489239833E+03   -0.45129E-04   -0.41815E-03 14208   0.274E-01    0.122E-02
DAV:   2    -0.125489240783E+03   -0.95057E-06   -0.31568E-05 16128   0.246E-02    0.781E-03
DAV:   3    -0.125489240552E+03    0.23169E-06   -0.28759E-06 14688   0.726E-03
  68 F= -.12707922E+03 E0= -.12707844E+03  d E =-.164350E-04  mag=     0.0000
       N       E                     dE             d eps       ncg     rms          rms(c)
DAV:   1    -0.125489294805E+03   -0.54021E-04   -0.98072E-03 14208   0.419E-01    0.184E-02
DAV:   2    -0.125489296999E+03   -0.21939E-05   -0.72729E-05 17664   0.373E-02    0.118E-02
DAV:   3    -0.125489296254E+03    0.74503E-06   -0.63051E-06 14976   0.103E-02
  69 F= -.12707923E+03 E0= -.12707845E+03  d E =-.263029E-04  mag=    -0.0000
       N       E                     dE             d eps       ncg     rms          rms(c)
DAV:   1    -0.125489339263E+03   -0.42264E-04   -0.53739E-03 14208   0.312E-01    0.137E-02
DAV:   2    -0.125489341050E+03   -0.17877E-05   -0.40605E-05 15360   0.281E-02    0.893E-03
DAV:   3    -0.125489341053E+03   -0.25375E-08   -0.35221E-06 14496   0.867E-03
  70 F= -.12707925E+03 E0= -.12707847E+03  d E =-.173600E-04  mag=    -0.0000
       N       E                     dE             d eps       ncg     rms          rms(c)
DAV:   1    -0.125489379772E+03   -0.38722E-04   -0.79770E-03 14208   0.380E-01    0.164E-02
DAV:   2    -0.125489382472E+03   -0.26991E-05   -0.60063E-05 16512   0.341E-02    0.107E-02
DAV:   3    -0.125489382358E+03    0.11397E-06   -0.49343E-06 14496   0.101E-02
  71 F= -.12707926E+03 E0= -.12707847E+03  d E =-.251732E-04  mag=     0.0000
       N       E                     dE             d eps       ncg     rms          rms(c)
DAV:   1    -0.125489411947E+03   -0.29476E-04   -0.26012E-03 14304   0.217E-01    0.941E-03
DAV:   2    -0.125489412900E+03   -0.95228E-06   -0.19862E-05 14496   0.198E-02    0.624E-03
DAV:   3    -0.125489413189E+03   -0.28930E-06   -0.21419E-06 15408   0.738E-03
  72 F= -.12707927E+03 E0= -.12707849E+03  d E =-.138735E-04  mag=     0.0000
       N       E                     dE             d eps       ncg     rms          rms(c)
DAV:   1    -0.125489479254E+03   -0.66354E-04   -0.23429E-02 14208   0.651E-01    0.273E-02
DAV:   2    -0.125489488284E+03   -0.90308E-05   -0.17186E-04 18336   0.564E-02    0.181E-02
DAV:   3    -0.125489487386E+03    0.89855E-06   -0.11223E-05 14832   0.142E-02    0.441E-03
DAV:   4    -0.125489487464E+03   -0.78216E-07   -0.26369E-06 14208   0.807E-03
  73 F= -.12707929E+03 E0= -.12707851E+03  d E =-.371506E-04  mag=    -0.0000
       N       E                     dE             d eps       ncg     rms          rms(c)
DAV:   1    -0.125489506182E+03   -0.18796E-04   -0.29531E-03 14208   0.231E-01    0.983E-03
DAV:   2    -0.125489507362E+03   -0.11801E-05   -0.22608E-05 14976   0.208E-02    0.653E-03
DAV:   3    -0.125489507519E+03   -0.15681E-06   -0.20356E-06 14592   0.696E-03
  74 F= -.12707930E+03 E0= -.12707852E+03  d E =-.391535E-04  mag=    -0.0000
       N       E                     dE             d eps       ncg     rms          rms(c)
DAV:   1    -0.125489552008E+03   -0.44646E-04   -0.77007E-03 14208   0.373E-01    0.157E-02
DAV:   2    -0.125489555133E+03   -0.31250E-05   -0.57660E-05 15264   0.333E-02    0.105E-02
DAV:   3    -0.125489554939E+03    0.19374E-06   -0.43221E-06 14448   0.970E-03
  75 F= -.12707932E+03 E0= -.12707854E+03  d E =-.208942E-04  mag=     0.0000
       N       E                     dE             d eps       ncg     rms          rms(c)
DAV:   1    -0.125489620292E+03   -0.65159E-04   -0.36798E-02 14208   0.816E-01    0.343E-02
DAV:   2    -0.125489635515E+03   -0.15223E-04   -0.27015E-04 20544   0.715E-02    0.229E-02
DAV:   3    -0.125489633330E+03    0.21845E-05   -0.17099E-05 14736   0.172E-02    0.532E-03
DAV:   4    -0.125489633426E+03   -0.95410E-07   -0.34791E-06 14400   0.911E-03
  76 F= -.12707934E+03 E0= -.12707856E+03  d E =-.414139E-04  mag=     0.0000
       N       E                     dE             d eps       ncg     rms          rms(c)
DAV:   1    -0.125489668915E+03   -0.35584E-04   -0.45977E-03 14208   0.289E-01    0.121E-02
DAV:   2    -0.125489670849E+03   -0.19343E-05   -0.32692E-05 15216   0.248E-02    0.810E-03
DAV:   3    -0.125489670897E+03   -0.48269E-07   -0.25770E-06 14688   0.756E-03
  77 F= -.12707936E+03 E0= -.12707857E+03  d E =-.184104E-04  mag=    -0.0000
       N       E                     dE             d eps       ncg     rms          rms(c)
DAV:   1    -0.125489758410E+03   -0.87561E-04   -0.41306E-02 14208   0.865E-01    0.356E-02
DAV:   2    -0.125489774761E+03   -0.16351E-04   -0.28448E-04 20016   0.722E-02    0.239E-02
DAV:   3    -0.125489772441E+03    0.23204E-05   -0.17321E-05 14496   0.165E-02    0.493E-03
DAV:   4    -0.125489772548E+03   -0.10691E-06   -0.27921E-06 14496   0.794E-03
  78 F= -.12707940E+03 E0= -.12707862E+03  d E =-.627959E-04  mag=    -0.0000
       N       E                     dE             d eps       ncg     rms          rms(c)
DAV:   1    -0.125489872938E+03   -0.10050E-03   -0.16534E-01 14208   0.173E+00    0.713E-02
DAV:   2    -0.125489938667E+03   -0.65729E-04   -0.11335E-03 23808   0.144E-01    0.480E-02
DAV:   3    -0.125489926876E+03    0.11792E-04   -0.66666E-05 15840   0.301E-02    0.889E-03
DAV:   4    -0.125489927290E+03   -0.41465E-06   -0.76993E-06 16608   0.113E-02
  79 F= -.12707944E+03 E0= -.12707866E+03  d E =-.103412E-03  mag=    -0.0000
       N       E                     dE             d eps       ncg     rms          rms(c)
DAV:   1    -0.125489992664E+03   -0.65788E-04   -0.22653E-02 14208   0.641E-01    0.269E-02
DAV:   2    -0.125490001783E+03   -0.91191E-05   -0.15735E-04 19632   0.544E-02    0.180E-02
DAV:   3    -0.125490000766E+03    0.10165E-05   -0.10096E-05 14592   0.133E-02    0.374E-03
DAV:   4    -0.125490000818E+03   -0.51647E-07   -0.19088E-06 14304   0.690E-03
  80 F= -.12707948E+03 E0= -.12707869E+03  d E =-.341931E-04  mag=     0.0000
       N       E                     dE             d eps       ncg     rms          rms(c)
DAV:   1    -0.125490060904E+03   -0.60137E-04   -0.46649E-02 14208   0.921E-01    0.383E-02
DAV:   2    -0.125490079070E+03   -0.18166E-04   -0.32563E-04 24048   0.776E-02    0.257E-02
DAV:   3    -0.125490075713E+03    0.33564E-05   -0.18892E-05 16752   0.166E-02    0.490E-03
DAV:   4    -0.125490075885E+03   -0.17148E-06   -0.21445E-06 17808   0.641E-03
  81 F= -.12707949E+03 E0= -.12707871E+03  d E =-.529002E-04  mag=     0.0000
       N       E                     dE             d eps       ncg     rms          rms(c)
DAV:   1    -0.125490141473E+03   -0.65760E-04   -0.24846E-02 14208   0.672E-01    0.277E-02
DAV:   2    -0.125490150831E+03   -0.93580E-05   -0.16649E-04 21168   0.551E-02    0.187E-02
DAV:   3    -0.125490149415E+03    0.14157E-05   -0.96915E-06 16224   0.120E-02    0.370E-03
DAV:   4    -0.125490149497E+03   -0.81635E-07   -0.12462E-06 15360   0.516E-03
  82 F= -.12707953E+03 E0= -.12707875E+03  d E =-.340949E-04  mag=     0.0000
       N       E                     dE             d eps       ncg     rms          rms(c)
DAV:   1    -0.125490266342E+03   -0.11693E-03   -0.22351E-01 14208   0.202E+00    0.828E-02
DAV:   2    -0.125490348386E+03   -0.82044E-04   -0.14862E-03 23952   0.164E-01    0.559E-02
DAV:   3    -0.125490330443E+03    0.17943E-04   -0.81993E-05 17040   0.330E-02    0.105E-02
DAV:   4    -0.125490331008E+03   -0.56481E-06   -0.84741E-06 23280   0.114E-02
  83 F= -.12707959E+03 E0= -.12707881E+03  d E =-.974760E-04  mag=     0.0000
       N       E                     dE             d eps       ncg     rms          rms(c)
DAV:   1    -0.125490255556E+03    0.74887E-04   -0.89427E-01 14208   0.403E+00    0.166E-01
DAV:   2    -0.125490584697E+03   -0.32914E-03   -0.59385E-03 24240   0.327E-01    0.112E-01
DAV:   3    -0.125490508918E+03    0.75779E-04   -0.33011E-04 18624   0.659E-02    0.212E-02
DAV:   4    -0.125490510798E+03   -0.18803E-05   -0.32558E-05 25536   0.219E-02    0.728E-03
DAV:   5    -0.125490510710E+03    0.88108E-07   -0.25188E-06 22512   0.684E-03
  84 F= -.12707954E+03 E0= -.12707876E+03  d E =-.422567E-04  mag=     0.0000
       N       E                     dE             d eps       ncg     rms          rms(c)
DAV:   1    -0.125490260771E+03    0.25003E-03   -0.49649E-01 14208   0.300E+00    0.123E-01
DAV:   2    -0.125490441285E+03   -0.18051E-03   -0.33189E-03 25488   0.245E-01    0.832E-02
DAV:   3    -0.125490399880E+03    0.41405E-04   -0.18824E-04 19200   0.499E-02    0.157E-02
DAV:   4    -0.125490401090E+03   -0.12100E-05   -0.19658E-05 17472   0.186E-02    0.555E-03
DAV:   5    -0.125490401274E+03   -0.18466E-06   -0.32497E-06 20688   0.863E-03
  85 F= -.12707960E+03 E0= -.12707882E+03  d E =-.107807E-03  mag=    -0.0000
       N       E                     dE             d eps       ncg     rms          rms(c)
DAV:   1    -0.125490467662E+03   -0.66573E-04   -0.22230E-02 14208   0.636E-01    0.258E-02
DAV:   2    -0.125490475359E+03   -0.76967E-05   -0.15189E-04 23760   0.530E-02    0.174E-02
DAV:   3    -0.125490473891E+03    0.14684E-05   -0.10595E-05 20880   0.138E-02    0.373E-03
DAV:   4    -0.125490473812E+03    0.78948E-07   -0.31826E-06 14208   0.900E-03
  86 F= -.12707964E+03 E0= -.12707886E+03  d E =-.352581E-04  mag=    -0.0000
       N       E                     dE             d eps       ncg     rms          rms(c)
DAV:   1    -0.125490586136E+03   -0.11225E-03   -0.20024E-01 14208   0.191E+00    0.782E-02
DAV:   2    -0.125490662736E+03   -0.76599E-04   -0.13412E-03 22800   0.156E-01    0.529E-02
DAV:   3    -0.125490646398E+03    0.16338E-04   -0.79510E-05 16512   0.330E-02    0.992E-03
DAV:   4    -0.125490646856E+03   -0.45782E-06   -0.85669E-06 18960   0.119E-02
  87 F= -.12707970E+03 E0= -.12707892E+03  d E =-.967803E-04  mag=    -0.0000
       N       E                     dE             d eps       ncg     rms          rms(c)
DAV:   1    -0.125490685138E+03   -0.38740E-04   -0.28879E-02 14208   0.725E-01    0.300E-02
DAV:   2    -0.125490696707E+03   -0.11569E-04   -0.19447E-04 18768   0.599E-02    0.203E-02
DAV:   3    -0.125490695246E+03    0.14615E-05   -0.12476E-05 17424   0.144E-02    0.425E-03
DAV:   4    -0.125490695254E+03   -0.88867E-08   -0.21016E-06 20448   0.705E-03
  88 F= -.12707971E+03 E0= -.12707892E+03  d E =-.103009E-03  mag=     0.0000
       N       E                     dE             d eps       ncg     rms          rms(c)
DAV:   1    -0.125490792388E+03   -0.97143E-04   -0.66812E-02 14208   0.110E+00    0.453E-02
DAV:   2    -0.125490816794E+03   -0.24406E-04   -0.45481E-04 21120   0.910E-02    0.305E-02
DAV:   3    -0.125490811641E+03    0.51526E-05   -0.28597E-05 20592   0.199E-02    0.635E-03
DAV:   4    -0.125490811754E+03   -0.11239E-06   -0.33585E-06 21408   0.755E-03
  89 F= -.12707976E+03 E0= -.12707898E+03  d E =-.547530E-04  mag=    -0.0000
       N       E                     dE             d eps       ncg     rms          rms(c)
DAV:   1    -0.125490901692E+03   -0.90051E-04   -0.19531E-01 14208   0.188E+00    0.776E-02
DAV:   2    -0.125490971617E+03   -0.69925E-04   -0.13097E-03 23280   0.154E-01    0.522E-02
DAV:   3    -0.125490954982E+03    0.16635E-04   -0.83043E-05 20256   0.330E-02    0.102E-02
DAV:   4    -0.125490955180E+03   -0.19806E-06   -0.92855E-06 23424   0.117E-02
  90 F= -.12707980E+03 E0= -.12707902E+03  d E =-.929939E-04  mag=    -0.0000
       N       E                     dE             d eps       ncg     rms          rms(c)
DAV:   1    -0.125491012686E+03   -0.57704E-04   -0.33178E-02 14208   0.778E-01    0.323E-02
DAV:   2    -0.125491025765E+03   -0.13079E-04   -0.22598E-04 20112   0.647E-02    0.218E-02
DAV:   3    -0.125491023893E+03    0.18728E-05   -0.14742E-05 18912   0.149E-02    0.462E-03
DAV:   4    -0.125491023995E+03   -0.10260E-06   -0.20106E-06 18480   0.645E-03
  91 F= -.12707983E+03 E0= -.12707905E+03  d E =-.364878E-04  mag=    -0.0000
       N       E                     dE             d eps       ncg     rms          rms(c)
DAV:   1    -0.125491077129E+03   -0.53236E-04   -0.11369E-01 14208   0.144E+00    0.592E-02
DAV:   2    -0.125491119217E+03   -0.42089E-04   -0.76848E-04 24528   0.119E-01    0.400E-02
DAV:   3    -0.125491110029E+03    0.91879E-05   -0.48948E-05 20592   0.257E-02    0.792E-03
DAV:   4    -0.125491110157E+03   -0.12733E-06   -0.56724E-06 19440   0.963E-03
  92 F= -.12707986E+03 E0= -.12707908E+03  d E =-.627233E-04  mag=    -0.0000
       N       E                     dE             d eps       ncg     rms          rms(c)
DAV:   1    -0.125491157365E+03   -0.47335E-04   -0.32531E-02 14208   0.770E-01    0.319E-02
DAV:   2    -0.125491169876E+03   -0.12512E-04   -0.21808E-04 22176   0.632E-02    0.216E-02
DAV:   3    -0.125491168004E+03    0.18721E-05   -0.13218E-05 15696   0.139E-02    0.417E-03
DAV:   4    -0.125491168123E+03   -0.11870E-06   -0.18307E-06 14496   0.616E-03
  93 F= -.12707990E+03 E0= -.12707911E+03  d E =-.349441E-04  mag=    -0.0000
       N       E                     dE             d eps       ncg     rms          rms(c)
DAV:   1    -0.125491204850E+03   -0.36846E-04   -0.15947E-01 14208   0.171E+00    0.702E-02
DAV:   2    -0.125491263327E+03   -0.58477E-04   -0.10644E-03 25536   0.139E-01    0.475E-02
DAV:   3    -0.125491250429E+03    0.12898E-04   -0.63760E-05 16560   0.291E-02    0.890E-03
DAV:   4    -0.125491250791E+03   -0.36219E-06   -0.70584E-06 19200   0.107E-02
  94 F= -.12707993E+03 E0= -.12707915E+03  d E =-.669403E-04  mag=    -0.0000
       N       E                     dE             d eps       ncg     rms          rms(c)
DAV:   1    -0.125491288284E+03   -0.37855E-04   -0.40312E-02 14208   0.859E-01    0.357E-02
DAV:   2    -0.125491304291E+03   -0.16008E-04   -0.27783E-04 23136   0.717E-02    0.242E-02
DAV:   3    -0.125491301879E+03    0.24119E-05   -0.17332E-05 14880   0.166E-02    0.502E-03
DAV:   4    -0.125491301963E+03   -0.84213E-07   -0.28237E-06 14400   0.794E-03
  95 F= -.12707996E+03 E0= -.12707918E+03  d E =-.339679E-04  mag=    -0.0000
       N       E                     dE             d eps       ncg     rms          rms(c)
DAV:   1    -0.125491311915E+03   -0.10036E-04   -0.11194E-02 14208   0.453E-01    0.187E-02
DAV:   2    -0.125491316359E+03   -0.44443E-05   -0.77551E-05 15984   0.382E-02    0.126E-02
DAV:   3    -0.125491315994E+03    0.36580E-06   -0.52328E-06 15888   0.100E-02
  96 F= -.12707997E+03 E0= -.12707918E+03  d E =-.388597E-04  mag=     0.0000
       N       E                     dE             d eps       ncg     rms          rms(c)
DAV:   1    -0.125491334523E+03   -0.18163E-04   -0.85022E-03 14208   0.394E-01    0.166E-02
DAV:   2    -0.125491337355E+03   -0.28325E-05   -0.60847E-05 16944   0.334E-02    0.111E-02
DAV:   3    -0.125491336947E+03    0.40804E-06   -0.44990E-06 18000   0.916E-03
  97 F= -.12707999E+03 E0= -.12707920E+03  d E =-.189313E-04  mag=    -0.0000
       N       E                     dE             d eps       ncg     rms          rms(c)
DAV:   1    -0.125491348195E+03   -0.10839E-04   -0.31998E-02 14208   0.764E-01    0.321E-02
DAV:   2    -0.125491358670E+03   -0.10475E-04   -0.22728E-04 21696   0.642E-02    0.215E-02
DAV:   3    -0.125491356158E+03    0.25117E-05   -0.15309E-05 17760   0.155E-02    0.506E-03
DAV:   4    -0.125491356218E+03   -0.59964E-07   -0.26538E-06 14400   0.779E-03
  98 F= -.12708000E+03 E0= -.12707922E+03  d E =-.342971E-04  mag=    -0.0000
       N       E                     dE             d eps       ncg     rms          rms(c)
DAV:   1    -0.125491359563E+03   -0.34042E-05   -0.15412E-02 14208   0.532E-01    0.225E-02
DAV:   2    -0.125491364148E+03   -0.45857E-05   -0.11176E-04 17856   0.456E-02    0.149E-02
DAV:   3    -0.125491362813E+03    0.13356E-05   -0.83658E-06 15072   0.119E-02    0.368E-03
DAV:   4    -0.125491362878E+03   -0.65527E-07   -0.13960E-06 14592   0.574E-03
  99 F= -.12708002E+03 E0= -.12707923E+03  d E =-.154043E-04  mag=    -0.0000
       N       E                     dE             d eps       ncg     rms          rms(c)
DAV:   1    -0.125491362688E+03    0.12475E-06   -0.74549E-06 14928   0.122E-02    0.947E-04
DAV:   2    -0.125491362687E+03    0.51932E-09   -0.23209E-07 20496   0.255E-03
 100 F= -.12708002E+03 E0= -.12707923E+03  d E =-.153973E-04  mag=    -0.0000
       N       E                     dE             d eps       ncg     rms          rms(c)
DAV:   1    -0.125491356036E+03    0.66519E-05   -0.32810E-03 14208   0.246E-01    0.104E-02
DAV:   2    -0.125491356629E+03   -0.59295E-06   -0.24423E-05 20784   0.212E-02    0.692E-03
DAV:   3    -0.125491356351E+03    0.27803E-06   -0.18965E-06 15216   0.542E-03
 101 F= -.12708003E+03 E0= -.12707924E+03  d E =-.926259E-05  mag=     0.0000
       N       E                     dE             d eps       ncg     rms          rms(c)
DAV:   1    -0.125491341335E+03    0.15294E-04   -0.48085E-03 14208   0.297E-01    0.126E-02
DAV:   2    -0.125491342307E+03   -0.97170E-06   -0.35587E-05 22368   0.256E-02    0.840E-03
DAV:   3    -0.125491341885E+03    0.42182E-06   -0.27117E-06 14688   0.652E-03
 102 F= -.12708003E+03 E0= -.12707925E+03  d E =-.136681E-04  mag=    -0.0000
       N       E                     dE             d eps       ncg     rms          rms(c)
DAV:   1    -0.125491331448E+03    0.10859E-04   -0.26579E-03 14400   0.222E-01    0.932E-03
DAV:   2    -0.125491332113E+03   -0.66468E-06   -0.18455E-05 14928   0.187E-02    0.629E-03
DAV:   3    -0.125491331921E+03    0.19189E-06   -0.15649E-06 17856   0.561E-03
 103 F= -.12708004E+03 E0= -.12707926E+03  d E =-.877048E-05  mag=     0.0000
       N       E                     dE             d eps       ncg     rms          rms(c)
DAV:   1    -0.125491301253E+03    0.30859E-04   -0.98047E-03 14208   0.426E-01    0.174E-02
DAV:   2    -0.125491303903E+03   -0.26499E-05   -0.68347E-05 17472   0.357E-02    0.118E-02
DAV:   3    -0.125491303006E+03    0.89700E-06   -0.50941E-06 17712   0.943E-03
 104 F= -.12708005E+03 E0= -.12707926E+03  d E =-.158441E-04  mag=    -0.0000
       N       E                     dE             d eps       ncg     rms          rms(c)
DAV:   1    -0.125491284673E+03    0.19230E-04   -0.40241E-03 14208   0.273E-01    0.113E-02
DAV:   2    -0.125491285772E+03   -0.10988E-05   -0.28007E-05 14592   0.229E-02    0.769E-03
DAV:   3    -0.125491285477E+03    0.29447E-06   -0.22147E-06 14352   0.675E-03
 105 F= -.12708006E+03 E0= -.12707927E+03  d E =-.100885E-04  mag=     0.0000
       N       E                     dE             d eps       ncg     rms          rms(c)
DAV:   1    -0.125491237582E+03    0.48190E-04   -0.15056E-02 14208   0.527E-01    0.214E-02
DAV:   2    -0.125491241573E+03   -0.39912E-05   -0.10348E-04 14880   0.435E-02    0.145E-02
DAV:   3    -0.125491240239E+03    0.13341E-05   -0.74805E-06 17616   0.115E-02    0.388E-03
DAV:   4    -0.125491240320E+03   -0.80975E-07   -0.13605E-06 14928   0.587E-03
 106 F= -.12708006E+03 E0= -.12707928E+03  d E =-.182695E-04  mag=     0.0000
       N       E                     dE             d eps       ncg     rms          rms(c)
DAV:   1    -0.125491214287E+03    0.25952E-04   -0.45882E-03 14208   0.290E-01    0.119E-02
DAV:   2    -0.125491215722E+03   -0.14352E-05   -0.33163E-05 14400   0.250E-02    0.811E-03
DAV:   3    -0.125491215353E+03    0.36906E-06   -0.26192E-06 14208   0.745E-03
 107 F= -.12708008E+03 E0= -.12707929E+03  d E =-.106724E-04  mag=    -0.0000
       N       E                     dE             d eps       ncg     rms          rms(c)
DAV:   1    -0.125491133013E+03    0.82708E-04   -0.27809E-02 14208   0.715E-01    0.291E-02
DAV:   2    -0.125491141490E+03   -0.84768E-05   -0.19579E-04 14976   0.601E-02    0.198E-02
DAV:   3    -0.125491138814E+03    0.26758E-05   -0.13975E-05 20352   0.155E-02    0.528E-03
DAV:   4    -0.125491138916E+03   -0.10133E-06   -0.20931E-06 14880   0.711E-03
 108 F= -.12708009E+03 E0= -.12707930E+03  d E =-.221676E-04  mag=    -0.0000
       N       E                     dE             d eps       ncg     rms          rms(c)
DAV:   1    -0.125491115118E+03    0.23696E-04   -0.30976E-03 14208   0.239E-01    0.967E-03
DAV:   2    -0.125491116201E+03   -0.10836E-05   -0.22190E-05 14304   0.208E-02    0.669E-03
DAV:   3    -0.125491116036E+03    0.16590E-06   -0.20325E-06 14208   0.708E-03
 109 F= -.12708010E+03 E0= -.12707931E+03  d E =-.987362E-05  mag=     0.0000
       N       E                     dE             d eps       ncg     rms          rms(c)
DAV:   1    -0.125491037958E+03    0.78244E-04   -0.27784E-02 14208   0.714E-01    0.285E-02
DAV:   2    -0.125491047086E+03   -0.91289E-05   -0.19014E-04 14208   0.590E-02    0.196E-02
DAV:   3    -0.125491044615E+03    0.24716E-05   -0.12936E-05 20352   0.153E-02    0.516E-03
DAV:   4    -0.125491044708E+03   -0.93568E-07   -0.22583E-06 14352   0.752E-03
 110 F= -.12708012E+03 E0= -.12707934E+03  d E =-.368234E-04  mag=     0.0000
       N       E                     dE             d eps       ncg     rms          rms(c)
DAV:   1    -0.125490864584E+03    0.18003E-03   -0.11127E-01 14208   0.143E+00    0.572E-02
DAV:   2    -0.125490900435E+03   -0.35850E-04   -0.75324E-04 14208   0.117E-01    0.392E-02
DAV:   3    -0.125490889749E+03    0.10686E-04   -0.50489E-05 18912   0.288E-02    0.100E-02
DAV:   4    -0.125490889917E+03   -0.16856E-06   -0.60899E-06 14304   0.113E-02
 111 F= -.12708017E+03 E0= -.12707938E+03  d E =-.786758E-04  mag=     0.0000
       N       E                     dE             d eps       ncg     rms          rms(c)
DAV:   1    -0.125490434792E+03    0.45496E-03   -0.44510E-01 14208   0.286E+00    0.114E-01
DAV:   2    -0.125490580782E+03   -0.14599E-03   -0.30251E-03 18672   0.234E-01    0.790E-02
DAV:   3    -0.125490533384E+03    0.47397E-04   -0.19235E-04 18816   0.535E-02    0.178E-02
DAV:   4    -0.125490533427E+03   -0.42524E-07   -0.23225E-05 17952   0.204E-02    0.569E-03
DAV:   5    -0.125490533375E+03    0.51976E-07   -0.40920E-06 15504   0.967E-03
 112 F= -.12708020E+03 E0= -.12707942E+03  d E =-.115529E-03  mag=    -0.0000
       N       E                     dE             d eps       ncg     rms          rms(c)
DAV:   1    -0.125490497010E+03    0.36417E-04   -0.66769E-03 14208   0.350E-01    0.141E-02
DAV:   2    -0.125490499510E+03   -0.24995E-05   -0.48317E-05 18000   0.309E-02    0.981E-03
DAV:   3    -0.125490499201E+03    0.30905E-06   -0.47012E-06 17904   0.109E-02
 113 F= -.12708022E+03 E0= -.12707944E+03  d E =-.149318E-04  mag=     0.0000
       N       E                     dE             d eps       ncg     rms          rms(c)
DAV:   1    -0.125490375042E+03    0.12447E-03   -0.59970E-02 14208   0.105E+00    0.419E-02
DAV:   2    -0.125490396361E+03   -0.21318E-04   -0.41501E-04 19824   0.868E-02    0.292E-02
DAV:   3    -0.125490390667E+03    0.56937E-05   -0.26414E-05 19104   0.218E-02    0.663E-03
DAV:   4    -0.125490390629E+03    0.38064E-07   -0.62185E-06 14208   0.126E-02
 114 F= -.12708026E+03 E0= -.12707947E+03  d E =-.537372E-04  mag=     0.0000
       N       E                     dE             d eps       ncg     rms          rms(c)
DAV:   1    -0.125490093546E+03    0.29712E-03   -0.24011E-01 14208   0.210E+00    0.840E-02
DAV:   2    -0.125490176232E+03   -0.82687E-04   -0.16372E-03 19824   0.172E-01    0.583E-02
DAV:   3    -0.125490151366E+03    0.24866E-04   -0.10068E-04 19104   0.396E-02    0.127E-02
DAV:   4    -0.125490151418E+03   -0.51721E-07   -0.13230E-05 14496   0.166E-02    0.409E-03
DAV:   5    -0.125490151448E+03   -0.29695E-07   -0.36847E-06 15888   0.954E-03
 115 F= -.12708031E+03 E0= -.12707953E+03  d E =-.109426E-03  mag=    -0.0000
       N       E                     dE             d eps       ncg     rms          rms(c)
DAV:   1    -0.125489367641E+03    0.78378E-03   -0.96004E-01 14208   0.420E+00    0.168E-01
DAV:   2    -0.125489689656E+03   -0.32201E-03   -0.64709E-03 19680   0.341E-01    0.116E-01
DAV:   3    -0.125489585565E+03    0.10409E-03   -0.39540E-04 18912   0.764E-02    0.253E-02
DAV:   4    -0.125489585863E+03   -0.29769E-06   -0.43720E-05 20304   0.271E-02    0.802E-03
DAV:   5    -0.125489585523E+03    0.34032E-06   -0.59832E-06 16752   0.114E-02
 116 F= -.12708034E+03 E0= -.12707955E+03  d E =-.133326E-03  mag=     0.0000
       N       E                     dE             d eps       ncg     rms          rms(c)
DAV:   1    -0.125489755043E+03   -0.16918E-03   -0.95187E-02 14208   0.132E+00    0.526E-02
DAV:   2    -0.125489787069E+03   -0.32026E-04   -0.65826E-04 19440   0.110E-01    0.366E-02
DAV:   3    -0.125489778092E+03    0.89762E-05   -0.44084E-05 18528   0.286E-02    0.840E-03
DAV:   4    -0.125489777702E+03    0.39033E-06   -0.12291E-05 14592   0.178E-02    0.289E-03
DAV:   5    -0.125489776962E+03    0.74010E-06   -0.52941E-06 14304   0.115E-02
 117 F= -.12708034E+03 E0= -.12707956E+03  d E =-.138925E-03  mag=    -0.0000
       N       E                     dE             d eps       ncg     rms          rms(c)
DAV:   1    -0.125489676857E+03    0.10084E-03   -0.42898E-02 14208   0.887E-01    0.351E-02
DAV:   2    -0.125489691266E+03   -0.14408E-04   -0.29400E-04 22032   0.725E-02    0.245E-02
DAV:   3    -0.125489686686E+03    0.45793E-05   -0.17654E-05 18528   0.163E-02    0.525E-03
DAV:   4    -0.125489686808E+03   -0.12193E-06   -0.21815E-06 14784   0.664E-03
 118 F= -.12708038E+03 E0= -.12707959E+03  d E =-.350722E-04  mag=    -0.0000
       N       E                     dE             d eps       ncg     rms          rms(c)
DAV:   1    -0.125489316333E+03    0.37035E-03   -0.38636E-01 14208   0.266E+00    0.106E-01
DAV:   2    -0.125489447479E+03   -0.13115E-03   -0.25983E-03 19440   0.216E-01    0.738E-02
DAV:   3    -0.125489406940E+03    0.40539E-04   -0.15582E-04 18768   0.480E-02    0.157E-02
DAV:   4    -0.125489407249E+03   -0.30862E-06   -0.16485E-05 16416   0.164E-02    0.500E-03
DAV:   5    -0.125489407143E+03    0.10541E-06   -0.22539E-06 15648   0.678E-03
 119 F= -.12708047E+03 E0= -.12707969E+03  d E =-.131199E-03  mag=     0.0000
       N       E                     dE             d eps       ncg     rms          rms(c)
DAV:   1    -0.125488453898E+03    0.95335E-03   -0.15451E+00 14208   0.532E+00    0.212E-01
DAV:   2    -0.125488974870E+03   -0.52097E-03   -0.10323E-02 19440   0.430E-01    0.147E-01
DAV:   3    -0.125488806403E+03    0.16847E-03   -0.62057E-04 18768   0.954E-02    0.315E-02
DAV:   4    -0.125488807254E+03   -0.85038E-06   -0.64916E-05 21216   0.321E-02    0.997E-03
DAV:   5    -0.125488806519E+03    0.73509E-06   -0.75145E-06 16944   0.122E-02
 120 F= -.12708062E+03 E0= -.12707984E+03  d E =-.283061E-03  mag=     0.0000
       N       E                     dE             d eps       ncg     rms          rms(c)
DAV:   1    -0.125486033085E+03    0.27742E-02   -0.61789E+00 14208   0.106E+01    0.425E-01
DAV:   2    -0.125488142006E+03   -0.21089E-02   -0.41485E-02 20448   0.862E-01    0.295E-01
DAV:   3    -0.125487447624E+03    0.69438E-03   -0.24351E-03 19584   0.187E-01    0.628E-02
DAV:   4    -0.125487448731E+03   -0.11075E-05   -0.26021E-04 24576   0.633E-02    0.197E-02
DAV:   5    -0.125487445739E+03    0.29922E-05   -0.25706E-05 18480   0.222E-02    0.814E-03
DAV:   6    -0.125487447608E+03   -0.18689E-05   -0.14441E-05 18480   0.193E-02    0.263E-03
DAV:   7    -0.125487445599E+03    0.20089E-05   -0.62068E-06 20160   0.124E-02    0.987E-04
DAV:   8    -0.125487445734E+03   -0.13475E-06   -0.32104E-07 25200   0.277E-03
 121 F= -.12708077E+03 E0= -.12707999E+03  d E =-.430967E-03  mag=     0.0000
       N       E                     dE             d eps       ncg     rms          rms(c)
DAV:   1    -0.125487172397E+03    0.27320E-03   -0.26424E-01 14208   0.220E+00    0.879E-02
DAV:   2    -0.125487258975E+03   -0.86578E-04   -0.17673E-03 21168   0.177E-01    0.608E-02
DAV:   3    -0.125487230488E+03    0.28487E-04   -0.10963E-04 19392   0.395E-02    0.125E-02
DAV:   4    -0.125487230652E+03   -0.16387E-06   -0.11333E-05 17520   0.127E-02    0.418E-03
DAV:   5    -0.125487230655E+03   -0.33815E-08   -0.10188E-06 21600   0.377E-03
 122 F= -.12708087E+03 E0= -.12708009E+03  d E =-.966628E-04  mag=    -0.0000
       N       E                     dE             d eps       ncg     rms          rms(c)
DAV:   1    -0.125485987031E+03    0.12436E-02   -0.23780E+00 14208   0.660E+00    0.264E-01
DAV:   2    -0.125486774128E+03   -0.78710E-03   -0.15877E-02 20160   0.531E-01    0.182E-01
DAV:   3    -0.125486507556E+03    0.26657E-03   -0.98104E-04 19344   0.118E-01    0.384E-02
DAV:   4    -0.125486508517E+03   -0.96097E-06   -0.10188E-04 23232   0.379E-02    0.125E-02
DAV:   5    -0.125486507642E+03    0.87501E-06   -0.75087E-06 19344   0.101E-02
 123 F= -.12708108E+03 E0= -.12708030E+03  d E =-.309511E-03  mag=     0.0000
       N       E                     dE             d eps       ncg     rms          rms(c)
DAV:   1    -0.125482572538E+03    0.39360E-02   -0.95074E+00 14208   0.132E+01    0.528E-01
DAV:   2    -0.125485773587E+03   -0.32010E-02   -0.63934E-02 20016   0.107E+00    0.365E-01
DAV:   3    -0.125484694182E+03    0.10794E-02   -0.38472E-03 19536   0.234E-01    0.794E-02
DAV:   4    -0.125484695848E+03   -0.16664E-05   -0.40679E-04 25152   0.756E-02    0.249E-02
DAV:   5    -0.125484691625E+03    0.42236E-05   -0.29371E-05 23232   0.198E-02    0.101E-02
DAV:   6    -0.125484691727E+03   -0.10193E-06   -0.52175E-06 20160   0.947E-03
 124 F= -.12708114E+03 E0= -.12708036E+03  d E =-.369596E-03  mag=     0.0000
       N       E                     dE             d eps       ncg     rms          rms(c)
DAV:   1    -0.125485141439E+03   -0.44981E-03   -0.14395E+00 14208   0.514E+00    0.205E-01
DAV:   2    -0.125485618417E+03   -0.47698E-03   -0.96638E-03 20688   0.415E-01    0.142E-01
DAV:   3    -0.125485458206E+03    0.16021E-03   -0.59630E-04 17760   0.921E-02    0.294E-02
DAV:   4    -0.125485459161E+03   -0.95493E-06   -0.63911E-05 20352   0.301E-02    0.979E-03
DAV:   5    -0.125485458779E+03    0.38189E-06   -0.49676E-06 20496   0.865E-03
 125 F= -.12708118E+03 E0= -.12708040E+03  d E =-.406082E-03  mag=    -0.0000
       N       E                     dE             d eps       ncg     rms          rms(c)
DAV:   1    -0.125485046194E+03    0.41297E-03   -0.46760E-01 14208   0.293E+00    0.117E-01
DAV:   2    -0.125485199035E+03   -0.15284E-03   -0.31721E-03 19584   0.239E-01    0.806E-02
DAV:   3    -0.125485147238E+03    0.51796E-04   -0.20287E-04 19104   0.542E-02    0.177E-02
DAV:   4    -0.125485147184E+03    0.54440E-07   -0.22562E-05 15072   0.187E-02    0.585E-03
DAV:   5    -0.125485147109E+03    0.75006E-07   -0.26651E-06 15984   0.714E-03
 126 F= -.12708128E+03 E0= -.12708050E+03  d E =-.990339E-04  mag=     0.0000
       N       E                     dE             d eps       ncg     rms          rms(c)
DAV:   1    -0.125483143710E+03    0.20035E-02   -0.42088E+00 14208   0.879E+00    0.351E-01
DAV:   2    -0.125484536938E+03   -0.13932E-02   -0.28352E-02 20064   0.714E-01    0.242E-01
DAV:   3    -0.125484058505E+03    0.47843E-03   -0.17915E-03 19104   0.160E-01    0.524E-02
DAV:   4    -0.125484058034E+03    0.47031E-06   -0.19774E-04 23088   0.527E-02    0.171E-02
DAV:   5    -0.125484056431E+03    0.16030E-05   -0.14321E-05 18480   0.147E-02    0.701E-03
DAV:   6    -0.125484056191E+03    0.24020E-06   -0.40596E-06 21984   0.948E-03
 127 F= -.12708142E+03 E0= -.12708064E+03  d E =-.242090E-03  mag=    -0.0000
       N       E                     dE             d eps       ncg     rms          rms(c)
DAV:   1    -0.125483707506E+03    0.34893E-03   -0.39561E-01 14208   0.269E+00    0.107E-01
DAV:   2    -0.125483838642E+03   -0.13114E-03   -0.26908E-03 21600   0.220E-01    0.744E-02
DAV:   3    -0.125483794963E+03    0.43679E-04   -0.17219E-04 19872   0.496E-02    0.157E-02
DAV:   4    -0.125483795034E+03   -0.70243E-07   -0.18529E-05 15936   0.169E-02    0.530E-03
DAV:   5    -0.125483794951E+03    0.82267E-07   -0.20702E-06 18384   0.619E-03
 128 F= -.12708153E+03 E0= -.12708074E+03  d E =-.105135E-03  mag=    -0.0000
