       N       E                     dE             d eps       ncg     rms          rms(c)
DAV:   1     0.167277220645E+03    0.16728E+03   -0.23961E+04 18432   0.853E+02
DAV:   2    -0.113131644344E+03   -0.28041E+03   -0.27986E+03 28080   0.141E+02
DAV:   3    -0.122629747374E+03   -0.94981E+01   -0.94718E+01 31632   0.361E+01
DAV:   4    -0.122655116280E+03   -0.25369E-01   -0.25364E-01 29136   0.165E+00
DAV:   5    -0.122655139359E+03   -0.23079E-04   -0.23079E-04 29568   0.540E-02
DAV:   6    -0.122655139431E+03   -0.71933E-07   -0.71967E-07 28128   0.243E-03
   1 F= -.12452440E+03 E0= -.12451892E+03  d E =-.109580E-01
