Lattice                                 
           1
     4.193295    2.421000    0.000000
    -4.193295    2.421000    0.000000
     0.000000    0.000000   15.000000
   B    C 
     4    11
Direct configuration=     1
   0.00415361  0.00267210  0.12034134
   0.35695335  0.00285503  0.09748893
   0.00423858  0.35550699  0.09749256
   0.65142295  0.65006557  0.09747688
   0.32808646  0.32671938  0.10030508
   0.68027775  0.00278085  0.10027562
   0.00416530  0.67883808  0.10026559
   0.16666600  0.33333300  0.33720000
   0.33333300  0.16666600  0.33720000
   0.16666600  0.83333300  0.33720000
   0.33333300  0.66666600  0.33720000
   0.66666600  0.33333300  0.33720000
   0.83333300  0.16666600  0.33720000
   0.66666600  0.83333300  0.33720000
   0.83333300  0.66666600  0.33720000
Direct configuration=     2
   0.00418496  0.00275124  0.11900350
   0.35591706  0.00280283  0.09784255
   0.00419479  0.35448379  0.09784544
   0.65243036  0.65104128  0.09783808
   0.32479186  0.32338872  0.10032079
   0.68359272  0.00280198  0.10030181
   0.00420281  0.68217942  0.10029544
   0.16659379  0.33342375  0.33726080
   0.33342419  0.16659652  0.33726184
   0.16682114  0.83339208  0.33726356
   0.33333490  0.66667220  0.33711363
   0.66667134  0.33333136  0.33711362
   0.83338943  0.16681874  0.33726344
   0.66657328  0.83317607  0.33726121
   0.83317139  0.66657402  0.33726028
Direct configuration=     3
   0.00416997  0.00271341  0.11964308
   0.35641248  0.00282779  0.09767350
   0.00421572  0.35497295  0.09767674
   0.65194875  0.65057482  0.09766540
   0.32636691  0.32498101  0.10031328
   0.68200793  0.00279188  0.10028929
   0.00418488  0.68058203  0.10028117
   0.16662831  0.33338036  0.33723174
   0.33338060  0.16662974  0.33723228
   0.16674697  0.83336384  0.33723317
   0.33333399  0.66666924  0.33715492
   0.66666878  0.33333214  0.33715491
   0.83336245  0.16674572  0.33723311
   0.66661761  0.83325109  0.33723195
   0.83324865  0.66661799  0.33723146
