Lattice                                 
           1
     4.193295    2.421000    0.000000
    -4.193295    2.421000    0.000000
     0.000000    0.000000   15.000000
   B    C 
     4    11
Direct configuration=     1
   0.00415361  0.00267210  0.12034134
   0.35695335  0.00285503  0.09748893
   0.00423858  0.35550699  0.09749256
   0.65142295  0.65006557  0.09747688
   0.32808646  0.32671938  0.10030508
   0.68027775  0.00278085  0.10027562
   0.00416530  0.67883808  0.10026559
   0.16666600  0.33333300  0.33720000
   0.33333300  0.16666600  0.33720000
   0.16666600  0.83333300  0.33720000
   0.33333300  0.66666600  0.33720000
   0.66666600  0.33333300  0.33720000
   0.83333300  0.16666600  0.33720000
   0.66666600  0.83333300  0.33720000
   0.83333300  0.66666600  0.33720000
Direct configuration=     2
   0.00418496  0.00275124  0.11900350
   0.35591706  0.00280283  0.09784255
   0.00419479  0.35448379  0.09784544
   0.65243036  0.65104128  0.09783808
   0.32479186  0.32338872  0.10032079
   0.68359272  0.00280198  0.10030181
   0.00420281  0.68217942  0.10029544
   0.16659379  0.33342375  0.33726080
   0.33342419  0.16659652  0.33726184
   0.16682114  0.83339208  0.33726356
   0.33333490  0.66667220  0.33711363
   0.66667134  0.33333136  0.33711362
   0.83338943  0.16681874  0.33726344
   0.66657328  0.83317607  0.33726121
   0.83317139  0.66657402  0.33726028
Direct configuration=     3
   0.00416997  0.00271341  0.11964308
   0.35641248  0.00282779  0.09767350
   0.00421572  0.35497295  0.09767674
   0.65194875  0.65057482  0.09766540
   0.32636691  0.32498101  0.10031328
   0.68200793  0.00279188  0.10028929
   0.00418488  0.68058203  0.10028117
   0.16662831  0.33338036  0.33723174
   0.33338060  0.16662974  0.33723228
   0.16674697  0.83336384  0.33723317
   0.33333399  0.66666924  0.33715492
   0.66666878  0.33333214  0.33715491
   0.83336245  0.16674572  0.33723311
   0.66661761  0.83325109  0.33723195
   0.83324865  0.66661799  0.33723146
Direct configuration=     4
   0.00418682  0.00277421  0.11836771
   0.35695668  0.00278237  0.09802929
   0.00418199  0.35553893  0.09803172
   0.65140717  0.65000298  0.09802926
   0.32651303  0.32509821  0.10029267
   0.68187587  0.00279685  0.10027976
   0.00420494  0.68046375  0.10027490
   0.16670798  0.33328563  0.33729151
   0.33328416  0.16670872  0.33729295
   0.16657136  0.83328790  0.33729524
   0.33332896  0.66666050  0.33709168
   0.66665955  0.33333148  0.33709167
   0.83328775  0.16657383  0.33729503
   0.66670720  0.83342031  0.33729193
   0.83342054  0.66670832  0.33729069
Direct configuration=     5
   0.00423737  0.00295664  0.11454162
   0.35858929  0.00264611  0.09909666
   0.00408078  0.35723688  0.09909667
   0.64978243  0.64828747  0.09912085
   0.32695140  0.32544982  0.10023082
   0.68147969  0.00281177  0.10025117
   0.00426512  0.68010892  0.10025608
   0.16694699  0.33300144  0.33747081
   0.33299485  0.16694567  0.33747495
   0.16604451  0.83306011  0.33748144
   0.33331386  0.66663430  0.33690196
   0.66663185  0.33332948  0.33690192
   0.83306365  0.16605815  0.33748078
   0.66697599  0.83392796  0.33747188
   0.83393623  0.66697928  0.33746838
Direct configuration=     6
   0.00423817  0.00296175  0.11392772
   0.35871645  0.00264004  0.09922328
   0.00408102  0.35737179  0.09922312
   0.64966337  0.64816094  0.09924979
   0.32708983  0.32558578  0.10026648
   0.68134548  0.00280487  0.10029082
   0.00426156  0.67997907  0.10029676
   0.16677639  0.33315925  0.33748800
   0.33315350  0.16677721  0.33749227
   0.16637163  0.83321665  0.33749887
   0.33331520  0.66664583  0.33690818
   0.66664220  0.33332553  0.33690815
   0.83321588  0.16638046  0.33749815
   0.66681740  0.83360370  0.33748899
   0.83360591  0.66682112  0.33748542
Direct configuration=     7
   0.00423980  0.00297213  0.11268260
   0.35897436  0.00262773  0.09948011
   0.00408152  0.35764539  0.09947958
   0.64942191  0.64790431  0.09951130
   0.32737061  0.32586153  0.10033879
   0.68107326  0.00279088  0.10037124
   0.00425435  0.67971571  0.10037927
   0.16643039  0.33347932  0.33752287
   0.33347527  0.16643553  0.33752740
   0.16703510  0.83353416  0.33753424
   0.33331793  0.66666922  0.33692080
   0.66666318  0.33331753  0.33692078
   0.83352463  0.16703418  0.33753338
   0.66649575  0.83294604  0.33752367
   0.83293595  0.66650032  0.33751997
Direct configuration=     8
   0.00423537  0.00295219  0.11200182
   0.35891940  0.00264294  0.09956562
   0.00410203  0.35759166  0.09956522
   0.64948855  0.64797404  0.09959702
   0.32749228  0.32599481  0.10043485
   0.68095112  0.00277709  0.10046953
   0.00423839  0.67959264  0.10047792
   0.16645674  0.33350927  0.33752678
   0.33350571  0.16646415  0.33753106
   0.16702789  0.83350034  0.33753735
   0.33332073  0.66666968  0.33697560
   0.66666306  0.33331861  0.33697560
   0.83349037  0.16702685  0.33753644
   0.66646422  0.83295010  0.33752729
   0.83293814  0.66646964  0.33752390
Direct configuration=     9
   0.00422208  0.00289236  0.10995949
   0.35875454  0.00268856  0.09982215
   0.00416357  0.35743046  0.09982214
   0.64968849  0.64818321  0.09985419
   0.32785728  0.32639463  0.10072301
   0.68058470  0.00273573  0.10076442
   0.00419053  0.67922340  0.10077389
   0.16653582  0.33359910  0.33753851
   0.33359703  0.16655002  0.33754202
   0.16700626  0.83339887  0.33754667
   0.33332911  0.66667106  0.33714002
   0.66666271  0.33332185  0.33714006
   0.83338759  0.16700487  0.33754561
   0.66636960  0.83296229  0.33753813
   0.83294471  0.66637758  0.33753569
Direct configuration=    10
   0.00419549  0.00277269  0.10587482
   0.35842482  0.00277981  0.10033522
   0.00428663  0.35710806  0.10033599
   0.65008836  0.64860156  0.10036854
   0.32858729  0.32719429  0.10129932
   0.67985186  0.00265301  0.10135420
   0.00409479  0.67848494  0.10136582
   0.16669396  0.33377878  0.33756198
   0.33377966  0.16672177  0.33756394
   0.16696301  0.83319593  0.33756531
   0.33334589  0.66667382  0.33746884
   0.66666200  0.33332832  0.33746898
   0.83318202  0.16696091  0.33756395
   0.66618037  0.83298666  0.33755982
   0.83295784  0.66619346  0.33755927
Direct configuration=    11
   0.00423526  0.00280864  0.10417499
   0.35872506  0.00283324  0.10063236
   0.00431289  0.35734776  0.10063394
   0.64975004  0.64830371  0.10066115
   0.32827482  0.32689987  0.10145202
   0.68013147  0.00270754  0.10150525
   0.00413181  0.67871533  0.10151610
   0.16661514  0.33289845  0.33757927
   0.33287837  0.16661229  0.33758057
   0.16631067  0.83337070  0.33758084
   0.33326497  0.66662922  0.33759802
   0.66662378  0.33329716  0.33759813
   0.83336259  0.16632779  0.33757949
   0.66704453  0.83363280  0.33757686
   0.83363259  0.66704949  0.33757701
Direct configuration=    12
   0.00422149  0.00279619  0.10476367
   0.35862108  0.00281474  0.10052945
   0.00430380  0.35726475  0.10053076
   0.64986721  0.64840686  0.10055981
   0.32838304  0.32700183  0.10139914
   0.68003464  0.00268866  0.10145294
   0.00411899  0.67863554  0.10146406
   0.16664244  0.33320333  0.33757328
   0.33319051  0.16665021  0.33757481
   0.16653659  0.83331017  0.33757546
   0.33329299  0.66664466  0.33755328
   0.66663702  0.33330795  0.33755340
   0.83330006  0.16654706  0.33757411
   0.66674525  0.83340903  0.33757096
   0.83339891  0.66675303  0.33757086
Direct configuration=    13
   0.00424482  0.00283603  0.10440827
   0.35904787  0.00282192  0.10068053
   0.00427685  0.35764535  0.10068221
   0.64939855  0.64796516  0.10070597
   0.32796513  0.32657035  0.10133821
   0.68044508  0.00275971  0.10138516
   0.00418225  0.67901706  0.10139472
   0.16655551  0.33323423  0.33758923
   0.33322286  0.16656226  0.33759072
   0.16664172  0.83340114  0.33759164
   0.33329496  0.66663596  0.33755712
   0.66662282  0.33330884  0.33755719
   0.83339152  0.16665557  0.33759040
   0.66670430  0.83330407  0.33758741
   0.83329976  0.66671635  0.33758723
Direct configuration=    14
   0.00426258  0.00286636  0.10413772
   0.35937276  0.00282739  0.10079554
   0.00425634  0.35793509  0.10079750
   0.64904179  0.64762891  0.10081723
   0.32764700  0.32624188  0.10129182
   0.68075753  0.00281380  0.10133356
   0.00423041  0.67930749  0.10134193
   0.16648933  0.33325776  0.33760137
   0.33324749  0.16649531  0.33760284
   0.16672176  0.83347039  0.33760396
   0.33329646  0.66662933  0.33756004
   0.66661201  0.33330952  0.33756008
   0.83346114  0.16673817  0.33760280
   0.66667313  0.83322417  0.33759993
   0.83322427  0.66668843  0.33759969
