       N       E                     dE             d eps       ncg     rms          rms(c)
DAV:   1     0.202265411440E+03    0.20227E+03   -0.25608E+04 14208   0.858E+02
DAV:   2    -0.116198569125E+03   -0.31846E+03   -0.31696E+03 20400   0.162E+02
DAV:   3    -0.129033363604E+03   -0.12835E+02   -0.12823E+02 26640   0.428E+01
DAV:   4    -0.129057568901E+03   -0.24205E-01   -0.24201E-01 19968   0.180E+00
DAV:   5    -0.129057630644E+03   -0.61743E-04   -0.61743E-04 25584   0.911E-02    0.242E+01
DAV:   6    -0.918951084016E+02    0.37163E+02   -0.72720E+01 25488   0.255E+01    0.137E+01
DAV:   7    -0.100326535092E+03   -0.84314E+01   -0.96148E+00 21264   0.997E+00    0.804E+00
DAV:   8    -0.110464836807E+03   -0.10138E+02   -0.89645E+00 23616   0.900E+00    0.432E+00
DAV:   9    -0.117103000779E+03   -0.66382E+01   -0.37836E+00 19392   0.602E+00    0.276E+00
DAV:  10    -0.123497461999E+03   -0.63945E+01   -0.84226E+00 23424   0.706E+00    0.160E+00
DAV:  11    -0.125283202249E+03   -0.17857E+01   -0.30496E+00 25536   0.387E+00    0.101E+00
DAV:  12    -0.125404115202E+03   -0.12091E+00   -0.21421E-01 20688   0.126E+00    0.490E-01
DAV:  13    -0.125430739490E+03   -0.26624E-01   -0.21341E-02 17376   0.521E-01    0.200E-01
DAV:  14    -0.125455115263E+03   -0.24376E-01   -0.60226E-03 19776   0.268E-01    0.863E-02
DAV:  15    -0.125463188040E+03   -0.80728E-02   -0.32509E-03 18528   0.154E-01    0.457E-02
DAV:  16    -0.125465246199E+03   -0.20582E-02   -0.65691E-04 16320   0.800E-02    0.226E-02
DAV:  17    -0.125466519041E+03   -0.12728E-02   -0.17109E-04 15264   0.500E-02    0.176E-02
DAV:  18    -0.125467202185E+03   -0.68314E-03   -0.84714E-05 16752   0.365E-02    0.126E-02
DAV:  19    -0.125467662105E+03   -0.45992E-03   -0.41557E-05 19152   0.241E-02    0.754E-03
DAV:  20    -0.125467719201E+03   -0.57096E-04   -0.23085E-05 23328   0.179E-02    0.469E-03
DAV:  21    -0.125467742929E+03   -0.23728E-04   -0.66055E-06 20256   0.956E-03    0.230E-03
DAV:  22    -0.125467762514E+03   -0.19584E-04   -0.21988E-06 21168   0.562E-03    0.146E-03
DAV:  23    -0.125467779312E+03   -0.16798E-04   -0.18741E-06 20400   0.421E-03    0.779E-04
DAV:  24    -0.125467782982E+03   -0.36705E-05   -0.42231E-07 22080   0.240E-03    0.396E-04
DAV:  25    -0.125467783992E+03   -0.10097E-05   -0.12669E-07 22848   0.122E-03    0.196E-04
DAV:  26    -0.125467784544E+03   -0.55266E-06   -0.32270E-08 20784   0.604E-04    0.848E-05
DAV:  27    -0.125467784746E+03   -0.20201E-06   -0.89601E-09 22032   0.275E-04    0.540E-05
DAV:  28    -0.125467784879E+03   -0.13244E-06   -0.33815E-09 21840   0.156E-04    0.183E-05
DAV:  29    -0.125467784920E+03   -0.41189E-07   -0.79973E-10 22608   0.700E-05    0.818E-06
DAV:  30    -0.125467784925E+03   -0.45065E-08   -0.80410E-11 22704   0.215E-05
   1 F= -.12705194E+03 E0= -.12705116E+03  d E =-.127052E+03  mag=     0.0000
       N       E                     dE             d eps       ncg     rms          rms(c)
DAV:   1    -0.125481921560E+03   -0.14137E-01   -0.37639E+00 14208   0.590E+00    0.523E-01
DAV:   2    -0.125472113175E+03    0.98084E-02   -0.74413E-02 25920   0.751E-01    0.229E-01
DAV:   3    -0.125471066741E+03    0.10464E-02   -0.59371E-03 20352   0.209E-01    0.906E-02
DAV:   4    -0.125471024359E+03    0.42382E-04   -0.69987E-04 26256   0.725E-02    0.226E-02
DAV:   5    -0.125471028528E+03   -0.41691E-05   -0.20551E-05 24816   0.136E-02    0.752E-03
DAV:   6    -0.125471028517E+03    0.10700E-07   -0.42526E-06 20640   0.586E-03    0.291E-03
DAV:   7    -0.125471028885E+03   -0.36766E-06   -0.36688E-07 23568   0.181E-03    0.110E-03
DAV:   8    -0.125471029327E+03   -0.44217E-06   -0.74314E-08 20928   0.799E-04    0.371E-04
DAV:   9    -0.125471029665E+03   -0.33810E-06   -0.11715E-08 22560   0.302E-04    0.154E-04
DAV:  10    -0.125471030160E+03   -0.49522E-06   -0.23639E-08 20928   0.320E-04    0.118E-04
DAV:  11    -0.125471030408E+03   -0.24743E-06   -0.73386E-09 23184   0.171E-04    0.830E-05
DAV:  12    -0.125471030650E+03   -0.24260E-06   -0.92231E-09 20928   0.158E-04    0.493E-05
DAV:  13    -0.125471030719E+03   -0.68284E-07   -0.15234E-09 23808   0.664E-05    0.295E-05
DAV:  14    -0.125471030744E+03   -0.25069E-07   -0.20918E-10 22464   0.263E-05    0.145E-05
DAV:  15    -0.125471030767E+03   -0.23601E-07   -0.37631E-10 22800   0.345E-05    0.687E-06
DAV:  16    -0.125471030772E+03   -0.48531E-08   -0.38599E-11 24000   0.143E-05
   2 F= -.12705438E+03 E0= -.12705360E+03  d E =-.243708E-02  mag=    -0.0000
       N       E                     dE             d eps       ncg     rms          rms(c)
DAV:   1    -0.125480157944E+03   -0.91272E-02   -0.81121E-01 14208   0.275E+00    0.243E-01
DAV:   2    -0.125478016923E+03    0.21410E-02   -0.16094E-02 25344   0.346E-01    0.106E-01
DAV:   3    -0.125477798196E+03    0.21873E-03   -0.12695E-03 24336   0.972E-02    0.427E-02
DAV:   4    -0.125477789057E+03    0.91391E-05   -0.14358E-04 22752   0.328E-02    0.104E-02
DAV:   5    -0.125477789817E+03   -0.76025E-06   -0.51231E-06 24576   0.675E-03    0.335E-03
DAV:   6    -0.125477789852E+03   -0.35076E-07   -0.11037E-06 19392   0.295E-03    0.110E-03
DAV:   7    -0.125477789991E+03   -0.13842E-06   -0.68091E-08 23952   0.790E-04    0.520E-04
DAV:   8    -0.125477790162E+03   -0.17145E-06   -0.13978E-08 21072   0.312E-04    0.188E-04
DAV:   9    -0.125477790327E+03   -0.16534E-06   -0.47061E-09 21168   0.151E-04    0.739E-05
DAV:  10    -0.125477790516E+03   -0.18885E-06   -0.66818E-09 20640   0.139E-04    0.526E-05
DAV:  11    -0.125477790668E+03   -0.15163E-06   -0.52888E-09 22080   0.115E-04    0.377E-05
DAV:  12    -0.125477790811E+03   -0.14266E-06   -0.59485E-09 21312   0.111E-04    0.241E-05
DAV:  13    -0.125477790858E+03   -0.47425E-07   -0.93545E-10 23136   0.546E-05    0.131E-05
DAV:  14    -0.125477790871E+03   -0.13213E-07   -0.12542E-10 22464   0.211E-05    0.669E-06
DAV:  15    -0.125477790879E+03   -0.78899E-08   -0.12287E-10 23904   0.205E-05
   3 F= -.12706151E+03 E0= -.12706072E+03  d E =-.956516E-02  mag=     0.0000
       N       E                     dE             d eps       ncg     rms          rms(c)
DAV:   1    -0.125486863890E+03   -0.90730E-02   -0.44273E-01 14208   0.225E+00    0.136E-01
DAV:   2    -0.125486967132E+03   -0.10324E-03   -0.25796E-03 26016   0.195E-01    0.801E-02
DAV:   3    -0.125486965637E+03    0.14948E-05   -0.25361E-04 20352   0.544E-02    0.154E-02
DAV:   4    -0.125486967724E+03   -0.20865E-05   -0.25189E-05 26976   0.185E-02    0.600E-03
DAV:   5    -0.125486967941E+03   -0.21733E-06   -0.11657E-06 20832   0.448E-03    0.269E-03
DAV:   6    -0.125486968017E+03   -0.75594E-07   -0.90976E-07 22992   0.356E-03    0.669E-04
DAV:   7    -0.125486968170E+03   -0.15375E-06   -0.24067E-07 20880   0.168E-03    0.450E-04
DAV:   8    -0.125486968361E+03   -0.19023E-06   -0.87057E-08 23568   0.961E-04    0.261E-04
DAV:   9    -0.125486968495E+03   -0.13388E-06   -0.23325E-08 21840   0.489E-04    0.141E-04
DAV:  10    -0.125486968637E+03   -0.14266E-06   -0.12492E-08 23232   0.336E-04    0.650E-05
DAV:  11    -0.125486968754E+03   -0.11653E-06   -0.34272E-09 23376   0.152E-04    0.443E-05
DAV:  12    -0.125486968919E+03   -0.16543E-06   -0.31676E-09 21168   0.112E-04    0.276E-05
DAV:  13    -0.125486969049E+03   -0.12988E-06   -0.24754E-09 22512   0.897E-05    0.193E-05
DAV:  14    -0.125486969118E+03   -0.69119E-07   -0.12841E-09 20112   0.640E-05    0.125E-05
DAV:  15    -0.125486969136E+03   -0.17660E-07   -0.30566E-10 24672   0.335E-05    0.574E-06
DAV:  16    -0.125486969139E+03   -0.29668E-08   -0.47677E-11 22608   0.151E-05
   4 F= -.12707038E+03 E0= -.12706959E+03  d E =-.886798E-02  mag=     0.0000
       N       E                     dE             d eps       ncg     rms          rms(c)
DAV:   1    -0.125501217874E+03   -0.14249E-01   -0.40127E+00 14208   0.673E+00    0.405E-01
DAV:   2    -0.125502364715E+03   -0.11468E-02   -0.24705E-02 27360   0.598E-01    0.239E-01
DAV:   3    -0.125502327975E+03    0.36739E-04   -0.22940E-03 22176   0.161E-01    0.471E-02
DAV:   4    -0.125502350807E+03   -0.22831E-04   -0.21485E-04 26688   0.538E-02    0.183E-02
DAV:   5    -0.125502353923E+03   -0.31160E-05   -0.99405E-06 22512   0.130E-02    0.806E-03
DAV:   6    -0.125502354127E+03   -0.20471E-06   -0.71715E-06 23760   0.992E-03    0.188E-03
DAV:   7    -0.125502354752E+03   -0.62512E-06   -0.14248E-06 23232   0.418E-03    0.129E-03
DAV:   8    -0.125502355268E+03   -0.51556E-06   -0.57382E-07 22800   0.247E-03    0.697E-04
DAV:   9    -0.125502355659E+03   -0.39111E-06   -0.17132E-07 22704   0.132E-03    0.387E-04
DAV:  10    -0.125502356187E+03   -0.52819E-06   -0.95524E-08 21936   0.947E-04    0.174E-04
DAV:  11    -0.125502356543E+03   -0.35585E-06   -0.23482E-08 25776   0.425E-04    0.115E-04
DAV:  12    -0.125502356828E+03   -0.28479E-06   -0.90647E-09 24768   0.224E-04    0.698E-05
DAV:  13    -0.125502357042E+03   -0.21413E-06   -0.56813E-09 23328   0.147E-04    0.475E-05
DAV:  14    -0.125502357282E+03   -0.23975E-06   -0.63654E-09 20544   0.135E-04    0.328E-05
DAV:  15    -0.125502357413E+03   -0.13103E-06   -0.31719E-09 22944   0.984E-05    0.162E-05
DAV:  16    -0.125502357450E+03   -0.37234E-07   -0.71691E-10 21216   0.530E-05    0.754E-06
DAV:  17    -0.125502357455E+03   -0.44893E-08   -0.73042E-11 26400   0.193E-05
   5 F= -.12708486E+03 E0= -.12708407E+03  d E =-.233476E-01  mag=     0.0000
       N       E                     dE             d eps       ncg     rms          rms(c)
DAV:   1    -0.125507148212E+03   -0.47908E-02   -0.20667E-01 14208   0.180E+00    0.108E-01
DAV:   2    -0.125507112397E+03    0.35815E-04   -0.18510E-03 27744   0.190E-01    0.599E-02
DAV:   3    -0.125507062695E+03    0.49702E-04   -0.22336E-04 21408   0.564E-02    0.174E-02
DAV:   4    -0.125507064726E+03   -0.20308E-05   -0.32096E-05 24192   0.211E-02    0.714E-03
DAV:   5    -0.125507065168E+03   -0.44216E-06   -0.13187E-06 23616   0.463E-03    0.309E-03
DAV:   6    -0.125507065044E+03    0.12356E-06   -0.48447E-07 23328   0.280E-03    0.852E-04
DAV:   7    -0.125507065008E+03    0.36442E-07   -0.69177E-08 24960   0.996E-04    0.400E-04
DAV:   8    -0.125507064969E+03    0.39215E-07   -0.54249E-08 22560   0.749E-04    0.238E-04
DAV:   9    -0.125507064970E+03   -0.16253E-08   -0.46824E-08 23232   0.668E-04
   6 F= -.12708936E+03 E0= -.12708858E+03  d E =-.450984E-02  mag=     0.0000
       N       E                     dE             d eps       ncg     rms          rms(c)
DAV:   1    -0.125509577454E+03   -0.25125E-02   -0.34029E-01 14208   0.231E+00    0.137E-01
DAV:   2    -0.125509525555E+03    0.51899E-04   -0.30624E-03 28320   0.244E-01    0.766E-02
DAV:   3    -0.125509443373E+03    0.82182E-04   -0.36605E-04 21072   0.720E-02    0.220E-02
DAV:   4    -0.125509446530E+03   -0.31571E-05   -0.52067E-05 24000   0.269E-02    0.911E-03
DAV:   5    -0.125509447180E+03   -0.64996E-06   -0.21713E-06 22032   0.591E-03    0.393E-03
DAV:   6    -0.125509446973E+03    0.20684E-06   -0.79973E-07 24720   0.359E-03    0.954E-04
DAV:   7    -0.125509446927E+03    0.45336E-07   -0.10931E-07 24096   0.127E-03    0.509E-04
DAV:   8    -0.125509446899E+03    0.28788E-07   -0.81698E-08 24144   0.932E-04    0.308E-04
DAV:   9    -0.125509446942E+03   -0.43654E-07   -0.73002E-08 22032   0.849E-04    0.155E-04
DAV:  10    -0.125509447039E+03   -0.96291E-07   -0.15542E-08 21360   0.408E-04    0.876E-05
DAV:  11    -0.125509447123E+03   -0.84712E-07   -0.48744E-09 21072   0.188E-04    0.468E-05
DAV:  12    -0.125509447166E+03   -0.42865E-07   -0.11400E-09 22512   0.762E-05    0.321E-05
DAV:  13    -0.125509447209E+03   -0.42685E-07   -0.19029E-09 17280   0.668E-05    0.142E-05
DAV:  14    -0.125509447218E+03   -0.91632E-08   -0.27238E-10 25056   0.268E-05
   7 F= -.12709148E+03 E0= -.12709070E+03  d E =-.662675E-02  mag=    -0.0000
       N       E                     dE             d eps       ncg     rms          rms(c)
DAV:   1    -0.125512615806E+03   -0.31686E-02   -0.17886E-01 14208   0.139E+00    0.786E-02
DAV:   2    -0.125512649705E+03   -0.33899E-04   -0.87460E-04 27936   0.106E-01    0.468E-02
DAV:   3    -0.125512646816E+03    0.28892E-05   -0.10905E-04 20400   0.301E-02    0.727E-03
DAV:   4    -0.125512646979E+03   -0.16320E-06   -0.65401E-06 23040   0.989E-03    0.367E-03
DAV:   5    -0.125512646547E+03    0.43169E-06   -0.92124E-07 22512   0.358E-03    0.119E-03
DAV:   6    -0.125512646326E+03    0.22146E-06   -0.33655E-07 25824   0.205E-03    0.530E-04
DAV:   7    -0.125512646345E+03   -0.19482E-07   -0.23264E-07 22272   0.148E-03    0.382E-04
DAV:   8    -0.125512646511E+03   -0.16516E-06   -0.65411E-08 22272   0.799E-04    0.244E-04
DAV:   9    -0.125512646743E+03   -0.23247E-06   -0.17506E-08 20736   0.397E-04    0.123E-04
DAV:  10    -0.125512647002E+03   -0.25893E-06   -0.12012E-08 21504   0.266E-04    0.655E-05
DAV:  11    -0.125512647161E+03   -0.15896E-06   -0.41331E-09 20784   0.119E-04    0.401E-05
DAV:  12    -0.125512647265E+03   -0.10387E-06   -0.32339E-09 21936   0.855E-05    0.225E-05
DAV:  13    -0.125512647295E+03   -0.30655E-07   -0.64565E-10 22128   0.400E-05    0.148E-05
DAV:  14    -0.125512647312E+03   -0.16279E-07   -0.52989E-10 22992   0.347E-05    0.718E-06
DAV:  15    -0.125512647314E+03   -0.27876E-08   -0.54068E-11 23088   0.136E-05
   8 F= -.12709440E+03 E0= -.12709361E+03  d E =-.291419E-02  mag=     0.0000
       N       E                     dE             d eps       ncg     rms          rms(c)
DAV:   1    -0.125518856531E+03   -0.62092E-02   -0.16122E+00 14208   0.415E+00    0.234E-01
DAV:   2    -0.125519197696E+03   -0.34117E-03   -0.77306E-03 27936   0.317E-01    0.140E-01
DAV:   3    -0.125519160945E+03    0.36751E-04   -0.10038E-03 20736   0.909E-02    0.208E-02
DAV:   4    -0.125519160087E+03    0.85863E-06   -0.57921E-05 22944   0.296E-02    0.109E-02
DAV:   5    -0.125519156839E+03    0.32479E-05   -0.79704E-06 22656   0.106E-02    0.361E-03
DAV:   6    -0.125519155349E+03    0.14901E-05   -0.28553E-06 25536   0.594E-03    0.156E-03
DAV:   7    -0.125519155667E+03   -0.31874E-06   -0.19371E-06 22800   0.423E-03    0.112E-03
DAV:   8    -0.125519156867E+03   -0.11994E-05   -0.51313E-07 19776   0.223E-03    0.723E-04
DAV:   9    -0.125519158509E+03   -0.16418E-05   -0.16251E-07 22272   0.121E-03    0.362E-04
DAV:  10    -0.125519160233E+03   -0.17247E-05   -0.96557E-08 20832   0.785E-04    0.192E-04
DAV:  11    -0.125519161469E+03   -0.12358E-05   -0.44157E-08 20928   0.379E-04    0.951E-05
DAV:  12    -0.125519161960E+03   -0.49110E-06   -0.13693E-08 22416   0.188E-04    0.630E-05
DAV:  13    -0.125519162160E+03   -0.19934E-06   -0.47634E-09 21120   0.114E-04    0.372E-05
DAV:  14    -0.125519162254E+03   -0.94785E-07   -0.34169E-09 22512   0.916E-05    0.171E-05
DAV:  15    -0.125519162267E+03   -0.12400E-07   -0.17505E-10 24432   0.292E-05    0.112E-05
DAV:  16    -0.125519162276E+03   -0.88185E-08   -0.13406E-10 22800   0.229E-05
   9 F= -.12710007E+03 E0= -.12709928E+03  d E =-.858404E-02  mag=    -0.0000
       N       E                     dE             d eps       ncg     rms          rms(c)
DAV:   1    -0.125518844645E+03    0.31762E-03   -0.64505E+00 14208   0.829E+00    0.462E-01
DAV:   2    -0.125520355748E+03   -0.15111E-02   -0.31725E-02 24384   0.641E-01    0.277E-01
DAV:   3    -0.125520205141E+03    0.15061E-03   -0.40652E-03 24432   0.183E-01    0.411E-02
DAV:   4    -0.125520200886E+03    0.42552E-05   -0.23264E-04 21456   0.596E-02    0.216E-02
DAV:   5    -0.125520192695E+03    0.81909E-05   -0.27678E-05 23760   0.203E-02    0.751E-03
DAV:   6    -0.125520188997E+03    0.36979E-05   -0.99688E-06 25632   0.115E-02    0.290E-03
DAV:   7    -0.125520191363E+03   -0.23664E-05   -0.70251E-06 23616   0.855E-03    0.176E-03
DAV:   8    -0.125520197329E+03   -0.59660E-05   -0.22173E-06 19584   0.476E-03    0.101E-03
DAV:   9    -0.125520204349E+03   -0.70193E-05   -0.82763E-07 22608   0.277E-03    0.626E-04
DAV:  10    -0.125520206886E+03   -0.25371E-05   -0.10214E-07 21792   0.859E-04    0.382E-04
DAV:  11    -0.125520210988E+03   -0.41023E-05   -0.15601E-07 20400   0.653E-04    0.172E-04
DAV:  12    -0.125520212129E+03   -0.11404E-05   -0.24240E-08 22464   0.303E-04    0.113E-04
DAV:  13    -0.125520212805E+03   -0.67648E-06   -0.17494E-08 20688   0.231E-04    0.684E-05
DAV:  14    -0.125520213024E+03   -0.21841E-06   -0.60285E-09 21792   0.138E-04    0.328E-05
DAV:  15    -0.125520213074E+03   -0.50681E-07   -0.77065E-10 24480   0.604E-05    0.219E-05
DAV:  16    -0.125520213097E+03   -0.23285E-07   -0.28623E-10 23184   0.361E-05    0.138E-05
DAV:  17    -0.125520213111E+03   -0.13551E-07   -0.27897E-10 22656   0.299E-05    0.913E-06
DAV:  18    -0.125520213116E+03   -0.47885E-08   -0.13868E-10 24576   0.191E-05
  10 F= -.12709948E+03 E0= -.12709870E+03  d E =-.800226E-02  mag=    -0.0000
       N       E                     dE             d eps       ncg     rms          rms(c)
DAV:   1    -0.125521160899E+03   -0.94779E-03   -0.18073E+00 14208   0.439E+00    0.244E-01
DAV:   2    -0.125521556583E+03   -0.39568E-03   -0.89047E-03 24576   0.338E-01    0.147E-01
DAV:   3    -0.125521507729E+03    0.48854E-04   -0.12114E-03 24384   0.993E-02    0.226E-02
DAV:   4    -0.125521503065E+03    0.46645E-05   -0.82512E-05 23712   0.333E-02    0.115E-02
DAV:   5    -0.125521502818E+03    0.24662E-06   -0.67533E-06 23808   0.999E-03    0.426E-03
DAV:   6    -0.125521504052E+03   -0.12340E-05   -0.27839E-06 23568   0.582E-03    0.151E-03
DAV:   7    -0.125521507268E+03   -0.32156E-05   -0.14310E-06 19824   0.374E-03    0.946E-04
DAV:   8    -0.125521511841E+03   -0.45728E-05   -0.12492E-06 19200   0.318E-03    0.548E-04
DAV:   9    -0.125521514851E+03   -0.30102E-05   -0.35360E-07 21120   0.153E-03    0.382E-04
DAV:  10    -0.125521515974E+03   -0.11236E-05   -0.65265E-08 25008   0.561E-04    0.213E-04
DAV:  11    -0.125521517245E+03   -0.12708E-05   -0.89021E-08 19008   0.444E-04    0.102E-04
DAV:  12    -0.125521517925E+03   -0.68003E-06   -0.39899E-08 21696   0.308E-04    0.606E-05
DAV:  13    -0.125521518212E+03   -0.28678E-06   -0.12170E-08 20640   0.176E-04    0.414E-05
DAV:  14    -0.125521518353E+03   -0.14120E-06   -0.46071E-09 22224   0.113E-04    0.198E-05
DAV:  15    -0.125521518409E+03   -0.56193E-07   -0.11515E-09 21456   0.689E-05    0.113E-05
DAV:  16    -0.125521518422E+03   -0.12846E-07   -0.17770E-10 25440   0.299E-05    0.800E-06
DAV:  17    -0.125521518427E+03   -0.51841E-08   -0.11018E-10 22320   0.207E-05
  11 F= -.12710164E+03 E0= -.12710086E+03  d E =-.101597E-01  mag=     0.0000
       N       E                     dE             d eps       ncg     rms          rms(c)
DAV:   1    -0.125523640613E+03   -0.21222E-02   -0.10323E+00 14208   0.408E+00    0.250E-01
DAV:   2    -0.125523287539E+03    0.35307E-03   -0.12360E-02 26112   0.480E-01    0.136E-01
DAV:   3    -0.125523056508E+03    0.23103E-03   -0.14623E-03 20736   0.139E-01    0.514E-02
DAV:   4    -0.125523054807E+03    0.17007E-05   -0.25367E-04 23616   0.542E-02    0.235E-02
DAV:   5    -0.125523059143E+03   -0.43359E-05   -0.13198E-05 24288   0.147E-02    0.770E-03
DAV:   6    -0.125523058876E+03    0.26704E-06   -0.25183E-06 24672   0.630E-03    0.256E-03
DAV:   7    -0.125523058996E+03   -0.12002E-06   -0.30768E-07 25248   0.225E-03    0.620E-04
DAV:   8    -0.125523059294E+03   -0.29785E-06   -0.11075E-07 18624   0.122E-03    0.266E-04
DAV:   9    -0.125523059684E+03   -0.39071E-06   -0.73944E-08 24288   0.867E-04    0.306E-04
DAV:  10    -0.125523059991E+03   -0.30709E-06   -0.18779E-08 20256   0.400E-04    0.200E-04
DAV:  11    -0.125523060377E+03   -0.38550E-06   -0.19169E-08 22176   0.332E-04    0.906E-05
DAV:  12    -0.125523060541E+03   -0.16365E-06   -0.32947E-09 21168   0.122E-04    0.470E-05
DAV:  13    -0.125523060660E+03   -0.11987E-06   -0.26332E-09 21936   0.848E-05    0.178E-05
DAV:  14    -0.125523060694E+03   -0.33671E-07   -0.55225E-10 22560   0.516E-05    0.163E-05
DAV:  15    -0.125523060709E+03   -0.15355E-07   -0.33785E-10 23184   0.407E-05    0.960E-06
DAV:  16    -0.125523060713E+03   -0.32160E-08   -0.66499E-11 22944   0.228E-05
  12 F= -.12710269E+03 E0= -.12710191E+03  d E =-.105314E-02  mag=    -0.0000
       N       E                     dE             d eps       ncg     rms          rms(c)
DAV:   1    -0.125524438846E+03   -0.13781E-02   -0.19360E-01 14208   0.177E+00    0.108E-01
DAV:   2    -0.125524373006E+03    0.65840E-04   -0.23281E-03 25632   0.208E-01    0.589E-02
DAV:   3    -0.125524330599E+03    0.42407E-04   -0.27776E-04 23040   0.605E-02    0.223E-02
DAV:   4    -0.125524330366E+03    0.23337E-06   -0.46666E-05 24000   0.232E-02    0.102E-02
DAV:   5    -0.125524331227E+03   -0.86068E-06   -0.25157E-06 21888   0.646E-03    0.328E-03
DAV:   6    -0.125524331121E+03    0.10581E-06   -0.50666E-07 25536   0.281E-03    0.112E-03
DAV:   7    -0.125524331153E+03   -0.32413E-07   -0.57594E-08 22560   0.977E-04    0.269E-04
DAV:   8    -0.125524331278E+03   -0.12512E-06   -0.22669E-08 20640   0.533E-04    0.119E-04
DAV:   9    -0.125524331431E+03   -0.15301E-06   -0.14006E-08 21744   0.354E-04    0.129E-04
DAV:  10    -0.125524331549E+03   -0.11728E-06   -0.52865E-09 22272   0.193E-04    0.907E-05
DAV:  11    -0.125524331710E+03   -0.16167E-06   -0.76262E-09 20016   0.175E-04    0.400E-05
DAV:  12    -0.125524331788E+03   -0.77595E-07   -0.17165E-09 23424   0.784E-05    0.199E-05
DAV:  13    -0.125524331847E+03   -0.58898E-07   -0.11722E-09 20832   0.658E-05    0.838E-06
DAV:  14    -0.125524331861E+03   -0.14218E-07   -0.24006E-10 24192   0.356E-05    0.717E-06
DAV:  15    -0.125524331866E+03   -0.51241E-08   -0.11212E-10 22416   0.245E-05
  13 F= -.12710419E+03 E0= -.12710341E+03  d E =-.255003E-02  mag=    -0.0000
       N       E                     dE             d eps       ncg     rms          rms(c)
DAV:   1    -0.125525485373E+03   -0.11535E-02   -0.58804E-02 14208   0.909E-01    0.510E-02
DAV:   2    -0.125525447739E+03    0.37633E-04   -0.59634E-04 27456   0.855E-02    0.253E-02
DAV:   3    -0.125525444193E+03    0.35459E-05   -0.39090E-05 17472   0.215E-02    0.105E-02
DAV:   4    -0.125525445289E+03   -0.10954E-05   -0.52517E-06 21408   0.847E-03    0.263E-03
DAV:   5    -0.125525445399E+03   -0.11060E-06   -0.23429E-07 21504   0.197E-03    0.862E-04
DAV:   6    -0.125525445319E+03    0.80880E-07   -0.53293E-08 21696   0.931E-04    0.224E-04
DAV:   7    -0.125525445321E+03   -0.22237E-08   -0.13980E-08 24096   0.419E-04
  14 F= -.12710519E+03 E0= -.12710441E+03  d E =-.100307E-02  mag=    -0.0000
       N       E                     dE             d eps       ncg     rms          rms(c)
DAV:   1    -0.125525773625E+03   -0.32831E-03   -0.32820E-02 14208   0.679E-01    0.381E-02
DAV:   2    -0.125525752815E+03    0.20810E-04   -0.33582E-04 21696   0.642E-02    0.190E-02
DAV:   3    -0.125525751045E+03    0.17706E-05   -0.25338E-05 19008   0.173E-02    0.785E-03
DAV:   4    -0.125525751572E+03   -0.52782E-06   -0.32194E-06 20208   0.641E-03    0.206E-03
DAV:   5    -0.125525751614E+03   -0.41646E-07   -0.16192E-07 22368   0.159E-03    0.675E-04
DAV:   6    -0.125525751613E+03    0.10332E-08   -0.34245E-08 22464   0.768E-04
  15 F= -.12710542E+03 E0= -.12710464E+03  d E =-.122703E-02  mag=    -0.0000
       N       E                     dE             d eps       ncg     rms          rms(c)
DAV:   1    -0.125526219579E+03   -0.46796E-03   -0.65655E-02 14208   0.105E+00    0.603E-02
DAV:   2    -0.125526189275E+03    0.30304E-04   -0.94467E-04 19968   0.130E-01    0.329E-02
DAV:   3    -0.125526178031E+03    0.11244E-04   -0.12166E-04 24432   0.419E-02    0.132E-02
DAV:   4    -0.125526177309E+03    0.72176E-06   -0.19509E-05 20256   0.154E-02    0.668E-03
DAV:   5    -0.125526177489E+03   -0.17937E-06   -0.11885E-06 21216   0.473E-03    0.181E-03
DAV:   6    -0.125526177558E+03   -0.69407E-07   -0.19666E-07 25200   0.185E-03    0.824E-04
DAV:   7    -0.125526177715E+03   -0.15735E-06   -0.33737E-08 20064   0.785E-04    0.245E-04
DAV:   8    -0.125526177902E+03   -0.18631E-06   -0.15728E-08 21888   0.481E-04    0.167E-04
DAV:   9    -0.125526178202E+03   -0.30018E-06   -0.22107E-08 18288   0.412E-04    0.137E-04
DAV:  10    -0.125526178460E+03   -0.25860E-06   -0.17282E-08 19680   0.314E-04    0.862E-05
DAV:  11    -0.125526178597E+03   -0.13699E-06   -0.58563E-09 21408   0.203E-04    0.346E-05
DAV:  12    -0.125526178675E+03   -0.77774E-07   -0.21691E-09 21936   0.128E-04    0.271E-05
DAV:  13    -0.125526178738E+03   -0.62680E-07   -0.12029E-09 21120   0.792E-05    0.131E-05
DAV:  14    -0.125526178763E+03   -0.24999E-07   -0.37639E-10 23472   0.475E-05    0.625E-06
DAV:  15    -0.125526178772E+03   -0.94315E-08   -0.18326E-10 20880   0.285E-05
  16 F= -.12710576E+03 E0= -.12710498E+03  d E =-.342159E-03  mag=     0.0000
       N       E                     dE             d eps       ncg     rms          rms(c)
DAV:   1    -0.125526185997E+03   -0.72336E-05   -0.26632E-03 14208   0.212E-01    0.122E-02
DAV:   2    -0.125526184755E+03    0.12411E-05   -0.38822E-05 20352   0.264E-02    0.664E-03
DAV:   3    -0.125526184364E+03    0.39110E-06   -0.47486E-06 20208   0.833E-03    0.265E-03
DAV:   4    -0.125526184375E+03   -0.10470E-07   -0.83646E-07 21072   0.319E-03    0.134E-03
DAV:   5    -0.125526184402E+03   -0.27299E-07   -0.44992E-08 23808   0.910E-04    0.381E-04
DAV:   6    -0.125526184401E+03    0.15179E-08   -0.71899E-09 23856   0.345E-04
  17 F= -.12710578E+03 E0= -.12710500E+03  d E =-.365456E-03  mag=    -0.0000
       N       E                     dE             d eps       ncg     rms          rms(c)
DAV:   1    -0.125526447182E+03   -0.26278E-03   -0.19572E-02 14208   0.546E-01    0.323E-02
DAV:   2    -0.125526425290E+03    0.21892E-04   -0.30500E-04 26688   0.651E-02    0.159E-02
DAV:   3    -0.125526422760E+03    0.25303E-05   -0.25372E-05 18192   0.185E-02    0.657E-03
DAV:   4    -0.125526423087E+03   -0.32673E-06   -0.36355E-06 20592   0.686E-03    0.248E-03
DAV:   5    -0.125526423222E+03   -0.13542E-06   -0.14883E-07 22656   0.160E-03    0.776E-04
DAV:   6    -0.125526423226E+03   -0.37007E-08   -0.22797E-08 21360   0.593E-04
  18 F= -.12710595E+03 E0= -.12710517E+03  d E =-.165658E-03  mag=     0.0000
       N       E                     dE             d eps       ncg     rms          rms(c)
DAV:   1    -0.125526431466E+03   -0.82436E-05   -0.16852E-04 17760   0.506E-02    0.300E-03
DAV:   2    -0.125526431255E+03    0.21093E-06   -0.25611E-06 23760   0.593E-03    0.145E-03
DAV:   3    -0.125526431251E+03    0.34925E-08   -0.23182E-07 21984   0.174E-03    0.606E-04
DAV:   4    -0.125526431263E+03   -0.12091E-07   -0.29847E-08 21024   0.615E-04    0.229E-04
DAV:   5    -0.125526431268E+03   -0.50659E-08   -0.16395E-09 21504   0.167E-04
  19 F= -.12710595E+03 E0= -.12710517E+03  d E =-.166887E-03  mag=     0.0000
       N       E                     dE             d eps       ncg     rms          rms(c)
DAV:   1    -0.125526678705E+03   -0.24744E-03   -0.67624E-03 14208   0.304E-01    0.187E-02
DAV:   2    -0.125526677569E+03    0.11361E-05   -0.72238E-05 18912   0.330E-02    0.102E-02
DAV:   3    -0.125526677069E+03    0.50008E-06   -0.59734E-06 25728   0.906E-03    0.336E-03
DAV:   4    -0.125526677225E+03   -0.15601E-06   -0.74245E-07 20928   0.308E-03    0.960E-04
DAV:   5    -0.125526677250E+03   -0.25733E-07   -0.33257E-08 27072   0.672E-04    0.349E-04
DAV:   6    -0.125526677247E+03    0.29377E-08   -0.11939E-08 21312   0.400E-04
  20 F= -.12710607E+03 E0= -.12710529E+03  d E =-.123891E-03  mag=    -0.0000
       N       E                     dE             d eps       ncg     rms          rms(c)
DAV:   1    -0.125526893768E+03   -0.21652E-03   -0.10749E-02 14208   0.383E-01    0.235E-02
DAV:   2    -0.125526891973E+03    0.17947E-05   -0.11444E-04 22560   0.415E-02    0.128E-02
DAV:   3    -0.125526891009E+03    0.96436E-06   -0.88081E-06 24480   0.110E-02    0.421E-03
DAV:   4    -0.125526891231E+03   -0.22227E-06   -0.11449E-06 21168   0.389E-03    0.118E-03
DAV:   5    -0.125526891267E+03   -0.36088E-07   -0.55209E-08 25920   0.878E-04    0.423E-04
DAV:   6    -0.125526891276E+03   -0.87848E-08   -0.18401E-08 20832   0.519E-04
  21 F= -.12710614E+03 E0= -.12710535E+03  d E =-.184155E-03  mag=    -0.0000
       N       E                     dE             d eps       ncg     rms          rms(c)
DAV:   1    -0.125527067025E+03   -0.17576E-03   -0.38113E-03 14208   0.236E-01    0.134E-02
DAV:   2    -0.125527066842E+03    0.18306E-06   -0.38171E-05 22560   0.262E-02    0.777E-03
DAV:   3    -0.125527066340E+03    0.50179E-06   -0.43487E-06 21120   0.790E-03    0.205E-03
DAV:   4    -0.125527066384E+03   -0.43485E-07   -0.54562E-07 20160   0.275E-03    0.937E-04
DAV:   5    -0.125527066406E+03   -0.22344E-07   -0.29210E-08 21696   0.680E-04    0.376E-04
DAV:   6    -0.125527066424E+03   -0.17845E-07   -0.10523E-08 22800   0.443E-04    0.127E-04
DAV:   7    -0.125527066436E+03   -0.12344E-07   -0.26877E-09 22704   0.251E-04    0.605E-05
DAV:   8    -0.125527066463E+03   -0.26213E-07   -0.16065E-09 20496   0.144E-04    0.453E-05
DAV:   9    -0.125527066499E+03   -0.36559E-07   -0.17382E-09 20160   0.118E-04    0.247E-05
DAV:  10    -0.125527066528E+03   -0.28783E-07   -0.10098E-09 20784   0.919E-05    0.167E-05
DAV:  11    -0.125527066540E+03   -0.12449E-07   -0.34376E-10 22752   0.718E-05    0.105E-05
DAV:  12    -0.125527066551E+03   -0.10769E-07   -0.20707E-10 20208   0.395E-05    0.572E-06
DAV:  13    -0.125527066556E+03   -0.46794E-08   -0.66297E-11 23904   0.180E-05
  22 F= -.12710622E+03 E0= -.12710543E+03  d E =-.816914E-04  mag=     0.0000
       N       E                     dE             d eps       ncg     rms          rms(c)
DAV:   1    -0.125527310790E+03   -0.24424E-03   -0.14005E-02 14208   0.453E-01    0.257E-02
DAV:   2    -0.125527310448E+03    0.34190E-06   -0.14162E-04 23328   0.503E-02    0.149E-02
DAV:   3    -0.125527308459E+03    0.19896E-05   -0.15862E-05 23568   0.150E-02    0.395E-03
DAV:   4    -0.125527308584E+03   -0.12486E-06   -0.19124E-06 24720   0.512E-03    0.181E-03
DAV:   5    -0.125527308621E+03   -0.37155E-07   -0.79518E-08 22752   0.108E-03    0.708E-04
DAV:   6    -0.125527308608E+03    0.12659E-07   -0.30720E-08 24672   0.651E-04    0.157E-04
DAV:   7    -0.125527308612E+03   -0.41746E-08   -0.53245E-09 21456   0.278E-04
  23 F= -.12710628E+03 E0= -.12710550E+03  d E =-.144151E-03  mag=     0.0000
       N       E                     dE             d eps       ncg     rms          rms(c)
DAV:   1    -0.125527485683E+03   -0.17707E-03   -0.32304E-03 14208   0.196E-01    0.107E-02
DAV:   2    -0.125527486535E+03   -0.85238E-06   -0.22709E-05 19776   0.188E-02    0.641E-03
DAV:   3    -0.125527486686E+03   -0.15106E-06   -0.18403E-06 19104   0.465E-03    0.123E-03
DAV:   4    -0.125527486727E+03   -0.40651E-07   -0.19982E-07 22464   0.161E-03    0.480E-04
DAV:   5    -0.125527486737E+03   -0.10083E-07   -0.23273E-08 22128   0.545E-04    0.169E-04
DAV:   6    -0.125527486748E+03   -0.11536E-07   -0.52665E-09 24384   0.301E-04    0.896E-05
DAV:   7    -0.125527486761E+03   -0.12968E-07   -0.18627E-09 22464   0.178E-04    0.562E-05
DAV:   8    -0.125527486792E+03   -0.30496E-07   -0.32614E-09 19440   0.180E-04    0.368E-05
DAV:   9    -0.125527486819E+03   -0.27023E-07   -0.10547E-09 20640   0.900E-05    0.182E-05
DAV:  10    -0.125527486838E+03   -0.19445E-07   -0.55192E-10 21696   0.697E-05    0.117E-05
DAV:  11    -0.125527486846E+03   -0.80645E-08   -0.16835E-10 22944   0.511E-05
  24 F= -.12710636E+03 E0= -.12710558E+03  d E =-.822938E-04  mag=     0.0000
       N       E                     dE             d eps       ncg     rms          rms(c)
DAV:   1    -0.125527980314E+03   -0.49348E-03   -0.29079E-02 14208   0.587E-01    0.320E-02
DAV:   2    -0.125527989376E+03   -0.90624E-05   -0.20355E-04 18624   0.563E-02    0.192E-02
DAV:   3    -0.125527989702E+03   -0.32527E-06   -0.16690E-05 22992   0.139E-02    0.372E-03
DAV:   4    -0.125527989899E+03   -0.19686E-06   -0.16327E-06 26688   0.465E-03    0.145E-03
DAV:   5    -0.125527989853E+03    0.45578E-07   -0.18072E-07 22416   0.147E-03    0.478E-04
DAV:   6    -0.125527989822E+03    0.30522E-07   -0.36642E-08 22848   0.718E-04    0.181E-04
DAV:   7    -0.125527989842E+03   -0.19204E-07   -0.27304E-08 18960   0.546E-04    0.117E-04
DAV:   8    -0.125527989901E+03   -0.58920E-07   -0.67684E-09 22752   0.282E-04    0.833E-05
DAV:   9    -0.125527989974E+03   -0.73476E-07   -0.40558E-09 18672   0.203E-04    0.444E-05
DAV:  10    -0.125527990032E+03   -0.57878E-07   -0.16375E-09 21408   0.109E-04    0.261E-05
DAV:  11    -0.125527990091E+03   -0.59200E-07   -0.12657E-09 20448   0.679E-05    0.127E-05
DAV:  12    -0.125527990117E+03   -0.26040E-07   -0.56081E-10 21648   0.596E-05    0.903E-06
DAV:  13    -0.125527990125E+03   -0.83428E-08   -0.16274E-10 21216   0.437E-05
  25 F= -.12710658E+03 E0= -.12710579E+03  d E =-.298064E-03  mag=    -0.0000
       N       E                     dE             d eps       ncg     rms          rms(c)
DAV:   1    -0.125528816586E+03   -0.82647E-03   -0.11636E-01 14208   0.117E+00    0.640E-02
DAV:   2    -0.125528854341E+03   -0.37755E-04   -0.80120E-04 20208   0.112E-01    0.384E-02
DAV:   3    -0.125528853294E+03    0.10472E-05   -0.66331E-05 23424   0.276E-02    0.737E-03
DAV:   4    -0.125528853854E+03   -0.56058E-06   -0.61906E-06 26592   0.917E-03    0.289E-03
DAV:   5    -0.125528853678E+03    0.17605E-06   -0.73661E-07 22608   0.294E-03    0.940E-04
DAV:   6    -0.125528853588E+03    0.90214E-07   -0.14225E-07 23568   0.141E-03    0.360E-04
DAV:   7    -0.125528853669E+03   -0.80645E-07   -0.98440E-08 19296   0.103E-03    0.247E-04
DAV:   8    -0.125528853839E+03   -0.17080E-06   -0.22097E-08 24432   0.480E-04    0.181E-04
DAV:   9    -0.125528854100E+03   -0.26112E-06   -0.16268E-08 18240   0.352E-04    0.822E-05
DAV:  10    -0.125528854300E+03   -0.19970E-06   -0.63582E-09 22464   0.187E-04    0.526E-05
DAV:  11    -0.125528854494E+03   -0.19408E-06   -0.42343E-09 20448   0.112E-04    0.254E-05
DAV:  12    -0.125528854577E+03   -0.83267E-07   -0.15820E-09 22224   0.789E-05    0.175E-05
DAV:  13    -0.125528854608E+03   -0.30687E-07   -0.47694E-10 21024   0.567E-05    0.116E-05
DAV:  14    -0.125528854624E+03   -0.15851E-07   -0.37748E-10 21792   0.479E-05    0.558E-06
DAV:  15    -0.125528854626E+03   -0.20809E-08   -0.46909E-11 22944   0.259E-05
  26 F= -.12710687E+03 E0= -.12710608E+03  d E =-.588972E-03  mag=    -0.0000
       N       E                     dE             d eps       ncg     rms          rms(c)
DAV:   1    -0.125529838983E+03   -0.98436E-03   -0.46552E-01 14208   0.235E+00    0.128E-01
DAV:   2    -0.125529994992E+03   -0.15601E-03   -0.31824E-03 20640   0.223E-01    0.766E-02
DAV:   3    -0.125529985181E+03    0.98105E-05   -0.26719E-04 24672   0.552E-02    0.147E-02
DAV:   4    -0.125529986936E+03   -0.17546E-05   -0.23745E-05 25920   0.181E-02    0.579E-03
DAV:   5    -0.125529986306E+03    0.62977E-06   -0.30048E-06 24480   0.590E-03    0.187E-03
DAV:   6    -0.125529986085E+03    0.22135E-06   -0.55067E-07 23424   0.275E-03    0.711E-04
DAV:   7    -0.125529986465E+03   -0.37996E-06   -0.39793E-07 19104   0.204E-03    0.444E-04
DAV:   8    -0.125529987266E+03   -0.80172E-06   -0.11205E-07 23760   0.102E-03    0.268E-04
DAV:   9    -0.125529988103E+03   -0.83638E-06   -0.52762E-08 18624   0.631E-04    0.181E-04
DAV:  10    -0.125529988563E+03   -0.45998E-06   -0.11915E-08 24000   0.278E-04    0.104E-04
DAV:  11    -0.125529989177E+03   -0.61386E-06   -0.14531E-08 20352   0.191E-04    0.457E-05
DAV:  12    -0.125529989418E+03   -0.24172E-06   -0.42917E-09 21600   0.110E-04    0.322E-05
DAV:  13    -0.125529989515E+03   -0.96642E-07   -0.15257E-09 20832   0.866E-05    0.210E-05
DAV:  14    -0.125529989554E+03   -0.39132E-07   -0.86054E-10 21744   0.693E-05    0.978E-06
DAV:  15    -0.125529989561E+03   -0.67848E-08   -0.14514E-10 23232   0.370E-05
  27 F= -.12710686E+03 E0= -.12710608E+03  d E =-.582618E-03  mag=     0.0000
       N       E                     dE             d eps       ncg     rms          rms(c)
DAV:   1    -0.125529466653E+03    0.52290E-03   -0.12314E-01 14208   0.121E+00    0.658E-02
DAV:   2    -0.125529506525E+03   -0.39872E-04   -0.85333E-04 23328   0.115E-01    0.394E-02
DAV:   3    -0.125529505334E+03    0.11913E-05   -0.68591E-05 21312   0.279E-02    0.760E-03
DAV:   4    -0.125529505690E+03   -0.35612E-06   -0.68312E-06 27552   0.955E-03    0.296E-03
DAV:   5    -0.125529505342E+03    0.34793E-06   -0.83795E-07 21696   0.308E-03    0.964E-04
DAV:   6    -0.125529505320E+03    0.22200E-07   -0.14776E-07 25728   0.143E-03    0.369E-04
DAV:   7    -0.125529505607E+03   -0.28728E-06   -0.10482E-07 17424   0.103E-03    0.238E-04
DAV:   8    -0.125529505958E+03   -0.35064E-06   -0.33539E-08 21504   0.575E-04    0.174E-04
DAV:   9    -0.125529506359E+03   -0.40148E-06   -0.24281E-08 21552   0.416E-04    0.906E-05
DAV:  10    -0.125529506670E+03   -0.31090E-06   -0.12460E-08 21456   0.239E-04    0.537E-05
DAV:  11    -0.125529506917E+03   -0.24660E-06   -0.84961E-09 19920   0.160E-04    0.271E-05
DAV:  12    -0.125529507060E+03   -0.14300E-06   -0.43349E-09 22800   0.139E-04    0.185E-05
DAV:  13    -0.125529507125E+03   -0.64872E-07   -0.12812E-09 20400   0.100E-04    0.124E-05
DAV:  14    -0.125529507159E+03   -0.34078E-07   -0.85958E-10 22224   0.738E-05    0.586E-06
DAV:  15    -0.125529507161E+03   -0.26957E-08   -0.69151E-11 24960   0.315E-05
  28 F= -.12710697E+03 E0= -.12710618E+03  d E =-.686168E-03  mag=    -0.0000
       N       E                     dE             d eps       ncg     rms          rms(c)
DAV:   1    -0.125529946394E+03   -0.43924E-03   -0.38154E-02 14208   0.745E-01    0.389E-02
DAV:   2    -0.125529955766E+03   -0.93721E-05   -0.35477E-04 24960   0.786E-02    0.237E-02
DAV:   3    -0.125529951829E+03    0.39376E-05   -0.40617E-05 25056   0.236E-02    0.455E-03
DAV:   4    -0.125529952093E+03   -0.26390E-06   -0.38323E-06 17760   0.752E-03    0.253E-03
DAV:   5    -0.125529952212E+03   -0.11891E-06   -0.28054E-07 24672   0.199E-03    0.993E-04
DAV:   6    -0.125529952212E+03   -0.84583E-10   -0.71697E-08 22896   0.989E-04
  29 F= -.12710711E+03 E0= -.12710632E+03  d E =-.142553E-03  mag=    -0.0000
       N       E                     dE             d eps       ncg     rms          rms(c)
DAV:   1    -0.125529966638E+03   -0.14426E-04   -0.83787E-05 14784   0.349E-02    0.181E-03
DAV:   2    -0.125529966664E+03   -0.26035E-07   -0.84563E-07 27504   0.382E-03    0.112E-03
DAV:   3    -0.125529966675E+03   -0.11448E-07   -0.87982E-08 23040   0.110E-03    0.238E-04
DAV:   4    -0.125529966693E+03   -0.17517E-07   -0.90906E-09 20592   0.366E-04    0.133E-04
DAV:   5    -0.125529966709E+03   -0.16068E-07   -0.80309E-10 23376   0.101E-04    0.759E-05
DAV:   6    -0.125529966729E+03   -0.19956E-07   -0.54322E-10 20064   0.697E-05    0.308E-05
DAV:   7    -0.125529966746E+03   -0.17368E-07   -0.29906E-10 21840   0.483E-05    0.185E-05
DAV:   8    -0.125529966779E+03   -0.32901E-07   -0.10673E-09 19104   0.647E-05    0.132E-05
DAV:   9    -0.125529966789E+03   -0.10123E-07   -0.19011E-10 23520   0.302E-05    0.728E-06
DAV:  10    -0.125529966794E+03   -0.43483E-08   -0.59837E-11 20400   0.210E-05
  30 F= -.12710711E+03 E0= -.12710632E+03  d E =-.142977E-03  mag=    -0.0000
       N       E                     dE             d eps       ncg     rms          rms(c)
DAV:   1    -0.125530327147E+03   -0.36036E-03   -0.19439E-02 14208   0.504E-01    0.248E-02
DAV:   2    -0.125530332021E+03   -0.48742E-05   -0.16690E-04 18336   0.494E-02    0.151E-02
DAV:   3    -0.125530332314E+03   -0.29344E-06   -0.15997E-05 25536   0.140E-02    0.373E-03
DAV:   4    -0.125530332610E+03   -0.29533E-06   -0.18271E-06 17856   0.490E-03    0.155E-03
DAV:   5    -0.125530332706E+03   -0.96370E-07   -0.12417E-07 23712   0.128E-03    0.536E-04
DAV:   6    -0.125530332721E+03   -0.15599E-07   -0.21008E-08 22656   0.537E-04    0.160E-04
DAV:   7    -0.125530332727E+03   -0.52823E-08   -0.40931E-09 25488   0.240E-04
  31 F= -.12710725E+03 E0= -.12710647E+03  d E =-.141885E-03  mag=     0.0000
       N       E                     dE             d eps       ncg     rms          rms(c)
DAV:   1    -0.125530708800E+03   -0.37608E-03   -0.38147E-02 14208   0.706E-01    0.347E-02
DAV:   2    -0.125530718515E+03   -0.97144E-05   -0.32402E-04 18528   0.689E-02    0.212E-02
DAV:   3    -0.125530718674E+03   -0.15878E-06   -0.31228E-05 26208   0.196E-02    0.519E-03
DAV:   4    -0.125530719189E+03   -0.51559E-06   -0.35225E-06 17760   0.683E-03    0.216E-03
DAV:   5    -0.125530719362E+03   -0.17311E-06   -0.24545E-07 24096   0.180E-03    0.750E-04
DAV:   6    -0.125530719394E+03   -0.31696E-07   -0.42201E-08 22896   0.765E-04    0.228E-04
DAV:   7    -0.125530719409E+03   -0.14919E-07   -0.84513E-09 24480   0.352E-04    0.805E-05
DAV:   8    -0.125530719420E+03   -0.11484E-07   -0.14849E-09 21840   0.151E-04    0.556E-05
DAV:   9    -0.125530719433E+03   -0.12255E-07   -0.70167E-10 22800   0.102E-04    0.341E-05
DAV:  10    -0.125530719454E+03   -0.21367E-07   -0.13505E-09 20256   0.115E-04    0.171E-05
DAV:  11    -0.125530719466E+03   -0.11983E-07   -0.33935E-10 22368   0.554E-05    0.125E-05
DAV:  12    -0.125530719474E+03   -0.79744E-08   -0.20355E-10 20496   0.490E-05
  32 F= -.12710732E+03 E0= -.12710654E+03  d E =-.215386E-03  mag=     0.0000
       N       E                     dE             d eps       ncg     rms          rms(c)
DAV:   1    -0.125530903867E+03   -0.18440E-03   -0.10741E-02 14208   0.419E-01    0.210E-02
DAV:   2    -0.125530903529E+03    0.33801E-06   -0.13374E-04 20832   0.480E-02    0.123E-02
DAV:   3    -0.125530902447E+03    0.10825E-05   -0.15350E-05 24768   0.150E-02    0.424E-03
DAV:   4    -0.125530902543E+03   -0.96568E-07   -0.21838E-06 17232   0.565E-03    0.237E-03
DAV:   5    -0.125530902668E+03   -0.12480E-06   -0.13809E-07 18528   0.151E-03    0.808E-04
DAV:   6    -0.125530902679E+03   -0.11185E-07   -0.23065E-08 24000   0.558E-04    0.272E-04
DAV:   7    -0.125530902683E+03   -0.35716E-08   -0.31772E-09 25200   0.223E-04
  33 F= -.12710736E+03 E0= -.12710658E+03  d E =-.352895E-04  mag=     0.0000
       N       E                     dE             d eps       ncg     rms          rms(c)
DAV:   1    -0.125530871900E+03    0.30780E-04   -0.57920E-04 14208   0.973E-02    0.487E-03
DAV:   2    -0.125530871872E+03    0.27819E-07   -0.73216E-06 21120   0.112E-02    0.286E-03
DAV:   3    -0.125530871841E+03    0.30569E-07   -0.78472E-07 18336   0.344E-03    0.973E-04
DAV:   4    -0.125530871850E+03   -0.88849E-08   -0.13196E-07 20304   0.137E-03    0.552E-04
DAV:   5    -0.125530871856E+03   -0.62455E-08   -0.60301E-09 18288   0.316E-04
  34 F= -.12710736E+03 E0= -.12710658E+03  d E =-.388668E-04  mag=    -0.0000
       N       E                     dE             d eps       ncg     rms          rms(c)
DAV:   1    -0.125530950787E+03   -0.78936E-04   -0.18065E-03 14208   0.169E-01    0.104E-02
DAV:   2    -0.125530949451E+03    0.13358E-05   -0.27179E-05 19200   0.213E-02    0.578E-03
DAV:   3    -0.125530948972E+03    0.47836E-06   -0.36698E-06 22992   0.716E-03    0.178E-03
DAV:   4    -0.125530948979E+03   -0.71268E-08   -0.50408E-07 16032   0.251E-03    0.936E-04
DAV:   5    -0.125530948997E+03   -0.17706E-07   -0.27228E-08 20016   0.669E-04    0.354E-04
DAV:   6    -0.125530948997E+03   -0.31287E-09   -0.59145E-09 21792   0.308E-04
  35 F= -.12710737E+03 E0= -.12710659E+03  d E =-.109347E-04  mag=    -0.0000
       N       E                     dE             d eps       ncg     rms          rms(c)
DAV:   1    -0.125530940912E+03    0.80847E-05   -0.28527E-05 14208   0.213E-02    0.132E-03
DAV:   2    -0.125530940896E+03    0.16296E-07   -0.45492E-07 21696   0.276E-03    0.737E-04
DAV:   3    -0.125530940891E+03    0.56198E-08   -0.55296E-08 20544   0.891E-04
  36 F= -.12710737E+03 E0= -.12710659E+03  d E =-.111677E-04  mag=     0.0000
       N       E                     dE             d eps       ncg     rms          rms(c)
DAV:   1    -0.125531000845E+03   -0.59949E-04   -0.45239E-04 14208   0.865E-02    0.397E-03
DAV:   2    -0.125531000846E+03   -0.58208E-09   -0.45698E-06 14208   0.910E-03    0.248E-03
DAV:   3    -0.125531000860E+03   -0.14064E-07   -0.62416E-07 20400   0.296E-03    0.734E-04
DAV:   4    -0.125531000860E+03   -0.13733E-09   -0.10288E-07 19296   0.117E-03    0.469E-04
DAV:   5    -0.125531000865E+03   -0.48130E-08   -0.65508E-09 19200   0.350E-04
  37 F= -.12710738E+03 E0= -.12710660E+03  d E =-.661453E-05  mag=    -0.0000
       N       E                     dE             d eps       ncg     rms          rms(c)
DAV:   1    -0.125531056105E+03   -0.55246E-04   -0.44817E-04 14208   0.861E-02    0.397E-03
DAV:   2    -0.125531056113E+03   -0.76734E-08   -0.45824E-06 14208   0.912E-03    0.249E-03
DAV:   3    -0.125531056123E+03   -0.99553E-08   -0.62420E-07 21744   0.298E-03    0.740E-04
DAV:   4    -0.125531056123E+03    0.42564E-09   -0.10255E-07 19584   0.122E-03    0.473E-04
DAV:   5    -0.125531056127E+03   -0.47876E-08   -0.91294E-09 16992   0.455E-04
  38 F= -.12710738E+03 E0= -.12710660E+03  d E =-.878581E-05  mag=     0.0000
       N       E                     dE             d eps       ncg     rms          rms(c)
DAV:   1    -0.125531098011E+03   -0.41888E-04   -0.18279E-04 14208   0.535E-02    0.254E-03
DAV:   2    -0.125531097990E+03    0.20803E-07   -0.19624E-06 14208   0.593E-03    0.156E-03
DAV:   3    -0.125531097998E+03   -0.76479E-08   -0.23805E-07 18480   0.193E-03    0.459E-04
DAV:   4    -0.125531098005E+03   -0.70913E-08   -0.47587E-08 14400   0.973E-04
  39 F= -.12710739E+03 E0= -.12710660E+03  d E =-.415270E-05  mag=     0.0000
       N       E                     dE             d eps       ncg     rms          rms(c)
DAV:   1    -0.125531217024E+03   -0.11903E-03   -0.16425E-03 14208   0.160E-01    0.767E-03
DAV:   2    -0.125531216982E+03    0.41761E-07   -0.17334E-05 14352   0.175E-02    0.471E-03
DAV:   3    -0.125531216958E+03    0.24082E-07   -0.21288E-06 23760   0.555E-03    0.136E-03
DAV:   4    -0.125531216976E+03   -0.17422E-07   -0.32311E-07 16224   0.227E-03    0.751E-04
DAV:   5    -0.125531216991E+03   -0.15076E-07   -0.38420E-08 16704   0.949E-04    0.273E-04
DAV:   6    -0.125531216998E+03   -0.71796E-08   -0.31280E-08 14736   0.872E-04
  40 F= -.12710739E+03 E0= -.12710661E+03  d E =-.996804E-05  mag=    -0.0000
       N       E                     dE             d eps       ncg     rms          rms(c)
DAV:   1    -0.125531252317E+03   -0.35327E-04   -0.14054E-04 14208   0.467E-02    0.212E-03
DAV:   2    -0.125531252285E+03    0.32571E-07   -0.15179E-06 17472   0.514E-03    0.132E-03
DAV:   3    -0.125531252292E+03   -0.71286E-08   -0.19150E-07 15072   0.168E-03    0.322E-04
DAV:   4    -0.125531252312E+03   -0.20331E-07   -0.34614E-08 18864   0.752E-04    0.167E-04
DAV:   5    -0.125531252329E+03   -0.16516E-07   -0.54889E-09 21360   0.378E-04    0.733E-05
DAV:   6    -0.125531252339E+03   -0.10529E-07   -0.31608E-09 22368   0.273E-04    0.340E-05
DAV:   7    -0.125531252348E+03   -0.91468E-08   -0.61614E-10 23088   0.117E-04
  41 F= -.12710740E+03 E0= -.12710661E+03  d E =-.275406E-05  mag=     0.0000
       N       E                     dE             d eps       ncg     rms          rms(c)
DAV:   1    -0.125531355394E+03   -0.10305E-03   -0.12638E-03 14208   0.140E-01    0.639E-03
DAV:   2    -0.125531355111E+03    0.28263E-06   -0.13181E-05 14208   0.149E-02    0.396E-03
DAV:   3    -0.125531355056E+03    0.55668E-07   -0.17613E-06 18432   0.497E-03    0.962E-04
DAV:   4    -0.125531355098E+03   -0.41823E-07   -0.25378E-07 17952   0.178E-03    0.487E-04
DAV:   5    -0.125531355122E+03   -0.24637E-07   -0.94344E-09 24000   0.407E-04    0.138E-04
DAV:   6    -0.125531355126E+03   -0.37016E-08   -0.33408E-09 22992   0.249E-04
  42 F= -.12710740E+03 E0= -.12710662E+03  d E =-.775045E-05  mag=     0.0000
       N       E                     dE             d eps       ncg     rms          rms(c)
DAV:   1    -0.125531547807E+03   -0.19268E-03   -0.50572E-03 14208   0.280E-01    0.129E-02
DAV:   2    -0.125531546672E+03    0.11346E-05   -0.50968E-05 15648   0.295E-02    0.788E-03
DAV:   3    -0.125531546296E+03    0.37569E-06   -0.71241E-06 24672   0.987E-03    0.187E-03
DAV:   4    -0.125531546405E+03   -0.10846E-06   -0.86003E-07 18096   0.337E-03    0.951E-04
DAV:   5    -0.125531546477E+03   -0.72634E-07   -0.36090E-08 15744   0.790E-04    0.251E-04
DAV:   6    -0.125531546485E+03   -0.76834E-08   -0.11749E-08 26256   0.448E-04
  43 F= -.12710740E+03 E0= -.12710661E+03  d E =-.357025E-05  mag=     0.0000
       N       E                     dE             d eps       ncg     rms          rms(c)
DAV:   1    -0.125531410919E+03    0.13556E-03   -0.26319E-03 14208   0.202E-01    0.927E-03
DAV:   2    -0.125531410372E+03    0.54706E-06   -0.27142E-05 19680   0.214E-02    0.569E-03
DAV:   3    -0.125531410218E+03    0.15381E-06   -0.34669E-06 18816   0.689E-03    0.133E-03
DAV:   4    -0.125531410281E+03   -0.62664E-07   -0.49943E-07 16944   0.256E-03    0.659E-04
DAV:   5    -0.125531410319E+03   -0.38137E-07   -0.20814E-08 20784   0.632E-04    0.203E-04
DAV:   6    -0.125531410320E+03   -0.87493E-09   -0.72373E-09 19200   0.410E-04
  44 F= -.12710740E+03 E0= -.12710662E+03  d E =-.849930E-05  mag=     0.0000
       N       E                     dE             d eps       ncg     rms          rms(c)
DAV:   1    -0.125531427058E+03   -0.16740E-04   -0.29293E-05 14208   0.210E-02    0.925E-04
DAV:   2    -0.125531427047E+03    0.11039E-07   -0.29012E-07 15168   0.223E-03    0.574E-04
DAV:   3    -0.125531427053E+03   -0.56471E-08   -0.38232E-08 18624   0.713E-04
  45 F= -.12710740E+03 E0= -.12710662E+03  d E =-.120348E-05  mag=    -0.0000
       N       E                     dE             d eps       ncg     rms          rms(c)
DAV:   1    -0.125531477093E+03   -0.50046E-04   -0.26500E-04 14208   0.631E-02    0.283E-03
DAV:   2    -0.125531477002E+03    0.91358E-07   -0.24860E-06 14976   0.649E-03    0.173E-03
DAV:   3    -0.125531477031E+03   -0.29819E-07   -0.34303E-07 21072   0.211E-03    0.417E-04
DAV:   4    -0.125531477042E+03   -0.10444E-07   -0.45473E-08 17424   0.762E-04    0.190E-04
DAV:   5    -0.125531477048E+03   -0.62901E-08   -0.21369E-09 19728   0.210E-04
  46 F= -.12710741E+03 E0= -.12710662E+03  d E =-.461214E-05  mag=     0.0000
       N       E                     dE             d eps       ncg     rms          rms(c)
DAV:   1    -0.125531576303E+03   -0.99262E-04   -0.10574E-03 14208   0.126E-01    0.559E-03
DAV:   2    -0.125531576008E+03    0.29553E-06   -0.97863E-06 15840   0.129E-02    0.339E-03
DAV:   3    -0.125531576026E+03   -0.17722E-07   -0.13646E-06 23424   0.420E-03    0.808E-04
DAV:   4    -0.125531576060E+03   -0.34093E-07   -0.16164E-07 17856   0.144E-03    0.367E-04
DAV:   5    -0.125531576082E+03   -0.21768E-07   -0.69325E-09 19440   0.331E-04    0.877E-05
DAV:   6    -0.125531576083E+03   -0.13924E-08   -0.16263E-09 24672   0.174E-04
  47 F= -.12710741E+03 E0= -.12710663E+03  d E =-.104869E-04  mag=     0.0000
       N       E                     dE             d eps       ncg     rms          rms(c)
DAV:   1    -0.125531771318E+03   -0.19524E-03   -0.42286E-03 14208   0.252E-01    0.112E-02
DAV:   2    -0.125531770291E+03    0.10272E-05   -0.38888E-05 16512   0.257E-02    0.677E-03
DAV:   3    -0.125531770183E+03    0.10823E-06   -0.54209E-06 24240   0.833E-03    0.161E-03
DAV:   4    -0.125531770293E+03   -0.10982E-06   -0.62721E-07 17376   0.284E-03    0.727E-04
DAV:   5    -0.125531770360E+03   -0.67205E-07   -0.26679E-08 17472   0.610E-04    0.161E-04
DAV:   6    -0.125531770366E+03   -0.57762E-08   -0.51675E-09 26928   0.234E-04
  48 F= -.12710742E+03 E0= -.12710664E+03  d E =-.185038E-04  mag=     0.0000
       N       E                     dE             d eps       ncg     rms          rms(c)
DAV:   1    -0.125532147637E+03   -0.37728E-03   -0.16913E-02 14208   0.504E-01    0.224E-02
DAV:   2    -0.125532144365E+03    0.32724E-05   -0.15538E-04 16896   0.513E-02    0.135E-02
DAV:   3    -0.125532143271E+03    0.10932E-05   -0.21551E-05 25104   0.166E-02    0.321E-03
DAV:   4    -0.125532143589E+03   -0.31776E-06   -0.24160E-06 17424   0.560E-03    0.145E-03
DAV:   5    -0.125532143786E+03   -0.19654E-06   -0.10643E-07 14592   0.121E-03    0.318E-04
DAV:   6    -0.125532143802E+03   -0.16830E-07   -0.20367E-08 27264   0.459E-04    0.138E-04
DAV:   7    -0.125532143814E+03   -0.11510E-07   -0.14094E-09 21072   0.170E-04    0.723E-05
DAV:   8    -0.125532143836E+03   -0.21771E-07   -0.10313E-09 22512   0.104E-04    0.411E-05
DAV:   9    -0.125532143855E+03   -0.19082E-07   -0.26140E-10 18864   0.438E-05    0.313E-05
DAV:  10    -0.125532143900E+03   -0.45569E-07   -0.12904E-09 16896   0.734E-05    0.157E-05
DAV:  11    -0.125532143920E+03   -0.20090E-07   -0.36997E-10 22416   0.658E-05    0.120E-05
DAV:  12    -0.125532143932E+03   -0.11471E-07   -0.21017E-10 19584   0.536E-05    0.606E-06
DAV:  13    -0.125532143937E+03   -0.55325E-08   -0.66754E-11 23856   0.235E-05
  49 F= -.12710742E+03 E0= -.12710664E+03  d E =-.197646E-04  mag=    -0.0000
       N       E                     dE             d eps       ncg     rms          rms(c)
DAV:   1    -0.125531982925E+03    0.16101E-03   -0.32628E-03 14208   0.222E-01    0.978E-03
DAV:   2    -0.125531982245E+03    0.67996E-06   -0.31192E-05 19584   0.227E-02    0.595E-03
DAV:   3    -0.125531982117E+03    0.12778E-06   -0.39723E-06 22080   0.709E-03    0.141E-03
DAV:   4    -0.125531982224E+03   -0.10703E-06   -0.50211E-07 17568   0.254E-03    0.632E-04
DAV:   5    -0.125531982295E+03   -0.71052E-07   -0.21241E-08 21504   0.535E-04    0.140E-04
DAV:   6    -0.125531982295E+03   -0.40927E-09   -0.35873E-09 21168   0.184E-04
  50 F= -.12710742E+03 E0= -.12710664E+03  d E =-.216501E-04  mag=    -0.0000
       N       E                     dE             d eps       ncg     rms          rms(c)
DAV:   1    -0.125532081116E+03   -0.98821E-04   -0.93538E-04 14208   0.119E-01    0.546E-03
DAV:   2    -0.125532080803E+03    0.31237E-06   -0.94205E-06 19104   0.125E-02    0.325E-03
DAV:   3    -0.125532080808E+03   -0.47621E-08   -0.11391E-06 24480   0.382E-03    0.839E-04
DAV:   4    -0.125532080841E+03   -0.32496E-07   -0.13128E-07 16320   0.130E-03    0.345E-04
DAV:   5    -0.125532080858E+03   -0.17709E-07   -0.62593E-09 16320   0.289E-04    0.823E-05
DAV:   6    -0.125532080859E+03   -0.79945E-09   -0.97711E-10 23808   0.107E-04
  51 F= -.12710743E+03 E0= -.12710665E+03  d E =-.658391E-05  mag=    -0.0000
       N       E                     dE             d eps       ncg     rms          rms(c)
DAV:   1    -0.125532370239E+03   -0.28938E-03   -0.84209E-03 14208   0.356E-01    0.164E-02
DAV:   2    -0.125532367862E+03    0.23773E-05   -0.84597E-05 19680   0.373E-02    0.972E-03
DAV:   3    -0.125532367362E+03    0.49998E-06   -0.10102E-05 25776   0.114E-02    0.250E-03
DAV:   4    -0.125532367553E+03   -0.19117E-06   -0.11274E-06 15504   0.382E-03    0.102E-03
DAV:   5    -0.125532367650E+03   -0.96371E-07   -0.61138E-08 18048   0.876E-04    0.234E-04
DAV:   6    -0.125532367653E+03   -0.33970E-08   -0.99657E-09 24144   0.313E-04
  52 F= -.12710744E+03 E0= -.12710666E+03  d E =-.175327E-04  mag=     0.0000
       N       E                     dE             d eps       ncg     rms          rms(c)
DAV:   1    -0.125532465152E+03   -0.97502E-04   -0.10294E-03 14208   0.125E-01    0.575E-03
DAV:   2    -0.125532464760E+03    0.39241E-06   -0.10117E-05 14208   0.130E-02    0.342E-03
DAV:   3    -0.125532464744E+03    0.15980E-07   -0.13394E-06 21360   0.422E-03    0.884E-04
DAV:   4    -0.125532464792E+03   -0.48753E-07   -0.17324E-07 18912   0.144E-03    0.370E-04
DAV:   5    -0.125532464823E+03   -0.30950E-07   -0.70059E-09 21552   0.298E-04    0.104E-04
DAV:   6    -0.125532464834E+03   -0.10592E-07   -0.12790E-09 22944   0.111E-04    0.556E-05
DAV:   7    -0.125532464844E+03   -0.10619E-07   -0.38468E-10 21360   0.610E-05    0.255E-05
DAV:   8    -0.125532464866E+03   -0.21175E-07   -0.49943E-10 19008   0.522E-05    0.208E-05
DAV:   9    -0.125532464877E+03   -0.11181E-07   -0.12375E-10 21792   0.219E-05    0.142E-05
DAV:  10    -0.125532464892E+03   -0.15550E-07   -0.37273E-10 17568   0.336E-05    0.599E-06
DAV:  11    -0.125532464896E+03   -0.33824E-08   -0.38271E-11 26016   0.227E-05
  53 F= -.12710744E+03 E0= -.12710666E+03  d E =-.183925E-04  mag=     0.0000
       N       E                     dE             d eps       ncg     rms          rms(c)
DAV:   1    -0.125532578143E+03   -0.11325E-03   -0.11939E-03 14208   0.134E-01    0.619E-03
DAV:   2    -0.125532577914E+03    0.22954E-06   -0.12234E-05 15072   0.143E-02    0.383E-03
DAV:   3    -0.125532577904E+03    0.10061E-07   -0.15703E-06 22752   0.455E-03    0.908E-04
DAV:   4    -0.125532577938E+03   -0.34269E-07   -0.20006E-07 17952   0.158E-03    0.423E-04
DAV:   5    -0.125532577959E+03   -0.21387E-07   -0.91132E-09 15984   0.354E-04    0.102E-04
DAV:   6    -0.125532577960E+03   -0.79035E-09   -0.22097E-09 26928   0.154E-04
  54 F= -.12710745E+03 E0= -.12710666E+03  d E =-.696904E-05  mag=     0.0000
       N       E                     dE             d eps       ncg     rms          rms(c)
DAV:   1    -0.125532900033E+03   -0.32207E-03   -0.10315E-02 14208   0.393E-01    0.182E-02
DAV:   2    -0.125532898663E+03    0.13699E-05   -0.10447E-04 18528   0.418E-02    0.112E-02
DAV:   3    -0.125532897988E+03    0.67525E-06   -0.13264E-05 25152   0.131E-02    0.260E-03
DAV:   4    -0.125532898165E+03   -0.17675E-06   -0.15985E-06 17664   0.451E-03    0.121E-03
DAV:   5    -0.125532898276E+03   -0.11134E-06   -0.82952E-08 16320   0.106E-03    0.281E-04
DAV:   6    -0.125532898281E+03   -0.51714E-08   -0.16691E-08 25920   0.435E-04
  55 F= -.12710746E+03 E0= -.12710667E+03  d E =-.155911E-04  mag=     0.0000
       N       E                     dE             d eps       ncg     rms          rms(c)
DAV:   1    -0.125533052698E+03   -0.15442E-03   -0.22434E-03 14208   0.182E-01    0.878E-03
DAV:   2    -0.125533052024E+03    0.67450E-06   -0.23816E-05 14208   0.200E-02    0.531E-03
DAV:   3    -0.125533051944E+03    0.79285E-07   -0.31097E-06 21168   0.645E-03    0.130E-03
DAV:   4    -0.125533052027E+03   -0.83081E-07   -0.41209E-07 17712   0.223E-03    0.567E-04
DAV:   5    -0.125533052074E+03   -0.46147E-07   -0.21250E-08 22032   0.558E-04    0.180E-04
DAV:   6    -0.125533052086E+03   -0.12018E-07   -0.41156E-09 24240   0.272E-04    0.957E-05
DAV:   7    -0.125533052103E+03   -0.17097E-07   -0.17545E-09 21216   0.155E-04    0.408E-05
DAV:   8    -0.125533052132E+03   -0.29785E-07   -0.13708E-09 19200   0.115E-04    0.338E-05
DAV:   9    -0.125533052157E+03   -0.24078E-07   -0.57492E-10 21120   0.740E-05    0.203E-05
DAV:  10    -0.125533052179E+03   -0.22093E-07   -0.65877E-10 20304   0.890E-05    0.125E-05
DAV:  11    -0.125533052187E+03   -0.79772E-08   -0.21267E-10 24624   0.607E-05
  56 F= -.12710747E+03 E0= -.12710668E+03  d E =-.855564E-05  mag=    -0.0000
       N       E                     dE             d eps       ncg     rms          rms(c)
DAV:   1    -0.125533252513E+03   -0.20033E-03   -0.40012E-03 14208   0.243E-01    0.117E-02
DAV:   2    -0.125533251544E+03    0.96937E-06   -0.43578E-05 14976   0.268E-02    0.712E-03
DAV:   3    -0.125533251384E+03    0.15988E-06   -0.55200E-06 23424   0.850E-03    0.175E-03
DAV:   4    -0.125533251487E+03   -0.10325E-06   -0.66383E-07 16368   0.287E-03    0.764E-04
DAV:   5    -0.125533251538E+03   -0.51398E-07   -0.35788E-08 17088   0.684E-04    0.186E-04
DAV:   6    -0.125533251537E+03    0.12560E-08   -0.78713E-09 25440   0.291E-04
  57 F= -.12710747E+03 E0= -.12710669E+03  d E =-.138198E-04  mag=    -0.0000
       N       E                     dE             d eps       ncg     rms          rms(c)
DAV:   1    -0.125533305560E+03   -0.54022E-04   -0.30657E-04 14208   0.671E-02    0.324E-03
DAV:   2    -0.125533305433E+03    0.12671E-06   -0.33006E-06 14208   0.742E-03    0.197E-03
DAV:   3    -0.125533305446E+03   -0.12581E-07   -0.42657E-07 20880   0.239E-03    0.485E-04
DAV:   4    -0.125533305467E+03   -0.20746E-07   -0.57898E-08 17760   0.834E-04    0.211E-04
DAV:   5    -0.125533305480E+03   -0.13740E-07   -0.30881E-09 22080   0.210E-04    0.608E-05
DAV:   6    -0.125533305485E+03   -0.50413E-08   -0.78106E-10 23424   0.117E-04
  58 F= -.12710747E+03 E0= -.12710669E+03  d E =-.140828E-04  mag=    -0.0000
       N       E                     dE             d eps       ncg     rms          rms(c)
DAV:   1    -0.125533418857E+03   -0.11338E-03   -0.11150E-03 14208   0.129E-01    0.607E-03
DAV:   2    -0.125533418631E+03    0.22602E-06   -0.11445E-05 14208   0.139E-02    0.372E-03
DAV:   3    -0.125533418639E+03   -0.82355E-08   -0.14901E-06 19728   0.446E-03    0.949E-04
DAV:   4    -0.125533418676E+03   -0.37142E-07   -0.21395E-07 17952   0.161E-03    0.465E-04
DAV:   5    -0.125533418700E+03   -0.23479E-07   -0.87308E-09 17040   0.353E-04    0.126E-04
DAV:   6    -0.125533418705E+03   -0.50904E-08   -0.27141E-09 26400   0.175E-04
  59 F= -.12710748E+03 E0= -.12710669E+03  d E =-.565859E-05  mag=    -0.0000
       N       E                     dE             d eps       ncg     rms          rms(c)
DAV:   1    -0.125533658584E+03   -0.23988E-03   -0.52775E-03 14208   0.280E-01    0.132E-02
DAV:   2    -0.125533657799E+03    0.78565E-06   -0.54073E-05 15936   0.303E-02    0.808E-03
DAV:   3    -0.125533657624E+03    0.17459E-06   -0.71147E-06 23904   0.964E-03    0.201E-03
DAV:   4    -0.125533657727E+03   -0.10281E-06   -0.89818E-07 16464   0.338E-03    0.986E-04
DAV:   5    -0.125533657796E+03   -0.68883E-07   -0.44144E-08 15456   0.794E-04    0.248E-04
DAV:   6    -0.125533657805E+03   -0.89813E-08   -0.11987E-08 26160   0.347E-04
  60 F= -.12710748E+03 E0= -.12710670E+03  d E =-.107846E-04  mag=    -0.0000
       N       E                     dE             d eps       ncg     rms          rms(c)
DAV:   1    -0.125533780262E+03   -0.12247E-03   -0.14417E-03 14208   0.148E-01    0.699E-03
DAV:   2    -0.125533779868E+03    0.39372E-06   -0.15416E-05 14208   0.162E-02    0.428E-03
DAV:   3    -0.125533779790E+03    0.78503E-07   -0.21478E-06 19008   0.545E-03    0.109E-03
DAV:   4    -0.125533779844E+03   -0.54325E-07   -0.32240E-07 17856   0.200E-03    0.579E-04
DAV:   5    -0.125533779884E+03   -0.40172E-07   -0.12831E-08 22368   0.463E-04    0.180E-04
DAV:   6    -0.125533779903E+03   -0.18818E-07   -0.39724E-09 21984   0.238E-04    0.871E-05
DAV:   7    -0.125533779914E+03   -0.11124E-07   -0.63306E-10 22944   0.114E-04    0.383E-05
DAV:   8    -0.125533779941E+03   -0.27256E-07   -0.83610E-10 18816   0.793E-05    0.298E-05
DAV:   9    -0.125533779963E+03   -0.21187E-07   -0.40282E-10 21840   0.485E-05    0.246E-05
DAV:  10    -0.125533779986E+03   -0.23915E-07   -0.66940E-10 19104   0.679E-05    0.102E-05
DAV:  11    -0.125533779992E+03   -0.53833E-08   -0.14222E-10 24672   0.523E-05
  61 F= -.12710749E+03 E0= -.12710670E+03  d E =-.471884E-05  mag=     0.0000
       N       E                     dE             d eps       ncg     rms          rms(c)
DAV:   1    -0.125533826292E+03   -0.46306E-04   -0.21803E-04 18624   0.574E-02    0.274E-03
DAV:   2    -0.125533826189E+03    0.10320E-06   -0.21597E-06 14784   0.594E-03    0.165E-03
DAV:   3    -0.125533826198E+03   -0.92787E-08   -0.31341E-07 19920   0.207E-03    0.412E-04
DAV:   4    -0.125533826206E+03   -0.81018E-08   -0.45942E-08 18048   0.757E-04
  62 F= -.12710749E+03 E0= -.12710670E+03  d E =-.526546E-05  mag=    -0.0000
       N       E                     dE             d eps       ncg     rms          rms(c)
DAV:   1    -0.125533839341E+03   -0.13143E-04   -0.17916E-05 18816   0.164E-02    0.776E-04
DAV:   2    -0.125533839333E+03    0.76370E-08   -0.17979E-07 17376   0.175E-03    0.471E-04
DAV:   3    -0.125533839336E+03   -0.26721E-08   -0.22881E-08 21024   0.564E-04
  63 F= -.12710749E+03 E0= -.12710670E+03  d E =-.529863E-05  mag=     0.0000
       N       E                     dE             d eps       ncg     rms          rms(c)
DAV:   1    -0.125533881999E+03   -0.42666E-04   -0.22006E-04 14208   0.579E-02    0.255E-03
DAV:   2    -0.125533881899E+03    0.10025E-06   -0.21171E-06 15936   0.600E-03    0.157E-03
DAV:   3    -0.125533881906E+03   -0.72705E-08   -0.32769E-07 21936   0.208E-03    0.390E-04
DAV:   4    -0.125533881916E+03   -0.98789E-08   -0.46065E-08 18528   0.783E-04
  64 F= -.12710749E+03 E0= -.12710671E+03  d E =-.174332E-05  mag=     0.0000
       N       E                     dE             d eps       ncg     rms          rms(c)
DAV:   1    -0.125534005795E+03   -0.12389E-03   -0.19306E-03 14208   0.172E-01    0.753E-03
DAV:   2    -0.125534005147E+03    0.64714E-06   -0.18513E-05 15648   0.178E-02    0.462E-03
DAV:   3    -0.125534005044E+03    0.10336E-06   -0.29026E-06 23808   0.617E-03    0.115E-03
DAV:   4    -0.125534005094E+03   -0.50035E-07   -0.37504E-07 17952   0.225E-03    0.663E-04
DAV:   5    -0.125534005134E+03   -0.39641E-07   -0.12434E-08 21792   0.482E-04    0.217E-04
DAV:   6    -0.125534005142E+03   -0.85774E-08   -0.37347E-09 22752   0.217E-04
  65 F= -.12710749E+03 E0= -.12710671E+03  d E =-.386015E-05  mag=    -0.0000
       N       E                     dE             d eps       ncg     rms          rms(c)
DAV:   1    -0.125534034492E+03   -0.29358E-04   -0.10315E-04 14208   0.395E-02    0.171E-03
DAV:   2    -0.125534034441E+03    0.50504E-07   -0.99296E-07 15120   0.410E-03    0.105E-03
DAV:   3    -0.125534034444E+03   -0.25448E-08   -0.14533E-07 15552   0.140E-03    0.271E-04
DAV:   4    -0.125534034453E+03   -0.87884E-08   -0.23723E-08 16800   0.546E-04
  66 F= -.12710749E+03 E0= -.12710671E+03  d E =-.113396E-05  mag=     0.0000
       N       E                     dE             d eps       ncg     rms          rms(c)
DAV:   1    -0.125534121529E+03   -0.87085E-04   -0.92825E-04 14208   0.119E-01    0.519E-03
DAV:   2    -0.125534121164E+03    0.36449E-06   -0.87632E-06 14976   0.122E-02    0.317E-03
DAV:   3    -0.125534121143E+03    0.20859E-07   -0.13384E-06 20880   0.419E-03    0.804E-04
DAV:   4    -0.125534121179E+03   -0.35277E-07   -0.18337E-07 18384   0.155E-03    0.442E-04
DAV:   5    -0.125534121202E+03   -0.22930E-07   -0.53580E-09 22656   0.317E-04    0.155E-04
DAV:   6    -0.125534121208E+03   -0.59263E-08   -0.14479E-09 21072   0.148E-04
  67 F= -.12710749E+03 E0= -.12710671E+03  d E =-.339490E-05  mag=     0.0000
       N       E                     dE             d eps       ncg     rms          rms(c)
DAV:   1    -0.125534290716E+03   -0.16951E-03   -0.37140E-03 14208   0.237E-01    0.104E-02
DAV:   2    -0.125534289417E+03    0.12990E-05   -0.34904E-05 17616   0.242E-02    0.628E-03
DAV:   3    -0.125534289188E+03    0.22924E-06   -0.52604E-06 24576   0.820E-03    0.155E-03
DAV:   4    -0.125534289284E+03   -0.95959E-07   -0.64422E-07 17952   0.296E-03    0.831E-04
DAV:   5    -0.125534289351E+03   -0.67215E-07   -0.20594E-08 20448   0.601E-04    0.251E-04
DAV:   6    -0.125534289365E+03   -0.13727E-07   -0.56810E-09 22896   0.233E-04    0.808E-05
DAV:   7    -0.125534289368E+03   -0.29504E-08   -0.21462E-10 23376   0.633E-05
  68 F= -.12710749E+03 E0= -.12710671E+03  d E =-.252359E-05  mag=    -0.0000
       N       E                     dE             d eps       ncg     rms          rms(c)
DAV:   1    -0.125534186452E+03    0.10291E-03   -0.14254E-03 14208   0.147E-01    0.639E-03
DAV:   2    -0.125534185958E+03    0.49412E-06   -0.13786E-05 19488   0.151E-02    0.390E-03
DAV:   3    -0.125534185940E+03    0.17332E-07   -0.19264E-06 18960   0.499E-03    0.971E-04
DAV:   4    -0.125534185989E+03   -0.48520E-07   -0.27497E-07 17376   0.190E-03    0.508E-04
DAV:   5    -0.125534186014E+03   -0.25642E-07   -0.79237E-09 22896   0.360E-04    0.171E-04
DAV:   6    -0.125534186015E+03   -0.63301E-09   -0.18388E-09 19392   0.134E-04
  69 F= -.12710749E+03 E0= -.12710671E+03  d E =-.391297E-05  mag=     0.0000
       N       E                     dE             d eps       ncg     rms          rms(c)
DAV:   1    -0.125534206849E+03   -0.20835E-04   -0.41877E-05 14784   0.251E-02    0.122E-03
DAV:   2    -0.125534206832E+03    0.17085E-07   -0.47951E-07 18480   0.284E-03    0.758E-04
DAV:   3    -0.125534206835E+03   -0.24338E-08   -0.65717E-08 16128   0.945E-04
  70 F= -.12710750E+03 E0= -.12710671E+03  d E =-.782106E-06  mag=    -0.0000
       N       E                     dE             d eps       ncg     rms          rms(c)
DAV:   1    -0.125534268549E+03   -0.61717E-04   -0.37856E-04 14208   0.755E-02    0.371E-03
DAV:   2    -0.125534268415E+03    0.13438E-06   -0.43075E-06 16560   0.854E-03    0.231E-03
DAV:   3    -0.125534268417E+03   -0.27330E-08   -0.63866E-07 23328   0.292E-03    0.562E-04
DAV:   4    -0.125534268426E+03   -0.85220E-08   -0.91966E-08 18240   0.109E-03
  71 F= -.12710750E+03 E0= -.12710671E+03  d E =-.226232E-05  mag=    -0.0000
       N       E                     dE             d eps       ncg     rms          rms(c)
DAV:   1    -0.125534388198E+03   -0.11978E-03   -0.15083E-03 14208   0.151E-01    0.734E-03
DAV:   2    -0.125534387789E+03    0.40963E-06   -0.17182E-05 18432   0.171E-02    0.455E-03
DAV:   3    -0.125534387670E+03    0.11910E-06   -0.24329E-06 24384   0.568E-03    0.110E-03
DAV:   4    -0.125534387699E+03   -0.29197E-07   -0.34127E-07 18192   0.211E-03    0.632E-04
DAV:   5    -0.125534387727E+03   -0.28042E-07   -0.13624E-08 16224   0.472E-04    0.225E-04
DAV:   6    -0.125534387733E+03   -0.65565E-08   -0.46931E-09 24144   0.212E-04
  72 F= -.12710750E+03 E0= -.12710671E+03  d E =-.140026E-05  mag=    -0.0000
       N       E                     dE             d eps       ncg     rms          rms(c)
DAV:   1    -0.125534308138E+03    0.79589E-04   -0.68435E-04 14208   0.102E-01    0.493E-03
DAV:   2    -0.125534307906E+03    0.23167E-06   -0.78719E-06 19776   0.115E-02    0.306E-03
DAV:   3    -0.125534307909E+03   -0.29240E-08   -0.10814E-06 18432   0.382E-03    0.738E-04
DAV:   4    -0.125534307923E+03   -0.14512E-07   -0.17362E-07 17472   0.149E-03    0.412E-04
DAV:   5    -0.125534307934E+03   -0.10388E-07   -0.59307E-09 18336   0.310E-04    0.155E-04
DAV:   6    -0.125534307935E+03   -0.71304E-09   -0.16082E-09 22176   0.130E-04
  73 F= -.12710750E+03 E0= -.12710671E+03  d E =-.255626E-05  mag=    -0.0000
       N       E                     dE             d eps       ncg     rms          rms(c)
DAV:   1    -0.125534325647E+03   -0.17714E-04   -0.28408E-05 14208   0.205E-02    0.977E-04
DAV:   2    -0.125534325638E+03    0.98953E-08   -0.31203E-07 14832   0.230E-03    0.615E-04
DAV:   3    -0.125534325642E+03   -0.40200E-08   -0.41887E-08 15312   0.752E-04
  74 F= -.12710750E+03 E0= -.12710671E+03  d E =-.635466E-06  mag=     0.0000
       N       E                     dE             d eps       ncg     rms          rms(c)
DAV:   1    -0.125534378439E+03   -0.52801E-04   -0.25695E-04 14208   0.618E-02    0.298E-03
DAV:   2    -0.125534378358E+03    0.80996E-07   -0.27560E-06 15168   0.683E-03    0.186E-03
DAV:   3    -0.125534378378E+03   -0.20566E-07   -0.39085E-07 22464   0.227E-03    0.447E-04
DAV:   4    -0.125534378386E+03   -0.77771E-08   -0.54390E-08 18000   0.830E-04
  75 F= -.12710750E+03 E0= -.12710672E+03  d E =-.219943E-05  mag=    -0.0000
       N       E                     dE             d eps       ncg     rms          rms(c)
DAV:   1    -0.125534482404E+03   -0.10403E-03   -0.10240E-03 14208   0.123E-01    0.588E-03
DAV:   2    -0.125534482172E+03    0.23265E-06   -0.10950E-05 17136   0.137E-02    0.365E-03
DAV:   3    -0.125534482151E+03    0.20856E-07   -0.15021E-06 23520   0.444E-03    0.875E-04
DAV:   4    -0.125534482177E+03   -0.25982E-07   -0.20087E-07 17664   0.161E-03    0.460E-04
DAV:   5    -0.125534482198E+03   -0.21063E-07   -0.87685E-09 16464   0.370E-04    0.134E-04
DAV:   6    -0.125534482201E+03   -0.27558E-08   -0.24110E-09 25680   0.160E-04
  76 F= -.12710750E+03 E0= -.12710672E+03  d E =-.360271E-05  mag=    -0.0000
       N       E                     dE             d eps       ncg     rms          rms(c)
DAV:   1    -0.125534516696E+03   -0.34498E-04   -0.11938E-04 14208   0.421E-02    0.204E-03
DAV:   2    -0.125534516633E+03    0.62335E-07   -0.13181E-06 15648   0.471E-03    0.123E-03
DAV:   3    -0.125534516639E+03   -0.51177E-08   -0.18556E-07 21456   0.155E-03    0.323E-04
DAV:   4    -0.125534516649E+03   -0.10348E-07   -0.25856E-08 18288   0.562E-04    0.165E-04
DAV:   5    -0.125534516656E+03   -0.70650E-08   -0.10317E-09 22608   0.124E-04
  77 F= -.12710750E+03 E0= -.12710672E+03  d E =-.127483E-05  mag=    -0.0000
       N       E                     dE             d eps       ncg     rms          rms(c)
DAV:   1    -0.125534618707E+03   -0.10206E-03   -0.10744E-03 14208   0.126E-01    0.611E-03
DAV:   2    -0.125534618299E+03    0.40861E-06   -0.11864E-05 14496   0.141E-02    0.369E-03
DAV:   3    -0.125534618273E+03    0.26115E-07   -0.16910E-06 21984   0.468E-03    0.976E-04
DAV:   4    -0.125534618312E+03   -0.39629E-07   -0.22406E-07 17856   0.166E-03    0.496E-04
DAV:   5    -0.125534618337E+03   -0.24626E-07   -0.85227E-09 20592   0.361E-04    0.143E-04
DAV:   6    -0.125534618342E+03   -0.51114E-08   -0.27774E-09 23664   0.167E-04
  78 F= -.12710750E+03 E0= -.12710672E+03  d E =-.343294E-05  mag=    -0.0000
       N       E                     dE             d eps       ncg     rms          rms(c)
DAV:   1    -0.125534655526E+03   -0.37189E-04   -0.14824E-04 14208   0.469E-02    0.227E-03
DAV:   2    -0.125534655454E+03    0.71937E-07   -0.16449E-06 14784   0.525E-03    0.137E-03
DAV:   3    -0.125534655459E+03   -0.58299E-08   -0.22966E-07 20640   0.173E-03    0.365E-04
DAV:   4    -0.125534655471E+03   -0.11562E-07   -0.32343E-08 18528   0.628E-04    0.186E-04
DAV:   5    -0.125534655479E+03   -0.76343E-08   -0.12132E-09 22992   0.137E-04
  79 F= -.12710750E+03 E0= -.12710672E+03  d E =-.360893E-05  mag=     0.0000
       N       E                     dE             d eps       ncg     rms          rms(c)
DAV:   1    -0.125534709914E+03   -0.54443E-04   -0.30852E-04 14208   0.678E-02    0.309E-03
DAV:   2    -0.125534709807E+03    0.10666E-06   -0.30740E-06 14208   0.720E-03    0.192E-03
DAV:   3    -0.125534709815E+03   -0.76388E-08   -0.44898E-07 20592   0.243E-03    0.464E-04
DAV:   4    -0.125534709829E+03   -0.14731E-07   -0.62309E-08 18432   0.891E-04    0.247E-04
DAV:   5    -0.125534709840E+03   -0.10787E-07   -0.21474E-09 22224   0.193E-04    0.836E-05
DAV:   6    -0.125534709843E+03   -0.30277E-08   -0.48069E-10 23184   0.808E-05
  80 F= -.12710751E+03 E0= -.12710672E+03  d E =-.148165E-05  mag=     0.0000
       N       E                     dE             d eps       ncg     rms          rms(c)
DAV:   1    -0.125534871157E+03   -0.16132E-03   -0.27749E-03 14208   0.203E-01    0.933E-03
DAV:   2    -0.125534870431E+03    0.72568E-06   -0.27440E-05 17712   0.215E-02    0.573E-03
DAV:   3    -0.125534870295E+03    0.13625E-06   -0.39775E-06 23952   0.714E-03    0.135E-03
DAV:   4    -0.125534870363E+03   -0.67626E-07   -0.50373E-07 17952   0.257E-03    0.702E-04
DAV:   5    -0.125534870414E+03   -0.51160E-07   -0.19383E-08 19584   0.562E-04    0.179E-04
DAV:   6    -0.125534870421E+03   -0.74797E-08   -0.48632E-09 24384   0.211E-04
  81 F= -.12710751E+03 E0= -.12710672E+03  d E =-.349866E-05  mag=     0.0000
       N       E                     dE             d eps       ncg     rms          rms(c)
DAV:   1    -0.125534911049E+03   -0.40635E-04   -0.17523E-04 14208   0.510E-02    0.232E-03
DAV:   2    -0.125534910974E+03    0.75088E-07   -0.17280E-06 15168   0.536E-03    0.141E-03
DAV:   3    -0.125534910976E+03   -0.22683E-08   -0.24258E-07 19728   0.177E-03    0.344E-04
DAV:   4    -0.125534910989E+03   -0.13149E-07   -0.33279E-08 18480   0.637E-04    0.157E-04
DAV:   5    -0.125534910999E+03   -0.10538E-07   -0.11850E-09 22464   0.133E-04    0.458E-05
DAV:   6    -0.125534911003E+03   -0.35598E-08   -0.21050E-10 23184   0.483E-05
  82 F= -.12710751E+03 E0= -.12710673E+03  d E =-.129146E-05  mag=    -0.0000
       N       E                     dE             d eps       ncg     rms          rms(c)
DAV:   1    -0.125535032310E+03   -0.12131E-03   -0.15770E-03 14208   0.153E-01    0.698E-03
DAV:   2    -0.125535031763E+03    0.54695E-06   -0.15408E-05 15456   0.160E-02    0.423E-03
DAV:   3    -0.125535031701E+03    0.62268E-07   -0.22294E-06 23136   0.531E-03    0.101E-03
DAV:   4    -0.125535031754E+03   -0.52883E-07   -0.26565E-07 17952   0.184E-03    0.466E-04
DAV:   5    -0.125535031789E+03   -0.34781E-07   -0.99721E-09 21888   0.391E-04    0.104E-04
DAV:   6    -0.125535031793E+03   -0.45738E-08   -0.23800E-09 25968   0.147E-04
  83 F= -.12710751E+03 E0= -.12710673E+03  d E =-.422830E-05  mag=    -0.0000
       N       E                     dE             d eps       ncg     rms          rms(c)
DAV:   1    -0.125535271319E+03   -0.23953E-03   -0.63075E-03 14208   0.306E-01    0.140E-02
DAV:   2    -0.125535269385E+03    0.19341E-05   -0.61764E-05 18048   0.320E-02    0.843E-03
DAV:   3    -0.125535268972E+03    0.41296E-06   -0.86894E-06 25152   0.104E-02    0.200E-03
DAV:   4    -0.125535269119E+03   -0.14727E-06   -0.97976E-07 17952   0.356E-03    0.919E-04
DAV:   5    -0.125535269218E+03   -0.99057E-07   -0.39779E-08 16272   0.774E-04    0.196E-04
DAV:   6    -0.125535269228E+03   -0.92705E-08   -0.88728E-09 26592   0.289E-04
  84 F= -.12710751E+03 E0= -.12710673E+03  d E =-.604369E-05  mag=     0.0000
       N       E                     dE             d eps       ncg     rms          rms(c)
DAV:   1    -0.125535364107E+03   -0.94889E-04   -0.99395E-04 14208   0.121E-01    0.543E-03
DAV:   2    -0.125535363775E+03    0.33234E-06   -0.93835E-06 14208   0.126E-02    0.333E-03
DAV:   3    -0.125535363759E+03    0.16062E-07   -0.14171E-06 19152   0.428E-03    0.781E-04
DAV:   4    -0.125535363804E+03   -0.44822E-07   -0.19567E-07 18048   0.156E-03    0.387E-04
DAV:   5    -0.125535363835E+03   -0.30986E-07   -0.61736E-09 21888   0.309E-04    0.110E-04
DAV:   6    -0.125535363844E+03   -0.94788E-08   -0.11637E-09 22656   0.105E-04
  85 F= -.12710752E+03 E0= -.12710673E+03  d E =-.161210E-05  mag=     0.0000
       N       E                     dE             d eps       ncg     rms          rms(c)
DAV:   1    -0.125535574502E+03   -0.21067E-03   -0.49639E-03 14208   0.271E-01    0.121E-02
DAV:   2    -0.125535573112E+03    0.13905E-05   -0.46825E-05 15456   0.280E-02    0.744E-03
DAV:   3    -0.125535572865E+03    0.24667E-06   -0.71468E-06 23232   0.950E-03    0.171E-03
DAV:   4    -0.125535572990E+03   -0.12467E-06   -0.84781E-07 17952   0.332E-03    0.855E-04
DAV:   5    -0.125535573081E+03   -0.91676E-07   -0.30649E-08 21072   0.697E-04    0.194E-04
DAV:   6    -0.125535573095E+03   -0.13379E-07   -0.67700E-09 23568   0.243E-04    0.746E-05
DAV:   7    -0.125535573101E+03   -0.64374E-08   -0.30024E-10 22560   0.676E-05
  86 F= -.12710752E+03 E0= -.12710673E+03  d E =-.310883E-05  mag=     0.0000
       N       E                     dE             d eps       ncg     rms          rms(c)
DAV:   1    -0.125535682953E+03   -0.10986E-03   -0.13257E-03 14208   0.140E-01    0.632E-03
DAV:   2    -0.125535682518E+03    0.43530E-06   -0.12775E-05 14208   0.146E-02    0.386E-03
DAV:   3    -0.125535682484E+03    0.33764E-07   -0.18684E-06 19488   0.490E-03    0.949E-04
DAV:   4    -0.125535682540E+03   -0.55740E-07   -0.25108E-07 18528   0.176E-03    0.456E-04
DAV:   5    -0.125535682576E+03   -0.35850E-07   -0.78057E-09 22320   0.349E-04    0.113E-04
DAV:   6    -0.125535682584E+03   -0.82618E-08   -0.19273E-09 22416   0.130E-04
  87 F= -.12710752E+03 E0= -.12710674E+03  d E =-.264601E-05  mag=     0.0000
       N       E                     dE             d eps       ncg     rms          rms(c)
DAV:   1    -0.125535911575E+03   -0.22900E-03   -0.58833E-03 14208   0.296E-01    0.133E-02
DAV:   2    -0.125535909863E+03    0.17118E-05   -0.56371E-05 16320   0.306E-02    0.811E-03
DAV:   3    -0.125535909551E+03    0.31172E-06   -0.83633E-06 23424   0.103E-02    0.193E-03
DAV:   4    -0.125535909699E+03   -0.14757E-06   -0.98763E-07 17952   0.358E-03    0.933E-04
DAV:   5    -0.125535909802E+03   -0.10326E-06   -0.35173E-08 17952   0.752E-04    0.205E-04
DAV:   6    -0.125535909814E+03   -0.12009E-07   -0.84216E-09 25728   0.275E-04    0.828E-05
DAV:   7    -0.125535909819E+03   -0.53560E-08   -0.32791E-10 20976   0.728E-05
  88 F= -.12710752E+03 E0= -.12710674E+03  d E =-.488333E-05  mag=     0.0000
       N       E                     dE             d eps       ncg     rms          rms(c)
DAV:   1    -0.125535988051E+03   -0.78237E-04   -0.66298E-04 14208   0.995E-02    0.463E-03
DAV:   2    -0.125535987820E+03    0.23036E-06   -0.68561E-06 14208   0.107E-02    0.284E-03
DAV:   3    -0.125535987807E+03    0.13463E-07   -0.95152E-07 18912   0.354E-03    0.702E-04
DAV:   4    -0.125535987839E+03   -0.32453E-07   -0.13385E-07 17952   0.127E-03    0.324E-04
DAV:   5    -0.125535987861E+03   -0.22132E-07   -0.48724E-09 22896   0.271E-04    0.843E-05
DAV:   6    -0.125535987867E+03   -0.59063E-08   -0.10572E-09 23568   0.103E-04
  89 F= -.12710752E+03 E0= -.12710674E+03  d E =-.110802E-05  mag=     0.0000
       N       E                     dE             d eps       ncg     rms          rms(c)
DAV:   1    -0.125536031671E+03   -0.43810E-04   -0.21271E-04 14208   0.564E-02    0.262E-03
DAV:   2    -0.125536031589E+03    0.82427E-07   -0.22097E-06 14304   0.606E-03    0.160E-03
DAV:   3    -0.125536031592E+03   -0.36307E-08   -0.30566E-07 19248   0.201E-03    0.395E-04
DAV:   4    -0.125536031606E+03   -0.13827E-07   -0.42507E-08 18384   0.721E-04    0.183E-04
DAV:   5    -0.125536031617E+03   -0.10538E-07   -0.15950E-09 22656   0.155E-04    0.495E-05
DAV:   6    -0.125536031620E+03   -0.28931E-08   -0.31220E-10 24000   0.579E-05
  90 F= -.12710752E+03 E0= -.12710674E+03  d E =-.128634E-05  mag=    -0.0000
       N       E                     dE             d eps       ncg     rms          rms(c)
DAV:   1    -0.125536079165E+03   -0.47548E-04   -0.24169E-04 14208   0.603E-02    0.284E-03
DAV:   2    -0.125536079079E+03    0.85864E-07   -0.25301E-06 15168   0.650E-03    0.173E-03
DAV:   3    -0.125536079084E+03   -0.53251E-08   -0.34397E-07 21696   0.213E-03    0.448E-04
DAV:   4    -0.125536079095E+03   -0.10649E-07   -0.47428E-08 18384   0.772E-04    0.222E-04
DAV:   5    -0.125536079103E+03   -0.80690E-08   -0.18955E-09 22272   0.171E-04
  91 F= -.12710752E+03 E0= -.12710674E+03  d E =-.633600E-06  mag=    -0.0000
       N       E                     dE             d eps       ncg     rms          rms(c)
DAV:   1    -0.125536105640E+03   -0.26545E-04   -0.77054E-05 14208   0.340E-02    0.159E-03
DAV:   2    -0.125536105614E+03    0.26698E-07   -0.82045E-07 15264   0.370E-03    0.979E-04
DAV:   3    -0.125536105616E+03   -0.24129E-08   -0.10637E-07 16032   0.120E-03    0.258E-04
DAV:   4    -0.125536105621E+03   -0.50322E-08   -0.17395E-08 18000   0.455E-04
  92 F= -.12710752E+03 E0= -.12710674E+03  d E =-.732764E-06  mag=    -0.0000
       N       E                     dE             d eps       ncg     rms          rms(c)
DAV:   1    -0.125536138997E+03   -0.33381E-04   -0.12978E-04 14208   0.441E-02    0.206E-03
DAV:   2    -0.125536138958E+03    0.38662E-07   -0.12938E-06 14496   0.472E-03    0.127E-03
DAV:   3    -0.125536138966E+03   -0.80490E-08   -0.17634E-07 20832   0.154E-03    0.335E-04
DAV:   4    -0.125536138973E+03   -0.69731E-08   -0.25981E-08 18480   0.576E-04
  93 F= -.12710752E+03 E0= -.12710674E+03  d E =-.489608E-06  mag=     0.0000
       N       E                     dE             d eps       ncg     rms          rms(c)
DAV:   1    -0.125536172170E+03   -0.33204E-04   -0.13102E-04 14208   0.443E-02    0.208E-03
DAV:   2    -0.125536172131E+03    0.38842E-07   -0.13060E-06 14544   0.475E-03    0.128E-03
DAV:   3    -0.125536172140E+03   -0.90768E-08   -0.17876E-07 21744   0.155E-03    0.341E-04
DAV:   4    -0.125536172147E+03   -0.68740E-08   -0.25992E-08 18576   0.580E-04
  94 F= -.12710752E+03 E0= -.12710674E+03  d E =-.651389E-06  mag=    -0.0000
       N       E                     dE             d eps       ncg     rms          rms(c)
DAV:   1    -0.125536196737E+03   -0.24598E-04   -0.99365E-05 14208   0.391E-02    0.185E-03
DAV:   2    -0.125536196694E+03    0.43157E-07   -0.10316E-06 14592   0.423E-03    0.113E-03
DAV:   3    -0.125536196694E+03    0.58208E-09   -0.15142E-07 17376   0.146E-03    0.299E-04
DAV:   4    -0.125536196699E+03   -0.57680E-08   -0.23762E-08 18528   0.554E-04
  95 F= -.12710752E+03 E0= -.12710674E+03  d E =-.243137E-06  mag=    -0.0000
       N       E                     dE             d eps       ncg     rms          rms(c)
DAV:   1    -0.125536198264E+03   -0.15707E-05   -0.40864E-07 24288   0.250E-03    0.152E-04
DAV:   2    -0.125536198265E+03   -0.22192E-09   -0.32659E-09 25200   0.247E-04
  96 F= -.12710752E+03 E0= -.12710674E+03  d E =-.247801E-06  mag=    -0.0000
       N       E                     dE             d eps       ncg     rms          rms(c)
DAV:   1    -0.125536212749E+03   -0.14485E-04   -0.43799E-05 14208   0.258E-02    0.121E-03
DAV:   2    -0.125536212731E+03    0.17810E-07   -0.41208E-07 15024   0.265E-03    0.733E-04
DAV:   3    -0.125536212730E+03    0.10723E-08   -0.65801E-08 15936   0.932E-04
  97 F= -.12710753E+03 E0= -.12710674E+03  d E =-.162918E-06  mag=    -0.0000
