Automatically generated mesh
     514
Reciprocal lattice
    0.00000000000000    0.00000000000000    0.00000000000000             1
    0.03125000000000    0.00000000000000    0.00000000000000             2
    0.06250000000000    0.00000000000000    0.00000000000000             2
    0.09375000000000    0.00000000000000    0.00000000000000             2
    0.12500000000000    0.00000000000000    0.00000000000000             2
    0.15625000000000    0.00000000000000    0.00000000000000             2
    0.18750000000000    0.00000000000000    0.00000000000000             2
    0.21875000000000    0.00000000000000    0.00000000000000             2
    0.25000000000000    0.00000000000000    0.00000000000000             2
    0.28125000000000    0.00000000000000    0.00000000000000             2
    0.31250000000000    0.00000000000000    0.00000000000000             2
    0.34375000000000    0.00000000000000    0.00000000000000             2
    0.37500000000000    0.00000000000000    0.00000000000000             2
    0.40625000000000    0.00000000000000    0.00000000000000             2
    0.43750000000000    0.00000000000000    0.00000000000000             2
    0.46875000000000    0.00000000000000    0.00000000000000             2
    0.50000000000000    0.00000000000000    0.00000000000000             1
    0.00000000000000    0.03125000000000    0.00000000000000             2
    0.03125000000000    0.03125000000000    0.00000000000000             2
    0.06250000000000    0.03125000000000    0.00000000000000             2
    0.09375000000000    0.03125000000000    0.00000000000000             2
    0.12500000000000    0.03125000000000    0.00000000000000             2
    0.15625000000000    0.03125000000000    0.00000000000000             2
    0.18750000000000    0.03125000000000    0.00000000000000             2
    0.21875000000000    0.03125000000000    0.00000000000000             2
    0.25000000000000    0.03125000000000    0.00000000000000             2
    0.28125000000000    0.03125000000000    0.00000000000000             2
    0.31250000000000    0.03125000000000    0.00000000000000             2
    0.34375000000000    0.03125000000000    0.00000000000000             2
    0.37500000000000    0.03125000000000    0.00000000000000             2
    0.40625000000000    0.03125000000000    0.00000000000000             2
    0.43750000000000    0.03125000000000    0.00000000000000             2
    0.46875000000000    0.03125000000000    0.00000000000000             2
    0.50000000000000    0.03125000000000    0.00000000000000             2
   -0.46875000000000    0.03125000000000    0.00000000000000             2
   -0.43750000000000    0.03125000000000    0.00000000000000             2
   -0.40625000000000    0.03125000000000    0.00000000000000             2
   -0.37500000000000    0.03125000000000    0.00000000000000             2
   -0.34375000000000    0.03125000000000    0.00000000000000             2
   -0.31250000000000    0.03125000000000    0.00000000000000             2
   -0.28125000000000    0.03125000000000    0.00000000000000             2
   -0.25000000000000    0.03125000000000    0.00000000000000             2
   -0.21875000000000    0.03125000000000    0.00000000000000             2
   -0.18750000000000    0.03125000000000    0.00000000000000             2
   -0.15625000000000    0.03125000000000    0.00000000000000             2
   -0.12500000000000    0.03125000000000    0.00000000000000             2
   -0.09375000000000    0.03125000000000    0.00000000000000             2
   -0.06250000000000    0.03125000000000    0.00000000000000             2
   -0.03125000000000    0.03125000000000    0.00000000000000             2
    0.00000000000000    0.06250000000000    0.00000000000000             2
    0.03125000000000    0.06250000000000    0.00000000000000             2
    0.06250000000000    0.06250000000000    0.00000000000000             2
    0.09375000000000    0.06250000000000    0.00000000000000             2
    0.12500000000000    0.06250000000000    0.00000000000000             2
    0.15625000000000    0.06250000000000    0.00000000000000             2
    0.18750000000000    0.06250000000000    0.00000000000000             2
    0.21875000000000    0.06250000000000    0.00000000000000             2
    0.25000000000000    0.06250000000000    0.00000000000000             2
    0.28125000000000    0.06250000000000    0.00000000000000             2
    0.31250000000000    0.06250000000000    0.00000000000000             2
    0.34375000000000    0.06250000000000    0.00000000000000             2
    0.37500000000000    0.06250000000000    0.00000000000000             2
    0.40625000000000    0.06250000000000    0.00000000000000             2
    0.43750000000000    0.06250000000000    0.00000000000000             2
    0.46875000000000    0.06250000000000    0.00000000000000             2
    0.50000000000000    0.06250000000000    0.00000000000000             2
   -0.46875000000000    0.06250000000000    0.00000000000000             2
   -0.43750000000000    0.06250000000000    0.00000000000000             2
   -0.40625000000000    0.06250000000000    0.00000000000000             2
   -0.37500000000000    0.06250000000000    0.00000000000000             2
   -0.34375000000000    0.06250000000000    0.00000000000000             2
   -0.31250000000000    0.06250000000000    0.00000000000000             2
   -0.28125000000000    0.06250000000000    0.00000000000000             2
   -0.25000000000000    0.06250000000000    0.00000000000000             2
   -0.21875000000000    0.06250000000000    0.00000000000000             2
   -0.18750000000000    0.06250000000000    0.00000000000000             2
   -0.15625000000000    0.06250000000000    0.00000000000000             2
   -0.12500000000000    0.06250000000000    0.00000000000000             2
   -0.09375000000000    0.06250000000000    0.00000000000000             2
   -0.06250000000000    0.06250000000000    0.00000000000000             2
   -0.03125000000000    0.06250000000000    0.00000000000000             2
    0.00000000000000    0.09375000000000    0.00000000000000             2
    0.03125000000000    0.09375000000000    0.00000000000000             2
    0.06250000000000    0.09375000000000    0.00000000000000             2
    0.09375000000000    0.09375000000000    0.00000000000000             2
    0.12500000000000    0.09375000000000    0.00000000000000             2
    0.15625000000000    0.09375000000000    0.00000000000000             2
    0.18750000000000    0.09375000000000    0.00000000000000             2
    0.21875000000000    0.09375000000000    0.00000000000000             2
    0.25000000000000    0.09375000000000    0.00000000000000             2
    0.28125000000000    0.09375000000000    0.00000000000000             2
    0.31250000000000    0.09375000000000    0.00000000000000             2
    0.34375000000000    0.09375000000000    0.00000000000000             2
    0.37500000000000    0.09375000000000    0.00000000000000             2
    0.40625000000000    0.09375000000000    0.00000000000000             2
    0.43750000000000    0.09375000000000    0.00000000000000             2
    0.46875000000000    0.09375000000000    0.00000000000000             2
    0.50000000000000    0.09375000000000    0.00000000000000             2
   -0.46875000000000    0.09375000000000    0.00000000000000             2
   -0.43750000000000    0.09375000000000    0.00000000000000             2
   -0.40625000000000    0.09375000000000    0.00000000000000             2
   -0.37500000000000    0.09375000000000    0.00000000000000             2
   -0.34375000000000    0.09375000000000    0.00000000000000             2
   -0.31250000000000    0.09375000000000    0.00000000000000             2
   -0.28125000000000    0.09375000000000    0.00000000000000             2
   -0.25000000000000    0.09375000000000    0.00000000000000             2
   -0.21875000000000    0.09375000000000    0.00000000000000             2
   -0.18750000000000    0.09375000000000    0.00000000000000             2
   -0.15625000000000    0.09375000000000    0.00000000000000             2
   -0.12500000000000    0.09375000000000    0.00000000000000             2
   -0.09375000000000    0.09375000000000    0.00000000000000             2
   -0.06250000000000    0.09375000000000    0.00000000000000             2
   -0.03125000000000    0.09375000000000    0.00000000000000             2
    0.00000000000000    0.12500000000000    0.00000000000000             2
    0.03125000000000    0.12500000000000    0.00000000000000             2
    0.06250000000000    0.12500000000000    0.00000000000000             2
    0.09375000000000    0.12500000000000    0.00000000000000             2
    0.12500000000000    0.12500000000000    0.00000000000000             2
    0.15625000000000    0.12500000000000    0.00000000000000             2
    0.18750000000000    0.12500000000000    0.00000000000000             2
    0.21875000000000    0.12500000000000    0.00000000000000             2
    0.25000000000000    0.12500000000000    0.00000000000000             2
    0.28125000000000    0.12500000000000    0.00000000000000             2
    0.31250000000000    0.12500000000000    0.00000000000000             2
    0.34375000000000    0.12500000000000    0.00000000000000             2
    0.37500000000000    0.12500000000000    0.00000000000000             2
    0.40625000000000    0.12500000000000    0.00000000000000             2
    0.43750000000000    0.12500000000000    0.00000000000000             2
    0.46875000000000    0.12500000000000    0.00000000000000             2
    0.50000000000000    0.12500000000000    0.00000000000000             2
   -0.46875000000000    0.12500000000000    0.00000000000000             2
   -0.43750000000000    0.12500000000000    0.00000000000000             2
   -0.40625000000000    0.12500000000000    0.00000000000000             2
   -0.37500000000000    0.12500000000000    0.00000000000000             2
   -0.34375000000000    0.12500000000000    0.00000000000000             2
   -0.31250000000000    0.12500000000000    0.00000000000000             2
   -0.28125000000000    0.12500000000000    0.00000000000000             2
   -0.25000000000000    0.12500000000000    0.00000000000000             2
   -0.21875000000000    0.12500000000000    0.00000000000000             2
   -0.18750000000000    0.12500000000000    0.00000000000000             2
   -0.15625000000000    0.12500000000000    0.00000000000000             2
   -0.12500000000000    0.12500000000000    0.00000000000000             2
   -0.09375000000000    0.12500000000000    0.00000000000000             2
   -0.06250000000000    0.12500000000000    0.00000000000000             2
   -0.03125000000000    0.12500000000000    0.00000000000000             2
    0.00000000000000    0.15625000000000    0.00000000000000             2
    0.03125000000000    0.15625000000000    0.00000000000000             2
    0.06250000000000    0.15625000000000    0.00000000000000             2
    0.09375000000000    0.15625000000000    0.00000000000000             2
    0.12500000000000    0.15625000000000    0.00000000000000             2
    0.15625000000000    0.15625000000000    0.00000000000000             2
    0.18750000000000    0.15625000000000    0.00000000000000             2
    0.21875000000000    0.15625000000000    0.00000000000000             2
    0.25000000000000    0.15625000000000    0.00000000000000             2
    0.28125000000000    0.15625000000000    0.00000000000000             2
    0.31250000000000    0.15625000000000    0.00000000000000             2
    0.34375000000000    0.15625000000000    0.00000000000000             2
    0.37500000000000    0.15625000000000    0.00000000000000             2
    0.40625000000000    0.15625000000000    0.00000000000000             2
    0.43750000000000    0.15625000000000    0.00000000000000             2
    0.46875000000000    0.15625000000000    0.00000000000000             2
    0.50000000000000    0.15625000000000    0.00000000000000             2
   -0.46875000000000    0.15625000000000    0.00000000000000             2
   -0.43750000000000    0.15625000000000    0.00000000000000             2
   -0.40625000000000    0.15625000000000    0.00000000000000             2
   -0.37500000000000    0.15625000000000    0.00000000000000             2
   -0.34375000000000    0.15625000000000    0.00000000000000             2
   -0.31250000000000    0.15625000000000    0.00000000000000             2
   -0.28125000000000    0.15625000000000    0.00000000000000             2
   -0.25000000000000    0.15625000000000    0.00000000000000             2
   -0.21875000000000    0.15625000000000    0.00000000000000             2
   -0.18750000000000    0.15625000000000    0.00000000000000             2
   -0.15625000000000    0.15625000000000    0.00000000000000             2
   -0.12500000000000    0.15625000000000    0.00000000000000             2
   -0.09375000000000    0.15625000000000    0.00000000000000             2
   -0.06250000000000    0.15625000000000    0.00000000000000             2
   -0.03125000000000    0.15625000000000    0.00000000000000             2
    0.00000000000000    0.18750000000000    0.00000000000000             2
    0.03125000000000    0.18750000000000    0.00000000000000             2
    0.06250000000000    0.18750000000000    0.00000000000000             2
    0.09375000000000    0.18750000000000    0.00000000000000             2
    0.12500000000000    0.18750000000000    0.00000000000000             2
    0.15625000000000    0.18750000000000    0.00000000000000             2
    0.18750000000000    0.18750000000000    0.00000000000000             2
    0.21875000000000    0.18750000000000    0.00000000000000             2
    0.25000000000000    0.18750000000000    0.00000000000000             2
    0.28125000000000    0.18750000000000    0.00000000000000             2
    0.31250000000000    0.18750000000000    0.00000000000000             2
    0.34375000000000    0.18750000000000    0.00000000000000             2
    0.37500000000000    0.18750000000000    0.00000000000000             2
    0.40625000000000    0.18750000000000    0.00000000000000             2
    0.43750000000000    0.18750000000000    0.00000000000000             2
    0.46875000000000    0.18750000000000    0.00000000000000             2
    0.50000000000000    0.18750000000000    0.00000000000000             2
   -0.46875000000000    0.18750000000000    0.00000000000000             2
   -0.43750000000000    0.18750000000000    0.00000000000000             2
   -0.40625000000000    0.18750000000000    0.00000000000000             2
   -0.37500000000000    0.18750000000000    0.00000000000000             2
   -0.34375000000000    0.18750000000000    0.00000000000000             2
   -0.31250000000000    0.18750000000000    0.00000000000000             2
   -0.28125000000000    0.18750000000000    0.00000000000000             2
   -0.25000000000000    0.18750000000000    0.00000000000000             2
   -0.21875000000000    0.18750000000000    0.00000000000000             2
   -0.18750000000000    0.18750000000000    0.00000000000000             2
   -0.15625000000000    0.18750000000000    0.00000000000000             2
   -0.12500000000000    0.18750000000000    0.00000000000000             2
   -0.09375000000000    0.18750000000000    0.00000000000000             2
   -0.06250000000000    0.18750000000000    0.00000000000000             2
   -0.03125000000000    0.18750000000000    0.00000000000000             2
    0.00000000000000    0.21875000000000    0.00000000000000             2
    0.03125000000000    0.21875000000000    0.00000000000000             2
    0.06250000000000    0.21875000000000    0.00000000000000             2
    0.09375000000000    0.21875000000000    0.00000000000000             2
    0.12500000000000    0.21875000000000    0.00000000000000             2
    0.15625000000000    0.21875000000000    0.00000000000000             2
    0.18750000000000    0.21875000000000    0.00000000000000             2
    0.21875000000000    0.21875000000000    0.00000000000000             2
    0.25000000000000    0.21875000000000    0.00000000000000             2
    0.28125000000000    0.21875000000000    0.00000000000000             2
    0.31250000000000    0.21875000000000    0.00000000000000             2
    0.34375000000000    0.21875000000000    0.00000000000000             2
    0.37500000000000    0.21875000000000    0.00000000000000             2
    0.40625000000000    0.21875000000000    0.00000000000000             2
    0.43750000000000    0.21875000000000    0.00000000000000             2
    0.46875000000000    0.21875000000000    0.00000000000000             2
    0.50000000000000    0.21875000000000    0.00000000000000             2
   -0.46875000000000    0.21875000000000    0.00000000000000             2
   -0.43750000000000    0.21875000000000    0.00000000000000             2
   -0.40625000000000    0.21875000000000    0.00000000000000             2
   -0.37500000000000    0.21875000000000    0.00000000000000             2
   -0.34375000000000    0.21875000000000    0.00000000000000             2
   -0.31250000000000    0.21875000000000    0.00000000000000             2
   -0.28125000000000    0.21875000000000    0.00000000000000             2
   -0.25000000000000    0.21875000000000    0.00000000000000             2
   -0.21875000000000    0.21875000000000    0.00000000000000             2
   -0.18750000000000    0.21875000000000    0.00000000000000             2
   -0.15625000000000    0.21875000000000    0.00000000000000             2
   -0.12500000000000    0.21875000000000    0.00000000000000             2
   -0.09375000000000    0.21875000000000    0.00000000000000             2
   -0.06250000000000    0.21875000000000    0.00000000000000             2
   -0.03125000000000    0.21875000000000    0.00000000000000             2
    0.00000000000000    0.25000000000000    0.00000000000000             2
    0.03125000000000    0.25000000000000    0.00000000000000             2
    0.06250000000000    0.25000000000000    0.00000000000000             2
    0.09375000000000    0.25000000000000    0.00000000000000             2
    0.12500000000000    0.25000000000000    0.00000000000000             2
    0.15625000000000    0.25000000000000    0.00000000000000             2
    0.18750000000000    0.25000000000000    0.00000000000000             2
    0.21875000000000    0.25000000000000    0.00000000000000             2
    0.25000000000000    0.25000000000000    0.00000000000000             2
    0.28125000000000    0.25000000000000    0.00000000000000             2
    0.31250000000000    0.25000000000000    0.00000000000000             2
    0.34375000000000    0.25000000000000    0.00000000000000             2
    0.37500000000000    0.25000000000000    0.00000000000000             2
    0.40625000000000    0.25000000000000    0.00000000000000             2
    0.43750000000000    0.25000000000000    0.00000000000000             2
    0.46875000000000    0.25000000000000    0.00000000000000             2
    0.50000000000000    0.25000000000000    0.00000000000000             2
   -0.46875000000000    0.25000000000000    0.00000000000000             2
   -0.43750000000000    0.25000000000000    0.00000000000000             2
   -0.40625000000000    0.25000000000000    0.00000000000000             2
   -0.37500000000000    0.25000000000000    0.00000000000000             2
   -0.34375000000000    0.25000000000000    0.00000000000000             2
   -0.31250000000000    0.25000000000000    0.00000000000000             2
   -0.28125000000000    0.25000000000000    0.00000000000000             2
   -0.25000000000000    0.25000000000000    0.00000000000000             2
   -0.21875000000000    0.25000000000000    0.00000000000000             2
   -0.18750000000000    0.25000000000000    0.00000000000000             2
   -0.15625000000000    0.25000000000000    0.00000000000000             2
   -0.12500000000000    0.25000000000000    0.00000000000000             2
   -0.09375000000000    0.25000000000000    0.00000000000000             2
   -0.06250000000000    0.25000000000000    0.00000000000000             2
   -0.03125000000000    0.25000000000000    0.00000000000000             2
    0.00000000000000    0.28125000000000    0.00000000000000             2
    0.03125000000000    0.28125000000000    0.00000000000000             2
    0.06250000000000    0.28125000000000    0.00000000000000             2
    0.09375000000000    0.28125000000000    0.00000000000000             2
    0.12500000000000    0.28125000000000    0.00000000000000             2
    0.15625000000000    0.28125000000000    0.00000000000000             2
    0.18750000000000    0.28125000000000    0.00000000000000             2
    0.21875000000000    0.28125000000000    0.00000000000000             2
    0.25000000000000    0.28125000000000    0.00000000000000             2
    0.28125000000000    0.28125000000000    0.00000000000000             2
    0.31250000000000    0.28125000000000    0.00000000000000             2
    0.34375000000000    0.28125000000000    0.00000000000000             2
    0.37500000000000    0.28125000000000    0.00000000000000             2
    0.40625000000000    0.28125000000000    0.00000000000000             2
    0.43750000000000    0.28125000000000    0.00000000000000             2
    0.46875000000000    0.28125000000000    0.00000000000000             2
    0.50000000000000    0.28125000000000    0.00000000000000             2
   -0.46875000000000    0.28125000000000    0.00000000000000             2
   -0.43750000000000    0.28125000000000    0.00000000000000             2
   -0.40625000000000    0.28125000000000    0.00000000000000             2
   -0.37500000000000    0.28125000000000    0.00000000000000             2
   -0.34375000000000    0.28125000000000    0.00000000000000             2
   -0.31250000000000    0.28125000000000    0.00000000000000             2
   -0.28125000000000    0.28125000000000    0.00000000000000             2
   -0.25000000000000    0.28125000000000    0.00000000000000             2
   -0.21875000000000    0.28125000000000    0.00000000000000             2
   -0.18750000000000    0.28125000000000    0.00000000000000             2
   -0.15625000000000    0.28125000000000    0.00000000000000             2
   -0.12500000000000    0.28125000000000    0.00000000000000             2
   -0.09375000000000    0.28125000000000    0.00000000000000             2
   -0.06250000000000    0.28125000000000    0.00000000000000             2
   -0.03125000000000    0.28125000000000    0.00000000000000             2
    0.00000000000000    0.31250000000000    0.00000000000000             2
    0.03125000000000    0.31250000000000    0.00000000000000             2
    0.06250000000000    0.31250000000000    0.00000000000000             2
    0.09375000000000    0.31250000000000    0.00000000000000             2
    0.12500000000000    0.31250000000000    0.00000000000000             2
    0.15625000000000    0.31250000000000    0.00000000000000             2
    0.18750000000000    0.31250000000000    0.00000000000000             2
    0.21875000000000    0.31250000000000    0.00000000000000             2
    0.25000000000000    0.31250000000000    0.00000000000000             2
    0.28125000000000    0.31250000000000    0.00000000000000             2
    0.31250000000000    0.31250000000000    0.00000000000000             2
    0.34375000000000    0.31250000000000    0.00000000000000             2
    0.37500000000000    0.31250000000000    0.00000000000000             2
    0.40625000000000    0.31250000000000    0.00000000000000             2
    0.43750000000000    0.31250000000000    0.00000000000000             2
    0.46875000000000    0.31250000000000    0.00000000000000             2
    0.50000000000000    0.31250000000000    0.00000000000000             2
   -0.46875000000000    0.31250000000000    0.00000000000000             2
   -0.43750000000000    0.31250000000000    0.00000000000000             2
   -0.40625000000000    0.31250000000000    0.00000000000000             2
   -0.37500000000000    0.31250000000000    0.00000000000000             2
   -0.34375000000000    0.31250000000000    0.00000000000000             2
   -0.31250000000000    0.31250000000000    0.00000000000000             2
   -0.28125000000000    0.31250000000000    0.00000000000000             2
   -0.25000000000000    0.31250000000000    0.00000000000000             2
   -0.21875000000000    0.31250000000000    0.00000000000000             2
   -0.18750000000000    0.31250000000000    0.00000000000000             2
   -0.15625000000000    0.31250000000000    0.00000000000000             2
   -0.12500000000000    0.31250000000000    0.00000000000000             2
   -0.09375000000000    0.31250000000000    0.00000000000000             2
   -0.06250000000000    0.31250000000000    0.00000000000000             2
   -0.03125000000000    0.31250000000000    0.00000000000000             2
    0.00000000000000    0.34375000000000    0.00000000000000             2
    0.03125000000000    0.34375000000000    0.00000000000000             2
    0.06250000000000    0.34375000000000    0.00000000000000             2
    0.09375000000000    0.34375000000000    0.00000000000000             2
    0.12500000000000    0.34375000000000    0.00000000000000             2
    0.15625000000000    0.34375000000000    0.00000000000000             2
    0.18750000000000    0.34375000000000    0.00000000000000             2
    0.21875000000000    0.34375000000000    0.00000000000000             2
    0.25000000000000    0.34375000000000    0.00000000000000             2
    0.28125000000000    0.34375000000000    0.00000000000000             2
    0.31250000000000    0.34375000000000    0.00000000000000             2
    0.34375000000000    0.34375000000000    0.00000000000000             2
    0.37500000000000    0.34375000000000    0.00000000000000             2
    0.40625000000000    0.34375000000000    0.00000000000000             2
    0.43750000000000    0.34375000000000    0.00000000000000             2
    0.46875000000000    0.34375000000000    0.00000000000000             2
    0.50000000000000    0.34375000000000    0.00000000000000             2
   -0.46875000000000    0.34375000000000    0.00000000000000             2
   -0.43750000000000    0.34375000000000    0.00000000000000             2
   -0.40625000000000    0.34375000000000    0.00000000000000             2
   -0.37500000000000    0.34375000000000    0.00000000000000             2
   -0.34375000000000    0.34375000000000    0.00000000000000             2
   -0.31250000000000    0.34375000000000    0.00000000000000             2
   -0.28125000000000    0.34375000000000    0.00000000000000             2
   -0.25000000000000    0.34375000000000    0.00000000000000             2
   -0.21875000000000    0.34375000000000    0.00000000000000             2
   -0.18750000000000    0.34375000000000    0.00000000000000             2
   -0.15625000000000    0.34375000000000    0.00000000000000             2
   -0.12500000000000    0.34375000000000    0.00000000000000             2
   -0.09375000000000    0.34375000000000    0.00000000000000             2
   -0.06250000000000    0.34375000000000    0.00000000000000             2
   -0.03125000000000    0.34375000000000    0.00000000000000             2
    0.00000000000000    0.37500000000000    0.00000000000000             2
    0.03125000000000    0.37500000000000    0.00000000000000             2
    0.06250000000000    0.37500000000000    0.00000000000000             2
    0.09375000000000    0.37500000000000    0.00000000000000             2
    0.12500000000000    0.37500000000000    0.00000000000000             2
    0.15625000000000    0.37500000000000    0.00000000000000             2
    0.18750000000000    0.37500000000000    0.00000000000000             2
    0.21875000000000    0.37500000000000    0.00000000000000             2
    0.25000000000000    0.37500000000000    0.00000000000000             2
    0.28125000000000    0.37500000000000    0.00000000000000             2
    0.31250000000000    0.37500000000000    0.00000000000000             2
    0.34375000000000    0.37500000000000    0.00000000000000             2
    0.37500000000000    0.37500000000000    0.00000000000000             2
    0.40625000000000    0.37500000000000    0.00000000000000             2
    0.43750000000000    0.37500000000000    0.00000000000000             2
    0.46875000000000    0.37500000000000    0.00000000000000             2
    0.50000000000000    0.37500000000000    0.00000000000000             2
   -0.46875000000000    0.37500000000000    0.00000000000000             2
   -0.43750000000000    0.37500000000000    0.00000000000000             2
   -0.40625000000000    0.37500000000000    0.00000000000000             2
   -0.37500000000000    0.37500000000000    0.00000000000000             2
   -0.34375000000000    0.37500000000000    0.00000000000000             2
   -0.31250000000000    0.37500000000000    0.00000000000000             2
   -0.28125000000000    0.37500000000000    0.00000000000000             2
   -0.25000000000000    0.37500000000000    0.00000000000000             2
   -0.21875000000000    0.37500000000000    0.00000000000000             2
   -0.18750000000000    0.37500000000000    0.00000000000000             2
   -0.15625000000000    0.37500000000000    0.00000000000000             2
   -0.12500000000000    0.37500000000000    0.00000000000000             2
   -0.09375000000000    0.37500000000000    0.00000000000000             2