 vasp.5.4.4.18Apr17-6-g9f103f2a35 (build Mar 30 2023 15:39:25) complex          
  
 executed on             LinuxIFC date 2023.09.12  03:42:29
 running on   16 total cores
 distrk:  each k-point on   16 cores,    1 groups
 distr:  one band on NCORES_PER_BAND=   1 cores,   16 groups


--------------------------------------------------------------------------------------------------------


 INCAR:
 POTCAR:    PAW_PBE B 06Sep2000                   
 POTCAR:    PAW_PBE C 08Apr2002                   

 ----------------------------------------------------------------------------- 
|                                                                             |
|           W    W    AA    RRRRR   N    N  II  N    N   GGGG   !!!           |
|           W    W   A  A   R    R  NN   N  II  NN   N  G    G  !!!           |
|           W    W  A    A  R    R  N N  N  II  N N  N  G       !!!           |
|           W WW W  AAAAAA  RRRRR   N  N N  II  N  N N  G  GGG   !            |
|           WW  WW  A    A  R   R   N   NN  II  N   NN  G    G                |
|           W    W  A    A  R    R  N    N  II  N    N   GGGG   !!!           |
|                                                                             |
|      For optimal performance we recommend to set                            |
|        NCORE= 4 - approx SQRT( number of cores)                             |
|      NCORE specifies how many cores store one orbital (NPAR=cpu/NCORE).     |
|      This setting can  greatly improve the performance of VASP for DFT.     |
|      The default,   NCORE=1            might be grossly inefficient         |
|      on modern multi-core architectures or massively parallel machines.     |
|      Do your own testing !!!!                                               |
|      Unfortunately you need to use the default for GW and RPA calculations. |
|      (for HF NCORE is supported but not extensively tested yet)             |
|                                                                             |
 ----------------------------------------------------------------------------- 

 POTCAR:    PAW_PBE B 06Sep2000                   
   SHA256 =  a32ced30f5ae56fd4d10b4325ff17eb3e4e38ee0f4288bc219fb012fddfa6e97 B/
   COPYR  = (c) Copyright 06Sep2000 Georg Kresse                                
   COPYR  = This file is part of the software VASP. Any use, copying, and all ot
   COPYR  = If you do not have a valid VASP license, you may not use, copy or di
   VRHFIN =B: s2p1                                                              
   LEXCH  = PE                                                                  
   EATOM  =    71.1703 eV,    5.2309 Ry                                         
                                                                                
   TITEL  = PAW_PBE B 06Sep2000                                                 
   LULTRA =        F    use ultrasoft PP ?                                      
   IUNSCR =        1    unscreen: 0-lin 1-nonlin 2-no                           
   RPACOR =    1.200    partial core radius                                     
   POMASS =   10.811; ZVAL   =    3.000    mass and valenz                      
   RCORE  =    1.700    outmost cutoff radius                                   
   RWIGS  =    1.710; RWIGS  =    0.905    wigner-seitz radius (au A)           
   ENMAX  =  318.614; ENMIN  =  238.960 eV                                      
   ICORE  =        2    local potential                                         
   LCOR   =        T    correct aug charges                                     
   LPAW   =        T    paw PP                                                  
   EAUG   =  535.514                                                            
   DEXC   =    0.000                                                            
   RMAX   =    1.732    core radius for proj-oper                               
   RAUG   =    1.300    factor for augmentation sphere                          
   RDEP   =    1.757    radius for radial grids                                 
   RDEPT  =    1.436    core radius for aug-charge                              
                                                                                
   Atomic configuration                                                         
    4 entries                                                                   
     n  l   j            E        occ.                                          
     1  0  0.50      -180.5896   2.0000                                         
     2  0  0.50        -9.4431   2.0000                                         
     2  1  0.50        -3.6068   1.0000                                         
     3  2  1.50        -4.0817   0.0000                                         
   Description                                                                  
     l       E           TYP  RCUT    TYP  RCUT                                 
     0     -9.4430752     23  1.500                                             
     0      0.8675899     23  1.500                                             
     1     -3.6067955     23  1.700                                             
     1      6.1086146     23  1.700                                             
     2     -4.0817478      7  1.700                                             
  local pseudopotential read in
  partial core-charges read in
  partial kinetic energy density read in
  atomic valenz-charges read in
  non local Contribution for L=           0  read in
    real space projection operators read in
  non local Contribution for L=           0  read in
    real space projection operators read in
  non local Contribution for L=           1  read in
    real space projection operators read in
  non local Contribution for L=           1  read in
    real space projection operators read in
    PAW grid and wavefunctions read in
 
   number of l-projection  operators is LMAX  =           4
   number of lm-projection operators is LMMAX =           8
 
 POTCAR:    PAW_PBE C 08Apr2002                   
   SHA256 =  253f7b50bb8d59471dbedb8285d89021f4a42ed1a2c5d38a03a736e69125dd95 C/
   COPYR  = (c) Copyright 08Apr2002 Georg Kresse                                
   COPYR  = This file is part of the software VASP. Any use, copying, and all ot
   COPYR  = If you do not have a valid VASP license, you may not use, copy or di
   VRHFIN =C: s2p2                                                              
   LEXCH  = PE                                                                  
   EATOM  =   147.1560 eV,   10.8157 Ry                                         
                                                                                
   TITEL  = PAW_PBE C 08Apr2002                                                 
   LULTRA =        F    use ultrasoft PP ?                                      
   IUNSCR =        1    unscreen: 0-lin 1-nonlin 2-no                           
   RPACOR =    1.200    partial core radius                                     
   POMASS =   12.011; ZVAL   =    4.000    mass and valenz                      
   RCORE  =    1.500    outmost cutoff radius                                   
   RWIGS  =    1.630; RWIGS  =    0.863    wigner-seitz radius (au A)           
   ENMAX  =  400.000; ENMIN  =  300.000 eV                                      
   ICORE  =        2    local potential                                         
   LCOR   =        T    correct aug charges                                     
   LPAW   =        T    paw PP                                                  
   EAUG   =  644.873                                                            
   DEXC   =    0.000                                                            
   RMAX   =    1.529    core radius for proj-oper                               
   RAUG   =    1.300    factor for augmentation sphere                          
   RDEP   =    1.501    radius for radial grids                                 
   RDEPT  =    1.300    core radius for aug-charge                              
                                                                                
   Atomic configuration                                                         
    4 entries                                                                   
     n  l   j            E        occ.                                          
     1  0  0.50      -273.3789   2.0000                                         
     2  0  0.50       -13.7508   2.0000                                         
     2  1  0.50        -5.2854   2.0000                                         
     3  2  1.50        -5.4423   0.0000                                         
   Description                                                                  
     l       E           TYP  RCUT    TYP  RCUT                                 
     0    -13.7508458     23  1.200                                             
     0     -8.2022199     23  1.200                                             
     1     -5.2854383     23  1.500                                             
     1     34.0145650     23  1.500                                             
     2     -5.4423304      7  1.500                                             
  local pseudopotential read in
  partial core-charges read in
  partial kinetic energy density read in
  atomic valenz-charges read in
  non local Contribution for L=           0  read in
    real space projection operators read in
  non local Contribution for L=           0  read in
    real space projection operators read in
  non local Contribution for L=           1  read in
    real space projection operators read in
  non local Contribution for L=           1  read in
    real space projection operators read in
    PAW grid and wavefunctions read in
 
   number of l-projection  operators is LMAX  =           4
   number of lm-projection operators is LMMAX =           8
 
  PAW_PBE B 06Sep2000                   :
 energy of atom  1       EATOM=  -71.1703
 kinetic energy error for atom=    0.0015 (will be added to EATOM!!)
  PAW_PBE C 08Apr2002                   :
 energy of atom  2       EATOM= -147.1560
 kinetic energy error for atom=    0.0116 (will be added to EATOM!!)
 
 
 POSCAR: BC3 with lattice parameter 5.169        
  positions in direct lattice
  velocities in cartesian coordinates
 exchange correlation table for  LEXCH =        8
   RHO(1)=    0.500       N(1)  =     2000
   RHO(2)=  100.500       N(2)  =     4000
 


--------------------------------------------------------------------------------------------------------


 ion  position               nearest neighbor table
   1  0.338  0.669  0.250-   3 1.56   5 1.56   7 1.56
   2  0.672  0.336  0.250-   4 1.56   8 1.56   6 1.56
   3  0.164  0.320  0.250-   4 1.42   6 1.42   1 1.56
   4  0.323  0.161  0.250-   3 1.42   5 1.42   2 1.56
   5  0.164  0.844  0.250-   8 1.42   4 1.42   1 1.56
   6  0.846  0.161  0.250-   3 1.42   7 1.42   2 1.56
   7  0.687  0.844  0.250-   8 1.42   6 1.42   1 1.56
   8  0.846  0.685  0.250-   5 1.42   7 1.42   2 1.56
 
  LATTYP: Found a hexagonal cell.
 ALAT       =     5.1690000000
 C/A-ratio  =     2.9019152641
  
  Lattice vectors:
  
 A1 = (   4.4764850000,   2.5845000000,   0.0000000000)
 A2 = (  -4.4764850000,   2.5845000000,   0.0000000000)
 A3 = (   0.0000000000,   0.0000000000,  15.0000000000)


Analysis of symmetry for initial positions (statically):
=====================================================================
 Subroutine PRICEL returns:
 Original cell was already a primitive cell.
 

 Routine SETGRP: Setting up the symmetry group for a 
 hexagonal supercell.


 Subroutine GETGRP returns: Found  2 space group operations
 (whereof  1 operations were pure point group operations)
 out of a pool of 24 trial point group operations.


The static configuration has the point symmetry C_1 .
 The point group associated with its full space group is C_1h.


Analysis of symmetry for dynamics (positions and initial velocities):
=====================================================================
 Subroutine PRICEL returns:
 Original cell was already a primitive cell.
 

 Routine SETGRP: Setting up the symmetry group for a 
 hexagonal supercell.


 Subroutine GETGRP returns: Found  2 space group operations
 (whereof  1 operations were pure point group operations)
 out of a pool of 24 trial point group operations.


The dynamic configuration has the point symmetry C_1 .
 The point group associated with its full space group is C_1h.


 Subroutine INISYM returns: Found  2 space group operations
 (whereof  1 operations are pure point group operations),
 and found     1 'primitive' translations

 
 
 KPOINTS: k-points 32                             

Automatic generation of k-mesh.
Space group operators:
 irot       det(A)        alpha          n_x          n_y          n_z        tau_x        tau_y        tau_z
    1     1.000000     0.000000     1.000000     0.000000     0.000000     0.000000     0.000000     0.000000
    2    -1.000000   180.000000     0.000000     0.000000     1.000000     0.000000     0.000000     0.500000
 
 Subroutine IBZKPT returns following result:
 ===========================================
 
 Found    514 irreducible k-points:
 
 Following reciprocal coordinates:
            Coordinates               Weight
  0.000000  0.000000  0.000000      1.000000
  0.031250  0.000000  0.000000      2.000000
  0.062500  0.000000  0.000000      2.000000
  0.093750  0.000000  0.000000      2.000000
  0.125000  0.000000  0.000000      2.000000
  0.156250  0.000000  0.000000      2.000000
  0.187500  0.000000  0.000000      2.000000
  0.218750  0.000000  0.000000      2.000000
  0.250000  0.000000  0.000000      2.000000
  0.281250  0.000000  0.000000      2.000000
  0.312500  0.000000  0.000000      2.000000
  0.343750  0.000000  0.000000      2.000000
  0.375000  0.000000  0.000000      2.000000
  0.406250  0.000000  0.000000      2.000000
  0.437500  0.000000  0.000000      2.000000
  0.468750  0.000000  0.000000      2.000000
  0.500000  0.000000  0.000000      1.000000
  0.000000  0.031250  0.000000      2.000000
  0.031250  0.031250  0.000000      2.000000
  0.062500  0.031250  0.000000      2.000000
  0.093750  0.031250  0.000000      2.000000
  0.125000  0.031250  0.000000      2.000000
  0.156250  0.031250  0.000000      2.000000
  0.187500  0.031250  0.000000      2.000000
  0.218750  0.031250  0.000000      2.000000
  0.250000  0.031250  0.000000      2.000000
  0.281250  0.031250  0.000000      2.000000
  0.312500  0.031250  0.000000      2.000000
  0.343750  0.031250  0.000000      2.000000
  0.375000  0.031250  0.000000      2.000000
  0.406250  0.031250  0.000000      2.000000
  0.437500  0.031250  0.000000      2.000000
  0.468750  0.031250  0.000000      2.000000
  0.500000  0.031250  0.000000      2.000000
 -0.468750  0.031250  0.000000      2.000000
 -0.437500  0.031250  0.000000      2.000000
 -0.406250  0.031250  0.000000      2.000000
 -0.375000  0.031250  0.000000      2.000000
 -0.343750  0.031250  0.000000      2.000000
 -0.312500  0.031250  0.000000      2.000000
 -0.281250  0.031250  0.000000      2.000000
 -0.250000  0.031250  0.000000      2.000000
 -0.218750  0.031250  0.000000      2.000000
 -0.187500  0.031250  0.000000      2.000000
 -0.156250  0.031250  0.000000      2.000000
 -0.125000  0.031250  0.000000      2.000000
 -0.093750  0.031250  0.000000      2.000000
 -0.062500  0.031250  0.000000      2.000000
 -0.031250  0.031250  0.000000      2.000000
  0.000000  0.062500  0.000000      2.000000
  0.031250  0.062500  0.000000      2.000000
  0.062500  0.062500  0.000000      2.000000
  0.093750  0.062500  0.000000      2.000000
  0.125000  0.062500  0.000000      2.000000
  0.156250  0.062500  0.000000      2.000000
  0.187500  0.062500  0.000000      2.000000
  0.218750  0.062500  0.000000      2.000000
  0.250000  0.062500  0.000000      2.000000
  0.281250  0.062500  0.000000      2.000000
  0.312500  0.062500  0.000000      2.000000
  0.343750  0.062500  0.000000      2.000000
  0.375000  0.062500  0.000000      2.000000
  0.406250  0.062500  0.000000      2.000000
  0.437500  0.062500  0.000000      2.000000
  0.468750  0.062500  0.000000      2.000000
  0.500000  0.062500  0.000000      2.000000
 -0.468750  0.062500  0.000000      2.000000
 -0.437500  0.062500  0.000000      2.000000
 -0.406250  0.062500  0.000000      2.000000
 -0.375000  0.062500  0.000000      2.000000
 -0.343750  0.062500  0.000000      2.000000
 -0.312500  0.062500  0.000000      2.000000
 -0.281250  0.062500  0.000000      2.000000
 -0.250000  0.062500  0.000000      2.000000
 -0.218750  0.062500  0.000000      2.000000
 -0.187500  0.062500  0.000000      2.000000
 -0.156250  0.062500  0.000000      2.000000
 -0.125000  0.062500  0.000000      2.000000
 -0.093750  0.062500  0.000000      2.000000
 -0.062500  0.062500  0.000000      2.000000
 -0.031250  0.062500  0.000000      2.000000
  0.000000  0.093750  0.000000      2.000000
  0.031250  0.093750  0.000000      2.000000
  0.062500  0.093750  0.000000      2.000000
  0.093750  0.093750  0.000000      2.000000
  0.125000  0.093750  0.000000      2.000000
  0.156250  0.093750  0.000000      2.000000
  0.187500  0.093750  0.000000      2.000000
  0.218750  0.093750  0.000000      2.000000
  0.250000  0.093750  0.000000      2.000000
  0.281250  0.093750  0.000000      2.000000
  0.312500  0.093750  0.000000      2.000000
  0.343750  0.093750  0.000000      2.000000
  0.375000  0.093750  0.000000      2.000000
  0.406250  0.093750  0.000000      2.000000
  0.437500  0.093750  0.000000      2.000000
  0.468750  0.093750  0.000000      2.000000
  0.500000  0.093750  0.000000      2.000000
 -0.468750  0.093750  0.000000      2.000000
 -0.437500  0.093750  0.000000      2.000000
 -0.406250  0.093750  0.000000      2.000000
 -0.375000  0.093750  0.000000      2.000000
 -0.343750  0.093750  0.000000      2.000000
 -0.312500  0.093750  0.000000      2.000000
 -0.281250  0.093750  0.000000      2.000000
 -0.250000  0.093750  0.000000      2.000000
 -0.218750  0.093750  0.000000      2.000000
 -0.187500  0.093750  0.000000      2.000000
 -0.156250  0.093750  0.000000      2.000000
 -0.125000  0.093750  0.000000      2.000000
 -0.093750  0.093750  0.000000      2.000000
 -0.062500  0.093750  0.000000      2.000000
 -0.031250  0.093750  0.000000      2.000000
  0.000000  0.125000  0.000000      2.000000
  0.031250  0.125000  0.000000      2.000000
  0.062500  0.125000  0.000000      2.000000
  0.093750  0.125000  0.000000      2.000000
  0.125000  0.125000  0.000000      2.000000
  0.156250  0.125000  0.000000      2.000000
  0.187500  0.125000  0.000000      2.000000
  0.218750  0.125000  0.000000      2.000000
  0.250000  0.125000  0.000000      2.000000
  0.281250  0.125000  0.000000      2.000000
  0.312500  0.125000  0.000000      2.000000
  0.343750  0.125000  0.000000      2.000000
  0.375000  0.125000  0.000000      2.000000
  0.406250  0.125000  0.000000      2.000000
  0.437500  0.125000  0.000000      2.000000
  0.468750  0.125000  0.000000      2.000000
  0.500000  0.125000  0.000000      2.000000
 -0.468750  0.125000  0.000000      2.000000
 -0.437500  0.125000  0.000000      2.000000
 -0.406250  0.125000  0.000000      2.000000
 -0.375000  0.125000  0.000000      2.000000
 -0.343750  0.125000  0.000000      2.000000
 -0.312500  0.125000  0.000000      2.000000
 -0.281250  0.125000  0.000000      2.000000
 -0.250000  0.125000  0.000000      2.000000
 -0.218750  0.125000  0.000000      2.000000
 -0.187500  0.125000  0.000000      2.000000
 -0.156250  0.125000  0.000000      2.000000
 -0.125000  0.125000  0.000000      2.000000
 -0.093750  0.125000  0.000000      2.000000
 -0.062500  0.125000  0.000000      2.000000
 -0.031250  0.125000  0.000000      2.000000
  0.000000  0.156250  0.000000      2.000000
  0.031250  0.156250  0.000000      2.000000
  0.062500  0.156250  0.000000      2.000000
  0.093750  0.156250  0.000000      2.000000
  0.125000  0.156250  0.000000      2.000000
  0.156250  0.156250  0.000000      2.000000
  0.187500  0.156250  0.000000      2.000000
  0.218750  0.156250  0.000000      2.000000
  0.250000  0.156250  0.000000      2.000000
  0.281250  0.156250  0.000000      2.000000
  0.312500  0.156250  0.000000      2.000000
  0.343750  0.156250  0.000000      2.000000
  0.375000  0.156250  0.000000      2.000000
  0.406250  0.156250  0.000000      2.000000
  0.437500  0.156250  0.000000      2.000000
  0.468750  0.156250  0.000000      2.000000
  0.500000  0.156250  0.000000      2.000000
 -0.468750  0.156250  0.000000      2.000000
 -0.437500  0.156250  0.000000      2.000000
 -0.406250  0.156250  0.000000      2.000000
 -0.375000  0.156250  0.000000      2.000000
 -0.343750  0.156250  0.000000      2.000000
 -0.312500  0.156250  0.000000      2.000000
 -0.281250  0.156250  0.000000      2.000000
 -0.250000  0.156250  0.000000      2.000000
 -0.218750  0.156250  0.000000      2.000000
 -0.187500  0.156250  0.000000      2.000000
 -0.156250  0.156250  0.000000      2.000000
 -0.125000  0.156250  0.000000      2.000000
 -0.093750  0.156250  0.000000      2.000000
 -0.062500  0.156250  0.000000      2.000000
 -0.031250  0.156250  0.000000      2.000000
  0.000000  0.187500  0.000000      2.000000
  0.031250  0.187500  0.000000      2.000000
  0.062500  0.187500  0.000000      2.000000
  0.093750  0.187500  0.000000      2.000000
  0.125000  0.187500  0.000000      2.000000
  0.156250  0.187500  0.000000      2.000000
  0.187500  0.187500  0.000000      2.000000
  0.218750  0.187500  0.000000      2.000000
  0.250000  0.187500  0.000000      2.000000
  0.281250  0.187500  0.000000      2.000000
  0.312500  0.187500  0.000000      2.000000
  0.343750  0.187500  0.000000      2.000000
  0.375000  0.187500  0.000000      2.000000
  0.406250  0.187500  0.000000      2.000000
  0.437500  0.187500  0.000000      2.000000
  0.468750  0.187500  0.000000      2.000000
  0.500000  0.187500  0.000000      2.000000
 -0.468750  0.187500  0.000000      2.000000
 -0.437500  0.187500  0.000000      2.000000
 -0.406250  0.187500  0.000000      2.000000
 -0.375000  0.187500  0.000000      2.000000
 -0.343750  0.187500  0.000000      2.000000
 -0.312500  0.187500  0.000000      2.000000
 -0.281250  0.187500  0.000000      2.000000
 -0.250000  0.187500  0.000000      2.000000
 -0.218750  0.187500  0.000000      2.000000
 -0.187500  0.187500  0.000000      2.000000
 -0.156250  0.187500  0.000000      2.000000
 -0.125000  0.187500  0.000000      2.000000
 -0.093750  0.187500  0.000000      2.000000
 -0.062500  0.187500  0.000000      2.000000
 -0.031250  0.187500  0.000000      2.000000
  0.000000  0.218750  0.000000      2.000000
  0.031250  0.218750  0.000000      2.000000
  0.062500  0.218750  0.000000      2.000000
  0.093750  0.218750  0.000000      2.000000
  0.125000  0.218750  0.000000      2.000000
  0.156250  0.218750  0.000000      2.000000
  0.187500  0.218750  0.000000      2.000000
  0.218750  0.218750  0.000000      2.000000
  0.250000  0.218750  0.000000      2.000000
  0.281250  0.218750  0.000000      2.000000
  0.312500  0.218750  0.000000      2.000000
  0.343750  0.218750  0.000000      2.000000
  0.375000  0.218750  0.000000      2.000000
  0.406250  0.218750  0.000000      2.000000
  0.437500  0.218750  0.000000      2.000000
  0.468750  0.218750  0.000000      2.000000
  0.500000  0.218750  0.000000      2.000000
 -0.468750  0.218750  0.000000      2.000000
 -0.437500  0.218750  0.000000      2.000000
 -0.406250  0.218750  0.000000      2.000000
 -0.375000  0.218750  0.000000      2.000000
 -0.343750  0.218750  0.000000      2.000000
 -0.312500  0.218750  0.000000      2.000000
 -0.281250  0.218750  0.000000      2.000000
 -0.250000  0.218750  0.000000      2.000000
 -0.218750  0.218750  0.000000      2.000000
 -0.187500  0.218750  0.000000      2.000000
 -0.156250  0.218750  0.000000      2.000000
 -0.125000  0.218750  0.000000      2.000000
 -0.093750  0.218750  0.000000      2.000000
 -0.062500  0.218750  0.000000      2.000000
 -0.031250  0.218750  0.000000      2.000000
  0.000000  0.250000  0.000000      2.000000
  0.031250  0.250000  0.000000      2.000000
  0.062500  0.250000  0.000000      2.000000
  0.093750  0.250000  0.000000      2.000000
  0.125000  0.250000  0.000000      2.000000
  0.156250  0.250000  0.000000      2.000000
  0.187500  0.250000  0.000000      2.000000
  0.218750  0.250000  0.000000      2.000000
  0.250000  0.250000  0.000000      2.000000
  0.281250  0.250000  0.000000      2.000000
  0.312500  0.250000  0.000000      2.000000
  0.343750  0.250000  0.000000      2.000000
  0.375000  0.250000  0.000000      2.000000
  0.406250  0.250000  0.000000      2.000000
  0.437500  0.250000  0.000000      2.000000
  0.468750  0.250000  0.000000      2.000000
  0.500000  0.250000  0.000000      2.000000
 -0.468750  0.250000  0.000000      2.000000
 -0.437500  0.250000  0.000000      2.000000
 -0.406250  0.250000  0.000000      2.000000
 -0.375000  0.250000  0.000000      2.000000
 -0.343750  0.250000  0.000000      2.000000
 -0.312500  0.250000  0.000000      2.000000
 -0.281250  0.250000  0.000000      2.000000
 -0.250000  0.250000  0.000000      2.000000
 -0.218750  0.250000  0.000000      2.000000
 -0.187500  0.250000  0.000000      2.000000
 -0.156250  0.250000  0.000000      2.000000
 -0.125000  0.250000  0.000000      2.000000
 -0.093750  0.250000  0.000000      2.000000
 -0.062500  0.250000  0.000000      2.000000
 -0.031250  0.250000  0.000000      2.000000
  0.000000  0.281250  0.000000      2.000000
  0.031250  0.281250  0.000000      2.000000
  0.062500  0.281250  0.000000      2.000000
  0.093750  0.281250  0.000000      2.000000
  0.125000  0.281250  0.000000      2.000000
  0.156250  0.281250  0.000000      2.000000
  0.187500  0.281250  0.000000      2.000000
  0.218750  0.281250  0.000000      2.000000
  0.250000  0.281250  0.000000      2.000000
  0.281250  0.281250  0.000000      2.000000
  0.312500  0.281250  0.000000      2.000000
  0.343750  0.281250  0.000000      2.000000
  0.375000  0.281250  0.000000      2.000000
  0.406250  0.281250  0.000000      2.000000
  0.437500  0.281250  0.000000      2.000000
  0.468750  0.281250  0.000000      2.000000
  0.500000  0.281250  0.000000      2.000000
 -0.468750  0.281250  0.000000      2.000000
 -0.437500  0.281250  0.000000      2.000000
 -0.406250  0.281250  0.000000      2.000000
 -0.375000  0.281250  0.000000      2.000000
 -0.343750  0.281250  0.000000      2.000000
 -0.312500  0.281250  0.000000      2.000000
 -0.281250  0.281250  0.000000      2.000000
 -0.250000  0.281250  0.000000      2.000000
 -0.218750  0.281250  0.000000      2.000000
 -0.187500  0.281250  0.000000      2.000000
 -0.156250  0.281250  0.000000      2.000000
 -0.125000  0.281250  0.000000      2.000000
 -0.093750  0.281250  0.000000      2.000000
 -0.062500  0.281250  0.000000      2.000000
 -0.031250  0.281250  0.000000      2.000000
  0.000000  0.312500  0.000000      2.000000
  0.031250  0.312500  0.000000      2.000000
  0.062500  0.312500  0.000000      2.000000
  0.093750  0.312500  0.000000      2.000000
  0.125000  0.312500  0.000000      2.000000
  0.156250  0.312500  0.000000      2.000000
  0.187500  0.312500  0.000000      2.000000
  0.218750  0.312500  0.000000      2.000000
  0.250000  0.312500  0.000000      2.000000
  0.281250  0.312500  0.000000      2.000000
  0.312500  0.312500  0.000000      2.000000
  0.343750  0.312500  0.000000      2.000000
  0.375000  0.312500  0.000000      2.000000
  0.406250  0.312500  0.000000      2.000000
  0.437500  0.312500  0.000000      2.000000
  0.468750  0.312500  0.000000      2.000000
  0.500000  0.312500  0.000000      2.000000
 -0.468750  0.312500  0.000000      2.000000
 -0.437500  0.312500  0.000000      2.000000
 -0.406250  0.312500  0.000000      2.000000
 -0.375000  0.312500  0.000000      2.000000
 -0.343750  0.312500  0.000000      2.000000
 -0.312500  0.312500  0.000000      2.000000
 -0.281250  0.312500  0.000000      2.000000
 -0.250000  0.312500  0.000000      2.000000
 -0.218750  0.312500  0.000000      2.000000
 -0.187500  0.312500  0.000000      2.000000
 -0.156250  0.312500  0.000000      2.000000
 -0.125000  0.312500  0.000000      2.000000
 -0.093750  0.312500  0.000000      2.000000
 -0.062500  0.312500  0.000000      2.000000
 -0.031250  0.312500  0.000000      2.000000
  0.000000  0.343750  0.000000      2.000000
  0.031250  0.343750  0.000000      2.000000
  0.062500  0.343750  0.000000      2.000000
  0.093750  0.343750  0.000000      2.000000
  0.125000  0.343750  0.000000      2.000000
  0.156250  0.343750  0.000000      2.000000
  0.187500  0.343750  0.000000      2.000000
  0.218750  0.343750  0.000000      2.000000
  0.250000  0.343750  0.000000      2.000000
  0.281250  0.343750  0.000000      2.000000
  0.312500  0.343750  0.000000      2.000000
  0.343750  0.343750  0.000000      2.000000
  0.375000  0.343750  0.000000      2.000000
  0.406250  0.343750  0.000000      2.000000
  0.437500  0.343750  0.000000      2.000000
  0.468750  0.343750  0.000000      2.000000
  0.500000  0.343750  0.000000      2.000000
 -0.468750  0.343750  0.000000      2.000000
 -0.437500  0.343750  0.000000      2.000000
 -0.406250  0.343750  0.000000      2.000000
 -0.375000  0.343750  0.000000      2.000000
 -0.343750  0.343750  0.000000      2.000000
 -0.312500  0.343750  0.000000      2.000000
 -0.281250  0.343750  0.000000      2.000000
 -0.250000  0.343750  0.000000      2.000000
 -0.218750  0.343750  0.000000      2.000000
 -0.187500  0.343750  0.000000      2.000000
 -0.156250  0.343750  0.000000      2.000000
 -0.125000  0.343750  0.000000      2.000000
 -0.093750  0.343750  0.000000      2.000000
 -0.062500  0.343750  0.000000      2.000000
 -0.031250  0.343750  0.000000      2.000000
  0.000000  0.375000  0.000000      2.000000
  0.031250  0.375000  0.000000      2.000000
  0.062500  0.375000  0.000000      2.000000
  0.093750  0.375000  0.000000      2.000000
  0.125000  0.375000  0.000000      2.000000
  0.156250  0.375000  0.000000      2.000000
  0.187500  0.375000  0.000000      2.000000
  0.218750  0.375000  0.000000      2.000000
  0.250000  0.375000  0.000000      2.000000
  0.281250  0.375000  0.000000      2.000000
  0.312500  0.375000  0.000000      2.000000
  0.343750  0.375000  0.000000      2.000000
  0.375000  0.375000  0.000000      2.000000
  0.406250  0.375000  0.000000      2.000000
  0.437500  0.375000  0.000000      2.000000
  0.468750  0.375000  0.000000      2.000000
  0.500000  0.375000  0.000000      2.000000
 -0.468750  0.375000  0.000000      2.000000
 -0.437500  0.375000  0.000000      2.000000
 -0.406250  0.375000  0.000000      2.000000
 -0.375000  0.375000  0.000000      2.000000
 -0.343750  0.375000  0.000000      2.000000
 -0.312500  0.375000  0.000000      2.000000
 -0.281250  0.375000  0.000000      2.000000
 -0.250000  0.375000  0.000000      2.000000
 -0.218750  0.375000  0.000000      2.000000
 -0.187500  0.375000  0.000000      2.000000
 -0.156250  0.375000  0.000000      2.000000
 -0.125000  0.375000  0.000000      2.000000
 -0.093750  0.375000  0.000000      2.000000
 -0.062500  0.375000  0.000000      2.000000
 -0.031250  0.375000  0.000000      2.000000
  0.000000  0.406250  0.000000      2.000000
  0.031250  0.406250  0.000000      2.000000
  0.062500  0.406250  0.000000      2.000000
  0.093750  0.406250  0.000000      2.000000
  0.125000  0.406250  0.000000      2.000000
  0.156250  0.406250  0.000000      2.000000
  0.187500  0.406250  0.000000      2.000000
  0.218750  0.406250  0.000000      2.000000
  0.250000  0.406250  0.000000      2.000000
  0.281250  0.406250  0.000000      2.000000
  0.312500  0.406250  0.000000      2.000000
  0.343750  0.406250  0.000000      2.000000
  0.375000  0.406250  0.000000      2.000000
  0.406250  0.406250  0.000000      2.000000
  0.437500  0.406250  0.000000      2.000000
  0.468750  0.406250  0.000000      2.000000
  0.500000  0.406250  0.000000      2.000000
 -0.468750  0.406250  0.000000      2.000000
 -0.437500  0.406250  0.000000      2.000000
 -0.406250  0.406250  0.000000      2.000000
 -0.375000  0.406250  0.000000      2.000000
 -0.343750  0.406250  0.000000      2.000000
 -0.312500  0.406250  0.000000      2.000000
 -0.281250  0.406250  0.000000      2.000000
 -0.250000  0.406250  0.000000      2.000000
 -0.218750  0.406250  0.000000      2.000000
 -0.187500  0.406250  0.000000      2.000000
 -0.156250  0.406250  0.000000      2.000000
 -0.125000  0.406250  0.000000      2.000000
 -0.093750  0.406250  0.000000      2.000000
 -0.062500  0.406250  0.000000      2.000000
 -0.031250  0.406250  0.000000      2.000000
  0.000000  0.437500  0.000000      2.000000
  0.031250  0.437500  0.000000      2.000000
  0.062500  0.437500  0.000000      2.000000
  0.093750  0.437500  0.000000      2.000000
  0.125000  0.437500  0.000000      2.000000
  0.156250  0.437500  0.000000      2.000000
  0.187500  0.437500  0.000000      2.000000
  0.218750  0.437500  0.000000      2.000000
  0.250000  0.437500  0.000000      2.000000
  0.281250  0.437500  0.000000      2.000000
  0.312500  0.437500  0.000000      2.000000
  0.343750  0.437500  0.000000      2.000000
  0.375000  0.437500  0.000000      2.000000
  0.406250  0.437500  0.000000      2.000000
  0.437500  0.437500  0.000000      2.000000
  0.468750  0.437500  0.000000      2.000000
  0.500000  0.437500  0.000000      2.000000
 -0.468750  0.437500  0.000000      2.000000
 -0.437500  0.437500  0.000000      2.000000
 -0.406250  0.437500  0.000000      2.000000
 -0.375000  0.437500  0.000000      2.000000
 -0.343750  0.437500  0.000000      2.000000
 -0.312500  0.437500  0.000000      2.000000
 -0.281250  0.437500  0.000000      2.000000
 -0.250000  0.437500  0.000000      2.000000
 -0.218750  0.437500  0.000000      2.000000
 -0.187500  0.437500  0.000000      2.000000
 -0.156250  0.437500  0.000000      2.000000
 -0.125000  0.437500  0.000000      2.000000
 -0.093750  0.437500  0.000000      2.000000
 -0.062500  0.437500  0.000000      2.000000
 -0.031250  0.437500  0.000000      2.000000
  0.000000  0.468750  0.000000      2.000000
  0.031250  0.468750  0.000000      2.000000
  0.062500  0.468750  0.000000      2.000000
  0.093750  0.468750  0.000000      2.000000
  0.125000  0.468750  0.000000      2.000000
  0.156250  0.468750  0.000000      2.000000
  0.187500  0.468750  0.000000      2.000000
  0.218750  0.468750  0.000000      2.000000
  0.250000  0.468750  0.000000      2.000000
  0.281250  0.468750  0.000000      2.000000
  0.312500  0.468750  0.000000      2.000000
  0.343750  0.468750  0.000000      2.000000
  0.375000  0.468750  0.000000      2.000000
  0.406250  0.468750  0.000000      2.000000
  0.437500  0.468750  0.000000      2.000000
  0.468750  0.468750  0.000000      2.000000
  0.500000  0.468750  0.000000      2.000000
 -0.468750  0.468750  0.000000      2.000000
 -0.437500  0.468750  0.000000      2.000000
 -0.406250  0.468750  0.000000      2.000000
 -0.375000  0.468750  0.000000      2.000000
 -0.343750  0.468750  0.000000      2.000000
 -0.312500  0.468750  0.000000      2.000000
 -0.281250  0.468750  0.000000      2.000000
 -0.250000  0.468750  0.000000      2.000000
 -0.218750  0.468750  0.000000      2.000000
 -0.187500  0.468750  0.000000      2.000000
 -0.156250  0.468750  0.000000      2.000000
 -0.125000  0.468750  0.000000      2.000000
 -0.093750  0.468750  0.000000      2.000000
 -0.062500  0.468750  0.000000      2.000000
 -0.031250  0.468750  0.000000      2.000000
  0.000000  0.500000  0.000000      1.000000
  0.031250  0.500000  0.000000      2.000000
  0.062500  0.500000  0.000000      2.000000
  0.093750  0.500000  0.000000      2.000000
  0.125000  0.500000  0.000000      2.000000
  0.156250  0.500000  0.000000      2.000000
  0.187500  0.500000  0.000000      2.000000
  0.218750  0.500000  0.000000      2.000000
  0.250000  0.500000  0.000000      2.000000
  0.281250  0.500000  0.000000      2.000000
  0.312500  0.500000  0.000000      2.000000
  0.343750  0.500000  0.000000      2.000000
  0.375000  0.500000  0.000000      2.000000
  0.406250  0.500000  0.000000      2.000000
  0.437500  0.500000  0.000000      2.000000
  0.468750  0.500000  0.000000      2.000000
  0.500000  0.500000  0.000000      1.000000
 
 Following cartesian coordinates:
            Coordinates               Weight
  0.000000  0.000000  0.000000      1.000000
  0.003490  0.006046  0.000000      2.000000
  0.006981  0.012091  0.000000      2.000000
  0.010471  0.018137  0.000000      2.000000
  0.013962  0.024183  0.000000      2.000000
  0.017452  0.030228  0.000000      2.000000
  0.020943  0.036274  0.000000      2.000000
  0.024433  0.042320  0.000000      2.000000
  0.027924  0.048365  0.000000      2.000000
  0.031414  0.054411  0.000000      2.000000
  0.034905  0.060457  0.000000      2.000000
  0.038395  0.066502  0.000000      2.000000
  0.041886  0.072548  0.000000      2.000000
  0.045376  0.078594  0.000000      2.000000
  0.048866  0.084639  0.000000      2.000000
  0.052357  0.090685  0.000000      2.000000
  0.055847  0.096731  0.000000      1.000000
 -0.003490  0.006046  0.000000      2.000000
  0.000000  0.012091  0.000000      2.000000
  0.003490  0.018137  0.000000      2.000000
  0.006981  0.024183  0.000000      2.000000
  0.010471  0.030228  0.000000      2.000000
  0.013962  0.036274  0.000000      2.000000
  0.017452  0.042320  0.000000      2.000000
  0.020943  0.048365  0.000000      2.000000
  0.024433  0.054411  0.000000      2.000000
  0.027924  0.060457  0.000000      2.000000
  0.031414  0.066502  0.000000      2.000000
  0.034905  0.072548  0.000000      2.000000
  0.038395  0.078594  0.000000      2.000000
  0.041886  0.084639  0.000000      2.000000
  0.045376  0.090685  0.000000      2.000000
  0.048866  0.096731  0.000000      2.000000
  0.052357  0.102776  0.000000      2.000000
 -0.055847 -0.084639  0.000000      2.000000
 -0.052357 -0.078594  0.000000      2.000000
 -0.048866 -0.072548  0.000000      2.000000
 -0.045376 -0.066502  0.000000      2.000000
 -0.041886 -0.060457  0.000000      2.000000
 -0.038395 -0.054411  0.000000      2.000000
 -0.034905 -0.048365  0.000000      2.000000
 -0.031414 -0.042320  0.000000      2.000000
 -0.027924 -0.036274  0.000000      2.000000
 -0.024433 -0.030228  0.000000      2.000000
 -0.020943 -0.024183  0.000000      2.000000
 -0.017452 -0.018137  0.000000      2.000000
 -0.013962 -0.012091  0.000000      2.000000
 -0.010471 -0.006046  0.000000      2.000000
 -0.006981  0.000000  0.000000      2.000000
 -0.006981  0.012091  0.000000      2.000000
 -0.003490  0.018137  0.000000      2.000000
  0.000000  0.024183  0.000000      2.000000
  0.003490  0.030228  0.000000      2.000000
  0.006981  0.036274  0.000000      2.000000
  0.010471  0.042320  0.000000      2.000000
  0.013962  0.048365  0.000000      2.000000
  0.017452  0.054411  0.000000      2.000000
  0.020943  0.060457  0.000000      2.000000
  0.024433  0.066502  0.000000      2.000000
  0.027924  0.072548  0.000000      2.000000
  0.031414  0.078594  0.000000      2.000000
  0.034905  0.084639  0.000000      2.000000
  0.038395  0.090685  0.000000      2.000000
  0.041886  0.096731  0.000000      2.000000
  0.045376  0.102776  0.000000      2.000000
  0.048866  0.108822  0.000000      2.000000
 -0.059338 -0.078594  0.000000      2.000000
 -0.055847 -0.072548  0.000000      2.000000
 -0.052357 -0.066502  0.000000      2.000000
 -0.048866 -0.060457  0.000000      2.000000
 -0.045376 -0.054411  0.000000      2.000000
 -0.041886 -0.048365  0.000000      2.000000
 -0.038395 -0.042320  0.000000      2.000000
 -0.034905 -0.036274  0.000000      2.000000
 -0.031414 -0.030228  0.000000      2.000000
 -0.027924 -0.024183  0.000000      2.000000
 -0.024433 -0.018137  0.000000      2.000000
 -0.020943 -0.012091  0.000000      2.000000
 -0.017452 -0.006046  0.000000      2.000000
 -0.013962  0.000000  0.000000      2.000000
 -0.010471  0.006046  0.000000      2.000000
 -0.010471  0.018137  0.000000      2.000000
 -0.006981  0.024183  0.000000      2.000000
 -0.003490  0.030228  0.000000      2.000000
  0.000000  0.036274  0.000000      2.000000
  0.003490  0.042320  0.000000      2.000000
  0.006981  0.048365  0.000000      2.000000
  0.010471  0.054411  0.000000      2.000000
  0.013962  0.060457  0.000000      2.000000
  0.017452  0.066502  0.000000      2.000000
  0.020943  0.072548  0.000000      2.000000
  0.024433  0.078594  0.000000      2.000000
  0.027924  0.084639  0.000000      2.000000
  0.031414  0.090685  0.000000      2.000000
  0.034905  0.096731  0.000000      2.000000
  0.038395  0.102776  0.000000      2.000000
  0.041886  0.108822  0.000000      2.000000
  0.045376  0.114867  0.000000      2.000000
 -0.062828 -0.072548  0.000000      2.000000
 -0.059338 -0.066502  0.000000      2.000000
 -0.055847 -0.060457  0.000000      2.000000
 -0.052357 -0.054411  0.000000      2.000000
 -0.048866 -0.048365  0.000000      2.000000
 -0.045376 -0.042320  0.000000      2.000000
 -0.041886 -0.036274  0.000000      2.000000
 -0.038395 -0.030228  0.000000      2.000000
 -0.034905 -0.024183  0.000000      2.000000
 -0.031414 -0.018137  0.000000      2.000000
 -0.027924 -0.012091  0.000000      2.000000
 -0.024433 -0.006046  0.000000      2.000000
 -0.020943  0.000000  0.000000      2.000000
 -0.017452  0.006046  0.000000      2.000000
 -0.013962  0.012091  0.000000      2.000000
 -0.013962  0.024183  0.000000      2.000000
 -0.010471  0.030228  0.000000      2.000000
 -0.006981  0.036274  0.000000      2.000000
 -0.003490  0.042320  0.000000      2.000000
  0.000000  0.048365  0.000000      2.000000
  0.003490  0.054411  0.000000      2.000000
  0.006981  0.060457  0.000000      2.000000
  0.010471  0.066502  0.000000      2.000000
  0.013962  0.072548  0.000000      2.000000
  0.017452  0.078594  0.000000      2.000000
  0.020943  0.084639  0.000000      2.000000
  0.024433  0.090685  0.000000      2.000000
  0.027924  0.096731  0.000000      2.000000
  0.031414  0.102776  0.000000      2.000000
  0.034905  0.108822  0.000000      2.000000
  0.038395  0.114867  0.000000      2.000000
  0.041886  0.120913  0.000000      2.000000
 -0.066319 -0.066502  0.000000      2.000000
 -0.062828 -0.060457  0.000000      2.000000
 -0.059338 -0.054411  0.000000      2.000000
 -0.055847 -0.048365  0.000000      2.000000
 -0.052357 -0.042320  0.000000      2.000000
 -0.048866 -0.036274  0.000000      2.000000
 -0.045376 -0.030228  0.000000      2.000000
 -0.041886 -0.024183  0.000000      2.000000
 -0.038395 -0.018137  0.000000      2.000000
 -0.034905 -0.012091  0.000000      2.000000
 -0.031414 -0.006046  0.000000      2.000000
 -0.027924  0.000000  0.000000      2.000000
 -0.024433  0.006046  0.000000      2.000000
 -0.020943  0.012091  0.000000      2.000000
 -0.017452  0.018137  0.000000      2.000000
 -0.017452  0.030228  0.000000      2.000000
 -0.013962  0.036274  0.000000      2.000000
 -0.010471  0.042320  0.000000      2.000000
 -0.006981  0.048365  0.000000      2.000000
 -0.003490  0.054411  0.000000      2.000000
  0.000000  0.060457  0.000000      2.000000
  0.003490  0.066502  0.000000      2.000000
  0.006981  0.072548  0.000000      2.000000
  0.010471  0.078594  0.000000      2.000000
  0.013962  0.084639  0.000000      2.000000
  0.017452  0.090685  0.000000      2.000000
  0.020943  0.096731  0.000000      2.000000
  0.024433  0.102776  0.000000      2.000000
  0.027924  0.108822  0.000000      2.000000
  0.031414  0.114867  0.000000      2.000000
  0.034905  0.120913  0.000000      2.000000
  0.038395  0.126959  0.000000      2.000000
 -0.069809 -0.060457  0.000000      2.000000
 -0.066319 -0.054411  0.000000      2.000000
 -0.062828 -0.048365  0.000000      2.000000
 -0.059338 -0.042320  0.000000      2.000000
 -0.055847 -0.036274  0.000000      2.000000
 -0.052357 -0.030228  0.000000      2.000000
 -0.048866 -0.024183  0.000000      2.000000
 -0.045376 -0.018137  0.000000      2.000000
 -0.041886 -0.012091  0.000000      2.000000
 -0.038395 -0.006046  0.000000      2.000000
 -0.034905  0.000000  0.000000      2.000000
 -0.031414  0.006046  0.000000      2.000000
 -0.027924  0.012091  0.000000      2.000000
 -0.024433  0.018137  0.000000      2.000000
 -0.020943  0.024183  0.000000      2.000000
 -0.020943  0.036274  0.000000      2.000000
 -0.017452  0.042320  0.000000      2.000000
 -0.013962  0.048365  0.000000      2.000000
 -0.010471  0.054411  0.000000      2.000000
 -0.006981  0.060457  0.000000      2.000000
 -0.003490  0.066502  0.000000      2.000000
  0.000000  0.072548  0.000000      2.000000
  0.003490  0.078594  0.000000      2.000000
  0.006981  0.084639  0.000000      2.000000
  0.010471  0.090685  0.000000      2.000000
  0.013962  0.096731  0.000000      2.000000
  0.017452  0.102776  0.000000      2.000000
  0.020943  0.108822  0.000000      2.000000
  0.024433  0.114867  0.000000      2.000000
  0.027924  0.120913  0.000000      2.000000
  0.031414  0.126959  0.000000      2.000000
  0.034905  0.133004  0.000000      2.000000
 -0.073300 -0.054411  0.000000      2.000000
 -0.069809 -0.048365  0.000000      2.000000
 -0.066319 -0.042320  0.000000      2.000000
 -0.062828 -0.036274  0.000000      2.000000
 -0.059338 -0.030228  0.000000      2.000000
 -0.055847 -0.024183  0.000000      2.000000
 -0.052357 -0.018137  0.000000      2.000000
 -0.048866 -0.012091  0.000000      2.000000
 -0.045376 -0.006046  0.000000      2.000000
 -0.041886  0.000000  0.000000      2.000000
 -0.038395  0.006046  0.000000      2.000000
 -0.034905  0.012091  0.000000      2.000000
 -0.031414  0.018137  0.000000      2.000000
 -0.027924  0.024183  0.000000      2.000000
 -0.024433  0.030228  0.000000      2.000000
 -0.024433  0.042320  0.000000      2.000000
 -0.020943  0.048365  0.000000      2.000000
 -0.017452  0.054411  0.000000      2.000000
 -0.013962  0.060457  0.000000      2.000000
 -0.010471  0.066502  0.000000      2.000000
 -0.006981  0.072548  0.000000      2.000000
 -0.003490  0.078594  0.000000      2.000000
  0.000000  0.084639  0.000000      2.000000
  0.003490  0.090685  0.000000      2.000000
  0.006981  0.096731  0.000000      2.000000
  0.010471  0.102776  0.000000      2.000000
  0.013962  0.108822  0.000000      2.000000
  0.017452  0.114867  0.000000      2.000000
  0.020943  0.120913  0.000000      2.000000
  0.024433  0.126959  0.000000      2.000000
  0.027924  0.133004  0.000000      2.000000
  0.031414  0.139050  0.000000      2.000000
 -0.076790 -0.048365  0.000000      2.000000
 -0.073300 -0.042320  0.000000      2.000000
 -0.069809 -0.036274  0.000000      2.000000
 -0.066319 -0.030228  0.000000      2.000000
 -0.062828 -0.024183  0.000000      2.000000
 -0.059338 -0.018137  0.000000      2.000000
 -0.055847 -0.012091  0.000000      2.000000
 -0.052357 -0.006046  0.000000      2.000000
 -0.048866  0.000000  0.000000      2.000000
 -0.045376  0.006046  0.000000      2.000000
 -0.041886  0.012091  0.000000      2.000000
 -0.038395  0.018137  0.000000      2.000000
 -0.034905  0.024183  0.000000      2.000000
 -0.031414  0.030228  0.000000      2.000000
 -0.027924  0.036274  0.000000      2.000000
 -0.027924  0.048365  0.000000      2.000000
 -0.024433  0.054411  0.000000      2.000000
 -0.020943  0.060457  0.000000      2.000000
 -0.017452  0.066502  0.000000      2.000000
 -0.013962  0.072548  0.000000      2.000000
 -0.010471  0.078594  0.000000      2.000000
 -0.006981  0.084639  0.000000      2.000000
 -0.003490  0.090685  0.000000      2.000000
  0.000000  0.096731  0.000000      2.000000
  0.003490  0.102776  0.000000      2.000000
  0.006981  0.108822  0.000000      2.000000
  0.010471  0.114867  0.000000      2.000000
  0.013962  0.120913  0.000000      2.000000
  0.017452  0.126959  0.000000      2.000000
  0.020943  0.133004  0.000000      2.000000
  0.024433  0.139050  0.000000      2.000000
  0.027924  0.145096  0.000000      2.000000
 -0.080281 -0.042320  0.000000      2.000000
 -0.076790 -0.036274  0.000000      2.000000
 -0.073300 -0.030228  0.000000      2.000000
 -0.069809 -0.024183  0.000000      2.000000
 -0.066319 -0.018137  0.000000      2.000000
 -0.062828 -0.012091  0.000000      2.000000
 -0.059338 -0.006046  0.000000      2.000000
 -0.055847  0.000000  0.000000      2.000000
 -0.052357  0.006046  0.000000      2.000000
 -0.048866  0.012091  0.000000      2.000000
 -0.045376  0.018137  0.000000      2.000000
 -0.041886  0.024183  0.000000      2.000000
 -0.038395  0.030228  0.000000      2.000000
 -0.034905  0.036274  0.000000      2.000000
 -0.031414  0.042320  0.000000      2.000000
 -0.031414  0.054411  0.000000      2.000000
 -0.027924  0.060457  0.000000      2.000000
 -0.024433  0.066502  0.000000      2.000000
 -0.020943  0.072548  0.000000      2.000000
 -0.017452  0.078594  0.000000      2.000000
 -0.013962  0.084639  0.000000      2.000000
 -0.010471  0.090685  0.000000      2.000000
 -0.006981  0.096731  0.000000      2.000000
 -0.003490  0.102776  0.000000      2.000000
  0.000000  0.108822  0.000000      2.000000
  0.003490  0.114867  0.000000      2.000000
  0.006981  0.120913  0.000000      2.000000
  0.010471  0.126959  0.000000      2.000000
  0.013962  0.133004  0.000000      2.000000
  0.017452  0.139050  0.000000      2.000000
  0.020943  0.145096  0.000000      2.000000
  0.024433  0.151141  0.000000      2.000000
 -0.083771 -0.036274  0.000000      2.000000
 -0.080281 -0.030228  0.000000      2.000000
 -0.076790 -0.024183  0.000000      2.000000
 -0.073300 -0.018137  0.000000      2.000000
 -0.069809 -0.012091  0.000000      2.000000
 -0.066319 -0.006046  0.000000      2.000000
 -0.062828  0.000000  0.000000      2.000000
 -0.059338  0.006046  0.000000      2.000000
 -0.055847  0.012091  0.000000      2.000000
 -0.052357  0.018137  0.000000      2.000000
 -0.048866  0.024183  0.000000      2.000000
 -0.045376  0.030228  0.000000      2.000000
 -0.041886  0.036274  0.000000      2.000000
 -0.038395  0.042320  0.000000      2.000000
 -0.034905  0.048365  0.000000      2.000000
 -0.034905  0.060457  0.000000      2.000000
 -0.031414  0.066502  0.000000      2.000000
 -0.027924  0.072548  0.000000      2.000000
 -0.024433  0.078594  0.000000      2.000000
 -0.020943  0.084639  0.000000      2.000000
 -0.017452  0.090685  0.000000      2.000000
 -0.013962  0.096731  0.000000      2.000000
 -0.010471  0.102776  0.000000      2.000000
 -0.006981  0.108822  0.000000      2.000000
 -0.003490  0.114867  0.000000      2.000000
  0.000000  0.120913  0.000000      2.000000
  0.003490  0.126959  0.000000      2.000000
  0.006981  0.133004  0.000000      2.000000
  0.010471  0.139050  0.000000      2.000000
  0.013962  0.145096  0.000000      2.000000
  0.017452  0.151141  0.000000      2.000000
  0.020943  0.157187  0.000000      2.000000
 -0.087262 -0.030228  0.000000      2.000000
 -0.083771 -0.024183  0.000000      2.000000
 -0.080281 -0.018137  0.000000      2.000000
 -0.076790 -0.012091  0.000000      2.000000
 -0.073300 -0.006046  0.000000      2.000000
 -0.069809  0.000000  0.000000      2.000000
 -0.066319  0.006046  0.000000      2.000000
 -0.062828  0.012091  0.000000      2.000000
 -0.059338  0.018137  0.000000      2.000000
 -0.055847  0.024183  0.000000      2.000000
 -0.052357  0.030228  0.000000      2.000000
 -0.048866  0.036274  0.000000      2.000000
 -0.045376  0.042320  0.000000      2.000000
 -0.041886  0.048365  0.000000      2.000000
 -0.038395  0.054411  0.000000      2.000000
 -0.038395  0.066502  0.000000      2.000000
 -0.034905  0.072548  0.000000      2.000000
 -0.031414  0.078594  0.000000      2.000000
 -0.027924  0.084639  0.000000      2.000000
 -0.024433  0.090685  0.000000      2.000000
 -0.020943  0.096731  0.000000      2.000000
 -0.017452  0.102776  0.000000      2.000000
 -0.013962  0.108822  0.000000      2.000000
 -0.010471  0.114867  0.000000      2.000000
 -0.006981  0.120913  0.000000      2.000000
 -0.003490  0.126959  0.000000      2.000000
  0.000000  0.133004  0.000000      2.000000
  0.003490  0.139050  0.000000      2.000000
  0.006981  0.145096  0.000000      2.000000
  0.010471  0.151141  0.000000      2.000000
  0.013962  0.157187  0.000000      2.000000
  0.017452  0.163233  0.000000      2.000000
 -0.090752 -0.024183  0.000000      2.000000
 -0.087262 -0.018137  0.000000      2.000000
 -0.083771 -0.012091  0.000000      2.000000
 -0.080281 -0.006046  0.000000      2.000000
 -0.076790  0.000000  0.000000      2.000000
 -0.073300  0.006046  0.000000      2.000000
 -0.069809  0.012091  0.000000      2.000000
 -0.066319  0.018137  0.000000      2.000000
 -0.062828  0.024183  0.000000      2.000000
 -0.059338  0.030228  0.000000      2.000000
 -0.055847  0.036274  0.000000      2.000000
 -0.052357  0.042320  0.000000      2.000000
 -0.048866  0.048365  0.000000      2.000000
 -0.045376  0.054411  0.000000      2.000000
 -0.041886  0.060457  0.000000      2.000000
 -0.041886  0.072548  0.000000      2.000000
 -0.038395  0.078594  0.000000      2.000000
 -0.034905  0.084639  0.000000      2.000000
 -0.031414  0.090685  0.000000      2.000000
 -0.027924  0.096731  0.000000      2.000000
 -0.024433  0.102776  0.000000      2.000000
 -0.020943  0.108822  0.000000      2.000000
 -0.017452  0.114867  0.000000      2.000000
 -0.013962  0.120913  0.000000      2.000000
 -0.010471  0.126959  0.000000      2.000000
 -0.006981  0.133004  0.000000      2.000000
 -0.003490  0.139050  0.000000      2.000000
  0.000000  0.145096  0.000000      2.000000
  0.003490  0.151141  0.000000      2.000000
  0.006981  0.157187  0.000000      2.000000
  0.010471  0.163233  0.000000      2.000000
  0.013962  0.169278  0.000000      2.000000
 -0.094242 -0.018137  0.000000      2.000000
 -0.090752 -0.012091  0.000000      2.000000
 -0.087262 -0.006046  0.000000      2.000000
 -0.083771  0.000000  0.000000      2.000000
 -0.080281  0.006046  0.000000      2.000000
 -0.076790  0.012091  0.000000      2.000000
 -0.073300  0.018137  0.000000      2.000000
 -0.069809  0.024183  0.000000      2.000000
 -0.066319  0.030228  0.000000      2.000000
 -0.062828  0.036274  0.000000      2.000000
 -0.059338  0.042320  0.000000      2.000000
 -0.055847  0.048365  0.000000      2.000000
 -0.052357  0.054411  0.000000      2.000000
 -0.048866  0.060457  0.000000      2.000000
 -0.045376  0.066502  0.000000      2.000000
 -0.045376  0.078594  0.000000      2.000000
 -0.041886  0.084639  0.000000      2.000000
 -0.038395  0.090685  0.000000      2.000000
 -0.034905  0.096731  0.000000      2.000000
 -0.031414  0.102776  0.000000      2.000000
 -0.027924  0.108822  0.000000      2.000000
 -0.024433  0.114867  0.000000      2.000000
 -0.020943  0.120913  0.000000      2.000000
 -0.017452  0.126959  0.000000      2.000000
 -0.013962  0.133004  0.000000      2.000000
 -0.010471  0.139050  0.000000      2.000000
 -0.006981  0.145096  0.000000      2.000000
 -0.003490  0.151141  0.000000      2.000000
  0.000000  0.157187  0.000000      2.000000
  0.003490  0.163233  0.000000      2.000000
  0.006981  0.169278  0.000000      2.000000
  0.010471  0.175324  0.000000      2.000000
 -0.097733 -0.012091  0.000000      2.000000
 -0.094242 -0.006046  0.000000      2.000000
 -0.090752  0.000000  0.000000      2.000000
 -0.087262  0.006046  0.000000      2.000000
 -0.083771  0.012091  0.000000      2.000000
 -0.080281  0.018137  0.000000      2.000000
 -0.076790  0.024183  0.000000      2.000000
 -0.073300  0.030228  0.000000      2.000000
 -0.069809  0.036274  0.000000      2.000000
 -0.066319  0.042320  0.000000      2.000000
 -0.062828  0.048365  0.000000      2.000000
 -0.059338  0.054411  0.000000      2.000000
 -0.055847  0.060457  0.000000      2.000000
 -0.052357  0.066502  0.000000      2.000000
 -0.048866  0.072548  0.000000      2.000000
 -0.048866  0.084639  0.000000      2.000000
 -0.045376  0.090685  0.000000      2.000000
 -0.041886  0.096731  0.000000      2.000000
 -0.038395  0.102776  0.000000      2.000000
 -0.034905  0.108822  0.000000      2.000000
 -0.031414  0.114867  0.000000      2.000000
 -0.027924  0.120913  0.000000      2.000000
 -0.024433  0.126959  0.000000      2.000000
 -0.020943  0.133004  0.000000      2.000000
 -0.017452  0.139050  0.000000      2.000000
 -0.013962  0.145096  0.000000      2.000000
 -0.010471  0.151141  0.000000      2.000000
 -0.006981  0.157187  0.000000      2.000000
 -0.003490  0.163233  0.000000      2.000000
  0.000000  0.169278  0.000000      2.000000
  0.003490  0.175324  0.000000      2.000000
  0.006981  0.181370  0.000000      2.000000
 -0.101223 -0.006046  0.000000      2.000000
 -0.097733  0.000000  0.000000      2.000000
 -0.094242  0.006046  0.000000      2.000000
 -0.090752  0.012091  0.000000      2.000000
 -0.087262  0.018137  0.000000      2.000000
 -0.083771  0.024183  0.000000      2.000000
 -0.080281  0.030228  0.000000      2.000000
 -0.076790  0.036274  0.000000      2.000000
 -0.073300  0.042320  0.000000      2.000000
 -0.069809  0.048365  0.000000      2.000000
 -0.066319  0.054411  0.000000      2.000000
 -0.062828  0.060457  0.000000      2.000000
 -0.059338  0.066502  0.000000      2.000000
 -0.055847  0.072548  0.000000      2.000000
 -0.052357  0.078594  0.000000      2.000000
 -0.052357  0.090685  0.000000      2.000000
 -0.048866  0.096731  0.000000      2.000000
 -0.045376  0.102776  0.000000      2.000000
 -0.041886  0.108822  0.000000      2.000000
 -0.038395  0.114867  0.000000      2.000000
 -0.034905  0.120913  0.000000      2.000000
 -0.031414  0.126959  0.000000      2.000000
 -0.027924  0.133004  0.000000      2.000000
 -0.024433  0.139050  0.000000      2.000000
 -0.020943  0.145096  0.000000      2.000000
 -0.017452  0.151141  0.000000      2.000000
 -0.013962  0.157187  0.000000      2.000000
 -0.010471  0.163233  0.000000      2.000000
 -0.006981  0.169278  0.000000      2.000000
 -0.003490  0.175324  0.000000      2.000000
  0.000000  0.181370  0.000000      2.000000
  0.003490  0.187415  0.000000      2.000000
 -0.104714  0.000000  0.000000      2.000000
 -0.101223  0.006046  0.000000      2.000000
 -0.097733  0.012091  0.000000      2.000000
 -0.094242  0.018137  0.000000      2.000000
 -0.090752  0.024183  0.000000      2.000000
 -0.087262  0.030228  0.000000      2.000000
 -0.083771  0.036274  0.000000      2.000000
 -0.080281  0.042320  0.000000      2.000000
 -0.076790  0.048365  0.000000      2.000000
 -0.073300  0.054411  0.000000      2.000000
 -0.069809  0.060457  0.000000      2.000000
 -0.066319  0.066502  0.000000      2.000000
 -0.062828  0.072548  0.000000      2.000000
 -0.059338  0.078594  0.000000      2.000000
 -0.055847  0.084639  0.000000      2.000000
 -0.055847  0.096731  0.000000      1.000000
 -0.052357  0.102776  0.000000      2.000000
 -0.048866  0.108822  0.000000      2.000000
 -0.045376  0.114867  0.000000      2.000000
 -0.041886  0.120913  0.000000      2.000000
 -0.038395  0.126959  0.000000      2.000000
 -0.034905  0.133004  0.000000      2.000000
 -0.031414  0.139050  0.000000      2.000000
 -0.027924  0.145096  0.000000      2.000000
 -0.024433  0.151141  0.000000      2.000000
 -0.020943  0.157187  0.000000      2.000000
 -0.017452  0.163233  0.000000      2.000000
 -0.013962  0.169278  0.000000      2.000000
 -0.010471  0.175324  0.000000      2.000000
 -0.006981  0.181370  0.000000      2.000000
 -0.003490  0.187415  0.000000      2.000000
  0.000000  0.193461  0.000000      1.000000
 


--------------------------------------------------------------------------------------------------------




 Dimension of arrays:
   k-points           NKPTS =    514   k-points in BZ     NKDIM =    514   number of bands    NBANDS=     32
   number of dos      NEDOS =    301   number of ions     NIONS =      8
   non local maximal  LDIM  =      4   non local SUM 2l+1 LMDIM =      8
   total plane-waves  NPLWV = 139968
   max r-space proj   IRMAX =      1   max aug-charges    IRDMAX=   6487
   dimension x,y,z NGX =    36 NGY =   36 NGZ =  108
   dimension x,y,z NGXF=    72 NGYF=   72 NGZF=  216
   support grid    NGXF=    72 NGYF=   72 NGZF=  216
   ions per type =               2   6
   NGX,Y,Z   is equivalent  to a cutoff of  11.58, 11.58, 11.97 a.u.
   NGXF,Y,Z  is equivalent  to a cutoff of  23.16, 23.16, 23.94 a.u.

 SYSTEM =  BC3                                     
 POSCAR =  BC3 with lattice parameter 5.169        

 Startparameter for this run:
   NWRITE =      2    write-flag & timer
   PREC   = accura    normal or accurate (medium, high low for compatibility)
   ISTART =      0    job   : 0-new  1-cont  2-samecut
   ICHARG =      2    charge: 1-file 2-atom 10-const
   ISPIN  =      1    spin polarized calculation?
   LNONCOLLINEAR =      F non collinear calculations
   LSORBIT =      F    spin-orbit coupling
   INIWAV =      1    electr: 0-lowe 1-rand  2-diag
   LASPH  =      F    aspherical Exc in radial PAW
   METAGGA=      F    non-selfconsistent MetaGGA calc.

 Electronic Relaxation 1
   ENCUT  =  450.0 eV  33.07 Ry    5.75 a.u.   8.94  8.94 25.95*2*pi/ulx,y,z
   ENINI  =  450.0     initial cutoff
   ENAUG  =  644.9 eV  augmentation charge cutoff
   NELM   =     60;   NELMIN=  2; NELMDL= -5     # of ELM steps 
   EDIFF  = 0.1E-05   stopping-criterion for ELM
   LREAL  =      F    real-space projection
   NLSPLINE    = F    spline interpolate recip. space projectors
   LCOMPAT=      F    compatible to vasp.4.4
   GGA_COMPAT  = T    GGA compatible to vasp.4.4-vasp.4.6
   LMAXPAW     = -100 max onsite density
   LMAXMIX     =    2 max onsite mixed and CHGCAR
   VOSKOWN=      0    Vosko Wilk Nusair interpolation
   ROPT   =    0.00000   0.00000
 Ionic relaxation
   EDIFFG = -.1E-01   stopping-criterion for IOM
   NSW    =    100    number of steps for IOM
   NBLOCK =      1;   KBLOCK =    100    inner block; outer block 
   IBRION =      2    ionic relax: 0-MD 1-quasi-New 2-CG
   NFREE  =      1    steps in history (QN), initial steepest desc. (CG)
   ISIF   =      2    stress and relaxation
   IWAVPR =     11    prediction:  0-non 1-charg 2-wave 3-comb
   ISYM   =      2    0-nonsym 1-usesym 2-fastsym
   LCORR  =      T    Harris-Foulkes like correction to forces

   POTIM  = 0.5000    time-step for ionic-motion
   TEIN   =    0.0    initial temperature
   TEBEG  =    0.0;   TEEND  =   0.0 temperature during run
   SMASS  =  -3.00    Nose mass-parameter (am)
   estimated Nose-frequenzy (Omega)   =  0.10E-29 period in steps =****** mass=  -0.611E-27a.u.
   SCALEE = 1.0000    scale energy and forces
   NPACO  =    256;   APACO  = 16.0  distance and # of slots for P.C.
   PSTRESS=    0.0 pullay stress

  Mass of Ions in am
   POMASS =  10.81 12.01
  Ionic Valenz
   ZVAL   =   3.00  4.00
  Atomic Wigner-Seitz radii
   RWIGS  =  -1.00 -1.00
  virtual crystal weights 
   VCA    =   1.00  1.00
   NELECT =      30.0000    total number of electrons
   NUPDOWN=      -1.0000    fix difference up-down

 DOS related values:
   EMIN   =  10.00;   EMAX   =-10.00  energy-range for DOS
   EFERMI =   0.00
   ISMEAR =     0;   SIGMA  =   0.10  broadening in eV -4-tet -1-fermi 0-gaus

 Electronic relaxation 2 (details)
   IALGO  =     38    algorithm
   LDIAG  =      T    sub-space diagonalisation (order eigenvalues)
   LSUBROT=      F    optimize rotation matrix (better conditioning)
   TURBO    =      0    0=normal 1=particle mesh
   IRESTART =      0    0=no restart 2=restart with 2 vectors
   NREBOOT  =      0    no. of reboots
   NMIN     =      0    reboot dimension
   EREF     =   0.00    reference energy to select bands
   IMIX   =      4    mixing-type and parameters
     AMIX     =   0.40;   BMIX     =  1.00
     AMIX_MAG =   1.60;   BMIX_MAG =  1.00
     AMIN     =   0.10
     WC   =   100.;   INIMIX=   1;  MIXPRE=   1;  MAXMIX= -45

 Intra band minimization:
   WEIMIN = 0.0010     energy-eigenvalue tresh-hold
   EBREAK =  0.78E-08  absolut break condition
   DEPER  =   0.30     relativ break condition  

   TIME   =   0.40     timestep for ELM

  volume/ion in A,a.u.               =      43.39       292.78
  Fermi-wavevector in a.u.,A,eV,Ry     =   0.723831  1.367842  7.128511  0.523931
  Thomas-Fermi vector in A             =   1.814147
 
 Write flags
   LWAVE        =      F    write WAVECAR
   LDOWNSAMPLE  =      F    k-point downsampling of WAVECAR
   LCHARG       =      F    write CHGCAR
   LVTOT        =      F    write LOCPOT, total local potential
   LVHAR        =      F    write LOCPOT, Hartree potential only
   LELF         =      F    write electronic localiz. function (ELF)
   LORBIT       =      0    0 simple, 1 ext, 2 COOP (PROOUT), +10 PAW based schemes


 Dipole corrections
   LMONO  =      F    monopole corrections only (constant potential shift)
   LDIPOL =      F    correct potential (dipole corrections)
   IDIPOL =      0    1-x, 2-y, 3-z, 4-all directions 
   EPSILON=  1.0000000 bulk dielectric constant

 Exchange correlation treatment:
   GGA     =    PE    GGA type
   LEXCH   =     8    internal setting for exchange type
   VOSKOWN=      0    Vosko Wilk Nusair interpolation
   LHFCALC =     F    Hartree Fock is set to
   LHFONE  =     F    Hartree Fock one center treatment
   AEXX    =    0.0000 exact exchange contribution

 Linear response parameters
   LEPSILON=     F    determine dielectric tensor
   LRPA    =     F    only Hartree local field effects (RPA)
   LNABLA  =     F    use nabla operator in PAW spheres
   LVEL    =     F    velocity operator in full k-point grid
   LINTERFAST=   F  fast interpolation
   KINTER  =     0    interpolate to denser k-point grid
   CSHIFT  =0.1000    complex shift for real part using Kramers Kronig
   OMEGAMAX=  -1.0    maximum frequency
   DEG_THRESHOLD= 0.2000000E-02 threshold for treating states as degnerate
   RTIME   =   -0.100 relaxation time in fs
  (WPLASMAI=    0.000 imaginary part of plasma frequency in eV, 0.658/RTIME)
   DFIELD  = 0.0000000 0.0000000 0.0000000 field for delta impulse in time
 
 Orbital magnetization related:
   ORBITALMAG=     F  switch on orbital magnetization
   LCHIMAG   =     F  perturbation theory with respect to B field
   DQ        =  0.001000  dq finite difference perturbation B field
   LLRAUG    =     F  two centre corrections for induced B field



--------------------------------------------------------------------------------------------------------


 conjugate gradient relaxation of ions
 charge density and potential will be updated during run
 non-spin polarized calculation
 Variant of blocked Davidson
 Davidson routine will perform the subspace rotation
 perform sub-space diagonalisation
    after iterative eigenvector-optimisation
 modified Broyden-mixing scheme, WC =      100.0
 initial mixing is a Kerker type mixing with AMIX =  0.4000 and BMIX =      1.0000
 Hartree-type preconditioning will be used
 using additional bands           17
 reciprocal scheme for non local part
 use partial core corrections
 calculate Harris-corrections to forces 
   (improved forces if not selfconsistent)
 use gradient corrections 
 use of overlap-Matrix (Vanderbilt PP)
 Gauss-broadening in eV      SIGMA  =   0.10


--------------------------------------------------------------------------------------------------------


  energy-cutoff  :      450.00
  volume of cell :      347.08
      direct lattice vectors                 reciprocal lattice vectors
     4.476485000  2.584500000  0.000000000     0.111694778  0.193461018  0.000000000
    -4.476485000  2.584500000  0.000000000    -0.111694778  0.193461018  0.000000000
     0.000000000  0.000000000 15.000000000     0.000000000  0.000000000  0.066666667

  length of vectors
     5.168999730  5.168999730 15.000000000     0.223389545  0.223389545  0.066666667


 
 k-points in units of 2pi/SCALE and weight: k-points 32                             
   0.00000000  0.00000000  0.00000000       0.001
   0.00349046  0.00604566  0.00000000       0.002
   0.00698092  0.01209131  0.00000000       0.002
   0.01047139  0.01813697  0.00000000       0.002
   0.01396185  0.02418263  0.00000000       0.002
   0.01745231  0.03022828  0.00000000       0.002
   0.02094277  0.03627394  0.00000000       0.002
   0.02443323  0.04231960  0.00000000       0.002
   0.02792369  0.04836525  0.00000000       0.002
   0.03141416  0.05441091  0.00000000       0.002
   0.03490462  0.06045657  0.00000000       0.002
   0.03839508  0.06650222  0.00000000       0.002
   0.04188554  0.07254788  0.00000000       0.002
   0.04537600  0.07859354  0.00000000       0.002
   0.04886647  0.08463920  0.00000000       0.002
   0.05235693  0.09068485  0.00000000       0.002
   0.05584739  0.09673051  0.00000000       0.001
  -0.00349046  0.00604566  0.00000000       0.002
   0.00000000  0.01209131  0.00000000       0.002
   0.00349046  0.01813697  0.00000000       0.002
   0.00698092  0.02418263  0.00000000       0.002
   0.01047139  0.03022828  0.00000000       0.002
   0.01396185  0.03627394  0.00000000       0.002
   0.01745231  0.04231960  0.00000000       0.002
   0.02094277  0.04836525  0.00000000       0.002
   0.02443323  0.05441091  0.00000000       0.002
   0.02792369  0.06045657  0.00000000       0.002
   0.03141416  0.06650222  0.00000000       0.002
   0.03490462  0.07254788  0.00000000       0.002
   0.03839508  0.07859354  0.00000000       0.002
   0.04188554  0.08463920  0.00000000       0.002
   0.04537600  0.09068485  0.00000000       0.002
   0.04886647  0.09673051  0.00000000       0.002
   0.05235693  0.10277617  0.00000000       0.002
  -0.05584739 -0.08463920  0.00000000       0.002
  -0.05235693 -0.07859354  0.00000000       0.002
  -0.04886647 -0.07254788  0.00000000       0.002
  -0.04537600 -0.06650222  0.00000000       0.002
  -0.04188554 -0.06045657  0.00000000       0.002
  -0.03839508 -0.05441091  0.00000000       0.002
  -0.03490462 -0.04836525  0.00000000       0.002
  -0.03141416 -0.04231960  0.00000000       0.002
  -0.02792369 -0.03627394  0.00000000       0.002
  -0.02443323 -0.03022828  0.00000000       0.002
  -0.02094277 -0.02418263  0.00000000       0.002
  -0.01745231 -0.01813697  0.00000000       0.002
  -0.01396185 -0.01209131  0.00000000       0.002
  -0.01047139 -0.00604566  0.00000000       0.002
  -0.00698092  0.00000000  0.00000000       0.002
  -0.00698092  0.01209131  0.00000000       0.002
  -0.00349046  0.01813697  0.00000000       0.002
   0.00000000  0.02418263  0.00000000       0.002
   0.00349046  0.03022828  0.00000000       0.002
   0.00698092  0.03627394  0.00000000       0.002
   0.01047139  0.04231960  0.00000000       0.002
   0.01396185  0.04836525  0.00000000       0.002
   0.01745231  0.05441091  0.00000000       0.002
   0.02094277  0.06045657  0.00000000       0.002
   0.02443323  0.06650222  0.00000000       0.002
   0.02792369  0.07254788  0.00000000       0.002
   0.03141416  0.07859354  0.00000000       0.002
   0.03490462  0.08463920  0.00000000       0.002
   0.03839508  0.09068485  0.00000000       0.002
   0.04188554  0.09673051  0.00000000       0.002
   0.04537600  0.10277617  0.00000000       0.002
   0.04886647  0.10882182  0.00000000       0.002
  -0.05933785 -0.07859354  0.00000000       0.002
  -0.05584739 -0.07254788  0.00000000       0.002
  -0.05235693 -0.06650222  0.00000000       0.002
  -0.04886647 -0.06045657  0.00000000       0.002
  -0.04537600 -0.05441091  0.00000000       0.002
  -0.04188554 -0.04836525  0.00000000       0.002
  -0.03839508 -0.04231960  0.00000000       0.002
  -0.03490462 -0.03627394  0.00000000       0.002
  -0.03141416 -0.03022828  0.00000000       0.002
  -0.02792369 -0.02418263  0.00000000       0.002
  -0.02443323 -0.01813697  0.00000000       0.002
  -0.02094277 -0.01209131  0.00000000       0.002
  -0.01745231 -0.00604566  0.00000000       0.002
  -0.01396185  0.00000000  0.00000000       0.002
  -0.01047139  0.00604566  0.00000000       0.002
  -0.01047139  0.01813697  0.00000000       0.002
  -0.00698092  0.02418263  0.00000000       0.002
  -0.00349046  0.03022828  0.00000000       0.002
   0.00000000  0.03627394  0.00000000       0.002
   0.00349046  0.04231960  0.00000000       0.002
   0.00698092  0.04836525  0.00000000       0.002
   0.01047139  0.05441091  0.00000000       0.002
   0.01396185  0.06045657  0.00000000       0.002
   0.01745231  0.06650222  0.00000000       0.002
   0.02094277  0.07254788  0.00000000       0.002
   0.02443323  0.07859354  0.00000000       0.002
   0.02792369  0.08463920  0.00000000       0.002
   0.03141416  0.09068485  0.00000000       0.002
   0.03490462  0.09673051  0.00000000       0.002
   0.03839508  0.10277617  0.00000000       0.002
   0.04188554  0.10882182  0.00000000       0.002
   0.04537600  0.11486748  0.00000000       0.002
  -0.06282831 -0.07254788  0.00000000       0.002
  -0.05933785 -0.06650222  0.00000000       0.002
  -0.05584739 -0.06045657  0.00000000       0.002
  -0.05235693 -0.05441091  0.00000000       0.002
  -0.04886647 -0.04836525  0.00000000       0.002
  -0.04537600 -0.04231960  0.00000000       0.002
  -0.04188554 -0.03627394  0.00000000       0.002
  -0.03839508 -0.03022828  0.00000000       0.002
  -0.03490462 -0.02418263  0.00000000       0.002
  -0.03141416 -0.01813697  0.00000000       0.002
  -0.02792369 -0.01209131  0.00000000       0.002
  -0.02443323 -0.00604566  0.00000000       0.002
  -0.02094277  0.00000000  0.00000000       0.002
  -0.01745231  0.00604566  0.00000000       0.002
  -0.01396185  0.01209131  0.00000000       0.002
  -0.01396185  0.02418263  0.00000000       0.002
  -0.01047139  0.03022828  0.00000000       0.002
  -0.00698092  0.03627394  0.00000000       0.002
  -0.00349046  0.04231960  0.00000000       0.002
   0.00000000  0.04836525  0.00000000       0.002
   0.00349046  0.05441091  0.00000000       0.002
   0.00698092  0.06045657  0.00000000       0.002
   0.01047139  0.06650222  0.00000000       0.002
   0.01396185  0.07254788  0.00000000       0.002
   0.01745231  0.07859354  0.00000000       0.002
   0.02094277  0.08463920  0.00000000       0.002
   0.02443323  0.09068485  0.00000000       0.002
   0.02792369  0.09673051  0.00000000       0.002
   0.03141416  0.10277617  0.00000000       0.002
   0.03490462  0.10882182  0.00000000       0.002
   0.03839508  0.11486748  0.00000000       0.002
   0.04188554  0.12091314  0.00000000       0.002
  -0.06631877 -0.06650222  0.00000000       0.002
  -0.06282831 -0.06045657  0.00000000       0.002
  -0.05933785 -0.05441091  0.00000000       0.002
  -0.05584739 -0.04836525  0.00000000       0.002
  -0.05235693 -0.04231960  0.00000000       0.002
  -0.04886647 -0.03627394  0.00000000       0.002
  -0.04537600 -0.03022828  0.00000000       0.002
  -0.04188554 -0.02418263  0.00000000       0.002
  -0.03839508 -0.01813697  0.00000000       0.002
  -0.03490462 -0.01209131  0.00000000       0.002
  -0.03141416 -0.00604566  0.00000000       0.002
  -0.02792369  0.00000000  0.00000000       0.002
  -0.02443323  0.00604566  0.00000000       0.002
  -0.02094277  0.01209131  0.00000000       0.002
  -0.01745231  0.01813697  0.00000000       0.002
  -0.01745231  0.03022828  0.00000000       0.002
  -0.01396185  0.03627394  0.00000000       0.002
  -0.01047139  0.04231960  0.00000000       0.002
  -0.00698092  0.04836525  0.00000000       0.002
  -0.00349046  0.05441091  0.00000000       0.002
   0.00000000  0.06045657  0.00000000       0.002
   0.00349046  0.06650222  0.00000000       0.002
   0.00698092  0.07254788  0.00000000       0.002
   0.01047139  0.07859354  0.00000000       0.002
   0.01396185  0.08463920  0.00000000       0.002
   0.01745231  0.09068485  0.00000000       0.002
   0.02094277  0.09673051  0.00000000       0.002
   0.02443323  0.10277617  0.00000000       0.002
   0.02792369  0.10882182  0.00000000       0.002
   0.03141416  0.11486748  0.00000000       0.002
   0.03490462  0.12091314  0.00000000       0.002
   0.03839508  0.12695879  0.00000000       0.002
  -0.06980924 -0.06045657  0.00000000       0.002
  -0.06631877 -0.05441091  0.00000000       0.002
  -0.06282831 -0.04836525  0.00000000       0.002
  -0.05933785 -0.04231960  0.00000000       0.002
  -0.05584739 -0.03627394  0.00000000       0.002
  -0.05235693 -0.03022828  0.00000000       0.002
  -0.04886647 -0.02418263  0.00000000       0.002
  -0.04537600 -0.01813697  0.00000000       0.002
  -0.04188554 -0.01209131  0.00000000       0.002
  -0.03839508 -0.00604566  0.00000000       0.002
  -0.03490462  0.00000000  0.00000000       0.002
  -0.03141416  0.00604566  0.00000000       0.002
  -0.02792369  0.01209131  0.00000000       0.002
  -0.02443323  0.01813697  0.00000000       0.002
  -0.02094277  0.02418263  0.00000000       0.002
  -0.02094277  0.03627394  0.00000000       0.002
  -0.01745231  0.04231960  0.00000000       0.002
  -0.01396185  0.04836525  0.00000000       0.002
  -0.01047139  0.05441091  0.00000000       0.002
  -0.00698092  0.06045657  0.00000000       0.002
  -0.00349046  0.06650222  0.00000000       0.002
   0.00000000  0.07254788  0.00000000       0.002
   0.00349046  0.07859354  0.00000000       0.002
   0.00698092  0.08463920  0.00000000       0.002
   0.01047139  0.09068485  0.00000000       0.002
   0.01396185  0.09673051  0.00000000       0.002
   0.01745231  0.10277617  0.00000000       0.002
   0.02094277  0.10882182  0.00000000       0.002
   0.02443323  0.11486748  0.00000000       0.002
   0.02792369  0.12091314  0.00000000       0.002
   0.03141416  0.12695879  0.00000000       0.002
   0.03490462  0.13300445  0.00000000       0.002
  -0.07329970 -0.05441091  0.00000000       0.002
  -0.06980924 -0.04836525  0.00000000       0.002
  -0.06631877 -0.04231960  0.00000000       0.002
  -0.06282831 -0.03627394  0.00000000       0.002
  -0.05933785 -0.03022828  0.00000000       0.002
  -0.05584739 -0.02418263  0.00000000       0.002
  -0.05235693 -0.01813697  0.00000000       0.002
  -0.04886647 -0.01209131  0.00000000       0.002
  -0.04537600 -0.00604566  0.00000000       0.002
  -0.04188554  0.00000000  0.00000000       0.002
  -0.03839508  0.00604566  0.00000000       0.002
  -0.03490462  0.01209131  0.00000000       0.002
  -0.03141416  0.01813697  0.00000000       0.002
  -0.02792369  0.02418263  0.00000000       0.002
  -0.02443323  0.03022828  0.00000000       0.002
  -0.02443323  0.04231960  0.00000000       0.002
  -0.02094277  0.04836525  0.00000000       0.002
  -0.01745231  0.05441091  0.00000000       0.002
  -0.01396185  0.06045657  0.00000000       0.002
  -0.01047139  0.06650222  0.00000000       0.002
  -0.00698092  0.07254788  0.00000000       0.002
  -0.00349046  0.07859354  0.00000000       0.002
   0.00000000  0.08463920  0.00000000       0.002
   0.00349046  0.09068485  0.00000000       0.002
   0.00698092  0.09673051  0.00000000       0.002
   0.01047139  0.10277617  0.00000000       0.002
   0.01396185  0.10882182  0.00000000       0.002
   0.01745231  0.11486748  0.00000000       0.002
   0.02094277  0.12091314  0.00000000       0.002
   0.02443323  0.12695879  0.00000000       0.002
   0.02792369  0.13300445  0.00000000       0.002
   0.03141416  0.13905011  0.00000000       0.002
  -0.07679016 -0.04836525  0.00000000       0.002
  -0.07329970 -0.04231960  0.00000000       0.002
  -0.06980924 -0.03627394  0.00000000       0.002
  -0.06631877 -0.03022828  0.00000000       0.002
  -0.06282831 -0.02418263  0.00000000       0.002
  -0.05933785 -0.01813697  0.00000000       0.002
  -0.05584739 -0.01209131  0.00000000       0.002
  -0.05235693 -0.00604566  0.00000000       0.002
  -0.04886647  0.00000000  0.00000000       0.002
  -0.04537600  0.00604566  0.00000000       0.002
[...]
     20       3.2918      0.00000
     21       3.6474      0.00000
     22       3.6792      0.00000
     23       3.8263      0.00000
     24       4.2792      0.00000
     25       4.6912      0.00000
     26       5.1109      0.00000
     27       5.2712      0.00000
     28       5.6292      0.00000
     29       5.7327      0.00000
     30       6.1615      0.00000
     31       6.2542      0.00000
     32       6.6373      0.00000

 k-point   506 :       0.2500    0.5000    0.0000
  band No.  band energies     occupation 
      1     -19.3256      2.00000
      2     -17.3422      2.00000
      3     -16.9069      2.00000
      4     -13.3620      2.00000
      5     -12.7238      2.00000
      6     -10.3693      2.00000
      7      -9.6014      2.00000
      8      -8.5884      2.00000
      9      -7.7112      2.00000
     10      -7.6874      2.00000
     11      -6.9243      2.00000
     12      -6.1995      2.00000
     13      -6.1246      2.00000
     14      -5.5954      2.00000
     15      -5.4282      2.00000
     16      -2.1963      0.00000
     17      -0.5793      0.00000
     18       2.2242      0.00000
     19       2.8618      0.00000
     20       3.3971      0.00000
     21       3.5345      0.00000
     22       3.6402      0.00000
     23       4.0334      0.00000
     24       4.0589      0.00000
     25       4.8474      0.00000
     26       4.9449      0.00000
     27       5.4914      0.00000
     28       5.4993      0.00000
     29       5.6199      0.00000
     30       6.1758      0.00000
     31       6.2523      0.00000
     32       6.8131      0.00000

 k-point   507 :       0.2812    0.5000    0.0000
  band No.  band energies     occupation 
      1     -19.3250      2.00000
      2     -17.3604      2.00000
      3     -16.8829      2.00000
      4     -13.4221      2.00000
      5     -12.6616      2.00000
      6     -10.3613      2.00000
      7      -9.6120      2.00000
      8      -8.5832      2.00000
      9      -7.7545      2.00000
     10      -7.6845      2.00000
     11      -6.8882      2.00000
     12      -6.2249      2.00000
     13      -6.1621      2.00000
     14      -5.5494      2.00000
     15      -5.4030      2.00000
     16      -2.2405      0.00000
     17      -0.5302      0.00000
     18       2.2313      0.00000
     19       2.8229      0.00000
     20       3.2916      0.00000
     21       3.6474      0.00000
     22       3.6794      0.00000
     23       3.8263      0.00000
     24       4.2792      0.00000
     25       4.6911      0.00000
     26       5.1109      0.00000
     27       5.2712      0.00000
     28       5.6292      0.00000
     29       5.7327      0.00000
     30       6.1615      0.00000
     31       6.2542      0.00000
     32       6.6368      0.00000

 k-point   508 :       0.3125    0.5000    0.0000
  band No.  band energies     occupation 
      1     -19.3234      2.00000
      2     -17.4048      2.00000
      3     -16.8219      2.00000
      4     -13.5569      2.00000
      5     -12.5210      2.00000
      6     -10.3373      2.00000
      7      -9.6407      2.00000
      8      -8.5791      2.00000
      9      -7.8479      2.00000
     10      -7.6760      2.00000
     11      -6.8159      2.00000
     12      -6.2805      2.00000
     13      -6.2476      2.00000
     14      -5.4382      2.00000
     15      -5.3396      2.00000
     16      -2.3579      0.00000
     17      -0.3976      0.00000
     18       2.2525      0.00000
     19       2.6972      0.00000
     20       3.2137      0.00000
     21       3.6201      0.00000
     22       3.6693      0.00000
     23       3.8804      0.00000
     24       4.5134      0.00000
     25       4.5241      0.00000
     26       5.0611      0.00000
     27       5.3166      0.00000
     28       5.6596      0.00000
     29       5.9788      0.00000
     30       6.1222      0.00000
     31       6.2501      0.00000
     32       6.4405      0.00000

 k-point   509 :       0.3438    0.5000    0.0000
  band No.  band energies     occupation 
      1     -19.3210      2.00000
      2     -17.4584      2.00000
      3     -16.7423      2.00000
      4     -13.7121      2.00000
      5     -12.3572      2.00000
      6     -10.2968      2.00000
      7      -9.6808      2.00000
      8      -8.6096      2.00000
      9      -7.9210      2.00000
     10      -7.6627      2.00000
     11      -6.7807      2.00000
     12      -6.3466      2.00000
     13      -6.3140      2.00000
     14      -5.2979      2.00000
     15      -5.2597      2.00000
     16      -2.5186      0.00000
     17      -0.2105      0.00000
     18       2.2879      0.00000
     19       2.5040      0.00000
     20       3.2033      0.00000
     21       3.4282      0.00000
     22       3.7052      0.00000
     23       4.0470      0.00000
     24       4.3859      0.00000
     25       4.7798      0.00000
     26       4.8658      0.00000
     27       5.4972      0.00000
     28       5.7206      0.00000
     29       6.0750      0.00000
     30       6.1173      0.00000
     31       6.2799      0.00000
     32       6.3640      0.00000

 k-point   510 :       0.3750    0.5000    0.0000
  band No.  band energies     occupation 
      1     -19.3181      2.00000
      2     -17.5102      2.00000
      3     -16.6580      2.00000
      4     -13.8625      2.00000
      5     -12.1975      2.00000
      6     -10.2400      2.00000
      7      -9.7241      2.00000
      8      -8.7050      2.00000
      9      -7.9230      2.00000
     10      -7.6461      2.00000
     11      -6.8334      2.00000
     12      -6.4416      2.00000
     13      -6.2838      2.00000
     14      -5.1799      2.00000
     15      -5.1485      2.00000
     16      -2.6958      0.00000
     17       0.0062      0.00000
     18       2.2812      0.00000
     19       2.3375      0.00000
     20       3.2323      0.00000
     21       3.2499      0.00000
     22       3.7556      0.00000
     23       4.0455      0.00000
     24       4.4364      0.00000
     25       4.6833      0.00000
     26       5.0450      0.00000
     27       5.6027      0.00000
     28       5.7959      0.00000
     29       5.9905      0.00000
     30       6.0865      0.00000
     31       6.3638      0.00000
     32       6.5542      0.00000

 k-point   511 :       0.4063    0.5000    0.0000
  band No.  band energies     occupation 
      1     -19.3151      2.00000
      2     -17.5545      2.00000
      3     -16.5791      2.00000
      4     -13.9945      2.00000
      5     -12.0573      2.00000
      6     -10.1691      2.00000
      7      -9.7625      2.00000
      8      -8.8514      2.00000
      9      -7.8563      2.00000
     10      -7.6283      2.00000
     11      -6.9500      2.00000
     12      -6.5237      2.00000
     13      -6.2169      2.00000
     14      -5.1101      2.00000
     15      -5.0035      2.00000
     16      -2.8683      0.00000
     17       0.2338      0.00000
     18       2.0512      0.00000
     19       2.4014      0.00000
     20       3.0858      0.00000
     21       3.2852      0.00000
     22       3.8206      0.00000
     23       3.9240      0.00000
     24       4.5164      0.00000
     25       4.6132      0.00000
     26       5.3056      0.00000
     27       5.6124      0.00000
     28       5.8214      0.00000
     29       5.8818      0.00000
     30       6.2396      0.00000
     31       6.3954      0.00000
     32       6.5451      0.00000

 k-point   512 :       0.4375    0.5000    0.0000
  band No.  band energies     occupation 
      1     -19.3126      2.00000
      2     -17.5879      2.00000
      3     -16.5142      2.00000
      4     -14.0979      2.00000
      5     -11.9482      2.00000
      6     -10.0927      2.00000
      7      -9.7885      2.00000
      8      -9.0092      2.00000
      9      -7.7498      2.00000
     10      -7.6122      2.00000
     11      -7.0912      2.00000
     12      -6.5873      2.00000
     13      -6.1522      2.00000
     14      -5.0568      2.00000
     15      -4.8775      2.00000
     16      -3.0168      0.00000
     17       0.4540      0.00000
     18       1.8312      0.00000
     19       2.4796      0.00000
     20       2.9359      0.00000
     21       3.3561      0.00000
     22       3.7907      0.00000
     23       3.9001      0.00000
     24       4.3639      0.00000
     25       4.8045      0.00000
     26       5.5087      0.00000
     27       5.5271      0.00000
     28       5.8681      0.00000
     29       5.8746      0.00000
     30       6.3771      0.00000
     31       6.4240      0.00000
     32       6.5039      0.00000

 k-point   513 :       0.4688    0.5000    0.0000
  band No.  band energies     occupation 
      1     -19.3110      2.00000
      2     -17.6087      2.00000
      3     -16.4713      2.00000
      4     -14.1641      2.00000
      5     -11.8790      2.00000
      6     -10.0307      2.00000
      7      -9.7960      2.00000
      8      -9.1374      2.00000
      9      -7.6311      2.00000
     10      -7.6008      2.00000
     11      -7.2297      2.00000
     12      -6.6276      2.00000
     13      -6.1084      2.00000
     14      -5.0234      2.00000
     15      -4.7886      2.00000
     16      -3.1201      0.00000
     17       0.6356      0.00000
     18       1.6503      0.00000
     19       2.5721      0.00000
     20       2.8002      0.00000
     21       3.4414      0.00000
     22       3.6659      0.00000
     23       3.9941      0.00000
     24       4.2260      0.00000
     25       4.9817      0.00000
     26       5.4009      0.00000
     27       5.5635      0.00000
     28       5.9309      0.00000
     29       6.0627      0.00000
     30       6.2914      0.00000
     31       6.4407      0.00000
     32       6.6857      0.00000

 k-point   514 :       0.5000    0.5000    0.0000
  band No.  band energies     occupation 
      1     -19.3104      2.00000
      2     -17.6157      2.00000
      3     -16.4563      2.00000
      4     -14.1870      2.00000
      5     -11.8553      2.00000
      6     -10.0073      2.00000
      7      -9.7934      2.00000
      8      -9.1894      2.00000
      9      -7.5967      2.00000
     10      -7.5605      2.00000
     11      -7.3067      2.00000
     12      -6.6415      2.00000
     13      -6.0932      2.00000
     14      -5.0121      2.00000
     15      -4.7561      2.00000
     16      -3.1576      0.00001
     17       0.7139      0.00000
     18       1.5724      0.00000
     19       2.6771      0.00000
     20       2.6808      0.00000
     21       3.5179      0.00000
     22       3.5760      0.00000
     23       4.1009      0.00000
     24       4.1047      0.00000
     25       5.0831      0.00000
     26       5.3150      0.00000
     27       5.5630      0.00000
     28       5.9648      0.00000
     29       6.2453      0.00000
     30       6.3007      0.00000
     31       6.4218      0.00000
     32       6.4457      0.00000


--------------------------------------------------------------------------------------------------------


 soft charge-density along one line, spin component           1
         0         1         2         3         4         5         6         7         8         9
 total charge-density along one line
 
 pseudopotential strength for first ion, spin component:           1
  6.732  10.272  -0.000   0.000  -0.000  -0.000   0.000  -0.000
 10.272  15.670  -0.000   0.000  -0.000  -0.000   0.000  -0.000
 -0.000  -0.000  -2.315  -0.000   0.000  -3.974  -0.000   0.000
  0.000   0.000  -0.000  -2.321  -0.000  -0.000  -3.981  -0.000
 -0.000  -0.000   0.000  -0.000  -2.315   0.000  -0.000  -3.974
 -0.000  -0.000  -3.974  -0.000   0.000  -6.623  -0.000   0.000
  0.000   0.000  -0.000  -3.981  -0.000  -0.000  -6.632  -0.000
 -0.000  -0.000   0.000  -0.000  -3.974   0.000  -0.000  -6.623
 total augmentation occupancy for first ion, spin component:           1
  3.719  -0.953  -0.000   0.000   0.000   0.000   0.000  -0.000
 -0.953   0.264   0.000   0.000  -0.000  -0.000   0.000   0.000
 -0.000   0.000   4.142   0.000  -0.000  -1.105   0.000   0.000
  0.000   0.000   0.000   0.892   0.000   0.000  -0.223   0.000
  0.000  -0.000  -0.000   0.000   4.142   0.000   0.000  -1.105
  0.000  -0.000  -1.105   0.000   0.000   0.306   0.000  -0.000
  0.000   0.000   0.000  -0.223   0.000   0.000   0.056   0.000
 -0.000   0.000   0.000   0.000  -1.105  -0.000   0.000   0.306


------------------------ aborting loop because EDIFF is reached ----------------------------------------


    CHARGE:  cpu time    1.5348: real time    1.5361
    FORLOC:  cpu time    0.0048: real time    0.0048
    FORNL :  cpu time    5.1328: real time    5.1362
    STRESS:  cpu time   29.0777: real time   29.1037
    FORCOR:  cpu time    0.0559: real time    0.0560
    FORHAR:  cpu time    0.0135: real time    0.0136
    MIXING:  cpu time    0.0024: real time    0.0024
    OFIELD:  cpu time    0.0000: real time    0.0000

 ---------------------------------------------------------------------------------------------

         DFTD3 V3.0 Rev 1        
 IVDW         = 12
 DF pbe       
 parameters
 VDW_S6       =    1.0000
 VDW_S8       =    0.7875
 VDW_A1       =    0.4289
 VDW_A2       =    4.4407
 k1-k3        =   16.0000    1.3333   -4.0000
 VDW_RADIUS   =   50.2022 A
 VDW_CNRADIUS =   21.1671 A
 Edisp (eV)   -0.67804

 E6    (eV) :    -0.4579
 E8    (eV) :    -0.2201
 % E8        : 32.46
    FORVDW:  cpu time    0.0286: real time    0.0314

  FORCE on cell =-STRESS in cart. coord.  units (eV):
  Direction    XX          YY          ZZ          XY          YZ          ZX
  --------------------------------------------------------------------------------------
  Alpha Z    14.61462    14.61462    14.61462
  Ewald    3501.17518  3501.20683 -4398.90803     0.00327     0.00000     0.00000
  Hartree  3440.13099  3440.13711 -3381.40949    -0.00006    -0.00000     0.00000
  E(xc)    -107.49127  -107.49122  -111.32333     0.00001    -0.00000     0.00000
  Local   -7258.17074 -7258.20330  7443.59023    -0.00237     0.00000     0.00000
  n-local   -21.69669   -21.69607   -10.37225     0.00001    -0.00000    -0.00000
  augment    -1.80629    -1.80624    -1.79655    -0.00002    -0.00000    -0.00000
  Kinetic   433.61674   433.61183   445.42244    -0.00034     0.00000     0.00000
  Fock        0.00000     0.00000     0.00000     0.00000     0.00000     0.00000
  vdW        -0.54283    -0.54284    -0.00593     0.00000     0.00000    -0.00000
  -------------------------------------------------------------------------------------
  Total      -0.17029    -0.16929    -0.18829     0.00049     0.00000     0.00000
  in kB      -0.78608    -0.78144    -0.86916     0.00227     0.00000     0.00000
  external pressure =       -0.81 kB  Pullay stress =        0.00 kB


 VOLUME and BASIS-vectors are now :
 -----------------------------------------------------------------------------
  energy-cutoff  :      450.00
  volume of cell :      347.08
      direct lattice vectors                 reciprocal lattice vectors
     4.476485000  2.584500000  0.000000000     0.111694778  0.193461018  0.000000000
    -4.476485000  2.584500000  0.000000000    -0.111694778  0.193461018  0.000000000
     0.000000000  0.000000000 15.000000000     0.000000000  0.000000000  0.066666667

  length of vectors
     5.168999730  5.168999730 15.000000000     0.223389545  0.223389545  0.066666667


 FORCES acting on ions
    electron-ion (+dipol)            ewald-force                    non-local-force                 convergence-correction
 -----------------------------------------------------------------------------------------------
   0.117E-02 -.209E-02 0.177E-06   -.102E-02 0.230E-02 0.856E-18   0.208E-03 0.295E-03 0.000E+00   0.143E-05 -.153E-05 -.366E-13
   -.140E-01 0.566E-03 0.224E-07   0.159E-01 -.396E-03 -.373E-18   0.241E-02 0.147E-03 0.000E+00   -.960E-06 0.777E-07 -.373E-13
   0.256E+02 -.443E+02 -.228E-06   -.276E+02 0.478E+02 0.467E-18   0.201E+01 -.348E+01 0.000E+00   0.166E-04 -.259E-04 -.528E-13
   -.256E+02 -.443E+02 -.398E-06   0.276E+02 0.478E+02 -.660E-19   -.201E+01 -.348E+01 0.000E+00   -.188E-04 -.256E-04 -.530E-13
   -.511E+02 -.744E-02 0.421E-07   0.551E+02 0.834E-02 -.138E-18   -.402E+01 -.121E-02 0.000E+00   -.319E-04 0.306E-07 -.561E-13
   0.511E+02 0.868E-02 -.163E-06   -.552E+02 -.999E-02 0.725E-18   0.402E+01 0.115E-02 0.000E+00   0.322E-04 0.272E-05 -.525E-13
   0.256E+02 0.443E+02 0.259E-06   -.276E+02 -.478E+02 -.545E-18   0.201E+01 0.348E+01 0.000E+00   0.167E-04 0.262E-04 -.548E-13
   -.256E+02 0.443E+02 0.102E-09   0.276E+02 -.478E+02 -.925E-18   -.201E+01 0.348E+01 0.000E+00   -.158E-04 0.257E-04 -.567E-13
 -----------------------------------------------------------------------------------------------
   -.484E-03 -.735E-04 -.288E-06   -.711E-14 0.213E-13 0.000E+00   0.806E-03 0.601E-03 0.000E+00   -.538E-06 0.165E-05 -.400E-12
 
 
 POSITION                                       TOTAL-FORCE (eV/Angst)
 -----------------------------------------------------------------------------------
     -1.48097      2.60387      3.75000         0.000316      0.000436      0.000000
      1.50327      2.60388      3.75000         0.004251      0.000252      0.000000
     -0.69950      1.25022      3.75000        -0.000144      0.000129      0.000000
      0.72178      1.25029      3.75000        -0.000025     -0.000819      0.000000
     -3.04401      2.60396      3.75000         0.001163     -0.000374      0.000000
      3.06640      2.60382      3.75000        -0.001856     -0.000224      0.000000
     -0.69937      3.95746      3.75000        -0.001425      0.001386      0.000000
      0.72193      3.95755      3.75000        -0.002280     -0.000785      0.000000
 -----------------------------------------------------------------------------------
    total drift:                                0.000321      0.000529     -0.000000


--------------------------------------------------------------------------------------------------------



  FREE ENERGIE OF THE ION-ELECTRON SYSTEM (eV)
  ---------------------------------------------------
  free  energy   TOTEN  =       -67.90773531 eV

  energy  without entropy=      -67.90773527  energy(sigma->0) =      -67.90773529
 


--------------------------------------------------------------------------------------------------------


    POTLOK:  cpu time    0.0555: real time    0.0555


--------------------------------------------------------------------------------------------------------




--------------------------------------------------------------------------------------------------------


  
 reached required accuracy - stopping structural energy minimisation
     LOOP+:  cpu time  964.4946: real time  965.1717
    4ORBIT:  cpu time    0.0000: real time    0.0000

 total amount of memory used by VASP MPI-rank0   667593. kBytes
=======================================================================

   base      :      30000. kBytes
   nonl-proj :     498882. kBytes
   fftplans  :       3154. kBytes
   grid      :      10002. kBytes
   one-center:         24. kBytes
   wavefun   :     125531. kBytes
 
  
  
 General timing and accounting informations for this job:
 ========================================================
  
                  Total CPU time used (sec):      977.089
                            User time (sec):      975.840
                          System time (sec):        1.249
                         Elapsed time (sec):      978.155
  
                   Maximum memory used (kb):      876616.
                   Average memory used (kb):           0.
  
                          Minor page faults:       142875
                          Major page faults:            0
                 Voluntary context switches:         1271
