<?xml version="1.0" encoding="ISO-8859-1"?>
<modeling>
 <generator>
  <i name="program" type="string">vasp </i>
  <i name="version" type="string">5.4.4.18Apr17-6-g9f103f2a35  </i>
  <i name="subversion" type="string">(build Mar 30 2023 15:39:25) complex            parallel </i>
  <i name="platform" type="string">LinuxIFC </i>
  <i name="date" type="string">2023 09 12 </i>
  <i name="time" type="string">03:42:29 </i>
 </generator>
 <incar>
  <i type="string" name="SYSTEM"> BC3</i>
  <i type="int" name="ISTART">     0</i>
  <i type="string" name="PREC">accurate</i>
  <i type="string" name="ALGO"> Normal</i>
  <i type="int" name="ISPIN">     1</i>
  <i type="int" name="ICHARG">     2</i>
  <i type="int" name="IBRION">     2</i>
  <i name="EDIFF">      0.00000100</i>
  <i name="EDIFFG">     -0.01000000</i>
  <i type="int" name="NSW">   100</i>
  <i type="int" name="ISIF">     2</i>
  <i name="ENCUT">    450.00000000</i>
  <i type="int" name="ISMEAR">     0</i>
  <i name="SIGMA">      0.10000000</i>
  <i type="logical" name="LWAVE"> F  </i>
  <i type="logical" name="LCHARG"> F  </i>
  <v type="int" name="KPOINT_BSE">    -1     0     0     0</v>
  <i type="string" name="GGA"> PE</i>
 </incar>
 <structure name="primitive_cell" >
  <crystal>
   <varray name="basis" >
    <v>       4.47648500       2.58450000       0.00000000 </v>
    <v>      -4.47648500       2.58450000       0.00000000 </v>
    <v>       0.00000000       0.00000000      15.00000000 </v>
   </varray>
   <i name="volume">    347.08426447 </i>
   <varray name="rec_basis" >
    <v>       0.11169478       0.19346102       0.00000000 </v>
    <v>      -0.11169478       0.19346102       0.00000000 </v>
    <v>       0.00000000       0.00000000       0.06666667 </v>
   </varray>
  </crystal>
  <varray name="positions" >
   <v>       0.33833034      -0.33083568       0.25000000 </v>
   <v>       0.16373946       0.31999962       0.25000000 </v>
   <v>       0.16376430      -0.15623616       0.25000000 </v>
   <v>      -0.31250150      -0.15627000       0.25000000 </v>
   <v>      -0.15373264      -0.31500406       0.25000000 </v>
   <v>       0.32250218       0.16126397       0.25000000 </v>
   <v>      -0.15376137       0.16123684       0.25000000 </v>
   <v>      -0.32834478       0.33584146       0.25000000 </v>
  </varray>
 </structure>
 <varray name="primitive_index" >
  <v type="int" >        1 </v>
  <v type="int" >        3 </v>
  <v type="int" >        5 </v>
  <v type="int" >        7 </v>
  <v type="int" >        8 </v>
  <v type="int" >        4 </v>
  <v type="int" >        6 </v>
  <v type="int" >        2 </v>
 </varray>
 <kpoints>
  <generation param="Gamma">
   <v type="int" name="divisions">      32       32        1 </v>
   <v name="usershift">      0.00000000       0.00000000       0.00000000 </v>
   <v name="genvec1">      0.03125000       0.00000000       0.00000000 </v>
   <v name="genvec2">      0.00000000       0.03125000       0.00000000 </v>
   <v name="genvec3">      0.00000000       0.00000000       1.00000000 </v>
   <v name="shift">      0.00000000       0.00000000       0.00000000 </v>
  </generation>
  <varray name="kpointlist" >
   <v>       0.00000000       0.00000000       0.00000000 </v>
   <v>       0.03125000       0.00000000       0.00000000 </v>
   <v>       0.06250000       0.00000000       0.00000000 </v>
   <v>       0.09375000       0.00000000       0.00000000 </v>
   <v>       0.12500000       0.00000000       0.00000000 </v>
   <v>       0.15625000       0.00000000       0.00000000 </v>
   <v>       0.18750000       0.00000000       0.00000000 </v>
   <v>       0.21875000       0.00000000       0.00000000 </v>
   <v>       0.25000000       0.00000000       0.00000000 </v>
   <v>       0.28125000       0.00000000       0.00000000 </v>
   <v>       0.31250000       0.00000000       0.00000000 </v>
   <v>       0.34375000       0.00000000       0.00000000 </v>
   <v>       0.37500000       0.00000000       0.00000000 </v>
   <v>       0.40625000       0.00000000       0.00000000 </v>
   <v>       0.43750000       0.00000000       0.00000000 </v>
   <v>       0.46875000       0.00000000       0.00000000 </v>
   <v>       0.50000000       0.00000000       0.00000000 </v>
   <v>       0.00000000       0.03125000       0.00000000 </v>
   <v>       0.03125000       0.03125000       0.00000000 </v>
   <v>       0.06250000       0.03125000       0.00000000 </v>
   <v>       0.09375000       0.03125000       0.00000000 </v>
   <v>       0.12500000       0.03125000       0.00000000 </v>
   <v>       0.15625000       0.03125000       0.00000000 </v>
   <v>       0.18750000       0.03125000       0.00000000 </v>
   <v>       0.21875000       0.03125000       0.00000000 </v>
   <v>       0.25000000       0.03125000       0.00000000 </v>
   <v>       0.28125000       0.03125000       0.00000000 </v>
   <v>       0.31250000       0.03125000       0.00000000 </v>
   <v>       0.34375000       0.03125000       0.00000000 </v>
   <v>       0.37500000       0.03125000       0.00000000 </v>
   <v>       0.40625000       0.03125000       0.00000000 </v>
   <v>       0.43750000       0.03125000       0.00000000 </v>
   <v>       0.46875000       0.03125000       0.00000000 </v>
   <v>       0.50000000       0.03125000       0.00000000 </v>
   <v>      -0.46875000       0.03125000       0.00000000 </v>
   <v>      -0.43750000       0.03125000       0.00000000 </v>
   <v>      -0.40625000       0.03125000       0.00000000 </v>
   <v>      -0.37500000       0.03125000       0.00000000 </v>
   <v>      -0.34375000       0.03125000       0.00000000 </v>
   <v>      -0.31250000       0.03125000       0.00000000 </v>
   <v>      -0.28125000       0.03125000       0.00000000 </v>
   <v>      -0.25000000       0.03125000       0.00000000 </v>
   <v>      -0.21875000       0.03125000       0.00000000 </v>
   <v>      -0.18750000       0.03125000       0.00000000 </v>
   <v>      -0.15625000       0.03125000       0.00000000 </v>
   <v>      -0.12500000       0.03125000       0.00000000 </v>
   <v>      -0.09375000       0.03125000       0.00000000 </v>
   <v>      -0.06250000       0.03125000       0.00000000 </v>
   <v>      -0.03125000       0.03125000       0.00000000 </v>
   <v>       0.00000000       0.06250000       0.00000000 </v>
   <v>       0.03125000       0.06250000       0.00000000 </v>
   <v>       0.06250000       0.06250000       0.00000000 </v>
   <v>       0.09375000       0.06250000       0.00000000 </v>
   <v>       0.12500000       0.06250000       0.00000000 </v>
   <v>       0.15625000       0.06250000       0.00000000 </v>
   <v>       0.18750000       0.06250000       0.00000000 </v>
   <v>       0.21875000       0.06250000       0.00000000 </v>
   <v>       0.25000000       0.06250000       0.00000000 </v>
   <v>       0.28125000       0.06250000       0.00000000 </v>
   <v>       0.31250000       0.06250000       0.00000000 </v>
   <v>       0.34375000       0.06250000       0.00000000 </v>
   <v>       0.37500000       0.06250000       0.00000000 </v>
   <v>       0.40625000       0.06250000       0.00000000 </v>
   <v>       0.43750000       0.06250000       0.00000000 </v>
   <v>       0.46875000       0.06250000       0.00000000 </v>
   <v>       0.50000000       0.06250000       0.00000000 </v>
   <v>      -0.46875000       0.06250000       0.00000000 </v>
   <v>      -0.43750000       0.06250000       0.00000000 </v>
   <v>      -0.40625000       0.06250000       0.00000000 </v>
   <v>      -0.37500000       0.06250000       0.00000000 </v>
   <v>      -0.34375000       0.06250000       0.00000000 </v>
   <v>      -0.31250000       0.06250000       0.00000000 </v>
   <v>      -0.28125000       0.06250000       0.00000000 </v>
   <v>      -0.25000000       0.06250000       0.00000000 </v>
   <v>      -0.21875000       0.06250000       0.00000000 </v>
   <v>      -0.18750000       0.06250000       0.00000000 </v>
   <v>      -0.15625000       0.06250000       0.00000000 </v>
   <v>      -0.12500000       0.06250000       0.00000000 </v>
   <v>      -0.09375000       0.06250000       0.00000000 </v>
   <v>      -0.06250000       0.06250000       0.00000000 </v>
   <v>      -0.03125000       0.06250000       0.00000000 </v>
   <v>       0.00000000       0.09375000       0.00000000 </v>
   <v>       0.03125000       0.09375000       0.00000000 </v>
   <v>       0.06250000       0.09375000       0.00000000 </v>
   <v>       0.09375000       0.09375000       0.00000000 </v>
   <v>       0.12500000       0.09375000       0.00000000 </v>
   <v>       0.15625000       0.09375000       0.00000000 </v>
   <v>       0.18750000       0.09375000       0.00000000 </v>
   <v>       0.21875000       0.09375000       0.00000000 </v>
   <v>       0.25000000       0.09375000       0.00000000 </v>
   <v>       0.28125000       0.09375000       0.00000000 </v>
   <v>       0.31250000       0.09375000       0.00000000 </v>
   <v>       0.34375000       0.09375000       0.00000000 </v>
   <v>       0.37500000       0.09375000       0.00000000 </v>
   <v>       0.40625000       0.09375000       0.00000000 </v>
   <v>       0.43750000       0.09375000       0.00000000 </v>
   <v>       0.46875000       0.09375000       0.00000000 </v>
   <v>       0.50000000       0.09375000       0.00000000 </v>
   <v>      -0.46875000       0.09375000       0.00000000 </v>
   <v>      -0.43750000       0.09375000       0.00000000 </v>
   <v>      -0.40625000       0.09375000       0.00000000 </v>
   <v>      -0.37500000       0.09375000       0.00000000 </v>
   <v>      -0.34375000       0.09375000       0.00000000 </v>
   <v>      -0.31250000       0.09375000       0.00000000 </v>
   <v>      -0.28125000       0.09375000       0.00000000 </v>
   <v>      -0.25000000       0.09375000       0.00000000 </v>
   <v>      -0.21875000       0.09375000       0.00000000 </v>
   <v>      -0.18750000       0.09375000       0.00000000 </v>
   <v>      -0.15625000       0.09375000       0.00000000 </v>
   <v>      -0.12500000       0.09375000       0.00000000 </v>
   <v>      -0.09375000       0.09375000       0.00000000 </v>
   <v>      -0.06250000       0.09375000       0.00000000 </v>
   <v>      -0.03125000       0.09375000       0.00000000 </v>
   <v>       0.00000000       0.12500000       0.00000000 </v>
   <v>       0.03125000       0.12500000       0.00000000 </v>
   <v>       0.06250000       0.12500000       0.00000000 </v>
   <v>       0.09375000       0.12500000       0.00000000 </v>
   <v>       0.12500000       0.12500000       0.00000000 </v>
   <v>       0.15625000       0.12500000       0.00000000 </v>
   <v>       0.18750000       0.12500000       0.00000000 </v>
   <v>       0.21875000       0.12500000       0.00000000 </v>
   <v>       0.25000000       0.12500000       0.00000000 </v>
   <v>       0.28125000       0.12500000       0.00000000 </v>
   <v>       0.31250000       0.12500000       0.00000000 </v>
   <v>       0.34375000       0.12500000       0.00000000 </v>
   <v>       0.37500000       0.12500000       0.00000000 </v>
   <v>       0.40625000       0.12500000       0.00000000 </v>
   <v>       0.43750000       0.12500000       0.00000000 </v>
   <v>       0.46875000       0.12500000       0.00000000 </v>
   <v>       0.50000000       0.12500000       0.00000000 </v>
   <v>      -0.46875000       0.12500000       0.00000000 </v>
   <v>      -0.43750000       0.12500000       0.00000000 </v>
   <v>      -0.40625000       0.12500000       0.00000000 </v>
   <v>      -0.37500000       0.12500000       0.00000000 </v>
   <v>      -0.34375000       0.12500000       0.00000000 </v>
   <v>      -0.31250000       0.12500000       0.00000000 </v>
   <v>      -0.28125000       0.12500000       0.00000000 </v>
   <v>      -0.25000000       0.12500000       0.00000000 </v>
   <v>      -0.21875000       0.12500000       0.00000000 </v>
   <v>      -0.18750000       0.12500000       0.00000000 </v>
   <v>      -0.15625000       0.12500000       0.00000000 </v>
   <v>      -0.12500000       0.12500000       0.00000000 </v>
   <v>      -0.09375000       0.12500000       0.00000000 </v>
   <v>      -0.06250000       0.12500000       0.00000000 </v>
   <v>      -0.03125000       0.12500000       0.00000000 </v>
   <v>       0.00000000       0.15625000       0.00000000 </v>
   <v>       0.03125000       0.15625000       0.00000000 </v>
   <v>       0.06250000       0.15625000       0.00000000 </v>
   <v>       0.09375000       0.15625000       0.00000000 </v>
   <v>       0.12500000       0.15625000       0.00000000 </v>
   <v>       0.15625000       0.15625000       0.00000000 </v>
   <v>       0.18750000       0.15625000       0.00000000 </v>
   <v>       0.21875000       0.15625000       0.00000000 </v>
   <v>       0.25000000       0.15625000       0.00000000 </v>
   <v>       0.28125000       0.15625000       0.00000000 </v>
   <v>       0.31250000       0.15625000       0.00000000 </v>
   <v>       0.34375000       0.15625000       0.00000000 </v>
   <v>       0.37500000       0.15625000       0.00000000 </v>
   <v>       0.40625000       0.15625000       0.00000000 </v>
   <v>       0.43750000       0.15625000       0.00000000 </v>
   <v>       0.46875000       0.15625000       0.00000000 </v>
   <v>       0.50000000       0.15625000       0.00000000 </v>
   <v>      -0.46875000       0.15625000       0.00000000 </v>
   <v>      -0.43750000       0.15625000       0.00000000 </v>
   <v>      -0.40625000       0.15625000       0.00000000 </v>
   <v>      -0.37500000       0.15625000       0.00000000 </v>
   <v>      -0.34375000       0.15625000       0.00000000 </v>
   <v>      -0.31250000       0.15625000       0.00000000 </v>
   <v>      -0.28125000       0.15625000       0.00000000 </v>
   <v>      -0.25000000       0.15625000       0.00000000 </v>
   <v>      -0.21875000       0.15625000       0.00000000 </v>
   <v>      -0.18750000       0.15625000       0.00000000 </v>
   <v>      -0.15625000       0.15625000       0.00000000 </v>
   <v>      -0.12500000       0.15625000       0.00000000 </v>
   <v>      -0.09375000       0.15625000       0.00000000 </v>
   <v>      -0.06250000       0.15625000       0.00000000 </v>
   <v>      -0.03125000       0.15625000       0.00000000 </v>
   <v>       0.00000000       0.18750000       0.00000000 </v>
   <v>       0.03125000       0.18750000       0.00000000 </v>
   <v>       0.06250000       0.18750000       0.00000000 </v>
   <v>       0.09375000       0.18750000       0.00000000 </v>
   <v>       0.12500000       0.18750000       0.00000000 </v>
   <v>       0.15625000       0.18750000       0.00000000 </v>
   <v>       0.18750000       0.18750000       0.00000000 </v>
   <v>       0.21875000       0.18750000       0.00000000 </v>
   <v>       0.25000000       0.18750000       0.00000000 </v>
   <v>       0.28125000       0.18750000       0.00000000 </v>
   <v>       0.31250000       0.18750000       0.00000000 </v>
   <v>       0.34375000       0.18750000       0.00000000 </v>
   <v>       0.37500000       0.18750000       0.00000000 </v>
   <v>       0.40625000       0.18750000       0.00000000 </v>
   <v>       0.43750000       0.18750000       0.00000000 </v>
   <v>       0.46875000       0.18750000       0.00000000 </v>
   <v>       0.50000000       0.18750000       0.00000000 </v>
   <v>      -0.46875000       0.18750000       0.00000000 </v>
   <v>      -0.43750000       0.18750000       0.00000000 </v>
   <v>      -0.40625000       0.18750000       0.00000000 </v>
   <v>      -0.37500000       0.18750000       0.00000000 </v>
   <v>      -0.34375000       0.18750000       0.00000000 </v>
   <v>      -0.31250000       0.18750000       0.00000000 </v>
   <v>      -0.28125000       0.18750000       0.00000000 </v>
   <v>      -0.25000000       0.18750000       0.00000000 </v>
   <v>      -0.21875000       0.18750000       0.00000000 </v>
   <v>      -0.18750000       0.18750000       0.00000000 </v>
   <v>      -0.15625000       0.18750000       0.00000000 </v>
   <v>      -0.12500000       0.18750000       0.00000000 </v>
   <v>      -0.09375000       0.18750000       0.00000000 </v>
   <v>      -0.06250000       0.18750000       0.00000000 </v>
   <v>      -0.03125000       0.18750000       0.00000000 </v>
   <v>       0.00000000       0.21875000       0.00000000 </v>
   <v>       0.03125000       0.21875000       0.00000000 </v>
   <v>       0.06250000       0.21875000       0.00000000 </v>
   <v>       0.09375000       0.21875000       0.00000000 </v>
   <v>       0.12500000       0.21875000       0.00000000 </v>
   <v>       0.15625000       0.21875000       0.00000000 </v>
   <v>       0.18750000       0.21875000       0.00000000 </v>
   <v>       0.21875000       0.21875000       0.00000000 </v>
   <v>       0.25000000       0.21875000       0.00000000 </v>
   <v>       0.28125000       0.21875000       0.00000000 </v>
   <v>       0.31250000       0.21875000       0.00000000 </v>
   <v>       0.34375000       0.21875000       0.00000000 </v>
   <v>       0.37500000       0.21875000       0.00000000 </v>
   <v>       0.40625000       0.21875000       0.00000000 </v>
   <v>       0.43750000       0.21875000       0.00000000 </v>
   <v>       0.46875000       0.21875000       0.00000000 </v>
   <v>       0.50000000       0.21875000       0.00000000 </v>
   <v>      -0.46875000       0.21875000       0.00000000 </v>
   <v>      -0.43750000       0.21875000       0.00000000 </v>
   <v>      -0.40625000       0.21875000       0.00000000 </v>
   <v>      -0.37500000       0.21875000       0.00000000 </v>
   <v>      -0.34375000       0.21875000       0.00000000 </v>
   <v>      -0.31250000       0.21875000       0.00000000 </v>
   <v>      -0.28125000       0.21875000       0.00000000 </v>
   <v>      -0.25000000       0.21875000       0.00000000 </v>
   <v>      -0.21875000       0.21875000       0.00000000 </v>
   <v>      -0.18750000       0.21875000       0.00000000 </v>
   <v>      -0.15625000       0.21875000       0.00000000 </v>
   <v>      -0.12500000       0.21875000       0.00000000 </v>
   <v>      -0.09375000       0.21875000       0.00000000 </v>
   <v>      -0.06250000       0.21875000       0.00000000 </v>
   <v>      -0.03125000       0.21875000       0.00000000 </v>
   <v>       0.00000000       0.25000000       0.00000000 </v>
   <v>       0.03125000       0.25000000       0.00000000 </v>
   <v>       0.06250000       0.25000000       0.00000000 </v>
   <v>       0.09375000       0.25000000       0.00000000 </v>
   <v>       0.12500000       0.25000000       0.00000000 </v>
   <v>       0.15625000       0.25000000       0.00000000 </v>
   <v>       0.18750000       0.25000000       0.00000000 </v>
   <v>       0.21875000       0.25000000       0.00000000 </v>
   <v>       0.25000000       0.25000000       0.00000000 </v>
   <v>       0.28125000       0.25000000       0.00000000 </v>
   <v>       0.31250000       0.25000000       0.00000000 </v>
   <v>       0.34375000       0.25000000       0.00000000 </v>
   <v>       0.37500000       0.25000000       0.00000000 </v>
   <v>       0.40625000       0.25000000       0.00000000 </v>
   <v>       0.43750000       0.25000000       0.00000000 </v>
   <v>       0.46875000       0.25000000       0.00000000 </v>
   <v>       0.50000000       0.25000000       0.00000000 </v>
   <v>      -0.46875000       0.25000000       0.00000000 </v>
   <v>      -0.43750000       0.25000000       0.00000000 </v>
   <v>      -0.40625000       0.25000000       0.00000000 </v>
   <v>      -0.37500000       0.25000000       0.00000000 </v>
   <v>      -0.34375000       0.25000000       0.00000000 </v>
   <v>      -0.31250000       0.25000000       0.00000000 </v>
   <v>      -0.28125000       0.25000000       0.00000000 </v>
   <v>      -0.25000000       0.25000000       0.00000000 </v>
   <v>      -0.21875000       0.25000000       0.00000000 </v>
   <v>      -0.18750000       0.25000000       0.00000000 </v>
   <v>      -0.15625000       0.25000000       0.00000000 </v>
   <v>      -0.12500000       0.25000000       0.00000000 </v>
   <v>      -0.09375000       0.25000000       0.00000000 </v>
   <v>      -0.06250000       0.25000000       0.00000000 </v>
   <v>      -0.03125000       0.25000000       0.00000000 </v>
   <v>       0.00000000       0.28125000       0.00000000 </v>
   <v>       0.03125000       0.28125000       0.00000000 </v>
   <v>       0.06250000       0.28125000       0.00000000 </v>
   <v>       0.09375000       0.28125000       0.00000000 </v>
   <v>       0.12500000       0.28125000       0.00000000 </v>
   <v>       0.15625000       0.28125000       0.00000000 </v>
   <v>       0.18750000       0.28125000       0.00000000 </v>
   <v>       0.21875000       0.28125000       0.00000000 </v>
   <v>       0.25000000       0.28125000       0.00000000 </v>
   <v>       0.28125000       0.28125000       0.00000000 </v>
   <v>       0.31250000       0.28125000       0.00000000 </v>
   <v>       0.34375000       0.28125000       0.00000000 </v>
   <v>       0.37500000       0.28125000       0.00000000 </v>
   <v>       0.40625000       0.28125000       0.00000000 </v>
   <v>       0.43750000       0.28125000       0.00000000 </v>
   <v>       0.46875000       0.28125000       0.00000000 </v>
   <v>       0.50000000       0.28125000       0.00000000 </v>
   <v>      -0.46875000       0.28125000       0.00000000 </v>
   <v>      -0.43750000       0.28125000       0.00000000 </v>
   <v>      -0.40625000       0.28125000       0.00000000 </v>
   <v>      -0.37500000       0.28125000       0.00000000 </v>
   <v>      -0.34375000       0.28125000       0.00000000 </v>
   <v>      -0.31250000       0.28125000       0.00000000 </v>
   <v>      -0.28125000       0.28125000       0.00000000 </v>
   <v>      -0.25000000       0.28125000       0.00000000 </v>
   <v>      -0.21875000       0.28125000       0.00000000 </v>
   <v>      -0.18750000       0.28125000       0.00000000 </v>
   <v>      -0.15625000       0.28125000       0.00000000 </v>
   <v>      -0.12500000       0.28125000       0.00000000 </v>
   <v>      -0.09375000       0.28125000       0.00000000 </v>
   <v>      -0.06250000       0.28125000       0.00000000 </v>
   <v>      -0.03125000       0.28125000       0.00000000 </v>
   <v>       0.00000000       0.31250000       0.00000000 </v>
   <v>       0.03125000       0.31250000       0.00000000 </v>
   <v>       0.06250000       0.31250000       0.00000000 </v>
   <v>       0.09375000       0.31250000       0.00000000 </v>
   <v>       0.12500000       0.31250000       0.00000000 </v>
   <v>       0.15625000       0.31250000       0.00000000 </v>
   <v>       0.18750000       0.31250000       0.00000000 </v>
   <v>       0.21875000       0.31250000       0.00000000 </v>
   <v>       0.25000000       0.31250000       0.00000000 </v>
   <v>       0.28125000       0.31250000       0.00000000 </v>
   <v>       0.31250000       0.31250000       0.00000000 </v>
   <v>       0.34375000       0.31250000       0.00000000 </v>
   <v>       0.37500000       0.31250000       0.00000000 </v>
   <v>       0.40625000       0.31250000       0.00000000 </v>
   <v>       0.43750000       0.31250000       0.00000000 </v>
   <v>       0.46875000       0.31250000       0.00000000 </v>
   <v>       0.50000000       0.31250000       0.00000000 </v>
   <v>      -0.46875000       0.31250000       0.00000000 </v>
   <v>      -0.43750000       0.31250000       0.00000000 </v>
   <v>      -0.40625000       0.31250000       0.00000000 </v>
   <v>      -0.37500000       0.31250000       0.00000000 </v>
   <v>      -0.34375000       0.31250000       0.00000000 </v>
   <v>      -0.31250000       0.31250000       0.00000000 </v>
   <v>      -0.28125000       0.31250000       0.00000000 </v>
   <v>      -0.25000000       0.31250000       0.00000000 </v>
   <v>      -0.21875000       0.31250000       0.00000000 </v>
   <v>      -0.18750000       0.31250000       0.00000000 </v>
   <v>      -0.15625000       0.31250000       0.00000000 </v>
   <v>      -0.12500000       0.31250000       0.00000000 </v>
   <v>      -0.09375000       0.31250000       0.00000000 </v>
   <v>      -0.06250000       0.31250000       0.00000000 </v>
   <v>      -0.03125000       0.31250000       0.00000000 </v>
   <v>       0.00000000       0.34375000       0.00000000 </v>
   <v>       0.03125000       0.34375000       0.00000000 </v>
   <v>       0.06250000       0.34375000       0.00000000 </v>
   <v>       0.09375000       0.34375000       0.00000000 </v>
   <v>       0.12500000       0.34375000       0.00000000 </v>
   <v>       0.15625000       0.34375000       0.00000000 </v>
   <v>       0.18750000       0.34375000       0.00000000 </v>
   <v>       0.21875000       0.34375000       0.00000000 </v>
   <v>       0.25000000       0.34375000       0.00000000 </v>
   <v>       0.28125000       0.34375000       0.00000000 </v>
   <v>       0.31250000       0.34375000       0.00000000 </v>
   <v>       0.34375000       0.34375000       0.00000000 </v>
   <v>       0.37500000       0.34375000       0.00000000 </v>
   <v>       0.40625000       0.34375000       0.00000000 </v>
   <v>       0.43750000       0.34375000       0.00000000 </v>
   <v>       0.46875000       0.34375000       0.00000000 </v>
   <v>       0.50000000       0.34375000       0.00000000 </v>
   <v>      -0.46875000       0.34375000       0.00000000 </v>
   <v>      -0.43750000       0.34375000       0.00000000 </v>
   <v>      -0.40625000       0.34375000       0.00000000 </v>
   <v>      -0.37500000       0.34375000       0.00000000 </v>
   <v>      -0.34375000       0.34375000       0.00000000 </v>
   <v>      -0.31250000       0.34375000       0.00000000 </v>
   <v>      -0.28125000       0.34375000       0.00000000 </v>
   <v>      -0.25000000       0.34375000       0.00000000 </v>
   <v>      -0.21875000       0.34375000       0.00000000 </v>
   <v>      -0.18750000       0.34375000       0.00000000 </v>
   <v>      -0.15625000       0.34375000       0.00000000 </v>
   <v>      -0.12500000       0.34375000       0.00000000 </v>
   <v>      -0.09375000       0.34375000       0.00000000 </v>
   <v>      -0.06250000       0.34375000       0.00000000 </v>
   <v>      -0.03125000       0.34375000       0.00000000 </v>
   <v>       0.00000000       0.37500000       0.00000000 </v>
   <v>       0.03125000       0.37500000       0.00000000 </v>
   <v>       0.06250000       0.37500000       0.00000000 </v>
   <v>       0.09375000       0.37500000       0.00000000 </v>
   <v>       0.12500000       0.37500000       0.00000000 </v>
   <v>       0.15625000       0.37500000       0.00000000 </v>
   <v>       0.18750000       0.37500000       0.00000000 </v>
   <v>       0.21875000       0.37500000       0.00000000 </v>
   <v>       0.25000000       0.37500000       0.00000000 </v>
   <v>       0.28125000       0.37500000       0.00000000 </v>
   <v>       0.31250000       0.37500000       0.00000000 </v>
   <v>       0.34375000       0.37500000       0.00000000 </v>
   <v>       0.37500000       0.37500000       0.00000000 </v>
   <v>       0.40625000       0.37500000       0.00000000 </v>
   <v>       0.43750000       0.37500000       0.00000000 </v>
   <v>       0.46875000       0.37500000       0.00000000 </v>
   <v>       0.50000000       0.37500000       0.00000000 </v>
   <v>      -0.46875000       0.37500000       0.00000000 </v>
   <v>      -0.43750000       0.37500000       0.00000000 </v>
   <v>      -0.40625000       0.37500000       0.00000000 </v>
   <v>      -0.37500000       0.37500000       0.00000000 </v>
   <v>      -0.34375000       0.37500000       0.00000000 </v>
   <v>      -0.31250000       0.37500000       0.00000000 </v>
   <v>      -0.28125000       0.37500000       0.00000000 </v>
   <v>      -0.25000000       0.37500000       0.00000000 </v>
   <v>      -0.21875000       0.37500000       0.00000000 </v>
   <v>      -0.18750000       0.37500000       0.00000000 </v>
   <v>      -0.15625000       0.37500000       0.00000000 </v>
   <v>      -0.12500000       0.37500000       0.00000000 </v>
   <v>      -0.09375000       0.37500000       0.00000000 </v>
   <v>      -0.06250000       0.37500000       0.00000000 </v>
   <v>      -0.03125000       0.37500000       0.00000000 </v>
   <v>       0.00000000       0.40625000       0.00000000 </v>
   <v>       0.03125000       0.40625000       0.00000000 </v>
   <v>       0.06250000       0.40625000       0.00000000 </v>
   <v>       0.09375000       0.40625000       0.00000000 </v>
   <v>       0.12500000       0.40625000       0.00000000 </v>
   <v>       0.15625000       0.40625000       0.00000000 </v>
   <v>       0.18750000       0.40625000       0.00000000 </v>
   <v>       0.21875000       0.40625000       0.00000000 </v>
   <v>       0.25000000       0.40625000       0.00000000 </v>
   <v>       0.28125000       0.40625000       0.00000000 </v>
   <v>       0.31250000       0.40625000       0.00000000 </v>
   <v>       0.34375000       0.40625000       0.00000000 </v>
   <v>       0.37500000       0.40625000       0.00000000 </v>
   <v>       0.40625000       0.40625000       0.00000000 </v>
   <v>       0.43750000       0.40625000       0.00000000 </v>
   <v>       0.46875000       0.40625000       0.00000000 </v>
   <v>       0.50000000       0.40625000       0.00000000 </v>
   <v>      -0.46875000       0.40625000       0.00000000 </v>
   <v>      -0.43750000       0.40625000       0.00000000 </v>
   <v>      -0.40625000       0.40625000       0.00000000 </v>
   <v>      -0.37500000       0.40625000       0.00000000 </v>
   <v>      -0.34375000       0.40625000       0.00000000 </v>
   <v>      -0.31250000       0.40625000       0.00000000 </v>
   <v>      -0.28125000       0.40625000       0.00000000 </v>
   <v>      -0.25000000       0.40625000       0.00000000 </v>
   <v>      -0.21875000       0.40625000       0.00000000 </v>
   <v>      -0.18750000       0.40625000       0.00000000 </v>
   <v>      -0.15625000       0.40625000       0.00000000 </v>
   <v>      -0.12500000       0.40625000       0.00000000 </v>
   <v>      -0.09375000       0.40625000       0.00000000 </v>
   <v>      -0.06250000       0.40625000       0.00000000 </v>
   <v>      -0.03125000       0.40625000       0.00000000 </v>
   <v>       0.00000000       0.43750000       0.00000000 </v>
   <v>       0.03125000       0.43750000       0.00000000 </v>
   <v>       0.06250000       0.43750000       0.00000000 </v>
   <v>       0.09375000       0.43750000       0.00000000 </v>
   <v>       0.12500000       0.43750000       0.00000000 </v>
   <v>       0.15625000       0.43750000       0.00000000 </v>
   <v>       0.18750000       0.43750000       0.00000000 </v>
   <v>       0.21875000       0.43750000       0.00000000 </v>
   <v>       0.25000000       0.43750000       0.00000000 </v>
   <v>       0.28125000       0.43750000       0.00000000 </v>
   <v>       0.31250000       0.43750000       0.00000000 </v>
   <v>       0.34375000       0.43750000       0.00000000 </v>
   <v>       0.37500000       0.43750000       0.00000000 </v>
   <v>       0.40625000       0.43750000       0.00000000 </v>
   <v>       0.43750000       0.43750000       0.00000000 </v>
   <v>       0.46875000       0.43750000       0.00000000 </v>
   <v>       0.50000000       0.43750000       0.00000000 </v>
   <v>      -0.46875000       0.43750000       0.00000000 </v>
   <v>      -0.43750000       0.43750000       0.00000000 </v>
   <v>      -0.40625000       0.43750000       0.00000000 </v>
   <v>      -0.37500000       0.43750000       0.00000000 </v>
   <v>      -0.34375000       0.43750000       0.00000000 </v>
   <v>      -0.31250000       0.43750000       0.00000000 </v>
   <v>      -0.28125000       0.43750000       0.00000000 </v>
   <v>      -0.25000000       0.43750000       0.00000000 </v>
   <v>      -0.21875000       0.43750000       0.00000000 </v>
   <v>      -0.18750000       0.43750000       0.00000000 </v>
   <v>      -0.15625000       0.43750000       0.00000000 </v>
   <v>      -0.12500000       0.43750000       0.00000000 </v>
   <v>      -0.09375000       0.43750000       0.00000000 </v>
   <v>      -0.06250000       0.43750000       0.00000000 </v>
   <v>      -0.03125000       0.43750000       0.00000000 </v>
   <v>       0.00000000       0.46875000       0.00000000 </v>
   <v>       0.03125000       0.46875000       0.00000000 </v>
   <v>       0.06250000       0.46875000       0.00000000 </v>
   <v>       0.09375000       0.46875000       0.00000000 </v>
   <v>       0.12500000       0.46875000       0.00000000 </v>
   <v>       0.15625000       0.46875000       0.00000000 </v>
   <v>       0.18750000       0.46875000       0.00000000 </v>
   <v>       0.21875000       0.46875000       0.00000000 </v>
   <v>       0.25000000       0.46875000       0.00000000 </v>
   <v>       0.28125000       0.46875000       0.00000000 </v>
   <v>       0.31250000       0.46875000       0.00000000 </v>
   <v>       0.34375000       0.46875000       0.00000000 </v>
   <v>       0.37500000       0.46875000       0.00000000 </v>
   <v>       0.40625000       0.46875000       0.00000000 </v>
   <v>       0.43750000       0.46875000       0.00000000 </v>
   <v>       0.46875000       0.46875000       0.00000000 </v>
   <v>       0.50000000       0.46875000       0.00000000 </v>
   <v>      -0.46875000       0.46875000       0.00000000 </v>
   <v>      -0.43750000       0.46875000       0.00000000 </v>
   <v>      -0.40625000       0.46875000       0.00000000 </v>
   <v>      -0.37500000       0.46875000       0.00000000 </v>
   <v>      -0.34375000       0.46875000       0.00000000 </v>
   <v>      -0.31250000       0.46875000       0.00000000 </v>
   <v>      -0.28125000       0.46875000       0.00000000 </v>
   <v>      -0.25000000       0.46875000       0.00000000 </v>
   <v>      -0.21875000       0.46875000       0.00000000 </v>
   <v>      -0.18750000       0.46875000       0.00000000 </v>
   <v>      -0.15625000       0.46875000       0.00000000 </v>
   <v>      -0.12500000       0.46875000       0.00000000 </v>
   <v>      -0.09375000       0.46875000       0.00000000 </v>
   <v>      -0.06250000       0.46875000       0.00000000 </v>
   <v>      -0.03125000       0.46875000       0.00000000 </v>
   <v>       0.00000000       0.50000000       0.00000000 </v>
   <v>       0.03125000       0.50000000       0.00000000 </v>
   <v>       0.06250000       0.50000000       0.00000000 </v>
   <v>       0.09375000       0.50000000       0.00000000 </v>
   <v>       0.12500000       0.50000000       0.00000000 </v>
   <v>       0.15625000       0.50000000       0.00000000 </v>
   <v>       0.18750000       0.50000000       0.00000000 </v>
   <v>       0.21875000       0.50000000       0.00000000 </v>
   <v>       0.25000000       0.50000000       0.00000000 </v>
   <v>       0.28125000       0.50000000       0.00000000 </v>
   <v>       0.31250000       0.50000000       0.00000000 </v>
   <v>       0.34375000       0.50000000       0.00000000 </v>
   <v>       0.37500000       0.50000000       0.00000000 </v>
   <v>       0.40625000       0.50000000       0.00000000 </v>
   <v>       0.43750000       0.50000000       0.00000000 </v>
   <v>       0.46875000       0.50000000       0.00000000 </v>
   <v>       0.50000000       0.50000000       0.00000000 </v>
  </varray>
  <varray name="weights" >
   <v>       0.00097656 </v>
   <v>       0.00195312 </v>
   <v>       0.00195312 </v>
   <v>       0.00195312 </v>
   <v>       0.00195312 </v>
   <v>       0.00195312 </v>
   <v>       0.00195312 </v>
   <v>       0.00195312 </v>
   <v>       0.00195312 </v>
   <v>       0.00195312 </v>
   <v>       0.00195312 </v>
   <v>       0.00195312 </v>
   <v>       0.00195312 </v>
   <v>       0.00195312 </v>
   <v>       0.00195312 </v>
   <v>       0.00195312 </v>
   <v>       0.00097656 </v>
   <v>       0.00195312 </v>
   <v>       0.00195312 </v>
   <v>       0.00195312 </v>
   <v>       0.00195312 </v>
   <v>       0.00195312 </v>
   <v>       0.00195312 </v>
   <v>       0.00195312 </v>
   <v>       0.00195312 </v>
   <v>       0.00195312 </v>
   <v>       0.00195312 </v>
   <v>       0.00195312 </v>
   <v>       0.00195312 </v>
   <v>       0.00195312 </v>
   <v>       0.00195312 </v>
   <v>       0.00195312 </v>
   <v>       0.00195312 </v>
   <v>       0.00195312 </v>
   <v>       0.00195312 </v>
   <v>       0.00195312 </v>
   <v>       0.00195312 </v>
   <v>       0.00195312 </v>
   <v>       0.00195312 </v>
   <v>       0.00195312 </v>
   <v>       0.00195312 </v>
   <v>       0.00195312 </v>
   <v>       0.00195312 </v>
   <v>       0.00195312 </v>
   <v>       0.00195312 </v>
   <v>       0.00195312 </v>
   <v>       0.00195312 </v>
   <v>       0.00195312 </v>
   <v>       0.00195312 </v>
   <v>       0.00195312 </v>
   <v>       0.00195312 </v>
   <v>       0.00195312 </v>
   <v>       0.00195312 </v>
   <v>       0.00195312 </v>
   <v>       0.00195312 </v>
   <v>       0.00195312 </v>
   <v>       0.00195312 </v>
   <v>       0.00195312 </v>
   <v>       0.00195312 </v>
   <v>       0.00195312 </v>
   <v>       0.00195312 </v>
   <v>       0.00195312 </v>
   <v>       0.00195312 </v>
   <v>       0.00195312 </v>
   <v>       0.00195312 </v>
   <v>       0.00195312 </v>
   <v>       0.00195312 </v>
   <v>       0.00195312 </v>
   <v>       0.00195312 </v>
   <v>       0.00195312 </v>
   <v>       0.00195312 </v>
   <v>       0.00195312 </v>
   <v>       0.00195312 </v>
   <v>       0.00195312 </v>
   <v>       0.00195312 </v>
   <v>       0.00195312 </v>
   <v>       0.00195312 </v>
   <v>       0.00195312 </v>
   <v>       0.00195312 </v>
   <v>       0.00195312 </v>
   <v>       0.00195312 </v>
   <v>       0.00195312 </v>
   <v>       0.00195312 </v>
   <v>       0.00195312 </v>
   <v>       0.00195312 </v>
   <v>       0.00195312 </v>
   <v>       0.00195312 </v>
   <v>       0.00195312 </v>
   <v>       0.00195312 </v>
   <v>       0.00195312 </v>
   <v>       0.00195312 </v>
   <v>       0.00195312 </v>
   <v>       0.00195312 </v>
   <v>       0.00195312 </v>
   <v>       0.00195312 </v>
   <v>       0.00195312 </v>
   <v>       0.00195312 </v>
   <v>       0.00195312 </v>
   <v>       0.00195312 </v>
   <v>       0.00195312 </v>
   <v>       0.00195312 </v>
   <v>       0.00195312 </v>
   <v>       0.00195312 </v>
   <v>       0.00195312 </v>
   <v>       0.00195312 </v>
   <v>       0.00195312 </v>
   <v>       0.00195312 </v>
   <v>       0.00195312 </v>
   <v>       0.00195312 </v>
   <v>       0.00195312 </v>
   <v>       0.00195312 </v>
   <v>       0.00195312 </v>
   <v>       0.00195312 </v>
   <v>       0.00195312 </v>
   <v>       0.00195312 </v>
   <v>       0.00195312 </v>
   <v>       0.00195312 </v>
   <v>       0.00195312 </v>
   <v>       0.00195312 </v>
   <v>       0.00195312 </v>
   <v>       0.00195312 </v>
   <v>       0.00195312 </v>
   <v>       0.00195312 </v>
   <v>       0.00195312 </v>
   <v>       0.00195312 </v>
   <v>       0.00195312 </v>
   <v>       0.00195312 </v>
   <v>       0.00195312 </v>
   <v>       0.00195312 </v>
   <v>       0.00195312 </v>
   <v>       0.00195312 </v>
   <v>       0.00195312 </v>
   <v>       0.00195312 </v>
   <v>       0.00195312 </v>
   <v>       0.00195312 </v>
   <v>       0.00195312 </v>
   <v>       0.00195312 </v>
   <v>       0.00195312 </v>
   <v>       0.00195312 </v>
   <v>       0.00195312 </v>
   <v>       0.00195312 </v>
   <v>       0.00195312 </v>
   <v>       0.00195312 </v>
   <v>       0.00195312 </v>
   <v>       0.00195312 </v>
   <v>       0.00195312 </v>
   <v>       0.00195312 </v>
   <v>       0.00195312 </v>
   <v>       0.00195312 </v>
   <v>       0.00195312 </v>
   <v>       0.00195312 </v>
   <v>       0.00195312 </v>
   <v>       0.00195312 </v>
   <v>       0.00195312 </v>
   <v>       0.00195312 </v>
   <v>       0.00195312 </v>
   <v>       0.00195312 </v>
   <v>       0.00195312 </v>
   <v>       0.00195312 </v>
   <v>       0.00195312 </v>
   <v>       0.00195312 </v>
   <v>       0.00195312 </v>
   <v>       0.00195312 </v>
   <v>       0.00195312 </v>
   <v>       0.00195312 </v>
   <v>       0.00195312 </v>
   <v>       0.00195312 </v>
   <v>       0.00195312 </v>
   <v>       0.00195312 </v>
   <v>       0.00195312 </v>
   <v>       0.00195312 </v>
   <v>       0.00195312 </v>
   <v>       0.00195312 </v>
   <v>       0.00195312 </v>
   <v>       0.00195312 </v>
   <v>       0.00195312 </v>
   <v>       0.00195312 </v>
   <v>       0.00195312 </v>
   <v>       0.00195312 </v>
   <v>       0.00195312 </v>
   <v>       0.00195312 </v>
   <v>       0.00195312 </v>
   <v>       0.00195312 </v>
   <v>       0.00195312 </v>
   <v>       0.00195312 </v>
   <v>       0.00195312 </v>
   <v>       0.00195312 </v>
   <v>       0.00195312 </v>
   <v>       0.00195312 </v>
   <v>       0.00195312 </v>
   <v>       0.00195312 </v>
   <v>       0.00195312 </v>
   <v>       0.00195312 </v>
   <v>       0.00195312 </v>
   <v>       0.00195312 </v>
   <v>       0.00195312 </v>
   <v>       0.00195312 </v>
   <v>       0.00195312 </v>
   <v>       0.00195312 </v>
   <v>       0.00195312 </v>
   <v>       0.00195312 </v>
   <v>       0.00195312 </v>
   <v>       0.00195312 </v>
   <v>       0.00195312 </v>
   <v>       0.00195312 </v>
   <v>       0.00195312 </v>
   <v>       0.00195312 </v>
   <v>       0.00195312 </v>
   <v>       0.00195312 </v>
   <v>       0.00195312 </v>
   <v>       0.00195312 </v>
   <v>       0.00195312 </v>
   <v>       0.00195312 </v>
   <v>       0.00195312 </v>
   <v>       0.00195312 </v>
   <v>       0.00195312 </v>
   <v>       0.00195312 </v>
   <v>       0.00195312 </v>
   <v>       0.00195312 </v>
   <v>       0.00195312 </v>
   <v>       0.00195312 </v>
   <v>       0.00195312 </v>
   <v>       0.00195312 </v>
   <v>       0.00195312 </v>
   <v>       0.00195312 </v>
   <v>       0.00195312 </v>
   <v>       0.00195312 </v>
   <v>       0.00195312 </v>
   <v>       0.00195312 </v>
   <v>       0.00195312 </v>
   <v>       0.00195312 </v>
   <v>       0.00195312 </v>
   <v>       0.00195312 </v>
   <v>       0.00195312 </v>
   <v>       0.00195312 </v>
   <v>       0.00195312 </v>
   <v>       0.00195312 </v>
   <v>       0.00195312 </v>
   <v>       0.00195312 </v>
   <v>       0.00195312 </v>
   <v>       0.00195312 </v>
   <v>       0.00195312 </v>
   <v>       0.00195312 </v>
   <v>       0.00195312 </v>
   <v>       0.00195312 </v>
   <v>       0.00195312 </v>
   <v>       0.00195312 </v>
   <v>       0.00195312 </v>
   <v>       0.00195312 </v>
   <v>       0.00195312 </v>
   <v>       0.00195312 </v>
   <v>       0.00195312 </v>
   <v>       0.00195312 </v>
   <v>       0.00195312 </v>
   <v>       0.00195312 </v>
   <v>       0.00195312 </v>
   <v>       0.00195312 </v>
   <v>       0.00195312 </v>
   <v>       0.00195312 </v>
   <v>       0.00195312 </v>
   <v>       0.00195312 </v>
   <v>       0.00195312 </v>
   <v>       0.00195312 </v>
   <v>       0.00195312 </v>
   <v>       0.00195312 </v>
   <v>       0.00195312 </v>
   <v>       0.00195312 </v>
   <v>       0.00195312 </v>
   <v>       0.00195312 </v>
   <v>       0.00195312 </v>
   <v>       0.00195312 </v>
   <v>       0.00195312 </v>
   <v>       0.00195312 </v>
   <v>       0.00195312 </v>
   <v>       0.00195312 </v>
   <v>       0.00195312 </v>
   <v>       0.00195312 </v>
   <v>       0.00195312 </v>
   <v>       0.00195312 </v>
   <v>       0.00195312 </v>
   <v>       0.00195312 </v>
   <v>       0.00195312 </v>
   <v>       0.00195312 </v>
   <v>       0.00195312 </v>
   <v>       0.00195312 </v>
   <v>       0.00195312 </v>
   <v>       0.00195312 </v>
   <v>       0.00195312 </v>
   <v>       0.00195312 </v>
   <v>       0.00195312 </v>
   <v>       0.00195312 </v>
   <v>       0.00195312 </v>
   <v>       0.00195312 </v>
   <v>       0.00195312 </v>
   <v>       0.00195312 </v>
   <v>       0.00195312 </v>
   <v>       0.00195312 </v>
   <v>       0.00195312 </v>
   <v>       0.00195312 </v>
   <v>       0.00195312 </v>
   <v>       0.00195312 </v>
   <v>       0.00195312 </v>
   <v>       0.00195312 </v>
   <v>       0.00195312 </v>
   <v>       0.00195312 </v>
   <v>       0.00195312 </v>
   <v>       0.00195312 </v>
   <v>       0.00195312 </v>
   <v>       0.00195312 </v>
   <v>       0.00195312 </v>
   <v>       0.00195312 </v>
   <v>       0.00195312 </v>
   <v>       0.00195312 </v>
   <v>       0.00195312 </v>
   <v>       0.00195312 </v>
   <v>       0.00195312 </v>
   <v>       0.00195312 </v>
   <v>       0.00195312 </v>
   <v>       0.00195312 </v>
   <v>       0.00195312 </v>
   <v>       0.00195312 </v>
   <v>       0.00195312 </v>
   <v>       0.00195312 </v>
   <v>       0.00195312 </v>
   <v>       0.00195312 </v>
   <v>       0.00195312 </v>
   <v>       0.00195312 </v>
   <v>       0.00195312 </v>
   <v>       0.00195312 </v>
   <v>       0.00195312 </v>
   <v>       0.00195312 </v>
   <v>       0.00195312 </v>
   <v>       0.00195312 </v>
   <v>       0.00195312 </v>
   <v>       0.00195312 </v>
   <v>       0.00195312 </v>
   <v>       0.00195312 </v>
   <v>       0.00195312 </v>
   <v>       0.00195312 </v>
   <v>       0.00195312 </v>
   <v>       0.00195312 </v>
   <v>       0.00195312 </v>
   <v>       0.00195312 </v>
   <v>       0.00195312 </v>
   <v>       0.00195312 </v>
   <v>       0.00195312 </v>
   <v>       0.00195312 </v>
   <v>       0.00195312 </v>
   <v>       0.00195312 </v>
   <v>       0.00195312 </v>
   <v>       0.00195312 </v>
   <v>       0.00195312 </v>
   <v>       0.00195312 </v>
   <v>       0.00195312 </v>
   <v>       0.00195312 </v>
   <v>       0.00195312 </v>
   <v>       0.00195312 </v>
   <v>       0.00195312 </v>
   <v>       0.00195312 </v>
   <v>       0.00195312 </v>
   <v>       0.00195312 </v>
   <v>       0.00195312 </v>
   <v>       0.00195312 </v>
   <v>       0.00195312 </v>
   <v>       0.00195312 </v>
   <v>       0.00195312 </v>
   <v>       0.00195312 </v>
   <v>       0.00195312 </v>
   <v>       0.00195312 </v>
   <v>       0.00195312 </v>
   <v>       0.00195312 </v>
   <v>       0.00195312 </v>
   <v>       0.00195312 </v>
   <v>       0.00195312 </v>
   <v>       0.00195312 </v>
   <v>       0.00195312 </v>
   <v>       0.00195312 </v>
   <v>       0.00195312 </v>
   <v>       0.00195312 </v>
   <v>       0.00195312 </v>
   <v>       0.00195312 </v>
   <v>       0.00195312 </v>
   <v>       0.00195312 </v>
   <v>       0.00195312 </v>
   <v>       0.00195312 </v>
   <v>       0.00195312 </v>
   <v>       0.00195312 </v>
   <v>       0.00195312 </v>
   <v>       0.00195312 </v>
   <v>       0.00195312 </v>
   <v>       0.00195312 </v>
   <v>       0.00195312 </v>
   <v>       0.00195312 </v>
   <v>       0.00195312 </v>
   <v>       0.00195312 </v>
   <v>       0.00195312 </v>
   <v>       0.00195312 </v>
   <v>       0.00195312 </v>
   <v>       0.00195312 </v>
   <v>       0.00195312 </v>
   <v>       0.00195312 </v>
   <v>       0.00195312 </v>
   <v>       0.00195312 </v>
   <v>       0.00195312 </v>
   <v>       0.00195312 </v>
   <v>       0.00195312 </v>
   <v>       0.00195312 </v>
   <v>       0.00195312 </v>
   <v>       0.00195312 </v>
   <v>       0.00195312 </v>
   <v>       0.00195312 </v>
   <v>       0.00195312 </v>
   <v>       0.00195312 </v>
   <v>       0.00195312 </v>
   <v>       0.00195312 </v>
   <v>       0.00195312 </v>
   <v>       0.00195312 </v>
   <v>       0.00195312 </v>
   <v>       0.00195312 </v>
   <v>       0.00195312 </v>
   <v>       0.00195312 </v>
   <v>       0.00195312 </v>
   <v>       0.00195312 </v>
   <v>       0.00195312 </v>
   <v>       0.00195312 </v>
   <v>       0.00195312 </v>
   <v>       0.00195312 </v>
   <v>       0.00195312 </v>
   <v>       0.00195312 </v>
   <v>       0.00195312 </v>
   <v>       0.00195312 </v>
   <v>       0.00195312 </v>
   <v>       0.00195312 </v>
   <v>       0.00195312 </v>
   <v>       0.00195312 </v>
   <v>       0.00195312 </v>
   <v>       0.00195312 </v>
   <v>       0.00195312 </v>
   <v>       0.00195312 </v>
   <v>       0.00195312 </v>
   <v>       0.00195312 </v>
   <v>       0.00195312 </v>
   <v>       0.00195312 </v>
   <v>       0.00195312 </v>
   <v>       0.00195312 </v>
   <v>       0.00195312 </v>
   <v>       0.00195312 </v>
   <v>       0.00195312 </v>
   <v>       0.00195312 </v>
   <v>       0.00195312 </v>
   <v>       0.00195312 </v>
   <v>       0.00195312 </v>
   <v>       0.00195312 </v>
   <v>       0.00195312 </v>
   <v>       0.00195312 </v>
   <v>       0.00195312 </v>
   <v>       0.00195312 </v>
   <v>       0.00195312 </v>
   <v>       0.00195312 </v>
   <v>       0.00195312 </v>
   <v>       0.00195312 </v>
   <v>       0.00195312 </v>
   <v>       0.00195312 </v>
   <v>       0.00195312 </v>
   <v>       0.00195312 </v>
   <v>       0.00195312 </v>
   <v>       0.00195312 </v>
   <v>       0.00195312 </v>
   <v>       0.00195312 </v>
   <v>       0.00195312 </v>
   <v>       0.00195312 </v>
   <v>       0.00195312 </v>
   <v>       0.00195312 </v>
   <v>       0.00195312 </v>
   <v>       0.00195312 </v>
   <v>       0.00195312 </v>
   <v>       0.00195312 </v>
   <v>       0.00195312 </v>
   <v>       0.00195312 </v>
   <v>       0.00195312 </v>
   <v>       0.00195312 </v>
   <v>       0.00195312 </v>
   <v>       0.00195312 </v>
   <v>       0.00195312 </v>
   <v>       0.00195312 </v>
   <v>       0.00195312 </v>
   <v>       0.00195312 </v>
   <v>       0.00195312 </v>
   <v>       0.00195312 </v>
   <v>       0.00195312 </v>
   <v>       0.00195312 </v>
   <v>       0.00195312 </v>
   <v>       0.00195312 </v>
   <v>       0.00195312 </v>
   <v>       0.00195312 </v>
   <v>       0.00195312 </v>
   <v>       0.00195312 </v>
   <v>       0.00097656 </v>
   <v>       0.00195312 </v>
   <v>       0.00195312 </v>
   <v>       0.00195312 </v>
   <v>       0.00195312 </v>
   <v>       0.00195312 </v>
   <v>       0.00195312 </v>
   <v>       0.00195312 </v>
   <v>       0.00195312 </v>
   <v>       0.00195312 </v>
   <v>       0.00195312 </v>
   <v>       0.00195312 </v>
   <v>       0.00195312 </v>
   <v>       0.00195312 </v>
   <v>       0.00195312 </v>
   <v>       0.00195312 </v>
   <v>       0.00097656 </v>
  </varray>
 </kpoints>
 <parameters>
  <separator name="general" >
   <i type="string" name="SYSTEM">BC3</i>
   <i type="logical" name="LCOMPAT"> F  </i>
  </separator>
  <separator name="electronic" >
   <i type="string" name="PREC">accura</i>
   <i name="ENMAX">    450.00000000</i>
   <i name="ENAUG">    644.87300000</i>
   <i name="EDIFF">      0.00000100</i>
   <i type="int" name="IALGO">    38</i>
   <i type="int" name="IWAVPR">    11</i>
   <i type="int" name="NBANDS">    32</i>
   <i name="NELECT">     30.00000000</i>
   <i type="int" name="TURBO">     0</i>
   <i type="int" name="IRESTART">     0</i>
   <i type="int" name="NREBOOT">     0</i>
   <i type="int" name="NMIN">     0</i>
   <i name="EREF">      0.00000000</i>
   <separator name="electronic smearing" >
    <i type="int" name="ISMEAR">     0</i>
    <i name="SIGMA">      0.10000000</i>
    <i name="KSPACING">      0.50000000</i>
    <i type="logical" name="KGAMMA"> T  </i>
   </separator>
   <separator name="electronic projectors" >
    <i type="logical" name="LREAL"> F  </i>
    <v name="ROPT">      0.00000000      0.00000000</v>
    <i type="int" name="LMAXPAW">  -100</i>
    <i type="int" name="LMAXMIX">     2</i>
    <i type="logical" name="NLSPLINE"> F  </i>
   </separator>
   <separator name="electronic startup" >
    <i type="int" name="ISTART">     0</i>
    <i type="int" name="ICHARG">     2</i>
    <i type="int" name="INIWAV">     1</i>
   </separator>
   <separator name="electronic spin" >
    <i type="int" name="ISPIN">     1</i>
    <i type="logical" name="LNONCOLLINEAR"> F  </i>
    <v name="MAGMOM">      1.00000000      1.00000000      1.00000000      1.00000000      1.00000000      1.00000000      1.00000000      1.00000000</v>
    <i name="NUPDOWN">     -1.00000000</i>
    <i type="logical" name="LSORBIT"> F  </i>
    <v name="SAXIS">      0.00000000      0.00000000      1.00000000</v>
    <i type="logical" name="LSPIRAL"> F  </i>
    <v name="QSPIRAL">      0.00000000      0.00000000      0.00000000</v>
    <i type="logical" name="LZEROZ"> F  </i>
   </separator>
   <separator name="electronic exchange-correlation" >
    <i type="logical" name="LASPH"> F  </i>
    <i type="logical" name="LMETAGGA"> F  </i>
   </separator>
   <separator name="electronic convergence" >
    <i type="int" name="NELM">    60</i>
    <i type="int" name="NELMDL">    -5</i>
    <i type="int" name="NELMIN">     2</i>
    <i name="ENINI">    450.00000000</i>
    <separator name="electronic convergence detail" >
     <i type="logical" name="LDIAG"> T  </i>
     <i type="logical" name="LSUBROT"> F  </i>
     <i name="WEIMIN">      0.00100000</i>
     <i name="EBREAK">      0.00000001</i>
     <i name="DEPER">      0.30000000</i>
     <i type="int" name="NRMM">     4</i>
     <i name="TIME">      0.40000000</i>
    </separator>
   </separator>
   <separator name="electronic mixer" >
    <i name="AMIX">      0.40000000</i>
    <i name="BMIX">      1.00000000</i>
    <i name="AMIN">      0.10000000</i>
    <i name="AMIX_MAG">      1.60000000</i>
    <i name="BMIX_MAG">      1.00000000</i>
    <separator name="electronic mixer details" >
     <i type="int" name="IMIX">     4</i>
     <i type="logical" name="MIXFIRST"> F  </i>
     <i type="int" name="MAXMIX">   -45</i>
     <i name="WC">    100.00000000</i>
     <i type="int" name="INIMIX">     1</i>
     <i type="int" name="MIXPRE">     1</i>
     <i type="int" name="MREMOVE">     5</i>
    </separator>
   </separator>
   <separator name="electronic dipolcorrection" >
    <i type="logical" name="LDIPOL"> F  </i>
    <i type="logical" name="LMONO"> F  </i>
    <i type="int" name="IDIPOL">     0</i>
    <i name="EPSILON">      1.00000000</i>
    <v name="DIPOL">   -100.00000000   -100.00000000   -100.00000000</v>
    <i name="EFIELD">      0.00000000</i>
   </separator>
  </separator>
  <separator name="grids" >
   <i type="int" name="NGX">    36</i>
   <i type="int" name="NGY">    36</i>
   <i type="int" name="NGZ">   108</i>
   <i type="int" name="NGXF">    72</i>
   <i type="int" name="NGYF">    72</i>
   <i type="int" name="NGZF">   216</i>
   <i type="logical" name="ADDGRID"> F  </i>
  </separator>
  <separator name="ionic" >
   <i type="int" name="NSW">   100</i>
   <i type="int" name="IBRION">     2</i>
   <i type="int" name="MDALGO">     0</i>
   <i type="int" name="ISIF">     2</i>
   <i name="PSTRESS">      0.00000000</i>
   <i name="EDIFFG">     -0.01000000</i>
   <i type="int" name="NFREE">     1</i>
   <i name="POTIM">      0.50000000</i>
   <i name="SMASS">     -3.00000000</i>
   <i name="SCALEE">      1.00000000</i>
  </separator>
  <separator name="ionic md" >
   <i name="TEBEG">      0.00010000</i>
   <i name="TEEND">      0.00010000</i>
   <i type="int" name="NBLOCK">     1</i>
   <i type="int" name="KBLOCK">   100</i>
   <i type="int" name="NPACO">   256</i>
   <i name="APACO">     16.00000000</i>
  </separator>
  <separator name="symmetry" >
   <i type="int" name="ISYM">     2</i>
   <i name="SYMPREC">      0.00001000</i>
  </separator>
  <separator name="dos" >
   <i type="int" name="LORBIT">     0</i>
   <v name="RWIGS">     -1.00000000     -1.00000000</v>
   <i type="int" name="NEDOS">   301</i>
   <i name="EMIN">     10.00000000</i>
   <i name="EMAX">    -10.00000000</i>
   <i name="EFERMI">      0.00000000</i>
  </separator>
  <separator name="writing" >
   <i type="int" name="NWRITE">     2</i>
   <i type="logical" name="LWAVE"> F  </i>
   <i type="logical" name="LDOWNSAMPLE"> F  </i>
   <i type="logical" name="LCHARG"> F  </i>
   <i type="logical" name="LPARD"> F  </i>
   <i type="logical" name="LVTOT"> F  </i>
   <i type="logical" name="LVHAR"> F  </i>
   <i type="logical" name="LELF"> F  </i>
   <i type="logical" name="LOPTICS"> F  </i>
   <v name="STM">      0.00000000      0.00000000      0.00000000      0.00000000      0.00000000      0.00000000      0.00000000</v>
  </separator>
  <separator name="performance" >
   <i type="int" name="NPAR">    16</i>
   <i type="int" name="NSIM">     4</i>
   <i type="int" name="NBLK">    -1</i>
   <i type="logical" name="LPLANE"> T  </i>
   <i type="logical" name="LSCALAPACK"> T  </i>
   <i type="logical" name="LSCAAWARE"> F  </i>
   <i type="logical" name="LSCALU"> F  </i>
   <i type="logical" name="LASYNC"> F  </i>
   <i type="logical" name="LORBITALREAL"> F  </i>
  </separator>
  <separator name="miscellaneous" >
   <i type="int" name="IDIOT">     3</i>
   <i type="int" name="ISPECIAL">     0</i>
   <i type="logical" name="LMUSIC"> F  </i>
   <v name="POMASS">     10.81100000     12.01100000</v>
   <v name="DARWINR">      0.00000000      0.00000000</v>
   <v name="DARWINV">      1.00000000      1.00000000</v>
   <i type="logical" name="LCORR"> T  </i>
  </separator>
  <i type="logical" name="GGA_COMPAT"> T  </i>
  <i type="logical" name="LBERRY"> F  </i>
  <i type="int" name="ICORELEVEL">     0</i>
  <i type="logical" name="LDAU"> F  </i>
  <i type="int" name="I_CONSTRAINED_M">     0</i>
  <separator name="electronic exchange-correlation" >
   <i type="string" name="GGA">PE</i>
   <i type="int" name="VOSKOWN">     0</i>
   <i type="logical" name="LHFCALC"> F  </i>
   <i type="string" name="PRECFOCK"></i>
   <i type="logical" name="LSYMGRAD"> F  </i>
   <i type="logical" name="LHFONE"> F  </i>
   <i type="logical" name="LRHFCALC"> F  </i>
   <i type="logical" name="LTHOMAS"> F  </i>
   <i type="logical" name="LMODELHF"> F  </i>
   <i name="ENCUT4O">     -1.00000000</i>
   <i type="int" name="EXXOEP">     0</i>
   <i type="int" name="FOURORBIT">     0</i>
   <i name="AEXX">      0.00000000</i>
   <i name="HFALPHA">      0.00000000</i>
   <i name="MCALPHA">      0.00000000</i>
   <i name="ALDAX">      1.00000000</i>
   <i name="AGGAX">      1.00000000</i>
   <i name="ALDAC">      1.00000000</i>
   <i name="AGGAC">      1.00000000</i>
   <i type="int" name="NKREDX">     1</i>
   <i type="int" name="NKREDY">     1</i>
   <i type="int" name="NKREDZ">     1</i>
   <i type="logical" name="SHIFTRED"> F  </i>
   <i type="logical" name="ODDONLY"> F  </i>
   <i type="logical" name="EVENONLY"> F  </i>
   <i type="int" name="LMAXFOCK">     0</i>
   <i type="int" name="NMAXFOCKAE">     0</i>
   <i type="logical" name="LFOCKAEDFT"> F  </i>
   <i name="HFSCREEN">      0.00000000</i>
   <i name="HFSCREENC">      0.00000000</i>
   <i type="int" name="NBANDSGWLOW">     0</i>
  </separator>
  <separator name="vdW DFT" >
   <i type="logical" name="LUSE_VDW"> F  </i>
   <i name="Zab_VDW">     -0.84910000</i>
   <i name="PARAM1">      0.12340000</i>
   <i name="PARAM2">      1.00000000</i>
   <i name="PARAM3">      0.00000000</i>
  </separator>
  <separator name="model GW" >
   <i type="int" name="MODEL_GW">     0</i>
   <i name="MODEL_EPS0">     26.03131984</i>
   <i name="MODEL_ALPHA">      1.00000000</i>
  </separator>
  <separator name="linear response parameters" >
   <i type="logical" name="LEPSILON"> F  </i>
   <i type="logical" name="LRPA"> F  </i>
   <i type="logical" name="LNABLA"> F  </i>
   <i type="logical" name="LVEL"> F  </i>
   <i type="int" name="KINTER">     0</i>
   <i name="CSHIFT">      0.10000000</i>
   <i name="OMEGAMAX">     -1.00000000</i>
   <i name="DEG_THRESHOLD">      0.00200000</i>
   <i name="RTIME">     -0.10000000</i>
   <i name="WPLASMAI">      0.00000000</i>
   <v name="DFIELD">      0.00000000      0.00000000      0.00000000</v>
   <v name="WPLASMA">      0.00000000      0.00000000      0.00000000      0.00000000      0.00000000      0.00000000      0.00000000      0.00000000      0.00000000</v>
  </separator>
  <separator name="orbital magnetization" >
   <i type="logical" name="NUCIND"> F  </i>
   <v name="MAGPOS">      0.00000000      0.00000000      0.00000000</v>
   <i type="logical" name="LNICSALL"> T  </i>
   <i type="logical" name="ORBITALMAG"> F  </i>
   <i type="logical" name="LMAGBLOCH"> F  </i>
   <i type="logical" name="LCHIMAG"> F  </i>
   <i type="logical" name="LGAUGE"> T  </i>
   <i type="int" name="MAGATOM">     0</i>
   <v name="MAGDIPOL">      0.00000000      0.00000000      0.00000000</v>
   <v name="AVECCONST">      0.00000000      0.00000000      0.00000000</v>
  </separator>
  <separator name="response functions" >
   <i type="logical" name="LADDER"> F  </i>
   <i type="logical" name="LRPAFORCE"> F  </i>
   <i type="logical" name="LFXC"> F  </i>
   <i type="logical" name="LHARTREE"> T  </i>
   <i type="int" name="IBSE">     0</i>
   <v type="int" name="KPOINT">    -1     0     0     0</v>
   <i type="logical" name="LTCTE"> F  </i>
   <i type="logical" name="LTETE"> F  </i>
   <i type="logical" name="LTRIPLET"> F  </i>
   <i type="logical" name="LFXCEPS"> F  </i>
   <i type="logical" name="LFXHEG"> F  </i>
   <i type="int" name="NATURALO">     2</i>
   <i type="logical" name="L2ORDER"> F  </i>
   <i type="logical" name="LMP2LT"> F  </i>
   <i type="logical" name="LUSEW"> F  </i>
   <i name="ENCUTGW">     -2.00000000</i>
   <i name="ENCUTGWSOFT">     -2.00000000</i>
   <i name="ENCUTLF">     -1.00000000</i>
   <i type="int" name="LMAXMP2">    -1</i>
   <i name="SCISSOR">      0.00000000</i>
   <i type="int" name="NOMEGA">     0</i>
   <i type="int" name="NOMEGAR">     0</i>
   <i type="int" name="NBANDSGW">    -1</i>
   <i type="int" name="NBANDSO">    -1</i>
   <i type="int" name="NBANDSV">    -1</i>
   <i type="int" name="NELM">     1</i>
   <i type="int" name="NELMHF">     1</i>
   <i type="int" name="DIM">     3</i>
   <i type="int" name="ANTIRES">     0</i>
   <i name="OMEGAMAX">    -30.00000000</i>
   <i name="OMEGAMIN">    -30.00000000</i>
   <i name="OMEGATL">   -200.00000000</i>
   <i type="int" name="OMEGAGRID">   140</i>
   <i name="CSHIFT">     -0.10000000</i>
   <i type="logical" name="SELFENERGY"> F  </i>
   <i type="logical" name="LSPECTRAL"> F  </i>
   <i type="logical" name="LSPECTRALGW"> F  </i>
   <i type="logical" name="LSINGLES"> F  </i>
   <i type="logical" name="LFERMIGW"> F  </i>
   <i type="logical" name="ODDONLYGW"> F  </i>
   <i type="logical" name="EVENONLYGW"> F  </i>
   <i type="int" name="NKREDLFX">     1</i>
   <i type="int" name="NKREDLFY">     1</i>
   <i type="int" name="NKREDLFZ">     1</i>
   <i type="int" name="MAXMEM">  2800</i>
   <i type="int" name="TELESCOPE">     0</i>
   <i type="int" name="TAUPAR">     1</i>
   <i type="int" name="OMEGAPAR">    -1</i>
   <i name="LAMBDA">      1.00000000</i>
  </separator>
  <separator name="External order field" >
   <i name="OFIELD_KAPPA">      0.00000000</i>
   <v name="OFIELD_K">      0.00000000      0.00000000      0.00000000</v>
   <i name="OFIELD_Q6_NEAR">      0.00000000</i>
   <i name="OFIELD_Q6_FAR">      0.00000000</i>
   <i name="OFIELD_A">      0.00000000</i>
  </separator>
 </parameters>
 <atominfo>
  <atoms>       8 </atoms>
  <types>       2 </types>
  <array name="atoms" >
   <dimension dim="1">ion</dimension>
   <field type="string">element</field>
   <field type="int">atomtype</field>
   <set>
    <rc><c>B </c><c>   1</c></rc>
    <rc><c>B </c><c>   1</c></rc>
    <rc><c>C </c><c>   2</c></rc>
    <rc><c>C </c><c>   2</c></rc>
    <rc><c>C </c><c>   2</c></rc>
    <rc><c>C </c><c>   2</c></rc>
    <rc><c>C </c><c>   2</c></rc>
    <rc><c>C </c><c>   2</c></rc>
   </set>
  </array>
  <array name="atomtypes" >
   <dimension dim="1">type</dimension>
   <field type="int">atomspertype</field>
   <field type="string">element</field>
   <field>mass</field>
   <field>valence</field>
   <field type="string">pseudopotential</field>
   <set>
    <rc><c>   2</c><c>B </c><c>     10.81100000</c><c>      3.00000000</c><c>  PAW_PBE B 06Sep2000                   </c></rc>
    <rc><c>   6</c><c>C </c><c>     12.01100000</c><c>      4.00000000</c><c>  PAW_PBE C 08Apr2002                   </c></rc>
   </set>
  </array>
 </atominfo>
 <structure name="initialpos" >
  <crystal>
   <varray name="basis" >
    <v>       4.47648500       2.58450000       0.00000000 </v>
    <v>      -4.47648500       2.58450000       0.00000000 </v>
    <v>       0.00000000       0.00000000      15.00000000 </v>
   </varray>
   <i name="volume">    347.08426447 </i>
   <varray name="rec_basis" >
    <v>       0.11169478       0.19346102       0.00000000 </v>
    <v>      -0.11169478       0.19346102       0.00000000 </v>
    <v>       0.00000000       0.00000000       0.06666667 </v>
   </varray>
  </crystal>
  <varray name="positions" >
   <v>       0.33833034       0.66916432       0.25000000 </v>
   <v>       0.67165522       0.33584146       0.25000000 </v>
   <v>       0.16373946       0.31999962       0.25000000 </v>
   <v>       0.32250218       0.16126397       0.25000000 </v>
   <v>       0.16376430       0.84376384       0.25000000 </v>
   <v>       0.84623863       0.16123684       0.25000000 </v>
   <v>       0.68749850       0.84373000       0.25000000 </v>
   <v>       0.84626736       0.68499594       0.25000000 </v>
  </varray>
 </structure>
 <calculation>
  <scstep>
   <time name="dav">   36.19   36.19</time>
   <time name="total">   36.26   36.26</time>
   <energy>
    <i name="alphaZ">     14.61461864 </i>
    <i name="ewald">   2603.47533640 </i>
    <i name="hartreedc">  -3361.43975615 </i>
    <i name="XCdc">     91.18491800 </i>
    <i name="pawpsdc">    738.13200929 </i>
    <i name="pawaedc">   -739.83780425 </i>
    <i name="eentropy">     -0.01661671 </i>
    <i name="bandstr">   -190.70468933 </i>
    <i name="atom">   1025.20389953 </i>
    <i name="e_fr_energy">    180.61191541 </i>
    <i name="e_wo_entrp">    180.62853212 </i>
    <i name="e_0_energy">    180.62022377 </i>
   </energy>
  </scstep>
  <scstep>
   <time name="dav">   53.91   53.92</time>
   <time name="total">   53.91   53.93</time>
   <energy>
    <i name="e_fr_energy">    -50.42969459 </i>
    <i name="e_wo_entrp">    -50.42946405 </i>
    <i name="e_0_energy">    -50.42957932 </i>
   </energy>
  </scstep>
  <scstep>
   <time name="dav">   47.14   47.14</time>
   <time name="total">   47.14   47.15</time>
   <energy>
    <i name="e_fr_energy">    -72.93213139 </i>
    <i name="e_wo_entrp">    -72.93213139 </i>
    <i name="e_0_energy">    -72.93213139 </i>
   </energy>
  </scstep>
  <scstep>
   <time name="dav">   46.77   46.77</time>
   <time name="total">   46.77   46.78</time>
   <energy>
    <i name="e_fr_energy">    -73.46931425 </i>
    <i name="e_wo_entrp">    -73.46931425 </i>
    <i name="e_0_energy">    -73.46931425 </i>
   </energy>
  </scstep>
  <scstep>
   <time name="dav">   43.79   43.79</time>
   <time name="total">   45.33   45.34</time>
   <energy>
    <i name="e_fr_energy">    -73.48147645 </i>
    <i name="e_wo_entrp">    -73.48147645 </i>
    <i name="e_0_energy">    -73.48147645 </i>
   </energy>
  </scstep>
  <scstep>
   <time name="dav">   47.74   47.75</time>
   <time name="total">   49.33   49.34</time>
   <energy>
    <i name="e_fr_energy">    -68.97528296 </i>
    <i name="e_wo_entrp">    -68.97528296 </i>
    <i name="e_0_energy">    -68.97528296 </i>
   </energy>
  </scstep>
  <scstep>
   <time name="dav">   48.06   48.07</time>
   <time name="total">   49.65   49.66</time>
   <energy>
    <i name="e_fr_energy">    -67.33132857 </i>
    <i name="e_wo_entrp">    -67.33132857 </i>
    <i name="e_0_energy">    -67.33132857 </i>
   </energy>
  </scstep>
  <scstep>
   <time name="dav">   45.85   45.87</time>
   <time name="total">   47.44   47.47</time>
   <energy>
    <i name="e_fr_energy">    -67.25186773 </i>
    <i name="e_wo_entrp">    -67.25186772 </i>
    <i name="e_0_energy">    -67.25186773 </i>
   </energy>
  </scstep>
  <scstep>
   <time name="dav">   43.61   43.66</time>
   <time name="total">   45.21   45.25</time>
   <energy>
    <i name="e_fr_energy">    -67.23693336 </i>
    <i name="e_wo_entrp">    -67.23693335 </i>
    <i name="e_0_energy">    -67.23693335 </i>
   </energy>
  </scstep>
  <scstep>
   <time name="dav">   44.65   44.69</time>
   <time name="total">   46.24   46.29</time>
   <energy>
    <i name="e_fr_energy">    -67.22591035 </i>
    <i name="e_wo_entrp">    -67.22591033 </i>
    <i name="e_0_energy">    -67.22591034 </i>
   </energy>
  </scstep>
  <scstep>
   <time name="dav">   45.04   45.08</time>
   <time name="total">   46.63   46.67</time>
   <energy>
    <i name="e_fr_energy">    -67.22521501 </i>
    <i name="e_wo_entrp">    -67.22521497 </i>
    <i name="e_0_energy">    -67.22521499 </i>
   </energy>
  </scstep>
  <scstep>
   <time name="dav">   38.68   38.71</time>
   <time name="total">   40.27   40.30</time>
   <energy>
    <i name="e_fr_energy">    -67.22317630 </i>
    <i name="e_wo_entrp">    -67.22317626 </i>
    <i name="e_0_energy">    -67.22317628 </i>
   </energy>
  </scstep>
  <scstep>
   <time name="dav">   42.85   42.89</time>
   <time name="total">   44.44   44.48</time>
   <energy>
    <i name="e_fr_energy">    -67.22591324 </i>
    <i name="e_wo_entrp">    -67.22591319 </i>
    <i name="e_0_energy">    -67.22591321 </i>
   </energy>
  </scstep>
  <scstep>
   <time name="dav">   44.52   44.56</time>
   <time name="total">   46.12   46.17</time>
   <energy>
    <i name="e_fr_energy">    -67.22881783 </i>
    <i name="e_wo_entrp">    -67.22881779 </i>
    <i name="e_0_energy">    -67.22881781 </i>
   </energy>
  </scstep>
  <scstep>
   <time name="dav">   45.24   45.29</time>
   <time name="total">   46.83   46.88</time>
   <energy>
    <i name="e_fr_energy">    -67.22904264 </i>
    <i name="e_wo_entrp">    -67.22904260 </i>
    <i name="e_0_energy">    -67.22904262 </i>
   </energy>
  </scstep>
  <scstep>
   <time name="dav">   41.62   41.66</time>
   <time name="total">   43.21   43.26</time>
   <energy>
    <i name="e_fr_energy">    -67.22961491 </i>
    <i name="e_wo_entrp">    -67.22961486 </i>
    <i name="e_0_energy">    -67.22961489 </i>
   </energy>
  </scstep>
  <scstep>
   <time name="dav">   42.84   42.88</time>
   <time name="total">   44.43   44.48</time>
   <energy>
    <i name="e_fr_energy">    -67.22967004 </i>
    <i name="e_wo_entrp">    -67.22966999 </i>
    <i name="e_0_energy">    -67.22967001 </i>
   </energy>
  </scstep>
  <scstep>
   <time name="dav">   38.50   38.53</time>
   <time name="total">   40.09   40.12</time>
   <energy>
    <i name="e_fr_energy">    -67.22969585 </i>
    <i name="e_wo_entrp">    -67.22969581 </i>
    <i name="e_0_energy">    -67.22969583 </i>
   </energy>
  </scstep>
  <scstep>
   <time name="dav">   37.92   37.96</time>
   <time name="total">   39.52   39.55</time>
   <energy>
    <i name="e_fr_energy">    -67.22969737 </i>
    <i name="e_wo_entrp">    -67.22969732 </i>
    <i name="e_0_energy">    -67.22969735 </i>
   </energy>
  </scstep>
  <scstep>
   <time name="dav">   32.53   32.56</time>
   <time name="total">   34.12   34.16</time>
   <energy>
    <i name="e_fr_energy">    -67.22969842 </i>
    <i name="e_wo_entrp">    -67.22969838 </i>
    <i name="e_0_energy">    -67.22969840 </i>
   </energy>
  </scstep>
  <scstep>
   <time name="dav">   35.54   35.57</time>
   <time name="total">   35.60   35.63</time>
   <energy>
    <i name="alphaZ">     14.61461864 </i>
    <i name="ewald">   2603.47533640 </i>
    <i name="hartreedc">  -3498.85851482 </i>
    <i name="XCdc">     96.07904855 </i>
    <i name="pawpsdc">   2906.44295779 </i>
    <i name="pawaedc">  -2908.97546385 </i>
    <i name="eentropy">     -0.00000004 </i>
    <i name="bandstr">   -305.21158071 </i>
    <i name="atom">   1025.20389953 </i>
    <i name="e_fr_energy">    -67.22969852 </i>
    <i name="e_wo_entrp">    -67.22969848 </i>
    <i name="e_0_energy">    -67.22969850 </i>
   </energy>
  </scstep>
  <structure>
   <crystal>
    <varray name="basis" >
     <v>       4.47648500       2.58450000       0.00000000 </v>
     <v>      -4.47648500       2.58450000       0.00000000 </v>
     <v>       0.00000000       0.00000000      15.00000000 </v>
    </varray>
    <i name="volume">    347.08426447 </i>
    <varray name="rec_basis" >
     <v>       0.11169478       0.19346102       0.00000000 </v>
     <v>      -0.11169478       0.19346102       0.00000000 </v>
     <v>       0.00000000       0.00000000       0.06666667 </v>
    </varray>
   </crystal>
   <varray name="positions" >
    <v>       0.33833034       0.66916432       0.25000000 </v>
    <v>       0.67165522       0.33584146       0.25000000 </v>
    <v>       0.16373946       0.31999962       0.25000000 </v>
    <v>       0.32250218       0.16126397       0.25000000 </v>
    <v>       0.16376430       0.84376384       0.25000000 </v>
    <v>       0.84623863       0.16123684       0.25000000 </v>
    <v>       0.68749850       0.84373000       0.25000000 </v>
    <v>       0.84626736       0.68499594       0.25000000 </v>
   </varray>
  </structure>
  <varray name="forces" >
   <v>       0.00031581       0.00043635       0.00000000 </v>
   <v>       0.00425127       0.00025193       0.00000000 </v>
   <v>      -0.00014405       0.00012901       0.00000000 </v>
   <v>      -0.00002472      -0.00081935       0.00000000 </v>
   <v>       0.00116298      -0.00037438       0.00000000 </v>
   <v>      -0.00185646      -0.00022417       0.00000000 </v>
   <v>      -0.00142488       0.00138610       0.00000000 </v>
   <v>      -0.00227997      -0.00078548       0.00000000 </v>
  </varray>
  <varray name="stress" >
   <v>      -0.78607832       0.00227212       0.00000000 </v>
   <v>       0.00227211      -0.78143845       0.00000000 </v>
   <v>       0.00000000       0.00000000      -0.86916227 </v>
  </varray>
  <energy>
   <i name="e_fr_energy">    -67.90773531 </i>
   <i name="e_wo_entrp">    -67.90773529 </i>
   <i name="e_0_energy">     -0.00000004 </i>
  </energy>
  <time name="totalsc">  964.49  965.17</time>
  <eigenvalues>
   <array>
    <dimension dim="1">band</dimension>
    <dimension dim="2">kpoint</dimension>
    <dimension dim="3">spin</dimension>
    <field>eigene</field>
    <field>occ</field>
    <set>
     <set comment="spin 1">
      <set comment="kpoint 1">
       <r>  -19.8849    1.0000 </r>
       <r>  -15.9833    1.0000 </r>
       <r>  -15.9831    1.0000 </r>
       <r>  -13.6419    1.0000 </r>
       <r>  -13.6418    1.0000 </r>
       <r>  -12.5734    1.0000 </r>
       <r>  -11.2501    1.0000 </r>
       <r>   -8.6888    1.0000 </r>
       <r>   -8.4567    1.0000 </r>
       <r>   -6.3045    1.0000 </r>
       <r>   -6.3041    1.0000 </r>
       <r>   -4.4808    1.0000 </r>
       <r>   -4.4807    1.0000 </r>
       <r>   -3.7922    1.0000 </r>
       <r>   -3.7917    1.0000 </r>
       <r>   -1.9639    0.0000 </r>
       <r>   -0.2279    0.0000 </r>
       <r>   -0.2277    0.0000 </r>
       <r>    0.4316    0.0000 </r>
       <r>    0.8392    0.0000 </r>
       <r>    1.8418    0.0000 </r>
       <r>    2.2406    0.0000 </r>
       <r>    4.2233    0.0000 </r>
       <r>    4.8437    0.0000 </r>
       <r>    5.0087    0.0000 </r>
       <r>    5.0092    0.0000 </r>
       <r>    6.2959    0.0000 </r>
       <r>    6.7700    0.0000 </r>
       <r>    6.7707    0.0000 </r>
       <r>    7.8736    0.0000 </r>
       <r>    8.0491    0.0000 </r>
       <r>    8.1276    0.0000 </r>
      </set>
      <set comment="kpoint 2">
       <r>  -19.8810    1.0000 </r>
       <r>  -16.0029    1.0000 </r>
       <r>  -15.9895    1.0000 </r>
       <r>  -13.6471    1.0000 </r>
       <r>  -13.6276    1.0000 </r>
       <r>  -12.5544    1.0000 </r>
       <r>  -11.2268    1.0000 </r>
       <r>   -8.6829    1.0000 </r>
       <r>   -8.4647    1.0000 </r>
       <r>   -6.3220    1.0000 </r>
       <r>   -6.3078    1.0000 </r>
       <r>   -4.4986    1.0000 </r>
       <r>   -4.4838    1.0000 </r>
       <r>   -3.8125    1.0000 </r>
       <r>   -3.8016    1.0000 </r>
       <r>   -1.9985    0.0000 </r>
       <r>   -0.2192    0.0000 </r>
       <r>   -0.1767    0.0000 </r>
       <r>    0.4476    0.0000 </r>
       <r>    0.8465    0.0000 </r>
       <r>    1.8497    0.0000 </r>
       <r>    2.2479    0.0000 </r>
       <r>    4.2305    0.0000 </r>
       <r>    4.8515    0.0000 </r>
       <r>    5.0196    0.0000 </r>
       <r>    5.0321    0.0000 </r>
       <r>    6.3034    0.0000 </r>
       <r>    6.7728    0.0000 </r>
       <r>    6.7929    0.0000 </r>
       <r>    7.6599    0.0000 </r>
       <r>    7.8838    0.0000 </r>
       <r>    7.9036    0.0000 </r>
      </set>
      <set comment="kpoint 3">
       <r>  -19.8695    1.0000 </r>
       <r>  -16.0600    1.0000 </r>
       <r>  -16.0078    1.0000 </r>
       <r>  -13.6633    1.0000 </r>
       <r>  -13.5855    1.0000 </r>
       <r>  -12.4972    1.0000 </r>
       <r>  -11.1584    1.0000 </r>
       <r>   -8.6655    1.0000 </r>
       <r>   -8.4889    1.0000 </r>
       <r>   -6.3744    1.0000 </r>
       <r>   -6.3176    1.0000 </r>
       <r>   -4.5518    1.0000 </r>
       <r>   -4.4927    1.0000 </r>
       <r>   -3.8730    1.0000 </r>
       <r>   -3.8309    1.0000 </r>
       <r>   -2.0896    0.0000 </r>
       <r>   -0.1940    0.0000 </r>
       <r>   -0.0393    0.0000 </r>
       <r>    0.4977    0.0000 </r>
       <r>    0.8684    0.0000 </r>
       <r>    1.8734    0.0000 </r>
       <r>    2.2699    0.0000 </r>
       <r>    4.2521    0.0000 </r>
       <r>    4.8746    0.0000 </r>
       <r>    5.0506    0.0000 </r>
       <r>    5.1013    0.0000 </r>
       <r>    6.3227    0.0000 </r>
       <r>    6.7750    0.0000 </r>
       <r>    6.8601    0.0000 </r>
       <r>    7.2952    0.0000 </r>
       <r>    7.7121    0.0000 </r>
       <r>    7.7238    0.0000 </r>
      </set>
      <set comment="kpoint 4">
       <r>  -19.8505    1.0000 </r>
       <r>  -16.1492    1.0000 </r>
       <r>  -16.0366    1.0000 </r>
       <r>  -13.6914    1.0000 </r>
       <r>  -13.5173    1.0000 </r>
       <r>  -12.4026    1.0000 </r>
       <r>  -11.0486    1.0000 </r>
       <r>   -8.6365    1.0000 </r>
       <r>   -8.5300    1.0000 </r>
       <r>   -6.4599    1.0000 </r>
       <r>   -6.3317    1.0000 </r>
       <r>   -4.6382    1.0000 </r>
       <r>   -4.5068    1.0000 </r>
       <r>   -3.9725    1.0000 </r>
       <r>   -3.8788    1.0000 </r>
       <r>   -2.2122    0.0000 </r>
       <r>   -0.1527    0.0000 </r>
       <r>    0.1483    0.0000 </r>
       <r>    0.5910    0.0000 </r>
       <r>    0.9048    0.0000 </r>
       <r>    1.9133    0.0000 </r>
       <r>    2.3065    0.0000 </r>
       <r>    4.2881    0.0000 </r>
       <r>    4.9115    0.0000 </r>
       <r>    5.0995    0.0000 </r>
       <r>    5.2152    0.0000 </r>
       <r>    6.3350    0.0000 </r>
       <r>    6.7459    0.0000 </r>
       <r>    6.9684    0.0000 </r>
       <r>    6.9856    0.0000 </r>
       <r>    7.5332    0.0000 </r>
       <r>    7.5731    0.0000 </r>
      </set>
      <set comment="kpoint 5">
       <r>  -19.8242    1.0000 </r>
       <r>  -16.2638    1.0000 </r>
       <r>  -16.0736    1.0000 </r>
       <r>  -13.7309    1.0000 </r>
       <r>  -13.4256    1.0000 </r>
       <r>  -12.2732    1.0000 </r>
       <r>  -10.9025    1.0000 </r>
       <r>   -8.5961    1.0000 </r>
       <r>   -8.5891    1.0000 </r>
       <r>   -6.5763    1.0000 </r>
       <r>   -6.3468    1.0000 </r>
       <r>   -4.7547    1.0000 </r>
       <r>   -4.5256    1.0000 </r>
       <r>   -4.1087    1.0000 </r>
       <r>   -3.9438    1.0000 </r>
       <r>   -2.3454    0.0000 </r>
       <r>   -0.0972    0.0000 </r>
       <r>    0.3396    0.0000 </r>
       <r>    0.7477    0.0000 </r>
       <r>    0.9557    0.0000 </r>
       <r>    1.9697    0.0000 </r>
[...]
       <r>  -19.3126    1.0000 </r>
       <r>  -17.5879    1.0000 </r>
       <r>  -16.5142    1.0000 </r>
       <r>  -14.0979    1.0000 </r>
       <r>  -11.9482    1.0000 </r>
       <r>  -10.0927    1.0000 </r>
       <r>   -9.7885    1.0000 </r>
       <r>   -9.0092    1.0000 </r>
       <r>   -7.7498    1.0000 </r>
       <r>   -7.6122    1.0000 </r>
       <r>   -7.0912    1.0000 </r>
       <r>   -6.5873    1.0000 </r>
       <r>   -6.1522    1.0000 </r>
       <r>   -5.0568    1.0000 </r>
       <r>   -4.8775    1.0000 </r>
       <r>   -3.0168    0.0000 </r>
       <r>    0.4540    0.0000 </r>
       <r>    1.8312    0.0000 </r>
       <r>    2.4796    0.0000 </r>
       <r>    2.9359    0.0000 </r>
       <r>    3.3561    0.0000 </r>
       <r>    3.7907    0.0000 </r>
       <r>    3.9001    0.0000 </r>
       <r>    4.3639    0.0000 </r>
       <r>    4.8045    0.0000 </r>
       <r>    5.5087    0.0000 </r>
       <r>    5.5271    0.0000 </r>
       <r>    5.8681    0.0000 </r>
       <r>    5.8746    0.0000 </r>
       <r>    6.3771    0.0000 </r>
       <r>    6.4240    0.0000 </r>
       <r>    6.5039    0.0000 </r>
      </set>
      <set comment="kpoint 513">
       <r>  -19.3110    1.0000 </r>
       <r>  -17.6087    1.0000 </r>
       <r>  -16.4713    1.0000 </r>
       <r>  -14.1641    1.0000 </r>
       <r>  -11.8790    1.0000 </r>
       <r>  -10.0307    1.0000 </r>
       <r>   -9.7960    1.0000 </r>
       <r>   -9.1374    1.0000 </r>
       <r>   -7.6311    1.0000 </r>
       <r>   -7.6008    1.0000 </r>
       <r>   -7.2297    1.0000 </r>
       <r>   -6.6276    1.0000 </r>
       <r>   -6.1084    1.0000 </r>
       <r>   -5.0234    1.0000 </r>
       <r>   -4.7886    1.0000 </r>
       <r>   -3.1201    0.0000 </r>
       <r>    0.6356    0.0000 </r>
       <r>    1.6503    0.0000 </r>
       <r>    2.5721    0.0000 </r>
       <r>    2.8002    0.0000 </r>
       <r>    3.4414    0.0000 </r>
       <r>    3.6659    0.0000 </r>
       <r>    3.9941    0.0000 </r>
       <r>    4.2260    0.0000 </r>
       <r>    4.9817    0.0000 </r>
       <r>    5.4009    0.0000 </r>
       <r>    5.5635    0.0000 </r>
       <r>    5.9309    0.0000 </r>
       <r>    6.0627    0.0000 </r>
       <r>    6.2914    0.0000 </r>
       <r>    6.4407    0.0000 </r>
       <r>    6.6857    0.0000 </r>
      </set>
      <set comment="kpoint 514">
       <r>  -19.3104    1.0000 </r>
       <r>  -17.6157    1.0000 </r>
       <r>  -16.4563    1.0000 </r>
       <r>  -14.1870    1.0000 </r>
       <r>  -11.8553    1.0000 </r>
       <r>  -10.0073    1.0000 </r>
       <r>   -9.7934    1.0000 </r>
       <r>   -9.1894    1.0000 </r>
       <r>   -7.5967    1.0000 </r>
       <r>   -7.5605    1.0000 </r>
       <r>   -7.3067    1.0000 </r>
       <r>   -6.6415    1.0000 </r>
       <r>   -6.0932    1.0000 </r>
       <r>   -5.0121    1.0000 </r>
       <r>   -4.7561    1.0000 </r>
       <r>   -3.1576    0.0000 </r>
       <r>    0.7139    0.0000 </r>
       <r>    1.5724    0.0000 </r>
       <r>    2.6771    0.0000 </r>
       <r>    2.6808    0.0000 </r>
       <r>    3.5179    0.0000 </r>
       <r>    3.5760    0.0000 </r>
       <r>    4.1009    0.0000 </r>
       <r>    4.1047    0.0000 </r>
       <r>    5.0831    0.0000 </r>
       <r>    5.3150    0.0000 </r>
       <r>    5.5630    0.0000 </r>
       <r>    5.9648    0.0000 </r>
       <r>    6.2453    0.0000 </r>
       <r>    6.3007    0.0000 </r>
       <r>    6.4218    0.0000 </r>
       <r>    6.4457    0.0000 </r>
      </set>
     </set>
    </set>
   </array>
  </eigenvalues>
  <separator name="orbital magnetization" >
   <v name="MAGDIPOLOUT">      0.00000000      0.00000000      0.00000000</v>
  </separator>
  <dos>
   <i name="efermi">     -3.47660847 </i>
   <total>
    <array>
     <dimension dim="1">gridpoints</dimension>
     <dimension dim="2">spin</dimension>
     <field>energy</field>
     <field>total</field>
     <field>integrated</field>
     <set>
      <set comment="spin 1">
       <r>   -21.2855     0.0000     0.0000 </r>
       <r>   -21.1828     0.0000     0.0000 </r>
       <r>   -21.0801     0.0000     0.0000 </r>
       <r>   -20.9774     0.0000     0.0000 </r>
       <r>   -20.8746     0.0000     0.0000 </r>
       <r>   -20.7719     0.0000     0.0000 </r>
       <r>   -20.6692     0.0000     0.0000 </r>
       <r>   -20.5665     0.0000     0.0000 </r>
       <r>   -20.4638     0.0000     0.0000 </r>
       <r>   -20.3611     0.0000     0.0000 </r>
       <r>   -20.2584     0.0000     0.0000 </r>
       <r>   -20.1557     0.0000     0.0000 </r>
       <r>   -20.0529     0.0037     0.0004 </r>
       <r>   -19.9502     0.1199     0.0127 </r>
       <r>   -19.8475     0.8108     0.0960 </r>
       <r>   -19.7448     1.7138     0.2720 </r>
       <r>   -19.6421     2.0797     0.4856 </r>
       <r>   -19.5394     2.3428     0.7262 </r>
       <r>   -19.4367     2.8790     1.0219 </r>
       <r>   -19.3340     3.9943     1.4322 </r>
       <r>   -19.2312     3.9249     1.8353 </r>
       <r>   -19.1285     1.4564     1.9849 </r>
       <r>   -19.0258     0.1437     1.9997 </r>
       <r>   -18.9231     0.0029     2.0000 </r>
       <r>   -18.8204     0.0000     2.0000 </r>
       <r>   -18.7177     0.0000     2.0000 </r>
       <r>   -18.6150     0.0000     2.0000 </r>
       <r>   -18.5123     0.0000     2.0000 </r>
       <r>   -18.4095     0.0000     2.0000 </r>
       <r>   -18.3068     0.0000     2.0000 </r>
       <r>   -18.2041     0.0000     2.0000 </r>
       <r>   -18.1014     0.0000     2.0000 </r>
       <r>   -17.9987     0.0000     2.0000 </r>
       <r>   -17.8960     0.0000     2.0000 </r>
       <r>   -17.7933     0.0036     2.0004 </r>
       <r>   -17.6906     0.1357     2.0143 </r>
       <r>   -17.5878     1.0574     2.1229 </r>
       <r>   -17.4851     2.5268     2.3825 </r>
       <r>   -17.3824     3.2261     2.7138 </r>
       <r>   -17.2797     2.7302     2.9942 </r>
       <r>   -17.1770     1.9707     3.1967 </r>
       <r>   -17.0743     1.8459     3.3862 </r>
       <r>   -16.9716     1.9117     3.5826 </r>
       <r>   -16.8689     2.0099     3.7890 </r>
       <r>   -16.7662     2.1475     4.0096 </r>
       <r>   -16.6634     2.3612     4.2522 </r>
       <r>   -16.5607     2.7741     4.5371 </r>
       <r>   -16.4580     3.4445     4.8909 </r>
       <r>   -16.3553     3.3961     5.2397 </r>
       <r>   -16.2526     2.5978     5.5065 </r>
       <r>   -16.1499     2.0554     5.7176 </r>
       <r>   -16.0472     1.6442     5.8865 </r>
       <r>   -15.9445     0.9098     5.9800 </r>
       <r>   -15.8417     0.1862     5.9991 </r>
       <r>   -15.7390     0.0088     6.0000 </r>
       <r>   -15.6363     0.0001     6.0000 </r>
       <r>   -15.5336     0.0000     6.0000 </r>
       <r>   -15.4309     0.0000     6.0000 </r>
       <r>   -15.3282     0.0000     6.0000 </r>
       <r>   -15.2255     0.0000     6.0000 </r>
       <r>   -15.1228     0.0000     6.0000 </r>
       <r>   -15.0200     0.0000     6.0000 </r>
       <r>   -14.9173     0.0000     6.0000 </r>
       <r>   -14.8146     0.0000     6.0000 </r>
       <r>   -14.7119     0.0000     6.0000 </r>
       <r>   -14.6092     0.0000     6.0000 </r>
       <r>   -14.5065     0.0000     6.0000 </r>
       <r>   -14.4038     0.0004     6.0000 </r>
       <r>   -14.3011     0.0300     6.0031 </r>
       <r>   -14.1983     0.4116     6.0454 </r>
       <r>   -14.0956     1.4254     6.1918 </r>
       <r>   -13.9929     2.1030     6.4078 </r>
       <r>   -13.8902     2.4299     6.6574 </r>
       <r>   -13.7875     2.9929     6.9648 </r>
       <r>   -13.6848     3.5386     7.3283 </r>
       <r>   -13.5821     2.7466     7.6104 </r>
       <r>   -13.4794     1.8460     7.8000 </r>
       <r>   -13.3766     1.5608     7.9603 </r>
       <r>   -13.2739     1.4426     8.1085 </r>
       <r>   -13.1712     1.3874     8.2510 </r>
       <r>   -13.0685     1.3257     8.3871 </r>
       <r>   -12.9658     1.2798     8.5186 </r>
       <r>   -12.8631     1.2690     8.6489 </r>
       <r>   -12.7604     1.4459     8.7974 </r>
       <r>   -12.6577     1.8460     8.9870 </r>
       <r>   -12.5549     2.0063     9.1931 </r>
       <r>   -12.4522     1.8828     9.3865 </r>
       <r>   -12.3495     1.7364     9.5648 </r>
       <r>   -12.2468     1.6190     9.7311 </r>
       <r>   -12.1441     1.5094     9.8862 </r>
       <r>   -12.0414     1.4245    10.0325 </r>
       <r>   -11.9387     1.3096    10.1670 </r>
       <r>   -11.8360     1.0211    10.2719 </r>
       <r>   -11.7332     0.5681    10.3302 </r>
       <r>   -11.6305     0.4781    10.3793 </r>
       <r>   -11.5278     0.4272    10.4232 </r>
       <r>   -11.4251     0.5037    10.4749 </r>
       <r>   -11.3224     0.4691    10.5231 </r>
       <r>   -11.2197     0.6436    10.5892 </r>
       <r>   -11.1170     0.7800    10.6694 </r>
       <r>   -11.0143     0.8415    10.7558 </r>
       <r>   -10.9115     1.0389    10.8625 </r>
       <r>   -10.8088     1.2257    10.9884 </r>
       <r>   -10.7061     1.6167    11.1544 </r>
       <r>   -10.6034     1.5765    11.3164 </r>
       <r>   -10.5007     1.8220    11.5035 </r>
       <r>   -10.3980     1.9206    11.7008 </r>
       <r>   -10.2953     2.2373    11.9306 </r>
       <r>   -10.1926     2.2722    12.1640 </r>
       <r>   -10.0898     1.6694    12.3354 </r>
       <r>    -9.9871     1.3170    12.4707 </r>
       <r>    -9.8844     1.6709    12.6423 </r>
       <r>    -9.7817     2.6316    12.9126 </r>
       <r>    -9.6790     2.6429    13.1841 </r>
       <r>    -9.5763     2.3093    13.4213 </r>
       <r>    -9.4736     1.9807    13.6247 </r>
       <r>    -9.3709     1.9297    13.8229 </r>
       <r>    -9.2682     1.8440    14.0123 </r>
       <r>    -9.1654     1.9724    14.2149 </r>
       <r>    -9.0627     2.1889    14.4397 </r>
       <r>    -8.9600     2.4247    14.6888 </r>
       <r>    -8.8573     2.6334    14.9593 </r>
       <r>    -8.7546     2.4843    15.2144 </r>
       <r>    -8.6519     2.6353    15.4851 </r>
       <r>    -8.5492     3.0198    15.7953 </r>
       <r>    -8.4465     2.8020    16.0831 </r>
       <r>    -8.3437     2.3411    16.3235 </r>
       <r>    -8.2410     2.0576    16.5349 </r>
       <r>    -8.1383     1.9968    16.7400 </r>
       <r>    -8.0356     2.4723    16.9939 </r>
       <r>    -7.9329     3.1478    17.3172 </r>
       <r>    -7.8302     4.0042    17.7285 </r>
       <r>    -7.7275     4.3965    18.1801 </r>
       <r>    -7.6248     4.3490    18.6268 </r>
       <r>    -7.5220     3.8942    19.0268 </r>
       <r>    -7.4193     2.5935    19.2931 </r>
       <r>    -7.3166     1.7359    19.4714 </r>
       <r>    -7.2139     2.0000    19.6769 </r>
       <r>    -7.1112     2.0953    19.8921 </r>
       <r>    -7.0085     1.7451    20.0713 </r>
       <r>    -6.9058     1.6249    20.2382 </r>
       <r>    -6.8031     1.6230    20.4049 </r>
       <r>    -6.7003     1.8462    20.5945 </r>
       <r>    -6.5976     2.6943    20.8713 </r>
       <r>    -6.4949     4.1903    21.3017 </r>
       <r>    -6.3922     6.7979    21.9999 </r>
       <r>    -6.2895     7.9473    22.8162 </r>
       <r>    -6.1868     5.8131    23.4133 </r>
       <r>    -6.0841     3.9548    23.8195 </r>
       <r>    -5.9814     2.6969    24.0965 </r>
       <r>    -5.8786     2.3356    24.3364 </r>
       <r>    -5.7759     2.3597    24.5787 </r>
       <r>    -5.6732     2.4399    24.8294 </r>
       <r>    -5.5705     2.5178    25.0880 </r>
       <r>    -5.4678     2.6567    25.3608 </r>
       <r>    -5.3651     2.7686    25.6452 </r>
       <r>    -5.2624     2.9890    25.9522 </r>
       <r>    -5.1597     3.2348    26.2845 </r>
       <r>    -5.0569     3.7243    26.6670 </r>
       <r>    -4.9542     4.1640    27.0947 </r>
       <r>    -4.8515     4.3586    27.5424 </r>
       <r>    -4.7488     4.7215    28.0273 </r>
       <r>    -4.6461     4.6332    28.5032 </r>
       <r>    -4.5434     3.9470    28.9086 </r>
       <r>    -4.4407     2.8166    29.1979 </r>
       <r>    -4.3380     1.6075    29.3630 </r>
       <r>    -4.2352     1.2708    29.4936 </r>
       <r>    -4.1325     1.2068    29.6175 </r>
       <r>    -4.0298     1.1634    29.7370 </r>
       <r>    -3.9271     1.1175    29.8518 </r>
       <r>    -3.8244     0.9452    29.9489 </r>
       <r>    -3.7217     0.4354    29.9936 </r>
       <r>    -3.6190     0.0606    29.9998 </r>
       <r>    -3.5163     0.0017    30.0000 </r>
       <r>    -3.4135     0.0000    30.0000 </r>
       <r>    -3.3108     0.0049    30.0005 </r>
       <r>    -3.2081     0.1247    30.0133 </r>
       <r>    -3.1054     0.6966    30.0849 </r>
       <r>    -3.0027     1.3317    30.2216 </r>
       <r>    -2.9000     1.5948    30.3855 </r>
       <r>    -2.7973     1.8523    30.5757 </r>
       <r>    -2.6946     2.2991    30.8119 </r>
       <r>    -2.5918     2.6977    31.0889 </r>
       <r>    -2.4891     2.2725    31.3223 </r>
       <r>    -2.3864     1.5890    31.4856 </r>
       <r>    -2.2837     1.2725    31.6163 </r>
       <r>    -2.1810     0.9926    31.7182 </r>
       <r>    -2.0783     0.8485    31.8054 </r>
       <r>    -1.9756     0.6320    31.8703 </r>
       <r>    -1.8729     0.4527    31.9168 </r>
       <r>    -1.7702     0.2940    31.9470 </r>
       <r>    -1.6674     0.2315    31.9708 </r>
       <r>    -1.5647     0.1524    31.9864 </r>
       <r>    -1.4620     0.0942    31.9961 </r>
       <r>    -1.3593     0.0417    32.0004 </r>
       <r>    -1.2566     0.0530    32.0058 </r>
       <r>    -1.1539     0.1067    32.0168 </r>
       <r>    -1.0512     0.1747    32.0347 </r>
       <r>    -0.9485     0.2481    32.0602 </r>
       <r>    -0.8457     0.3191    32.0930 </r>
       <r>    -0.7430     0.4109    32.1352 </r>
       <r>    -0.6403     0.4921    32.1857 </r>
       <r>    -0.5376     0.6209    32.2495 </r>
       <r>    -0.4349     0.7269    32.3242 </r>
       <r>    -0.3322     0.9772    32.4245 </r>
       <r>    -0.2295     1.5212    32.5808 </r>
       <r>    -0.1268     2.7799    32.8663 </r>
       <r>    -0.0240     2.9182    33.1660 </r>
       <r>     0.0787     2.2124    33.3933 </r>
       <r>     0.1814     1.6612    33.5639 </r>
       <r>     0.2841     1.5042    33.7184 </r>
       <r>     0.3868     1.3316    33.8552 </r>
       <r>     0.4895     1.4668    34.0058 </r>
       <r>     0.5922     1.5042    34.1603 </r>
       <r>     0.6949     1.3609    34.3001 </r>
       <r>     0.7977     1.1446    34.4177 </r>
       <r>     0.9004     1.3678    34.5582 </r>
       <r>     1.0031     1.7771    34.7407 </r>
       <r>     1.1058     1.8765    34.9334 </r>
       <r>     1.2085     1.9366    35.1324 </r>
       <r>     1.3112     2.0165    35.3395 </r>
       <r>     1.4139     2.1109    35.5563 </r>
       <r>     1.5166     2.2613    35.7886 </r>
       <r>     1.6194     2.4489    36.0401 </r>
       <r>     1.7221     2.3530    36.2818 </r>
       <r>     1.8248     2.4100    36.5293 </r>
       <r>     1.9275     2.7948    36.8164 </r>
       <r>     2.0302     2.9646    37.1209 </r>
       <r>     2.1329     3.0566    37.4348 </r>
       <r>     2.2356     3.1551    37.7589 </r>
       <r>     2.3383     3.6624    38.1351 </r>
       <r>     2.4411     3.8876    38.5344 </r>
       <r>     2.5438     3.8253    38.9273 </r>
       <r>     2.6465     3.9225    39.3302 </r>
       <r>     2.7492     3.7995    39.7204 </r>
       <r>     2.8519     3.8504    40.1159 </r>
       <r>     2.9546     3.8394    40.5102 </r>
       <r>     3.0573     3.7893    40.8995 </r>
       <r>     3.1600     3.8114    41.2909 </r>
       <r>     3.2628     3.8226    41.6836 </r>
       <r>     3.3655     3.7550    42.0693 </r>
       <r>     3.4682     3.8417    42.4638 </r>
       <r>     3.5709     3.7655    42.8506 </r>
       <r>     3.6736     3.7693    43.2378 </r>
       <r>     3.7763     3.8348    43.6316 </r>
       <r>     3.8790     3.8560    44.0277 </r>
       <r>     3.9817     4.0779    44.4466 </r>
       <r>     4.0845     3.8987    44.8470 </r>
       <r>     4.1872     3.2419    45.1800 </r>
       <r>     4.2899     3.3445    45.5235 </r>
       <r>     4.3926     4.2531    45.9604 </r>
       <r>     4.4953     5.0016    46.4741 </r>
       <r>     4.5980     4.7249    46.9594 </r>
       <r>     4.7007     4.8193    47.4544 </r>
       <r>     4.8034     4.9769    47.9656 </r>
       <r>     4.9062     5.4531    48.5257 </r>
       <r>     5.0089     5.8544    49.1270 </r>
       <r>     5.1116     6.1802    49.7618 </r>
       <r>     5.2143     6.5753    50.4371 </r>
       <r>     5.3170     7.0509    51.1614 </r>
       <r>     5.4197     7.6300    51.9451 </r>
       <r>     5.5224     8.0170    52.7685 </r>
       <r>     5.6251     7.5528    53.5443 </r>
       <r>     5.7278     6.0079    54.1614 </r>
       <r>     5.8306     6.5831    54.8375 </r>
       <r>     5.9333     8.0727    55.6667 </r>
       <r>     6.0360     7.7000    56.4576 </r>
       <r>     6.1387     7.1847    57.1955 </r>
       <r>     6.2414     6.8223    57.8963 </r>
       <r>     6.3441     7.2636    58.6423 </r>
       <r>     6.4468     7.4823    59.4109 </r>
       <r>     6.5495     6.9151    60.1211 </r>
       <r>     6.6523     6.3872    60.7772 </r>
       <r>     6.7550     6.1871    61.4127 </r>
       <r>     6.8577     6.8379    62.1150 </r>
       <r>     6.9604     6.1342    62.7451 </r>
       <r>     7.0631     4.5521    63.2126 </r>
       <r>     7.1658     2.9083    63.5113 </r>
       <r>     7.2685     1.3507    63.6501 </r>
       <r>     7.3712     1.0516    63.7581 </r>
       <r>     7.4740     0.7300    63.8331 </r>
       <r>     7.5767     0.4225    63.8764 </r>
       <r>     7.6794     0.3207    63.9094 </r>
       <r>     7.7821     0.2529    63.9354 </r>
       <r>     7.8848     0.2646    63.9625 </r>
       <r>     7.9875     0.2238    63.9855 </r>
       <r>     8.0902     0.1031    63.9961 </r>
       <r>     8.1929     0.0332    63.9995 </r>
       <r>     8.2957     0.0045    64.0000 </r>
       <r>     8.3984     0.0002    64.0000 </r>
       <r>     8.5011     0.0000    64.0000 </r>
       <r>     8.6038     0.0000    64.0000 </r>
       <r>     8.7065     0.0000    64.0000 </r>
       <r>     8.8092     0.0000    64.0000 </r>
       <r>     8.9119     0.0000    64.0000 </r>
       <r>     9.0146     0.0000    64.0000 </r>
       <r>     9.1174     0.0000    64.0000 </r>
       <r>     9.2201     0.0000    64.0000 </r>
       <r>     9.3228     0.0000    64.0000 </r>
       <r>     9.4255     0.0000    64.0000 </r>
       <r>     9.5282     0.0000    64.0000 </r>
      </set>
     </set>
    </array>
   </total>
  </dos>
 </calculation>
 <structure name="finalpos" >
  <crystal>
   <varray name="basis" >
    <v>       4.47648500       2.58450000       0.00000000 </v>
    <v>      -4.47648500       2.58450000       0.00000000 </v>
    <v>       0.00000000       0.00000000      15.00000000 </v>
   </varray>
   <i name="volume">    347.08426447 </i>
   <varray name="rec_basis" >
    <v>       0.11169478       0.19346102       0.00000000 </v>
    <v>      -0.11169478       0.19346102       0.00000000 </v>
    <v>       0.00000000       0.00000000       0.06666667 </v>
   </varray>
  </crystal>
  <varray name="positions" >
   <v>       0.33833034       0.66916432       0.25000000 </v>
   <v>       0.67165522       0.33584146       0.25000000 </v>
   <v>       0.16373946       0.31999962       0.25000000 </v>
   <v>       0.32250218       0.16126397       0.25000000 </v>
   <v>       0.16376430       0.84376384       0.25000000 </v>
   <v>       0.84623863       0.16123684       0.25000000 </v>
   <v>       0.68749850       0.84373000       0.25000000 </v>
   <v>       0.84626736       0.68499594       0.25000000 </v>
  </varray>
 </structure>
</modeling>
