  15  15   0  16
  0.2040470E+02  0.4854000E-09  0.4854000E-09  0.1500000E-08  0.5000000E-15
  1.000000000000000E-004
  CAR 
 Lattice                                 
     10.26335975    -21.63837118  301     -0.30250946      1.00000000
    -21.638  0.0000E+00  0.0000E+00  0.0000E+00  0.0000E+00
    -21.532  0.0000E+00  0.0000E+00  0.0000E+00  0.0000E+00
    -21.426  0.0000E+00  0.0000E+00  0.0000E+00  0.0000E+00
    -21.319  0.0000E+00  0.0000E+00  0.0000E+00  0.0000E+00
    -21.213  0.0000E+00  0.0000E+00  0.0000E+00  0.0000E+00
    -21.107  0.0000E+00  0.0000E+00  0.0000E+00  0.0000E+00
    -21.000  0.0000E+00  0.0000E+00  0.0000E+00  0.0000E+00
    -20.894  0.0000E+00  0.0000E+00  0.0000E+00  0.0000E+00
    -20.788  0.0000E+00  0.0000E+00  0.0000E+00  0.0000E+00
    -20.681  0.8520E-15  0.8520E-15  0.9060E-16  0.9060E-16
    -20.575  0.1358E-10  0.1358E-10  0.1445E-11  0.1445E-11
    -20.469  0.2651E-07  0.2651E-07  0.2821E-08  0.2821E-08
    -20.362  0.6956E-05  0.6956E-05  0.7425E-06  0.7425E-06
    -20.256  0.2738E-03  0.2738E-03  0.2986E-04  0.2986E-04
    -20.150  0.1978E-02  0.1978E-02  0.2402E-03  0.2402E-03
    -20.043  0.4156E-02  0.4156E-02  0.6821E-03  0.6821E-03
    -19.937  0.4530E-02  0.4530E-02  0.1164E-02  0.1164E-02
    -19.831  0.4945E-02  0.4945E-02  0.1690E-02  0.1690E-02
    -19.724  0.4168E-02  0.4168E-02  0.2133E-02  0.2133E-02
    -19.618  0.5384E-02  0.5384E-02  0.2705E-02  0.2705E-02
    -19.512  0.4242E-02  0.4242E-02  0.3157E-02  0.3157E-02
    -19.405  0.4246E-02  0.4246E-02  0.3608E-02  0.3608E-02
    -19.299  0.6017E-02  0.6017E-02  0.4248E-02  0.4248E-02
    -19.193  0.3855E-02  0.3855E-02  0.4658E-02  0.4658E-02
    -19.086  0.3857E-02  0.3857E-02  0.5068E-02  0.5068E-02
    -18.980  0.6113E-02  0.6113E-02  0.5718E-02  0.5718E-02
    -18.874  0.5247E-02  0.5247E-02  0.6276E-02  0.6276E-02
    -18.767  0.3001E-02  0.3001E-02  0.6595E-02  0.6595E-02
    -18.661  0.4306E-02  0.4306E-02  0.7053E-02  0.7053E-02
    -18.555  0.6932E-02  0.6932E-02  0.7790E-02  0.7790E-02
    -18.448  0.4625E-02  0.4625E-02  0.8282E-02  0.8282E-02
    -18.342  0.3816E-02  0.3816E-02  0.8688E-02  0.8688E-02
    -18.236  0.2967E-02  0.2967E-02  0.9003E-02  0.9003E-02
    -18.129  0.6542E-02  0.6542E-02  0.9699E-02  0.9699E-02
    -18.023  0.6692E-02  0.6692E-02  0.1041E-01  0.1041E-01
    -17.917  0.3617E-02  0.3617E-02  0.1080E-01  0.1080E-01
    -17.810  0.3253E-02  0.3253E-02  0.1114E-01  0.1114E-01
    -17.704  0.4096E-02  0.4096E-02  0.1158E-01  0.1158E-01
    -17.597  0.6141E-02  0.6141E-02  0.1223E-01  0.1223E-01
    -17.491  0.6984E-02  0.6984E-02  0.1297E-01  0.1297E-01
    -17.385  0.6833E-02  0.6833E-02  0.1370E-01  0.1370E-01
    -17.278  0.8230E-02  0.8230E-02  0.1457E-01  0.1457E-01
    -17.172  0.1066E-01  0.1066E-01  0.1571E-01  0.1571E-01
    -17.066  0.1499E-01  0.1499E-01  0.1730E-01  0.1730E-01
    -16.959  0.1657E-01  0.1657E-01  0.1906E-01  0.1906E-01
    -16.853  0.1934E-01  0.1934E-01  0.2112E-01  0.2112E-01
    -16.747  0.2100E-01  0.2100E-01  0.2335E-01  0.2335E-01
    -16.640  0.1166E-01  0.1166E-01  0.2459E-01  0.2459E-01
    -16.534  0.2970E-02  0.2970E-02  0.2491E-01  0.2491E-01
    -16.428  0.6876E-02  0.6876E-02  0.2564E-01  0.2564E-01
    -16.321  0.8326E-02  0.8326E-02  0.2653E-01  0.2653E-01
    -16.215  0.4641E-02  0.4641E-02  0.2702E-01  0.2702E-01
    -16.109  0.4191E-02  0.4191E-02  0.2747E-01  0.2747E-01
    -16.002  0.3860E-02  0.3860E-02  0.2788E-01  0.2788E-01
    -15.896  0.3870E-02  0.3870E-02  0.2829E-01  0.2829E-01
    -15.790  0.3554E-02  0.3554E-02  0.2867E-01  0.2867E-01
    -15.683  0.7915E-02  0.7915E-02  0.2951E-01  0.2951E-01
    -15.577  0.8268E-02  0.8268E-02  0.3039E-01  0.3039E-01
    -15.471  0.4052E-02  0.4052E-02  0.3082E-01  0.3082E-01
    -15.364  0.3891E-02  0.3891E-02  0.3123E-01  0.3123E-01
    -15.258  0.3388E-02  0.3388E-02  0.3159E-01  0.3159E-01
    -15.152  0.4584E-02  0.4584E-02  0.3208E-01  0.3208E-01
    -15.045  0.6623E-02  0.6623E-02  0.3278E-01  0.3278E-01
    -14.939  0.1308E-01  0.1308E-01  0.3417E-01  0.3417E-01
    -14.833  0.1897E-01  0.1897E-01  0.3619E-01  0.3619E-01
    -14.726  0.1898E-01  0.1898E-01  0.3821E-01  0.3821E-01
    -14.620  0.1594E-01  0.1594E-01  0.3991E-01  0.3991E-01
    -14.514  0.9960E-02  0.9960E-02  0.4096E-01  0.4096E-01
    -14.407  0.8489E-02  0.8489E-02  0.4187E-01  0.4187E-01
    -14.301  0.1418E-01  0.1418E-01  0.4337E-01  0.4337E-01
    -14.195  0.1587E-01  0.1587E-01  0.4506E-01  0.4506E-01
    -14.088  0.1261E-01  0.1261E-01  0.4640E-01  0.4640E-01
    -13.982  0.1058E-01  0.1058E-01  0.4753E-01  0.4753E-01
    -13.876  0.1459E-01  0.1459E-01  0.4908E-01  0.4908E-01
    -13.769  0.1927E-01  0.1927E-01  0.5113E-01  0.5113E-01
    -13.663  0.1791E-01  0.1791E-01  0.5303E-01  0.5303E-01
    -13.557  0.1697E-01  0.1697E-01  0.5484E-01  0.5484E-01
    -13.450  0.8962E-02  0.8962E-02  0.5579E-01  0.5579E-01
    -13.344  0.5767E-02  0.5767E-02  0.5640E-01  0.5640E-01
    -13.238  0.3531E-02  0.3531E-02  0.5678E-01  0.5678E-01
    -13.131  0.3778E-02  0.3778E-02  0.5718E-01  0.5718E-01
    -13.025  0.6625E-02  0.6625E-02  0.5788E-01  0.5788E-01
    -12.919  0.7161E-02  0.7161E-02  0.5865E-01  0.5865E-01
    -12.812  0.4839E-02  0.4839E-02  0.5916E-01  0.5916E-01
    -12.706  0.6591E-02  0.6591E-02  0.5986E-01  0.5986E-01
    -12.600  0.7318E-02  0.7318E-02  0.6064E-01  0.6064E-01
    -12.493  0.5545E-02  0.5545E-02  0.6123E-01  0.6123E-01
    -12.387  0.5583E-02  0.5583E-02  0.6182E-01  0.6182E-01
    -12.281  0.3431E-02  0.3431E-02  0.6219E-01  0.6219E-01
    -12.174  0.5742E-02  0.5742E-02  0.6280E-01  0.6280E-01
    -12.068  0.8433E-02  0.8433E-02  0.6369E-01  0.6369E-01
    -11.962  0.3768E-02  0.3768E-02  0.6410E-01  0.6410E-01
    -11.855  0.3174E-02  0.3174E-02  0.6443E-01  0.6443E-01
    -11.749  0.3413E-02  0.3413E-02  0.6480E-01  0.6480E-01
    -11.642  0.5609E-02  0.5609E-02  0.6539E-01  0.6539E-01
    -11.536  0.6926E-02  0.6926E-02  0.6613E-01  0.6613E-01
    -11.430  0.4231E-02  0.4231E-02  0.6658E-01  0.6658E-01
    -11.323  0.1833E-02  0.1833E-02  0.6677E-01  0.6677E-01
    -11.217  0.4252E-02  0.4252E-02  0.6723E-01  0.6723E-01
    -11.111  0.5823E-02  0.5823E-02  0.6785E-01  0.6785E-01
    -11.004  0.5152E-02  0.5152E-02  0.6839E-01  0.6839E-01
    -10.898  0.6959E-02  0.6959E-02  0.6913E-01  0.6913E-01
    -10.792  0.7227E-02  0.7227E-02  0.6990E-01  0.6990E-01
    -10.685  0.3103E-02  0.3103E-02  0.7023E-01  0.7023E-01
    -10.579  0.8290E-02  0.8290E-02  0.7111E-01  0.7111E-01
    -10.473  0.1418E-01  0.1418E-01  0.7262E-01  0.7262E-01
    -10.366  0.1532E-01  0.1532E-01  0.7425E-01  0.7425E-01
    -10.260  0.1472E-01  0.1472E-01  0.7582E-01  0.7582E-01
    -10.154  0.1579E-01  0.1579E-01  0.7749E-01  0.7749E-01
    -10.047  0.1765E-01  0.1765E-01  0.7937E-01  0.7937E-01
     -9.941  0.1611E-01  0.1611E-01  0.8109E-01  0.8109E-01
     -9.835  0.1040E-01  0.1040E-01  0.8219E-01  0.8219E-01
     -9.728  0.9975E-02  0.9975E-02  0.8325E-01  0.8325E-01
     -9.622  0.1355E-01  0.1355E-01  0.8469E-01  0.8469E-01
     -9.516  0.1172E-01  0.1172E-01  0.8594E-01  0.8594E-01
     -9.409  0.1672E-01  0.1672E-01  0.8772E-01  0.8772E-01
     -9.303  0.1905E-01  0.1905E-01  0.8974E-01  0.8974E-01
     -9.197  0.1340E-01  0.1340E-01  0.9117E-01  0.9117E-01
     -9.090  0.9005E-02  0.9005E-02  0.9213E-01  0.9213E-01
     -8.984  0.7359E-02  0.7359E-02  0.9291E-01  0.9291E-01
     -8.878  0.1751E-01  0.1751E-01  0.9477E-01  0.9477E-01
     -8.771  0.2042E-01  0.2042E-01  0.9694E-01  0.9694E-01
     -8.665  0.1263E-01  0.1263E-01  0.9828E-01  0.9828E-01
     -8.559  0.8256E-02  0.8256E-02  0.9916E-01  0.9916E-01
     -8.452  0.1261E-01  0.1261E-01  0.1005E+00  0.1005E+00
     -8.346  0.1928E-01  0.1928E-01  0.1026E+00  0.1026E+00
     -8.240  0.1644E-01  0.1644E-01  0.1043E+00  0.1043E+00
     -8.133  0.1334E-01  0.1334E-01  0.1057E+00  0.1057E+00
     -8.027  0.1787E-01  0.1787E-01  0.1076E+00  0.1076E+00
     -7.921  0.2316E-01  0.2316E-01  0.1101E+00  0.1101E+00
     -7.814  0.2506E-01  0.2506E-01  0.1127E+00  0.1127E+00
     -7.708  0.1830E-01  0.1830E-01  0.1147E+00  0.1147E+00
     -7.602  0.1096E-01  0.1096E-01  0.1159E+00  0.1159E+00
     -7.495  0.7185E-02  0.7185E-02  0.1166E+00  0.1166E+00
     -7.389  0.1649E-01  0.1649E-01  0.1184E+00  0.1184E+00
     -7.283  0.1886E-01  0.1886E-01  0.1204E+00  0.1204E+00
     -7.176  0.1350E-01  0.1350E-01  0.1218E+00  0.1218E+00
     -7.070  0.1063E-01  0.1063E-01  0.1229E+00  0.1229E+00
     -6.964  0.1533E-01  0.1533E-01  0.1246E+00  0.1246E+00
     -6.857  0.1845E-01  0.1845E-01  0.1265E+00  0.1265E+00
     -6.751  0.1980E-01  0.1980E-01  0.1286E+00  0.1286E+00
     -6.645  0.2232E-01  0.2232E-01  0.1310E+00  0.1310E+00
     -6.538  0.1882E-01  0.1882E-01  0.1330E+00  0.1330E+00
     -6.432  0.2125E-01  0.2125E-01  0.1353E+00  0.1353E+00
     -6.326  0.1821E-01  0.1821E-01  0.1372E+00  0.1372E+00
     -6.219  0.1857E-01  0.1857E-01  0.1392E+00  0.1392E+00
     -6.113  0.2655E-01  0.2655E-01  0.1420E+00  0.1420E+00
     -6.007  0.2431E-01  0.2431E-01  0.1446E+00  0.1446E+00
     -5.900  0.3020E-01  0.3020E-01  0.1478E+00  0.1478E+00
     -5.794  0.2771E-01  0.2771E-01  0.1508E+00  0.1508E+00
     -5.688  0.1896E-01  0.1896E-01  0.1528E+00  0.1528E+00
     -5.581  0.2038E-01  0.2038E-01  0.1549E+00  0.1549E+00
     -5.475  0.3295E-01  0.3295E-01  0.1584E+00  0.1584E+00
     -5.368  0.3516E-01  0.3516E-01  0.1622E+00  0.1622E+00
     -5.262  0.2029E-01  0.2029E-01  0.1643E+00  0.1643E+00
     -5.156  0.1578E-01  0.1578E-01  0.1660E+00  0.1660E+00
     -5.049  0.1078E-01  0.1078E-01  0.1672E+00  0.1672E+00
     -4.943  0.1130E-01  0.1130E-01  0.1684E+00  0.1684E+00
     -4.837  0.1374E-01  0.1374E-01  0.1698E+00  0.1698E+00
     -4.730  0.1073E-01  0.1073E-01  0.1710E+00  0.1710E+00
     -4.624  0.7627E-02  0.7627E-02  0.1718E+00  0.1718E+00
     -4.518  0.8957E-02  0.8957E-02  0.1727E+00  0.1727E+00
     -4.411  0.1700E-01  0.1700E-01  0.1745E+00  0.1745E+00
     -4.305  0.2427E-01  0.2427E-01  0.1771E+00  0.1771E+00
     -4.199  0.2180E-01  0.2180E-01  0.1794E+00  0.1794E+00
     -4.092  0.1689E-01  0.1689E-01  0.1812E+00  0.1812E+00
     -3.986  0.1914E-01  0.1914E-01  0.1833E+00  0.1833E+00
     -3.880  0.2421E-01  0.2421E-01  0.1858E+00  0.1858E+00
     -3.773  0.1916E-01  0.1916E-01  0.1879E+00  0.1879E+00
     -3.667  0.1936E-01  0.1936E-01  0.1899E+00  0.1899E+00
     -3.561  0.2021E-01  0.2021E-01  0.1921E+00  0.1921E+00
     -3.454  0.1626E-01  0.1626E-01  0.1938E+00  0.1938E+00
     -3.348  0.1271E-01  0.1271E-01  0.1952E+00  0.1952E+00
     -3.242  0.1228E-01  0.1228E-01  0.1965E+00  0.1965E+00
     -3.135  0.1766E-01  0.1766E-01  0.1984E+00  0.1984E+00
     -3.029  0.1791E-01  0.1791E-01  0.2003E+00  0.2003E+00
     -2.923  0.1223E-01  0.1223E-01  0.2016E+00  0.2016E+00
     -2.816  0.1228E-01  0.1228E-01  0.2029E+00  0.2029E+00
     -2.710  0.8514E-02  0.8514E-02  0.2038E+00  0.2038E+00
     -2.604  0.9438E-02  0.9438E-02  0.2048E+00  0.2048E+00
     -2.497  0.1680E-01  0.1680E-01  0.2066E+00  0.2066E+00
     -2.391  0.1754E-01  0.1754E-01  0.2084E+00  0.2084E+00
     -2.285  0.5466E-02  0.5466E-02  0.2090E+00  0.2090E+00
     -2.178  0.5184E-02  0.5184E-02  0.2096E+00  0.2096E+00
     -2.072  0.9449E-02  0.9449E-02  0.2106E+00  0.2106E+00
     -1.966  0.9388E-02  0.9388E-02  0.2116E+00  0.2116E+00
     -1.859  0.1069E-01  0.1069E-01  0.2127E+00  0.2127E+00
     -1.753  0.1110E-01  0.1110E-01  0.2139E+00  0.2139E+00
     -1.647  0.1035E-01  0.1035E-01  0.2150E+00  0.2150E+00
     -1.540  0.8518E-02  0.8518E-02  0.2159E+00  0.2159E+00
     -1.434  0.3846E-02  0.3846E-02  0.2163E+00  0.2163E+00
     -1.328  0.4039E-02  0.4039E-02  0.2167E+00  0.2167E+00
     -1.221  0.4491E-02  0.4491E-02  0.2172E+00  0.2172E+00
     -1.115  0.3172E-02  0.3172E-02  0.2175E+00  0.2175E+00
     -1.009  0.5106E-02  0.5107E-02  0.2181E+00  0.2181E+00
     -0.902  0.4194E-02  0.4194E-02  0.2185E+00  0.2185E+00
     -0.796  0.9903E-03  0.9903E-03  0.2186E+00  0.2186E+00
     -0.690  0.9131E-04  0.9131E-04  0.2186E+00  0.2186E+00
     -0.583  0.2001E-05  0.2001E-05  0.2186E+00  0.2186E+00
     -0.477  0.1387E-04  0.1387E-04  0.2186E+00  0.2186E+00
     -0.371  0.3288E-03  0.3288E-03  0.2187E+00  0.2187E+00
     -0.264  0.1098E-02  0.1098E-02  0.2188E+00  0.2188E+00
     -0.158  0.5584E-03  0.5584E-03  0.2189E+00  0.2189E+00
     -0.052  0.4125E-04  0.4125E-04  0.2189E+00  0.2189E+00
      0.055  0.4060E-06  0.4060E-06  0.2189E+00  0.2189E+00
      0.161  0.5817E-05  0.5818E-05  0.2189E+00  0.2189E+00
      0.267  0.3291E-03  0.3291E-03  0.2189E+00  0.2189E+00
      0.374  0.2490E-02  0.2490E-02  0.2192E+00  0.2192E+00
      0.480  0.2831E-02  0.2831E-02  0.2195E+00  0.2195E+00
      0.587  0.1172E-02  0.1172E-02  0.2196E+00  0.2196E+00
      0.693  0.4114E-02  0.4114E-02  0.2200E+00  0.2200E+00
      0.799  0.7172E-02  0.7172E-02  0.2208E+00  0.2208E+00
      0.906  0.1283E-01  0.1283E-01  0.2221E+00  0.2221E+00
      1.012  0.2468E-01  0.2468E-01  0.2248E+00  0.2248E+00
      1.118  0.1690E-01  0.1690E-01  0.2266E+00  0.2266E+00
      1.225  0.3481E-02  0.3481E-02  0.2269E+00  0.2269E+00
      1.331  0.1003E-02  0.1003E-02  0.2270E+00  0.2270E+00
      1.437  0.4837E-02  0.4837E-02  0.2276E+00  0.2276E+00
      1.544  0.1488E-01  0.1488E-01  0.2291E+00  0.2291E+00
      1.650  0.2061E-01  0.2061E-01  0.2313E+00  0.2313E+00
      1.756  0.1458E-01  0.1458E-01  0.2329E+00  0.2329E+00
      1.863  0.9416E-02  0.9416E-02  0.2339E+00  0.2339E+00
      1.969  0.8724E-02  0.8723E-02  0.2348E+00  0.2348E+00
      2.075  0.9694E-02  0.9694E-02  0.2358E+00  0.2358E+00
      2.182  0.7044E-02  0.7044E-02  0.2366E+00  0.2366E+00
      2.288  0.9246E-02  0.9246E-02  0.2376E+00  0.2376E+00
      2.394  0.5863E-02  0.5863E-02  0.2382E+00  0.2382E+00
      2.501  0.6983E-02  0.6983E-02  0.2389E+00  0.2389E+00
      2.607  0.1399E-01  0.1399E-01  0.2404E+00  0.2404E+00
      2.713  0.9047E-02  0.9047E-02  0.2414E+00  0.2414E+00
      2.820  0.4576E-02  0.4576E-02  0.2419E+00  0.2419E+00
      2.926  0.6325E-02  0.6325E-02  0.2426E+00  0.2426E+00
      3.032  0.1059E-01  0.1059E-01  0.2437E+00  0.2437E+00
      3.139  0.1187E-01  0.1187E-01  0.2449E+00  0.2449E+00
      3.245  0.9641E-02  0.9641E-02  0.2460E+00  0.2460E+00
      3.351  0.1052E-01  0.1052E-01  0.2471E+00  0.2471E+00
      3.458  0.9053E-02  0.9053E-02  0.2480E+00  0.2480E+00
      3.564  0.1766E-01  0.1766E-01  0.2499E+00  0.2499E+00
      3.670  0.2536E-01  0.2536E-01  0.2526E+00  0.2526E+00
      3.777  0.2460E-01  0.2460E-01  0.2552E+00  0.2552E+00
      3.883  0.2225E-01  0.2225E-01  0.2576E+00  0.2576E+00
      3.989  0.2225E-01  0.2225E-01  0.2600E+00  0.2600E+00
      4.096  0.2736E-01  0.2736E-01  0.2629E+00  0.2629E+00
      4.202  0.2522E-01  0.2522E-01  0.2656E+00  0.2656E+00
      4.308  0.2258E-01  0.2258E-01  0.2680E+00  0.2680E+00
      4.415  0.2375E-01  0.2375E-01  0.2705E+00  0.2705E+00
      4.521  0.2226E-01  0.2226E-01  0.2729E+00  0.2729E+00
      4.627  0.1878E-01  0.1878E-01  0.2749E+00  0.2749E+00
      4.734  0.2780E-01  0.2780E-01  0.2778E+00  0.2778E+00
      4.840  0.2768E-01  0.2768E-01  0.2808E+00  0.2808E+00
      4.946  0.2066E-01  0.2066E-01  0.2830E+00  0.2830E+00
      5.053  0.2402E-01  0.2402E-01  0.2855E+00  0.2855E+00
      5.159  0.2667E-01  0.2667E-01  0.2883E+00  0.2883E+00
      5.265  0.2242E-01  0.2242E-01  0.2907E+00  0.2907E+00
      5.372  0.2188E-01  0.2188E-01  0.2931E+00  0.2931E+00
      5.478  0.2375E-01  0.2375E-01  0.2956E+00  0.2956E+00
      5.584  0.2680E-01  0.2680E-01  0.2984E+00  0.2984E+00
      5.691  0.2080E-01  0.2080E-01  0.3006E+00  0.3006E+00
      5.797  0.2237E-01  0.2237E-01  0.3030E+00  0.3030E+00
      5.903  0.2107E-01  0.2107E-01  0.3053E+00  0.3053E+00
      6.010  0.2089E-01  0.2089E-01  0.3075E+00  0.3075E+00
      6.116  0.1592E-01  0.1591E-01  0.3092E+00  0.3092E+00
      6.222  0.1786E-01  0.1786E-01  0.3111E+00  0.3111E+00
      6.329  0.2304E-01  0.2304E-01  0.3135E+00  0.3135E+00
      6.435  0.2305E-01  0.2305E-01  0.3160E+00  0.3160E+00
      6.541  0.2594E-01  0.2594E-01  0.3187E+00  0.3187E+00
      6.648  0.2757E-01  0.2757E-01  0.3217E+00  0.3217E+00
      6.754  0.3371E-01  0.3371E-01  0.3252E+00  0.3252E+00
      6.861  0.2663E-01  0.2663E-01  0.3281E+00  0.3281E+00
      6.967  0.2475E-01  0.2475E-01  0.3307E+00  0.3307E+00
      7.073  0.2565E-01  0.2565E-01  0.3334E+00  0.3334E+00
      7.180  0.2157E-01  0.2157E-01  0.3357E+00  0.3357E+00
      7.286  0.1848E-01  0.1848E-01  0.3377E+00  0.3377E+00
      7.392  0.2136E-01  0.2135E-01  0.3400E+00  0.3400E+00
      7.499  0.2303E-01  0.2303E-01  0.3424E+00  0.3424E+00
      7.605  0.2312E-01  0.2312E-01  0.3449E+00  0.3449E+00
      7.711  0.2794E-01  0.2794E-01  0.3478E+00  0.3478E+00
      7.818  0.3402E-01  0.3402E-01  0.3515E+00  0.3515E+00
      7.924  0.2822E-01  0.2822E-01  0.3545E+00  0.3545E+00
      8.030  0.3128E-01  0.3127E-01  0.3578E+00  0.3578E+00
      8.137  0.3386E-01  0.3386E-01  0.3614E+00  0.3614E+00
      8.243  0.2987E-01  0.2987E-01  0.3646E+00  0.3646E+00
      8.349  0.3780E-01  0.3780E-01  0.3686E+00  0.3686E+00
      8.456  0.3086E-01  0.3087E-01  0.3719E+00  0.3719E+00
      8.562  0.1497E-01  0.1497E-01  0.3735E+00  0.3735E+00
      8.668  0.7583E-02  0.7583E-02  0.3743E+00  0.3743E+00
      8.775  0.3846E-02  0.3846E-02  0.3747E+00  0.3747E+00
      8.881  0.2459E-02  0.2459E-02  0.3749E+00  0.3749E+00
      8.987  0.5418E-03  0.5419E-03  0.3750E+00  0.3750E+00
      9.094  0.2142E-04  0.2143E-04  0.3750E+00  0.3750E+00
      9.200  0.1126E-06  0.1127E-06  0.3750E+00  0.3750E+00
      9.306  0.6941E-10  0.6944E-10  0.3750E+00  0.3750E+00
      9.413  0.4763E-14  0.4766E-14  0.3750E+00  0.3750E+00
      9.519  0.0000E+00  0.0000E+00  0.3750E+00  0.3750E+00
      9.625  0.0000E+00  0.0000E+00  0.3750E+00  0.3750E+00
      9.732  0.0000E+00  0.0000E+00  0.3750E+00  0.3750E+00
      9.838  0.0000E+00  0.0000E+00  0.3750E+00  0.3750E+00
      9.944  0.0000E+00  0.0000E+00  0.3750E+00  0.3750E+00
     10.051  0.0000E+00  0.0000E+00  0.3750E+00  0.3750E+00
     10.157  0.0000E+00  0.0000E+00  0.3750E+00  0.3750E+00
     10.263  0.0000E+00  0.0000E+00  0.3750E+00  0.3750E+00
