  16  16   0  16
  0.2068086E+02  0.5047000E-09  0.5047000E-09  0.1500000E-08  0.5000000E-15
  1.000000000000000E-004
  CAR 
 Lattice                                 
      9.68295767    -21.31845968  301     -0.99152462      1.00000000
    -21.318  0.0000E+00  0.0000E+00  0.0000E+00  0.0000E+00
    -21.215  0.0000E+00  0.0000E+00  0.0000E+00  0.0000E+00
    -21.112  0.0000E+00  0.0000E+00  0.0000E+00  0.0000E+00
    -21.008  0.0000E+00  0.0000E+00  0.0000E+00  0.0000E+00
    -20.905  0.0000E+00  0.0000E+00  0.0000E+00  0.0000E+00
    -20.802  0.0000E+00  0.0000E+00  0.0000E+00  0.0000E+00
    -20.698  0.0000E+00  0.0000E+00  0.0000E+00  0.0000E+00
    -20.595  0.0000E+00  0.0000E+00  0.0000E+00  0.0000E+00
    -20.492  0.5829E-19  0.5829E-19  0.6023E-20  0.6023E-20
    -20.388  0.3605E-14  0.3605E-14  0.3725E-15  0.3725E-15
    -20.285  0.3491E-10  0.3491E-10  0.3608E-11  0.3608E-11
    -20.182  0.4694E-07  0.4694E-07  0.4854E-08  0.4854E-08
    -20.078  0.9467E-05  0.9467E-05  0.9832E-06  0.9832E-06
    -19.975  0.3158E-03  0.3158E-03  0.3362E-04  0.3362E-04
    -19.872  0.2131E-02  0.2131E-02  0.2538E-03  0.2538E-03
    -19.768  0.4409E-02  0.4409E-02  0.7095E-03  0.7095E-03
    -19.665  0.4912E-02  0.4912E-02  0.1217E-02  0.1217E-02
    -19.562  0.5173E-02  0.5173E-02  0.1752E-02  0.1752E-02
    -19.458  0.4656E-02  0.4656E-02  0.2233E-02  0.2233E-02
    -19.355  0.5679E-02  0.5679E-02  0.2820E-02  0.2820E-02
    -19.252  0.4284E-02  0.4284E-02  0.3262E-02  0.3262E-02
    -19.148  0.5263E-02  0.5263E-02  0.3806E-02  0.3806E-02
    -19.045  0.5913E-02  0.5913E-02  0.4417E-02  0.4417E-02
    -18.942  0.3672E-02  0.3672E-02  0.4797E-02  0.4797E-02
    -18.838  0.5322E-02  0.5322E-02  0.5347E-02  0.5347E-02
    -18.735  0.6368E-02  0.6368E-02  0.6005E-02  0.6005E-02
    -18.632  0.4447E-02  0.4447E-02  0.6464E-02  0.6464E-02
    -18.528  0.3397E-02  0.3397E-02  0.6815E-02  0.6815E-02
    -18.425  0.6745E-02  0.6745E-02  0.7512E-02  0.7512E-02
    -18.322  0.6023E-02  0.6023E-02  0.8135E-02  0.8135E-02
    -18.218  0.4247E-02  0.4247E-02  0.8573E-02  0.8573E-02
    -18.115  0.3382E-02  0.3382E-02  0.8923E-02  0.8923E-02
    -18.012  0.6490E-02  0.6490E-02  0.9594E-02  0.9594E-02
    -17.908  0.1076E-01  0.1076E-01  0.1071E-01  0.1071E-01
    -17.805  0.1075E-01  0.1075E-01  0.1182E-01  0.1182E-01
    -17.702  0.1094E-01  0.1094E-01  0.1295E-01  0.1295E-01
    -17.598  0.1274E-01  0.1274E-01  0.1426E-01  0.1426E-01
    -17.495  0.1604E-01  0.1604E-01  0.1592E-01  0.1592E-01
    -17.392  0.1953E-01  0.1953E-01  0.1794E-01  0.1794E-01
    -17.288  0.2064E-01  0.2064E-01  0.2007E-01  0.2007E-01
    -17.185  0.1255E-01  0.1255E-01  0.2137E-01  0.2137E-01
    -17.082  0.6164E-02  0.6164E-02  0.2201E-01  0.2201E-01
    -16.978  0.7328E-02  0.7328E-02  0.2276E-01  0.2276E-01
    -16.875  0.6787E-02  0.6787E-02  0.2347E-01  0.2347E-01
    -16.772  0.5556E-02  0.5556E-02  0.2404E-01  0.2404E-01
    -16.668  0.4604E-02  0.4604E-02  0.2452E-01  0.2452E-01
    -16.565  0.2741E-02  0.2741E-02  0.2480E-01  0.2480E-01
    -16.462  0.4315E-02  0.4315E-02  0.2525E-01  0.2525E-01
    -16.358  0.9272E-02  0.9272E-02  0.2620E-01  0.2620E-01
    -16.255  0.6361E-02  0.6361E-02  0.2686E-01  0.2686E-01
    -16.152  0.4805E-02  0.4805E-02  0.2736E-01  0.2736E-01
    -16.048  0.4320E-02  0.4320E-02  0.2780E-01  0.2780E-01
    -15.945  0.4205E-02  0.4205E-02  0.2824E-01  0.2824E-01
    -15.842  0.3767E-02  0.3767E-02  0.2863E-01  0.2863E-01
    -15.738  0.8629E-02  0.8629E-02  0.2952E-01  0.2952E-01
    -15.635  0.1079E-01  0.1079E-01  0.3063E-01  0.3063E-01
    -15.532  0.1192E-01  0.1192E-01  0.3187E-01  0.3187E-01
    -15.428  0.1532E-01  0.1532E-01  0.3345E-01  0.3345E-01
    -15.325  0.1600E-01  0.1600E-01  0.3510E-01  0.3510E-01
    -15.222  0.1304E-01  0.1304E-01  0.3645E-01  0.3645E-01
    -15.118  0.1474E-01  0.1474E-01  0.3797E-01  0.3797E-01
    -15.015  0.1771E-01  0.1771E-01  0.3980E-01  0.3980E-01
    -14.912  0.1615E-01  0.1615E-01  0.4147E-01  0.4147E-01
    -14.808  0.1268E-01  0.1268E-01  0.4278E-01  0.4278E-01
    -14.705  0.9562E-02  0.9562E-02  0.4377E-01  0.4377E-01
    -14.601  0.9901E-02  0.9901E-02  0.4480E-01  0.4480E-01
    -14.498  0.1572E-01  0.1572E-01  0.4642E-01  0.4642E-01
    -14.395  0.1886E-01  0.1886E-01  0.4837E-01  0.4837E-01
    -14.291  0.1514E-01  0.1514E-01  0.4993E-01  0.4993E-01
    -14.188  0.1089E-01  0.1089E-01  0.5106E-01  0.5106E-01
    -14.085  0.8944E-02  0.8944E-02  0.5198E-01  0.5198E-01
    -13.981  0.7989E-02  0.7989E-02  0.5281E-01  0.5281E-01
    -13.878  0.8907E-02  0.8907E-02  0.5373E-01  0.5373E-01
    -13.775  0.7071E-02  0.7071E-02  0.5446E-01  0.5446E-01
    -13.671  0.3927E-02  0.3927E-02  0.5486E-01  0.5486E-01
    -13.568  0.4660E-02  0.4660E-02  0.5535E-01  0.5535E-01
    -13.465  0.4442E-02  0.4442E-02  0.5581E-01  0.5581E-01
    -13.361  0.6049E-02  0.6049E-02  0.5643E-01  0.5643E-01
    -13.258  0.5994E-02  0.5994E-02  0.5705E-01  0.5705E-01
    -13.155  0.6272E-02  0.6272E-02  0.5770E-01  0.5770E-01
    -13.051  0.8167E-02  0.8167E-02  0.5854E-01  0.5854E-01
    -12.948  0.7535E-02  0.7535E-02  0.5932E-01  0.5932E-01
    -12.845  0.8408E-02  0.8408E-02  0.6019E-01  0.6019E-01
    -12.741  0.6008E-02  0.6008E-02  0.6081E-01  0.6081E-01
    -12.638  0.6776E-02  0.6776E-02  0.6151E-01  0.6151E-01
    -12.535  0.5397E-02  0.5397E-02  0.6207E-01  0.6207E-01
    -12.431  0.4015E-02  0.4015E-02  0.6248E-01  0.6248E-01
    -12.328  0.8418E-02  0.8418E-02  0.6335E-01  0.6335E-01
    -12.225  0.6213E-02  0.6213E-02  0.6400E-01  0.6400E-01
    -12.121  0.5104E-02  0.5104E-02  0.6452E-01  0.6452E-01
    -12.018  0.9712E-02  0.9712E-02  0.6553E-01  0.6553E-01
    -11.915  0.1516E-01  0.1516E-01  0.6709E-01  0.6709E-01
    -11.811  0.1582E-01  0.1582E-01  0.6873E-01  0.6873E-01
    -11.708  0.1384E-01  0.1384E-01  0.7016E-01  0.7016E-01
    -11.605  0.1463E-01  0.1463E-01  0.7167E-01  0.7167E-01
    -11.501  0.1733E-01  0.1733E-01  0.7346E-01  0.7346E-01
    -11.398  0.1240E-01  0.1240E-01  0.7474E-01  0.7474E-01
    -11.295  0.9547E-02  0.9547E-02  0.7573E-01  0.7573E-01
    -11.191  0.9358E-02  0.9358E-02  0.7670E-01  0.7670E-01
    -11.088  0.1091E-01  0.1091E-01  0.7782E-01  0.7782E-01
    -10.985  0.9244E-02  0.9244E-02  0.7878E-01  0.7878E-01
    -10.881  0.6796E-02  0.6796E-02  0.7948E-01  0.7948E-01
    -10.778  0.1221E-01  0.1221E-01  0.8074E-01  0.8074E-01
    -10.675  0.1568E-01  0.1568E-01  0.8236E-01  0.8236E-01
    -10.571  0.1185E-01  0.1185E-01  0.8359E-01  0.8359E-01
    -10.468  0.6810E-02  0.6810E-02  0.8429E-01  0.8429E-01
    -10.365  0.9796E-02  0.9796E-02  0.8530E-01  0.8530E-01
    -10.261  0.1769E-01  0.1769E-01  0.8713E-01  0.8713E-01
    -10.158  0.1704E-01  0.1704E-01  0.8889E-01  0.8889E-01
    -10.055  0.1053E-01  0.1053E-01  0.8998E-01  0.8998E-01
     -9.951  0.9551E-02  0.9551E-02  0.9097E-01  0.9097E-01
     -9.848  0.9379E-02  0.9379E-02  0.9194E-01  0.9194E-01
     -9.745  0.1172E-01  0.1172E-01  0.9315E-01  0.9315E-01
     -9.641  0.8469E-02  0.8469E-02  0.9402E-01  0.9402E-01
     -9.538  0.1111E-01  0.1111E-01  0.9517E-01  0.9517E-01
     -9.435  0.1098E-01  0.1098E-01  0.9631E-01  0.9631E-01
     -9.331  0.1060E-01  0.1060E-01  0.9740E-01  0.9740E-01
     -9.228  0.9727E-02  0.9727E-02  0.9841E-01  0.9841E-01
     -9.125  0.3118E-02  0.3118E-02  0.9873E-01  0.9873E-01
     -9.021  0.1991E-02  0.1991E-02  0.9894E-01  0.9894E-01
     -8.918  0.1117E-01  0.1117E-01  0.1001E+00  0.1001E+00
     -8.815  0.1964E-01  0.1964E-01  0.1021E+00  0.1021E+00
     -8.711  0.1707E-01  0.1707E-01  0.1039E+00  0.1039E+00
     -8.608  0.1031E-01  0.1031E-01  0.1049E+00  0.1049E+00
     -8.505  0.7741E-02  0.7741E-02  0.1057E+00  0.1057E+00
     -8.401  0.8946E-02  0.8946E-02  0.1067E+00  0.1067E+00
     -8.298  0.1344E-01  0.1344E-01  0.1081E+00  0.1081E+00
     -8.195  0.2462E-01  0.2462E-01  0.1106E+00  0.1106E+00
     -8.091  0.2247E-01  0.2247E-01  0.1129E+00  0.1129E+00
     -7.988  0.1916E-01  0.1916E-01  0.1149E+00  0.1149E+00
     -7.885  0.1514E-01  0.1514E-01  0.1165E+00  0.1165E+00
     -7.781  0.1339E-01  0.1339E-01  0.1179E+00  0.1179E+00
     -7.678  0.2091E-01  0.2091E-01  0.1200E+00  0.1200E+00
     -7.574  0.2544E-01  0.2544E-01  0.1226E+00  0.1226E+00
     -7.471  0.2358E-01  0.2358E-01  0.1251E+00  0.1251E+00
     -7.368  0.2255E-01  0.2255E-01  0.1274E+00  0.1274E+00
     -7.264  0.2576E-01  0.2576E-01  0.1301E+00  0.1301E+00
     -7.161  0.2309E-01  0.2309E-01  0.1325E+00  0.1325E+00
     -7.058  0.2560E-01  0.2560E-01  0.1351E+00  0.1351E+00
     -6.954  0.2456E-01  0.2456E-01  0.1376E+00  0.1376E+00
     -6.851  0.1770E-01  0.1770E-01  0.1395E+00  0.1395E+00
     -6.748  0.2365E-01  0.2365E-01  0.1419E+00  0.1419E+00
     -6.644  0.2659E-01  0.2659E-01  0.1447E+00  0.1447E+00
     -6.541  0.2278E-01  0.2278E-01  0.1470E+00  0.1470E+00
     -6.438  0.2462E-01  0.2462E-01  0.1496E+00  0.1496E+00
     -6.334  0.2326E-01  0.2326E-01  0.1520E+00  0.1520E+00
     -6.231  0.2512E-01  0.2512E-01  0.1546E+00  0.1546E+00
     -6.128  0.1909E-01  0.1909E-01  0.1565E+00  0.1565E+00
     -6.024  0.1597E-01  0.1597E-01  0.1582E+00  0.1582E+00
     -5.921  0.2015E-01  0.2015E-01  0.1603E+00  0.1603E+00
     -5.818  0.2624E-01  0.2624E-01  0.1630E+00  0.1630E+00
     -5.714  0.2193E-01  0.2193E-01  0.1652E+00  0.1652E+00
     -5.611  0.1779E-01  0.1779E-01  0.1671E+00  0.1671E+00
     -5.508  0.2198E-01  0.2198E-01  0.1694E+00  0.1694E+00
     -5.404  0.2680E-01  0.2680E-01  0.1721E+00  0.1721E+00
     -5.301  0.2859E-01  0.2859E-01  0.1751E+00  0.1751E+00
     -5.198  0.1986E-01  0.1986E-01  0.1771E+00  0.1771E+00
     -5.094  0.1269E-01  0.1269E-01  0.1784E+00  0.1784E+00
     -4.991  0.1588E-01  0.1588E-01  0.1801E+00  0.1801E+00
     -4.888  0.1842E-01  0.1842E-01  0.1820E+00  0.1820E+00
     -4.784  0.1671E-01  0.1671E-01  0.1837E+00  0.1837E+00
     -4.681  0.1680E-01  0.1680E-01  0.1854E+00  0.1854E+00
     -4.578  0.1745E-01  0.1745E-01  0.1873E+00  0.1873E+00
     -4.474  0.1622E-01  0.1622E-01  0.1889E+00  0.1889E+00
     -4.371  0.1877E-01  0.1877E-01  0.1909E+00  0.1909E+00
     -4.268  0.2312E-01  0.2312E-01  0.1933E+00  0.1933E+00
     -4.164  0.3162E-01  0.3162E-01  0.1965E+00  0.1965E+00
     -4.061  0.4056E-01  0.4056E-01  0.2007E+00  0.2007E+00
     -3.958  0.3260E-01  0.3260E-01  0.2041E+00  0.2041E+00
     -3.854  0.2217E-01  0.2217E-01  0.2064E+00  0.2064E+00
     -3.751  0.1509E-01  0.1509E-01  0.2079E+00  0.2079E+00
     -3.648  0.1544E-01  0.1544E-01  0.2095E+00  0.2095E+00
     -3.544  0.1668E-01  0.1668E-01  0.2113E+00  0.2113E+00
     -3.441  0.2092E-01  0.2092E-01  0.2134E+00  0.2134E+00
     -3.338  0.2059E-01  0.2059E-01  0.2155E+00  0.2155E+00
     -3.234  0.1389E-01  0.1389E-01  0.2170E+00  0.2170E+00
     -3.131  0.1323E-01  0.1323E-01  0.2183E+00  0.2183E+00
     -3.028  0.1876E-01  0.1876E-01  0.2203E+00  0.2203E+00
     -2.924  0.2595E-01  0.2595E-01  0.2230E+00  0.2230E+00
     -2.821  0.1919E-01  0.1919E-01  0.2249E+00  0.2249E+00
     -2.718  0.1020E-01  0.1020E-01  0.2260E+00  0.2260E+00
     -2.614  0.1320E-01  0.1320E-01  0.2274E+00  0.2274E+00
     -2.511  0.2152E-01  0.2152E-01  0.2296E+00  0.2296E+00
     -2.408  0.1999E-01  0.1999E-01  0.2317E+00  0.2317E+00
     -2.304  0.1884E-01  0.1884E-01  0.2336E+00  0.2336E+00
     -2.201  0.2358E-01  0.2358E-01  0.2360E+00  0.2360E+00
     -2.098  0.1616E-01  0.1616E-01  0.2377E+00  0.2377E+00
     -1.994  0.4570E-02  0.4570E-02  0.2382E+00  0.2382E+00
     -1.891  0.5790E-02  0.5790E-02  0.2388E+00  0.2388E+00
     -1.788  0.7380E-02  0.7380E-02  0.2395E+00  0.2395E+00
     -1.684  0.5324E-02  0.5324E-02  0.2401E+00  0.2401E+00
     -1.581  0.6757E-02  0.6757E-02  0.2408E+00  0.2408E+00
     -1.478  0.6075E-02  0.6075E-02  0.2414E+00  0.2414E+00
     -1.374  0.3993E-02  0.3993E-02  0.2418E+00  0.2418E+00
     -1.271  0.1985E-02  0.1985E-02  0.2420E+00  0.2420E+00
     -1.168  0.3910E-03  0.3910E-03  0.2421E+00  0.2421E+00
     -1.064  0.2758E-03  0.2758E-03  0.2421E+00  0.2421E+00
     -0.961  0.1307E-02  0.1307E-02  0.2422E+00  0.2422E+00
     -0.858  0.2568E-02  0.2568E-02  0.2425E+00  0.2425E+00
     -0.754  0.3251E-02  0.3251E-02  0.2428E+00  0.2428E+00
     -0.651  0.4545E-02  0.4545E-02  0.2433E+00  0.2433E+00
     -0.548  0.8937E-02  0.8937E-02  0.2442E+00  0.2442E+00
     -0.444  0.9533E-02  0.9533E-02  0.2452E+00  0.2452E+00
     -0.341  0.9219E-02  0.9219E-02  0.2462E+00  0.2462E+00
     -0.237  0.9899E-02  0.9899E-02  0.2472E+00  0.2472E+00
     -0.134  0.1073E-01  0.1073E-01  0.2483E+00  0.2483E+00
     -0.031  0.9894E-02  0.9894E-02  0.2493E+00  0.2493E+00
      0.073  0.3557E-02  0.3557E-02  0.2497E+00  0.2497E+00
      0.176  0.5143E-02  0.5143E-02  0.2502E+00  0.2502E+00
      0.279  0.9962E-02  0.9962E-02  0.2513E+00  0.2513E+00
      0.383  0.7904E-02  0.7904E-02  0.2521E+00  0.2521E+00
      0.486  0.6350E-02  0.6350E-02  0.2527E+00  0.2527E+00
      0.589  0.7883E-02  0.7883E-02  0.2535E+00  0.2535E+00
      0.693  0.1061E-01  0.1061E-01  0.2546E+00  0.2546E+00
      0.796  0.9390E-02  0.9390E-02  0.2556E+00  0.2556E+00
      0.899  0.1070E-01  0.1070E-01  0.2567E+00  0.2567E+00
      1.003  0.8277E-02  0.8277E-02  0.2576E+00  0.2576E+00
      1.106  0.4542E-02  0.4542E-02  0.2580E+00  0.2580E+00
      1.209  0.5688E-02  0.5688E-02  0.2586E+00  0.2586E+00
      1.313  0.4860E-02  0.4860E-02  0.2591E+00  0.2591E+00
      1.416  0.4150E-02  0.4150E-02  0.2596E+00  0.2596E+00
      1.519  0.4156E-02  0.4156E-02  0.2600E+00  0.2600E+00
      1.623  0.1005E-01  0.1005E-01  0.2610E+00  0.2610E+00
      1.726  0.1088E-01  0.1088E-01  0.2622E+00  0.2622E+00
      1.829  0.3214E-02  0.3214E-02  0.2625E+00  0.2625E+00
      1.933  0.3672E-02  0.3672E-02  0.2629E+00  0.2629E+00
      2.036  0.5310E-02  0.5310E-02  0.2634E+00  0.2634E+00
      2.139  0.6502E-02  0.6502E-02  0.2641E+00  0.2641E+00
      2.243  0.1343E-01  0.1343E-01  0.2655E+00  0.2655E+00
      2.346  0.1512E-01  0.1512E-01  0.2670E+00  0.2670E+00
      2.449  0.1235E-01  0.1235E-01  0.2683E+00  0.2683E+00
      2.553  0.1329E-01  0.1329E-01  0.2697E+00  0.2697E+00
      2.656  0.1123E-01  0.1123E-01  0.2708E+00  0.2708E+00
      2.759  0.7789E-02  0.7789E-02  0.2716E+00  0.2716E+00
      2.863  0.9032E-02  0.9032E-02  0.2726E+00  0.2726E+00
      2.966  0.1088E-01  0.1088E-01  0.2737E+00  0.2737E+00
      3.069  0.1292E-01  0.1292E-01  0.2750E+00  0.2750E+00
      3.173  0.1552E-01  0.1552E-01  0.2766E+00  0.2766E+00
      3.276  0.1384E-01  0.1384E-01  0.2781E+00  0.2781E+00
      3.379  0.8731E-02  0.8731E-02  0.2790E+00  0.2790E+00
      3.483  0.7659E-02  0.7659E-02  0.2798E+00  0.2798E+00
      3.586  0.1334E-01  0.1334E-01  0.2811E+00  0.2811E+00
      3.689  0.1178E-01  0.1178E-01  0.2824E+00  0.2824E+00
      3.793  0.8608E-02  0.8608E-02  0.2833E+00  0.2833E+00
      3.896  0.1406E-01  0.1406E-01  0.2847E+00  0.2847E+00
      3.999  0.1838E-01  0.1838E-01  0.2866E+00  0.2866E+00
      4.103  0.1575E-01  0.1575E-01  0.2882E+00  0.2882E+00
      4.206  0.1437E-01  0.1437E-01  0.2897E+00  0.2897E+00
      4.309  0.1386E-01  0.1386E-01  0.2911E+00  0.2911E+00
      4.413  0.1561E-01  0.1561E-01  0.2928E+00  0.2928E+00
      4.516  0.1333E-01  0.1333E-01  0.2941E+00  0.2941E+00
      4.619  0.1382E-01  0.1382E-01  0.2956E+00  0.2956E+00
      4.723  0.1531E-01  0.1530E-01  0.2972E+00  0.2972E+00
      4.826  0.1849E-01  0.1849E-01  0.2991E+00  0.2991E+00
      4.929  0.1917E-01  0.1917E-01  0.3010E+00  0.3010E+00
      5.033  0.1804E-01  0.1804E-01  0.3029E+00  0.3029E+00
      5.136  0.1637E-01  0.1637E-01  0.3046E+00  0.3046E+00
      5.239  0.1503E-01  0.1503E-01  0.3062E+00  0.3062E+00
      5.343  0.1532E-01  0.1532E-01  0.3077E+00  0.3077E+00
      5.446  0.2026E-01  0.2026E-01  0.3098E+00  0.3098E+00
      5.549  0.1873E-01  0.1873E-01  0.3118E+00  0.3118E+00
      5.653  0.1463E-01  0.1463E-01  0.3133E+00  0.3133E+00
      5.756  0.1674E-01  0.1674E-01  0.3150E+00  0.3150E+00
      5.859  0.2505E-01  0.2505E-01  0.3176E+00  0.3176E+00
      5.963  0.2262E-01  0.2262E-01  0.3199E+00  0.3199E+00
      6.066  0.2501E-01  0.2501E-01  0.3225E+00  0.3225E+00
      6.169  0.2798E-01  0.2798E-01  0.3254E+00  0.3254E+00
      6.273  0.2614E-01  0.2614E-01  0.3281E+00  0.3281E+00
      6.376  0.2451E-01  0.2451E-01  0.3306E+00  0.3306E+00
      6.479  0.1988E-01  0.1988E-01  0.3327E+00  0.3327E+00
      6.583  0.2062E-01  0.2062E-01  0.3348E+00  0.3348E+00
      6.686  0.2917E-01  0.2917E-01  0.3378E+00  0.3378E+00
      6.789  0.3144E-01  0.3144E-01  0.3411E+00  0.3411E+00
      6.893  0.2958E-01  0.2958E-01  0.3441E+00  0.3441E+00
      6.996  0.3403E-01  0.3403E-01  0.3477E+00  0.3477E+00
      7.100  0.3275E-01  0.3275E-01  0.3510E+00  0.3510E+00
      7.203  0.2978E-01  0.2978E-01  0.3541E+00  0.3541E+00
      7.306  0.3458E-01  0.3458E-01  0.3577E+00  0.3577E+00
      7.410  0.3672E-01  0.3672E-01  0.3615E+00  0.3615E+00
      7.513  0.2832E-01  0.2832E-01  0.3644E+00  0.3644E+00
      7.616  0.2336E-01  0.2336E-01  0.3668E+00  0.3668E+00
      7.720  0.2789E-01  0.2789E-01  0.3697E+00  0.3697E+00
      7.823  0.1948E-01  0.1948E-01  0.3717E+00  0.3717E+00
      7.926  0.1424E-01  0.1424E-01  0.3732E+00  0.3732E+00
      8.030  0.9747E-02  0.9747E-02  0.3742E+00  0.3742E+00
      8.133  0.3365E-02  0.3365E-02  0.3746E+00  0.3746E+00
      8.236  0.1878E-02  0.1878E-02  0.3747E+00  0.3747E+00
      8.340  0.1857E-02  0.1857E-02  0.3749E+00  0.3749E+00
      8.443  0.5360E-03  0.5360E-03  0.3750E+00  0.3750E+00
      8.546  0.2628E-04  0.2629E-04  0.3750E+00  0.3750E+00
      8.650  0.1837E-06  0.1837E-06  0.3750E+00  0.3750E+00
      8.753  0.1686E-09  0.1686E-09  0.3750E+00  0.3750E+00
      8.856  0.1949E-13  0.1950E-13  0.3750E+00  0.3750E+00
      8.960  0.3497E-18  0.3497E-18  0.3750E+00  0.3750E+00
      9.063  0.0000E+00  0.0000E+00  0.3750E+00  0.3750E+00
      9.166  0.0000E+00  0.0000E+00  0.3750E+00  0.3750E+00
      9.270  0.0000E+00  0.0000E+00  0.3750E+00  0.3750E+00
      9.373  0.0000E+00  0.0000E+00  0.3750E+00  0.3750E+00
      9.476  0.0000E+00  0.0000E+00  0.3750E+00  0.3750E+00
      9.580  0.0000E+00  0.0000E+00  0.3750E+00  0.3750E+00
      9.683  0.0000E+00  0.0000E+00  0.3750E+00  0.3750E+00
