    8    8  256    1
  0.3953030E+02  0.4934000E-09  0.4934000E-09  0.1500000E-08  0.5000000E-15
  1.000000000000000E-004
  CAR 
 Lattice                                 
     32     19     24
 
  0.0000000E+00  0.0000000E+00  0.0000000E+00  0.6944444E-02
      1        -21.757159   1.000000
      2        -16.521089   1.000000
      3        -16.521045   1.000000
      4        -16.521045   1.000000
      5        -15.472901   1.000000
      6        -15.472901   1.000000
      7        -15.472824   1.000000
      8         -9.860655   1.000000
      9         -8.656802   1.000000
     10         -8.656758   1.000000
     11         -8.656758   1.000000
     12         -5.282685   1.000000
     13         -5.282568   1.000000
     14         -4.610689   1.000000
     15         -4.610649   1.000000
     16         -4.610649   1.000000
     17         -0.574565   0.000000
     18         -0.574565   0.000000
     19         -0.574499   0.000000
     20          1.008291   0.000000
     21          1.911797   0.000000
     22          2.462332   0.000000
     23          4.336779   0.000000
     24          5.107377   0.000000
 
  0.8333333E-01  0.1009521E-16  0.0000000E+00  0.4166667E-01
      1        -21.716138   1.000000
      2        -17.023294   1.000000
      3        -16.659379   1.000000
      4        -16.659350   1.000000
      5        -15.267021   1.000000
      6        -15.266958   1.000000
      7        -14.909736   1.000000
      8         -9.811749   1.000000
      9         -8.783954   1.000000
     10         -8.783910   1.000000
     11         -8.616051   1.000000
     12         -5.451929   1.000000
     13         -5.371846   1.000000
     14         -4.862031   1.000000
     15         -4.640187   1.000000
     16         -4.640150   1.000000
     17         -0.501037   0.000000
     18         -0.500975   0.000000
     19         -0.259643   0.000000
     20          1.063952   0.000000
     21          1.967919   0.000000
     22          2.519021   0.000000
     23          4.392526   0.000000
     24          5.161662   0.000000
 
  0.1666667E+00  0.1156038E-16  0.0000000E+00  0.4166667E-01
      1        -21.593173   1.000000
      2        -17.779122   1.000000
      3        -16.913979   1.000000
      4        -16.913964   1.000000
      5        -14.812071   1.000000
      6        -14.812022   1.000000
      7        -13.972477   1.000000
      8         -9.665163   1.000000
      9         -9.141438   1.000000
     10         -9.141396   1.000000
     11         -8.494728   1.000000
     12         -5.933854   1.000000
     13         -5.620581   1.000000
     14         -5.452547   1.000000
     15         -4.716907   1.000000
     16         -4.716876   1.000000
     17         -0.299576   0.000000
     18         -0.299521   0.000000
     19          0.519861   0.000000
     20          1.230963   0.000000
     21          2.136272   0.000000
     22          2.689088   0.000000
     23          4.559754   0.000000
     24          5.324149   0.000000
 
  0.2500000E+00 -0.5816615E-18  0.0000000E+00  0.4166667E-01
      1        -21.388604   1.000000
      2        -18.507069   1.000000
      3        -17.149771   1.000000
      4        -17.149763   1.000000
      5        -14.251776   1.000000
      6        -14.251735   1.000000
      7        -12.946926   1.000000
      8         -9.668870   1.000000
      9         -9.668830   1.000000
     10         -9.421914   1.000000
     11         -8.295254   1.000000
     12         -6.665286   1.000000
     13         -6.159616   1.000000
     14         -5.984455   1.000000
     15         -4.814161   1.000000
     16         -4.814137   1.000000
     17         -0.022011   0.000000
     18         -0.021967   0.000000
     19          1.509329   0.000000
     20          1.532530   0.000000
     21          2.416553   0.000000
     22          2.972552   0.000000
     23          4.837950   0.000000
     24          5.248944   0.000000
 
  0.3333333E+00  0.1787302E-16  0.0000000E+00  0.4166667E-01
      1        -21.103005   1.000000
      2        -19.173986   1.000000
      3        -17.328705   1.000000
      4        -17.328701   1.000000
      5        -13.645746   1.000000
      6        -13.645710   1.000000
      7        -11.873962   1.000000
      8        -10.286747   1.000000
      9        -10.286711   1.000000
     10         -9.083755   1.000000
     11         -8.022561   1.000000
     12         -7.573010   1.000000
     13         -6.870904   1.000000
     14         -6.411970   1.000000
     15         -4.903942   1.000000
     16         -4.903926   1.000000
     17          0.262840   0.000000
     18          0.262872   0.000000
     19          1.898903   0.000000
     20          2.649765   0.000000
     21          2.808105   0.000000
     22          3.369377   0.000000
     23          4.551751   0.000000
     24          5.225497   0.000000
 
  0.4166667E+00  0.2296241E-16  0.0000000E+00  0.4166667E-01
      1        -20.737234   1.000000
      2        -19.770559   1.000000
      3        -17.438904   1.000000
      4        -17.438902   1.000000
      5        -13.070626   1.000000
      6        -13.070598   1.000000
      7        -10.884544   1.000000
      8        -10.884516   1.000000
      9        -10.774765   1.000000
     10         -8.653504   1.000000
     11         -8.591787   1.000000
     12         -7.683888   1.000000
     13         -7.537241   1.000000
     14         -6.858796   1.000000
     15         -4.965744   1.000000
     16         -4.965737   1.000000
     17          0.478362   0.000000
     18          0.478378   0.000000
     19          2.399332   0.000000
     20          3.309028   0.000000
     21          3.729270   0.000000
     22          3.785229   0.000000
     23          3.879355   0.000000
     24          4.699847   0.000000
 
  0.5000000E+00 -0.1163323E-17  0.0000000E+00  0.2083333E-01
      1        -20.292514   1.000000
      2        -20.292514   1.000000
      3        -17.476018   1.000000
      4        -17.476018   1.000000
      5        -12.773624   1.000000
      6        -12.773624   1.000000
      7        -11.191687   1.000000
      8        -11.191687   1.000000
      9         -9.671481   1.000000
     10         -9.671481   1.000000
     11         -8.135641   1.000000
     12         -8.135641   1.000000
     13         -7.290645   1.000000
     14         -7.290645   1.000000
     15         -4.987524   1.000000
     16         -4.987524   1.000000
     17          0.559328   0.000000
     18          0.559328   0.000000
     19          3.009929   0.000000
     20          3.009929   0.000000
     21          3.906751   0.000000
     22          3.906756   0.000000
     23          4.501823   0.000000
     24          4.501906   0.000000
 
  0.8333333E-01  0.8333333E-01  0.0000000E+00  0.4166667E-01
      1        -21.634147   1.000000
      2        -17.371990   1.000000
      3        -17.371990   1.000000
      4        -16.415535   1.000000
      5        -15.369455   1.000000
      6        -14.433808   1.000000
      7        -14.433808   1.000000
      8         -9.713994   1.000000
      9         -9.182848   1.000000
     10         -8.702340   1.000000
     11         -8.702340   1.000000
     12         -5.768359   1.000000
     13         -5.550077   1.000000
     14         -5.095868   1.000000
     15         -5.095868   1.000000
     16         -4.461278   1.000000
     17         -0.614926   0.000000
     18          0.079555   0.000000
     19          0.079555   0.000000
     20          1.175294   0.000000
     21          2.080157   0.000000
     22          2.632395   0.000000
     23          4.504040   0.000000
     24          5.270275   0.000000
 
  0.1666667E+00  0.8333333E-01  0.0000000E+00  0.8333333E-01
      1        -21.470385   1.000000
      2        -18.121036   1.000000
      3        -17.665997   1.000000
      4        -16.445640   1.000000
      5        -15.067540   1.000000
      6        -13.884804   1.000000
      7        -13.446558   1.000000
      8         -9.754498   1.000000
      9         -9.519074   1.000000
     10         -9.017712   1.000000
     11         -8.540824   1.000000
     12         -6.354057   1.000000
     13         -5.877557   1.000000
     14         -5.766112   1.000000
     15         -5.313006   1.000000
     16         -4.344589   1.000000
     17         -0.597664   0.000000
     18          0.472147   0.000000
     19          0.993978   0.000000
     20          1.398016   0.000000
     21          2.304486   0.000000
     22          2.859181   0.000000
     23          4.726773   0.000000
     24          5.486703   0.000000
 
  0.2500000E+00  0.8333333E-01  0.0000000E+00  0.8333333E-01
      1        -21.225305   1.000000
      2        -18.819656   1.000000
      3        -17.892250   1.000000
      4        -16.588085   1.000000
      5        -14.535567   1.000000
      6        -13.290511   1.000000
      7        -12.398356   1.000000
      8        -10.425547   1.000000
      9         -9.498038   1.000000
     10         -9.228329   1.000000
     11         -8.302727   1.000000
     12         -7.152563   1.000000
     13         -6.484164   1.000000
     14         -6.295177   1.000000
     15         -5.492142   1.000000
     16         -4.287810   1.000000
     17         -0.483917   0.000000
     18          0.862619   0.000000
     19          1.732061   0.000000
     20          2.064001   0.000000
     21          2.640479   0.000000
     22          3.199379   0.000000
     23          5.038361   0.000000
     24          5.059999   0.000000
 
  0.3333333E+00  0.8333333E-01  0.0000000E+00  0.8333333E-01
      1        -20.899616   1.000000
      2        -19.451678   1.000000
      3        -18.045185   1.000000
      4        -16.710323   1.000000
      5        -13.941310   1.000000
      6        -12.693601   1.000000
      7        -11.315482   1.000000
      8        -11.111888   1.000000
      9        -10.051387   1.000000
     10         -8.843979   1.000000
     11         -8.098934   1.000000
     12         -7.993684   1.000000
     13         -7.176688   1.000000
     14         -6.749419   1.000000
     15         -5.618509   1.000000
     16         -4.269972   1.000000
     17         -0.340865   0.000000
     18          1.186528   0.000000
     19          2.177184   0.000000
     20          3.087121   0.000000
     21          3.195490   0.000000
     22          3.652870   0.000000
     23          4.171236   0.000000
     24          5.122707   0.000000
 
  0.4166667E+00  0.8333333E-01  0.0000000E+00  0.8333333E-01
      1        -20.494367   1.000000
      2        -20.011015   1.000000
      3        -18.122203   1.000000
      4        -16.776201   1.000000
      5        -13.448843   1.000000
      6        -12.221284   1.000000
      7        -11.653437   1.000000
      8        -10.512108   1.000000
      9        -10.219584   1.000000
     10         -9.136215   1.000000
     11         -8.369558   1.000000
     12         -7.810693   1.000000
     13         -7.622224   1.000000
     14         -7.201161   1.000000
     15         -5.683658   1.000000
     16         -4.268031   1.000000
     17         -0.244216   0.000000
     18          1.373284   0.000000
     19          2.732888   0.000000
     20          3.398287   0.000000
     21          3.640420   0.000000
     22          4.175315   0.000000
     23          4.219349   0.000000
     24          4.512203   0.000000
 
  0.1666667E+00  0.1666667E+00  0.0000000E+00  0.4166667E-01
      1        -21.266111   1.000000
      2        -18.391178   1.000000
      3        -18.391178   1.000000
      4        -16.099168   1.000000
      5        -15.075436   1.000000
      6        -12.873430   1.000000
      7        -12.873430   1.000000
      8        -10.471479   1.000000
      9         -9.276602   1.000000
     10         -8.813701   1.000000
     11         -8.813701   1.000000
     12         -6.968793   1.000000
     13         -6.297442   1.000000
     14         -6.022196   1.000000
     15         -6.022196   1.000000
     16         -4.014100   1.000000
     17         -0.802004   0.000000
     18          1.464068   0.000000
     19          1.464068   0.000000
     20          1.676483   0.000000
     21          2.584583   0.000000
     22          3.142739   0.000000
     23          5.004757   0.000000
     24          5.758112   0.000000
 
  0.2500000E+00  0.1666667E+00  0.0000000E+00  0.8333333E-01
      1        -20.980939   1.000000
      2        -19.056035   1.000000
      3        -18.586031   1.000000
      4        -16.021322   1.000000
      5        -14.709714   1.000000
      6        -12.280748   1.000000
      7        -11.820887   1.000000
      8        -11.220187   1.000000
      9         -9.242588   1.000000
     10         -8.939515   1.000000
     11         -8.532664   1.000000
     12         -7.755237   1.000000
     13         -6.793530   1.000000
     14         -6.732825   1.000000
     15         -6.210997   1.000000
     16         -3.760311   1.000000
     17         -0.914489   0.000000
     18          1.878110   0.000000
     19          2.066214   0.000000
     20          2.550794   0.000000
     21          2.975976   0.000000
     22          3.539725   0.000000
     23          4.724454   0.000000
     24          5.392556   0.000000
 
  0.3333333E+00  0.1666667E+00  0.0000000E+00  0.8333333E-01
      1        -20.615783   1.000000
      2        -19.651087   1.000000
      3        -18.703627   1.000000
      4        -16.055644   1.000000
      5        -14.192990   1.000000
      6        -11.899051   1.000000
      7        -11.736755   1.000000
      8        -10.751729   1.000000
      9         -9.711060   1.000000
     10         -8.679236   1.000000
     11         -8.510639   1.000000
     12         -8.179878   1.000000
     13         -7.397714   1.000000
     14         -7.294588   1.000000
     15         -6.326526   1.000000
     16         -3.605710   1.000000
     17         -0.957575   0.000000
     18          2.170561   0.000000
     19          2.566835   0.000000
     20          3.477037   0.000000
     21          3.659546   0.000000
     22          3.897772   0.000000
     23          4.049995   0.000000
     24          4.837148   0.000000
 
  0.4166667E+00  0.1666667E+00  0.0000000E+00  0.4166667E-01
      1        -20.171899   1.000000
      2        -20.171898   1.000000
      3        -18.742935   1.000000
      4        -16.075545   1.000000
      5        -13.903787   1.000000
      6        -12.236014   1.000000
      7        -11.465412   1.000000
      8         -9.961126   1.000000
      9         -9.692960   1.000000
     10         -9.692937   1.000000
     11         -7.994357   1.000000
     12         -7.994354   1.000000
     13         -7.763307   1.000000
     14         -7.763282   1.000000
     15         -6.365449   1.000000
     16         -3.554640   1.000000
     17         -0.966108   0.000000
     18          2.277241   0.000000
     19          3.177716   0.000000
     20          3.177716   0.000000
     21          4.074648   0.000000
     22          4.074649   0.000000
     23          4.673183   0.000000
     24          4.673184   0.000000
 
  0.2500000E+00  0.2500000E+00  0.0000000E+00  0.4166667E-01
      1        -20.656304   1.000000
      2        -19.214465   1.000000
      3        -19.214465   1.000000
      4        -15.573144   1.000000
      5        -14.690705   1.000000
      6        -11.974697   1.000000
      7        -11.256207   1.000000
      8        -11.256207   1.000000
      9         -8.902784   1.000000
     10         -8.902784   1.000000
     11         -8.557777   1.000000
     12         -8.469037   1.000000
     13         -7.386940   1.000000
     14         -6.900921   1.000000
     15         -6.900921   1.000000
     16         -3.274724   1.000000
     17         -1.305760   0.000000
     18          2.511505   0.000000
     19          2.938071   0.000000
     20          2.938071   0.000000
     21          3.422272   0.000000
     22          3.993517   0.000000
     23          4.507234   0.000000
     24          4.507239   0.000000
 
  0.3333333E+00  0.2500000E+00  0.0000000E+00  0.8333333E-01
      1        -20.252505   1.000000
      2        -19.771134   1.000000
      3        -19.293925   1.000000
      4        -15.404222   1.000000
      5        -14.454028   1.000000
      6        -12.529493   1.000000
      7        -10.824903   1.000000
      8        -10.250516   1.000000
      9         -9.306637   1.000000
     10         -9.249549   1.000000
     11         -8.478147   1.000000
     12         -8.086533   1.000000
     13         -7.968323   1.000000
     14         -7.531337   1.000000
     15         -6.985714   1.000000
     16         -2.927875   1.000000
     17         -1.594459   0.000000
     18          3.067405   0.000000
     19          3.158574   0.000000
     20          3.733077   0.000000
     21          3.976888   0.000000
     22          3.989063   0.000000
     23          4.397795   0.000000
     24          4.560574   0.000000
 
  0.3333333E+00  0.3333333E+00  0.0000000E+00  0.1388889E-01
      1        -19.811219   1.000000
      2        -19.811218   1.000000
      3        -19.811218   1.000000
      4        -14.839842   1.000000
      5        -14.839776   1.000000
      6        -12.789661   1.000000
      7        -10.010141   1.000000
      8        -10.010074   1.000000
      9        -10.010074   1.000000
     10         -8.655564   1.000000
     11         -8.655564   1.000000
     12         -8.655493   1.000000
     13         -7.576053   1.000000
     14         -7.576053   1.000000
     15         -7.576048   1.000000
     16         -2.253073   0.500140
     17         -2.253024   0.499860
     18          3.678086   0.000000
     19          3.678086   0.000000
     20          3.678086   0.000000
     21          4.115075   0.000000
     22          4.115101   0.000000
     23          4.115101   0.000000
     24          4.585670   0.000000
