  16  16   0   4
  0.2054177E+02  0.5030000E-09  0.5030000E-09  0.1500000E-08  0.5000000E-15
  1.000000000000000E-004
  CAR 
 Lattice                                 
      9.80227134    -21.34760809  301     -0.94923326      1.00000000
    -21.348  0.0000E+00  0.0000E+00  0.0000E+00  0.0000E+00
    -21.244  0.0000E+00  0.0000E+00  0.0000E+00  0.0000E+00
    -21.140  0.0000E+00  0.0000E+00  0.0000E+00  0.0000E+00
    -21.036  0.0000E+00  0.0000E+00  0.0000E+00  0.0000E+00
    -20.932  0.0000E+00  0.0000E+00  0.0000E+00  0.0000E+00
    -20.828  0.0000E+00  0.0000E+00  0.0000E+00  0.0000E+00
    -20.725  0.0000E+00  0.0000E+00  0.0000E+00  0.0000E+00
    -20.621  0.0000E+00  0.0000E+00  0.0000E+00  0.0000E+00
    -20.517  0.2900E-19  0.2900E-19  0.3012E-20  0.3012E-20
    -20.413  0.2853E-14  0.2853E-14  0.2962E-15  0.2962E-15
    -20.309  0.3000E-10  0.3000E-10  0.3116E-11  0.3116E-11
    -20.205  0.4293E-07  0.4293E-07  0.4461E-08  0.4461E-08
    -20.102  0.9048E-05  0.9047E-05  0.9439E-06  0.9439E-06
    -19.998  0.3101E-03  0.3101E-03  0.3314E-04  0.3314E-04
    -19.894  0.2116E-02  0.2116E-02  0.2529E-03  0.2529E-03
    -19.790  0.4388E-02  0.4388E-02  0.7085E-03  0.7085E-03
    -19.686  0.4878E-02  0.4878E-02  0.1215E-02  0.1215E-02
    -19.582  0.5149E-02  0.5149E-02  0.1750E-02  0.1750E-02
    -19.479  0.4612E-02  0.4612E-02  0.2229E-02  0.2229E-02
    -19.375  0.5659E-02  0.5659E-02  0.2816E-02  0.2816E-02
    -19.271  0.4255E-02  0.4255E-02  0.3258E-02  0.3258E-02
    -19.167  0.5206E-02  0.5206E-02  0.3799E-02  0.3799E-02
    -19.063  0.5912E-02  0.5912E-02  0.4412E-02  0.4412E-02
    -18.959  0.3640E-02  0.3640E-02  0.4790E-02  0.4790E-02
    -18.856  0.5252E-02  0.5252E-02  0.5336E-02  0.5336E-02
    -18.752  0.6351E-02  0.6351E-02  0.5995E-02  0.5995E-02
    -18.648  0.4465E-02  0.4465E-02  0.6459E-02  0.6459E-02
    -18.544  0.3320E-02  0.3320E-02  0.6803E-02  0.6803E-02
    -18.440  0.6668E-02  0.6668E-02  0.7496E-02  0.7496E-02
    -18.336  0.6050E-02  0.6050E-02  0.8124E-02  0.8124E-02
    -18.233  0.4235E-02  0.4235E-02  0.8564E-02  0.8564E-02
    -18.129  0.3400E-02  0.3400E-02  0.8917E-02  0.8917E-02
    -18.025  0.6869E-02  0.6869E-02  0.9630E-02  0.9630E-02
    -17.921  0.1188E-01  0.1188E-01  0.1086E-01  0.1086E-01
    -17.817  0.1125E-01  0.1125E-01  0.1203E-01  0.1203E-01
    -17.713  0.1100E-01  0.1100E-01  0.1317E-01  0.1317E-01
    -17.610  0.1290E-01  0.1290E-01  0.1451E-01  0.1451E-01
    -17.506  0.1636E-01  0.1636E-01  0.1621E-01  0.1621E-01
    -17.402  0.2043E-01  0.2043E-01  0.1833E-01  0.1833E-01
    -17.298  0.2009E-01  0.2009E-01  0.2042E-01  0.2042E-01
    -17.194  0.1004E-01  0.1004E-01  0.2146E-01  0.2146E-01
    -17.090  0.5003E-02  0.5003E-02  0.2198E-01  0.2198E-01
    -16.987  0.7168E-02  0.7168E-02  0.2272E-01  0.2272E-01
    -16.883  0.6801E-02  0.6801E-02  0.2343E-01  0.2343E-01
    -16.779  0.5585E-02  0.5585E-02  0.2401E-01  0.2401E-01
    -16.675  0.4624E-02  0.4624E-02  0.2449E-01  0.2449E-01
    -16.571  0.2840E-02  0.2840E-02  0.2479E-01  0.2479E-01
    -16.467  0.3914E-02  0.3914E-02  0.2519E-01  0.2519E-01
    -16.364  0.9167E-02  0.9167E-02  0.2614E-01  0.2614E-01
    -16.260  0.6553E-02  0.6553E-02  0.2682E-01  0.2682E-01
    -16.156  0.4786E-02  0.4786E-02  0.2732E-01  0.2732E-01
    -16.052  0.4279E-02  0.4279E-02  0.2777E-01  0.2777E-01
    -15.948  0.4258E-02  0.4258E-02  0.2821E-01  0.2821E-01
    -15.844  0.3592E-02  0.3592E-02  0.2858E-01  0.2858E-01
    -15.741  0.8364E-02  0.8364E-02  0.2945E-01  0.2945E-01
    -15.637  0.1247E-01  0.1247E-01  0.3074E-01  0.3074E-01
    -15.533  0.1334E-01  0.1334E-01  0.3213E-01  0.3213E-01
    -15.429  0.1585E-01  0.1585E-01  0.3378E-01  0.3378E-01
    -15.325  0.1491E-01  0.1491E-01  0.3532E-01  0.3532E-01
    -15.221  0.1223E-01  0.1223E-01  0.3659E-01  0.3659E-01
    -15.118  0.1360E-01  0.1360E-01  0.3801E-01  0.3801E-01
    -15.014  0.1803E-01  0.1803E-01  0.3988E-01  0.3988E-01
    -14.910  0.1572E-01  0.1572E-01  0.4151E-01  0.4151E-01
    -14.806  0.1335E-01  0.1335E-01  0.4290E-01  0.4290E-01
    -14.702  0.1035E-01  0.1035E-01  0.4397E-01  0.4397E-01
    -14.598  0.9585E-02  0.9585E-02  0.4497E-01  0.4497E-01
    -14.495  0.1472E-01  0.1472E-01  0.4650E-01  0.4650E-01
    -14.391  0.1997E-01  0.1997E-01  0.4857E-01  0.4857E-01
    -14.287  0.1564E-01  0.1564E-01  0.5019E-01  0.5019E-01
    -14.183  0.1008E-01  0.1008E-01  0.5124E-01  0.5124E-01
    -14.079  0.8119E-02  0.8119E-02  0.5208E-01  0.5208E-01
    -13.975  0.7714E-02  0.7714E-02  0.5288E-01  0.5288E-01
    -13.872  0.8419E-02  0.8419E-02  0.5376E-01  0.5376E-01
    -13.768  0.6859E-02  0.6860E-02  0.5447E-01  0.5447E-01
    -13.664  0.4002E-02  0.4002E-02  0.5489E-01  0.5489E-01
    -13.560  0.4701E-02  0.4701E-02  0.5537E-01  0.5537E-01
    -13.456  0.4347E-02  0.4347E-02  0.5583E-01  0.5583E-01
    -13.352  0.5923E-02  0.5923E-02  0.5644E-01  0.5644E-01
    -13.249  0.5840E-02  0.5840E-02  0.5705E-01  0.5705E-01
    -13.145  0.6280E-02  0.6280E-02  0.5770E-01  0.5770E-01
    -13.041  0.7932E-02  0.7932E-02  0.5852E-01  0.5852E-01
    -12.937  0.7116E-02  0.7116E-02  0.5926E-01  0.5926E-01
    -12.833  0.8633E-02  0.8633E-02  0.6016E-01  0.6016E-01
    -12.729  0.6112E-02  0.6112E-02  0.6079E-01  0.6079E-01
    -12.626  0.6487E-02  0.6487E-02  0.6147E-01  0.6147E-01
    -12.522  0.5587E-02  0.5587E-02  0.6205E-01  0.6205E-01
    -12.418  0.3684E-02  0.3684E-02  0.6243E-01  0.6243E-01
    -12.314  0.8474E-02  0.8474E-02  0.6331E-01  0.6331E-01
    -12.210  0.7011E-02  0.7011E-02  0.6404E-01  0.6404E-01
    -12.106  0.6085E-02  0.6085E-02  0.6467E-01  0.6467E-01
    -12.003  0.1074E-01  0.1074E-01  0.6578E-01  0.6578E-01
    -11.899  0.1594E-01  0.1594E-01  0.6744E-01  0.6744E-01
    -11.795  0.1566E-01  0.1566E-01  0.6906E-01  0.6906E-01
    -11.691  0.1433E-01  0.1433E-01  0.7055E-01  0.7055E-01
    -11.587  0.1497E-01  0.1497E-01  0.7211E-01  0.7211E-01
    -11.483  0.1671E-01  0.1671E-01  0.7384E-01  0.7384E-01
    -11.380  0.9846E-02  0.9846E-02  0.7486E-01  0.7486E-01
    -11.276  0.8786E-02  0.8786E-02  0.7578E-01  0.7578E-01
    -11.172  0.1065E-01  0.1065E-01  0.7688E-01  0.7688E-01
    -11.068  0.1221E-01  0.1221E-01  0.7815E-01  0.7815E-01
    -10.964  0.7816E-02  0.7816E-02  0.7896E-01  0.7896E-01
    -10.860  0.5628E-02  0.5628E-02  0.7955E-01  0.7955E-01
    -10.757  0.1334E-01  0.1334E-01  0.8093E-01  0.8093E-01
    -10.653  0.1740E-01  0.1740E-01  0.8274E-01  0.8274E-01
    -10.549  0.1088E-01  0.1088E-01  0.8387E-01  0.8387E-01
    -10.445  0.5949E-02  0.5949E-02  0.8448E-01  0.8448E-01
    -10.341  0.9759E-02  0.9759E-02  0.8550E-01  0.8550E-01
    -10.237  0.1876E-01  0.1876E-01  0.8745E-01  0.8745E-01
    -10.134  0.1721E-01  0.1721E-01  0.8923E-01  0.8923E-01
    -10.030  0.9334E-02  0.9334E-02  0.9020E-01  0.9020E-01
     -9.926  0.8935E-02  0.8935E-02  0.9113E-01  0.9113E-01
     -9.822  0.8434E-02  0.8434E-02  0.9201E-01  0.9201E-01
     -9.718  0.1202E-01  0.1202E-01  0.9325E-01  0.9325E-01
     -9.614  0.9871E-02  0.9871E-02  0.9428E-01  0.9428E-01
     -9.511  0.1120E-01  0.1120E-01  0.9544E-01  0.9544E-01
     -9.407  0.9329E-02  0.9329E-02  0.9641E-01  0.9641E-01
     -9.303  0.9656E-02  0.9656E-02  0.9741E-01  0.9741E-01
     -9.199  0.9770E-02  0.9770E-02  0.9843E-01  0.9843E-01
     -9.095  0.3151E-02  0.3151E-02  0.9876E-01  0.9876E-01
     -8.991  0.3844E-02  0.3843E-02  0.9915E-01  0.9915E-01
     -8.888  0.1281E-01  0.1281E-01  0.1005E+00  0.1005E+00
     -8.784  0.1864E-01  0.1864E-01  0.1024E+00  0.1024E+00
     -8.680  0.1699E-01  0.1699E-01  0.1042E+00  0.1042E+00
     -8.576  0.8661E-02  0.8661E-02  0.1051E+00  0.1051E+00
     -8.472  0.8550E-02  0.8550E-02  0.1060E+00  0.1060E+00
     -8.368  0.9399E-02  0.9399E-02  0.1069E+00  0.1069E+00
     -8.265  0.1675E-01  0.1674E-01  0.1087E+00  0.1087E+00
     -8.161  0.2510E-01  0.2510E-01  0.1113E+00  0.1113E+00
     -8.057  0.2266E-01  0.2266E-01  0.1136E+00  0.1136E+00
     -7.953  0.1691E-01  0.1691E-01  0.1154E+00  0.1154E+00
     -7.849  0.1358E-01  0.1358E-01  0.1168E+00  0.1168E+00
     -7.745  0.1375E-01  0.1375E-01  0.1182E+00  0.1182E+00
     -7.642  0.2433E-01  0.2433E-01  0.1208E+00  0.1208E+00
     -7.538  0.2648E-01  0.2648E-01  0.1235E+00  0.1235E+00
     -7.434  0.2151E-01  0.2151E-01  0.1257E+00  0.1257E+00
     -7.330  0.2212E-01  0.2212E-01  0.1280E+00  0.1280E+00
     -7.226  0.2426E-01  0.2426E-01  0.1306E+00  0.1306E+00
     -7.122  0.2290E-01  0.2290E-01  0.1329E+00  0.1329E+00
     -7.019  0.2707E-01  0.2707E-01  0.1358E+00  0.1358E+00
     -6.915  0.2339E-01  0.2339E-01  0.1382E+00  0.1382E+00
     -6.811  0.1804E-01  0.1804E-01  0.1401E+00  0.1401E+00
     -6.707  0.2507E-01  0.2507E-01  0.1427E+00  0.1427E+00
     -6.603  0.2620E-01  0.2620E-01  0.1454E+00  0.1454E+00
     -6.499  0.2321E-01  0.2321E-01  0.1478E+00  0.1478E+00
     -6.396  0.2405E-01  0.2405E-01  0.1503E+00  0.1503E+00
     -6.292  0.2336E-01  0.2336E-01  0.1527E+00  0.1527E+00
     -6.188  0.2395E-01  0.2395E-01  0.1552E+00  0.1552E+00
     -6.084  0.1870E-01  0.1870E-01  0.1571E+00  0.1571E+00
     -5.980  0.1725E-01  0.1725E-01  0.1589E+00  0.1589E+00
     -5.877  0.2049E-01  0.2049E-01  0.1611E+00  0.1611E+00
     -5.773  0.2538E-01  0.2538E-01  0.1637E+00  0.1637E+00
     -5.669  0.2027E-01  0.2027E-01  0.1658E+00  0.1658E+00
     -5.565  0.1996E-01  0.1996E-01  0.1679E+00  0.1679E+00
     -5.461  0.2245E-01  0.2245E-01  0.1702E+00  0.1702E+00
     -5.357  0.2707E-01  0.2707E-01  0.1730E+00  0.1730E+00
     -5.254  0.2728E-01  0.2728E-01  0.1758E+00  0.1758E+00
     -5.150  0.1722E-01  0.1722E-01  0.1776E+00  0.1776E+00
     -5.046  0.1058E-01  0.1058E-01  0.1787E+00  0.1787E+00
     -4.942  0.1658E-01  0.1658E-01  0.1805E+00  0.1805E+00
     -4.838  0.1927E-01  0.1927E-01  0.1825E+00  0.1825E+00
     -4.734  0.1776E-01  0.1776E-01  0.1843E+00  0.1843E+00
     -4.631  0.1556E-01  0.1556E-01  0.1859E+00  0.1859E+00
     -4.527  0.1664E-01  0.1664E-01  0.1876E+00  0.1876E+00
     -4.423  0.1811E-01  0.1811E-01  0.1895E+00  0.1895E+00
     -4.319  0.2111E-01  0.2111E-01  0.1917E+00  0.1917E+00
     -4.215  0.2448E-01  0.2448E-01  0.1943E+00  0.1943E+00
     -4.111  0.3752E-01  0.3752E-01  0.1981E+00  0.1981E+00
     -4.008  0.3836E-01  0.3836E-01  0.2021E+00  0.2021E+00
     -3.904  0.2847E-01  0.2847E-01  0.2051E+00  0.2051E+00
     -3.800  0.1857E-01  0.1857E-01  0.2070E+00  0.2070E+00
     -3.696  0.1438E-01  0.1438E-01  0.2085E+00  0.2085E+00
     -3.592  0.1583E-01  0.1583E-01  0.2102E+00  0.2102E+00
     -3.488  0.1668E-01  0.1668E-01  0.2119E+00  0.2119E+00
     -3.385  0.2167E-01  0.2167E-01  0.2141E+00  0.2141E+00
     -3.281  0.1729E-01  0.1729E-01  0.2159E+00  0.2159E+00
     -3.177  0.1404E-01  0.1404E-01  0.2174E+00  0.2174E+00
     -3.073  0.1529E-01  0.1529E-01  0.2190E+00  0.2190E+00
     -2.969  0.1917E-01  0.1917E-01  0.2210E+00  0.2210E+00
     -2.865  0.2644E-01  0.2644E-01  0.2237E+00  0.2237E+00
     -2.762  0.1571E-01  0.1571E-01  0.2253E+00  0.2253E+00
     -2.658  0.1189E-01  0.1189E-01  0.2266E+00  0.2266E+00
     -2.554  0.1887E-01  0.1887E-01  0.2285E+00  0.2285E+00
     -2.450  0.2230E-01  0.2230E-01  0.2309E+00  0.2309E+00
     -2.346  0.1901E-01  0.1901E-01  0.2328E+00  0.2328E+00
     -2.242  0.2031E-01  0.2031E-01  0.2349E+00  0.2349E+00
     -2.139  0.2068E-01  0.2068E-01  0.2371E+00  0.2371E+00
     -2.035  0.8702E-02  0.8703E-02  0.2380E+00  0.2380E+00
     -1.931  0.2838E-02  0.2838E-02  0.2383E+00  0.2383E+00
     -1.827  0.6992E-02  0.6992E-02  0.2390E+00  0.2390E+00
     -1.723  0.6820E-02  0.6820E-02  0.2397E+00  0.2397E+00
     -1.619  0.4730E-02  0.4730E-02  0.2402E+00  0.2402E+00
     -1.516  0.7100E-02  0.7100E-02  0.2409E+00  0.2409E+00
     -1.412  0.5842E-02  0.5842E-02  0.2416E+00  0.2416E+00
     -1.308  0.3525E-02  0.3525E-02  0.2419E+00  0.2419E+00
     -1.204  0.1366E-02  0.1366E-02  0.2421E+00  0.2421E+00
     -1.100  0.1977E-03  0.1977E-03  0.2421E+00  0.2421E+00
     -0.996  0.3693E-03  0.3692E-03  0.2421E+00  0.2421E+00
     -0.893  0.2165E-02  0.2165E-02  0.2423E+00  0.2423E+00
     -0.789  0.3705E-02  0.3705E-02  0.2427E+00  0.2427E+00
     -0.685  0.4067E-02  0.4067E-02  0.2431E+00  0.2431E+00
     -0.581  0.8458E-02  0.8458E-02  0.2440E+00  0.2440E+00
     -0.477  0.1065E-01  0.1065E-01  0.2451E+00  0.2451E+00
     -0.373  0.8987E-02  0.8987E-02  0.2461E+00  0.2461E+00
     -0.270  0.1172E-01  0.1172E-01  0.2473E+00  0.2473E+00
     -0.166  0.1168E-01  0.1168E-01  0.2485E+00  0.2485E+00
     -0.062  0.8521E-02  0.8521E-02  0.2494E+00  0.2494E+00
      0.042  0.3915E-02  0.3915E-02  0.2498E+00  0.2498E+00
      0.146  0.1643E-02  0.1643E-02  0.2500E+00  0.2500E+00
      0.250  0.1745E-02  0.1745E-02  0.2501E+00  0.2501E+00
      0.353  0.5924E-02  0.5924E-02  0.2508E+00  0.2508E+00
      0.457  0.9712E-02  0.9712E-02  0.2518E+00  0.2518E+00
      0.561  0.8009E-02  0.8009E-02  0.2526E+00  0.2526E+00
      0.665  0.4238E-02  0.4238E-02  0.2530E+00  0.2530E+00
      0.769  0.7331E-02  0.7332E-02  0.2538E+00  0.2538E+00
      0.873  0.1121E-01  0.1121E-01  0.2550E+00  0.2550E+00
      0.976  0.1218E-01  0.1218E-01  0.2562E+00  0.2562E+00
      1.080  0.1118E-01  0.1118E-01  0.2574E+00  0.2574E+00
      1.184  0.5327E-02  0.5327E-02  0.2579E+00  0.2579E+00
      1.288  0.4770E-02  0.4770E-02  0.2584E+00  0.2584E+00
      1.392  0.5307E-02  0.5307E-02  0.2590E+00  0.2590E+00
      1.496  0.4618E-02  0.4618E-02  0.2595E+00  0.2595E+00
      1.599  0.5318E-02  0.5317E-02  0.2600E+00  0.2600E+00
      1.703  0.1038E-01  0.1038E-01  0.2611E+00  0.2611E+00
      1.807  0.1042E-01  0.1042E-01  0.2622E+00  0.2622E+00
      1.911  0.4185E-02  0.4185E-02  0.2626E+00  0.2626E+00
      2.015  0.2697E-02  0.2697E-02  0.2629E+00  0.2629E+00
      2.119  0.5478E-02  0.5478E-02  0.2635E+00  0.2635E+00
      2.222  0.1277E-01  0.1277E-01  0.2648E+00  0.2648E+00
      2.326  0.1606E-01  0.1606E-01  0.2665E+00  0.2665E+00
      2.430  0.1216E-01  0.1216E-01  0.2677E+00  0.2677E+00
      2.534  0.1132E-01  0.1132E-01  0.2689E+00  0.2689E+00
      2.638  0.1253E-01  0.1253E-01  0.2702E+00  0.2702E+00
      2.742  0.1101E-01  0.1101E-01  0.2713E+00  0.2713E+00
      2.845  0.8695E-02  0.8695E-02  0.2722E+00  0.2722E+00
      2.949  0.7740E-02  0.7739E-02  0.2730E+00  0.2730E+00
      3.053  0.1174E-01  0.1174E-01  0.2743E+00  0.2743E+00
      3.157  0.1350E-01  0.1350E-01  0.2757E+00  0.2757E+00
      3.261  0.1386E-01  0.1386E-01  0.2771E+00  0.2771E+00
      3.365  0.1303E-01  0.1303E-01  0.2785E+00  0.2785E+00
      3.468  0.8318E-02  0.8318E-02  0.2793E+00  0.2793E+00
      3.572  0.9791E-02  0.9788E-02  0.2803E+00  0.2803E+00
      3.676  0.1267E-01  0.1268E-01  0.2817E+00  0.2817E+00
      3.780  0.1067E-01  0.1067E-01  0.2828E+00  0.2828E+00
      3.884  0.1095E-01  0.1094E-01  0.2839E+00  0.2839E+00
      3.988  0.1661E-01  0.1661E-01  0.2856E+00  0.2856E+00
      4.091  0.1720E-01  0.1720E-01  0.2874E+00  0.2874E+00
      4.195  0.1195E-01  0.1196E-01  0.2886E+00  0.2886E+00
      4.299  0.1498E-01  0.1498E-01  0.2902E+00  0.2902E+00
      4.403  0.1863E-01  0.1862E-01  0.2921E+00  0.2921E+00
      4.507  0.1432E-01  0.1432E-01  0.2936E+00  0.2936E+00
      4.611  0.1154E-01  0.1155E-01  0.2948E+00  0.2948E+00
      4.714  0.1226E-01  0.1226E-01  0.2961E+00  0.2961E+00
      4.818  0.1758E-01  0.1758E-01  0.2979E+00  0.2979E+00
      4.922  0.1865E-01  0.1865E-01  0.2999E+00  0.2999E+00
      5.026  0.1879E-01  0.1879E-01  0.3018E+00  0.3018E+00
      5.130  0.1675E-01  0.1676E-01  0.3035E+00  0.3035E+00
      5.234  0.1674E-01  0.1674E-01  0.3053E+00  0.3053E+00
      5.337  0.1409E-01  0.1409E-01  0.3067E+00  0.3067E+00
      5.441  0.1868E-01  0.1868E-01  0.3087E+00  0.3087E+00
      5.545  0.2127E-01  0.2127E-01  0.3109E+00  0.3109E+00
      5.649  0.1419E-01  0.1420E-01  0.3124E+00  0.3124E+00
      5.753  0.1280E-01  0.1280E-01  0.3137E+00  0.3137E+00
      5.857  0.1730E-01  0.1730E-01  0.3155E+00  0.3155E+00
      5.960  0.2121E-01  0.2120E-01  0.3177E+00  0.3177E+00
      6.064  0.2228E-01  0.2227E-01  0.3200E+00  0.3200E+00
      6.168  0.2877E-01  0.2877E-01  0.3230E+00  0.3230E+00
      6.272  0.2800E-01  0.2800E-01  0.3259E+00  0.3259E+00
      6.376  0.2504E-01  0.2503E-01  0.3285E+00  0.3285E+00
      6.480  0.2174E-01  0.2174E-01  0.3308E+00  0.3308E+00
      6.583  0.1496E-01  0.1496E-01  0.3323E+00  0.3323E+00
      6.687  0.2272E-01  0.2272E-01  0.3347E+00  0.3347E+00
      6.791  0.3470E-01  0.3470E-01  0.3383E+00  0.3383E+00
      6.895  0.3073E-01  0.3073E-01  0.3415E+00  0.3415E+00
      6.999  0.2866E-01  0.2866E-01  0.3444E+00  0.3444E+00
      7.103  0.3254E-01  0.3255E-01  0.3478E+00  0.3478E+00
      7.206  0.3401E-01  0.3402E-01  0.3514E+00  0.3514E+00
      7.310  0.2690E-01  0.2691E-01  0.3541E+00  0.3541E+00
      7.414  0.3280E-01  0.3279E-01  0.3576E+00  0.3576E+00
      7.518  0.3914E-01  0.3914E-01  0.3616E+00  0.3616E+00
      7.622  0.2902E-01  0.2901E-01  0.3646E+00  0.3646E+00
      7.726  0.2730E-01  0.2730E-01  0.3675E+00  0.3675E+00
      7.829  0.2737E-01  0.2737E-01  0.3703E+00  0.3703E+00
      7.933  0.2027E-01  0.2026E-01  0.3724E+00  0.3724E+00
      8.037  0.1275E-01  0.1276E-01  0.3737E+00  0.3737E+00
      8.141  0.6258E-02  0.6265E-02  0.3744E+00  0.3744E+00
      8.245  0.1965E-02  0.1964E-02  0.3746E+00  0.3746E+00
      8.349  0.1628E-02  0.1631E-02  0.3748E+00  0.3748E+00
      8.452  0.1776E-02  0.1775E-02  0.3749E+00  0.3749E+00
      8.556  0.5231E-03  0.5209E-03  0.3750E+00  0.3750E+00
      8.660  0.2504E-04  0.2483E-04  0.3750E+00  0.3750E+00
      8.764  0.1666E-06  0.1645E-06  0.3750E+00  0.3750E+00
      8.868  0.1425E-09  0.1401E-09  0.3750E+00  0.3750E+00
      8.972  0.1504E-13  0.1473E-13  0.3750E+00  0.3750E+00
      9.075  0.0000E+00  0.0000E+00  0.3750E+00  0.3750E+00
      9.179  0.0000E+00  0.0000E+00  0.3750E+00  0.3750E+00
      9.283  0.0000E+00  0.0000E+00  0.3750E+00  0.3750E+00
      9.387  0.0000E+00  0.0000E+00  0.3750E+00  0.3750E+00
      9.491  0.0000E+00  0.0000E+00  0.3750E+00  0.3750E+00
      9.595  0.0000E+00  0.0000E+00  0.3750E+00  0.3750E+00
      9.698  0.0000E+00  0.0000E+00  0.3750E+00  0.3750E+00
      9.802  0.0000E+00  0.0000E+00  0.3750E+00  0.3750E+00
