 ----------------------------------------------------
    OOO  PPPP  EEEEE N   N M   M PPPP
   O   O P   P E     NN  N MM MM P   P
   O   O PPPP  EEEEE N N N M M M PPPP   -- VERSION
   O   O P     E     N  NN M   M P
    OOO  P     EEEEE N   N M   M P
 ----------------------------------------------------
 running   48 mpi-ranks, with    1 threads/rank
 distrk:  each k-point on   48 cores,    1 groups
 distr:  one band on    1 cores,   48 groups
 vasp.6.3.2 27Jun22 (build Dec 22 2022 13:13:19) complex                        
  
 POSCAR found type information on POSCAR B C 
 POSCAR found :  2 types and      16 ions
 Reading from existing POTCAR
 -----------------------------------------------------------------------------
|                                                                             |
|           W    W    AA    RRRRR   N    N  II  N    N   GGGG   !!!           |
|           W    W   A  A   R    R  NN   N  II  NN   N  G    G  !!!           |
|           W    W  A    A  R    R  N N  N  II  N N  N  G       !!!           |
|           W WW W  AAAAAA  RRRRR   N  N N  II  N  N N  G  GGG   !            |
|           WW  WW  A    A  R   R   N   NN  II  N   NN  G    G                |
|           W    W  A    A  R    R  N    N  II  N    N   GGGG   !!!           |
|                                                                             |
|     You use a magnetic or noncollinear calculation, but did not specify     |
|     the initial magnetic moment with the MAGMOM tag. Note that a            |
|     default of 1 will be used for all atoms. This ferromagnetic setup       |
|     may break the symmetry of the crystal, in particular it may rule        |
|     out finding an antiferromagnetic solution. Thence, we recommend         |
|     setting the initial magnetic moment manually or verifying carefully     |
|     that this magnetic setup is desired.                                    |
|                                                                             |
 -----------------------------------------------------------------------------

 scaLAPACK will be used
 Reading from existing POTCAR
 LDA part: xc-table for Pade appr. of Perdew
 POSCAR found type information on POSCAR B C 
 POSCAR found :  2 types and      16 ions
 POSCAR, INCAR and KPOINTS ok, starting setup
 FFT: planning ... GRIDC
 FFT: planning ... GRID_SOFT
 FFT: planning ... GRID
 WAVECAR not read
 entering main loop
       N       E                     dE             d eps       ncg     rms          rms(c)
DAV:   1     0.259599456451E+03    0.25960E+03   -0.28635E+04 14208   0.964E+02
DAV:   2    -0.130410852730E+03   -0.39001E+03   -0.38948E+03 21840   0.181E+02
DAV:   3    -0.145961186051E+03   -0.15550E+02   -0.15532E+02 25968   0.498E+01
DAV:   4    -0.145999590364E+03   -0.38404E-01   -0.38378E-01 20976   0.233E+00
DAV:   5    -0.145999675165E+03   -0.84802E-04   -0.84802E-04 24336   0.113E-01    0.251E+01
DAV:   6    -0.107275574134E+03    0.38724E+02   -0.67552E+01 23952   0.266E+01    0.146E+01
DAV:   7    -0.114403070947E+03   -0.71275E+01   -0.10273E+01 23088   0.111E+01    0.859E+00
DAV:   8    -0.123575541929E+03   -0.91725E+01   -0.82347E+00 25104   0.907E+00    0.459E+00
DAV:   9    -0.131520915113E+03   -0.79454E+01   -0.44234E+00 17904   0.725E+00    0.301E+00
DAV:  10    -0.138578100959E+03   -0.70572E+01   -0.97182E+00 21360   0.778E+00    0.173E+00
DAV:  11    -0.140019309556E+03   -0.14412E+01   -0.17151E+00 21216   0.352E+00    0.117E+00
DAV:  12    -0.140273686826E+03   -0.25438E+00   -0.30956E-01 20304   0.158E+00    0.465E-01
DAV:  13    -0.140327665743E+03   -0.53979E-01   -0.45728E-02 16944   0.843E-01    0.197E-01
DAV:  14    -0.140351979984E+03   -0.24314E-01   -0.78225E-03 18720   0.322E-01    0.972E-02
DAV:  15    -0.140361196939E+03   -0.92170E-02   -0.57626E-03 19152   0.184E-01    0.477E-02
DAV:  16    -0.140362573047E+03   -0.13761E-02   -0.53081E-04 14640   0.932E-02    0.273E-02
DAV:  17    -0.140364352785E+03   -0.17797E-02   -0.24779E-04 15072   0.637E-02    0.178E-02
DAV:  18    -0.140365406411E+03   -0.10536E-02   -0.11438E-04 16320   0.470E-02    0.128E-02
DAV:  19    -0.140365929287E+03   -0.52288E-03   -0.69883E-05 18480   0.381E-02    0.804E-03
DAV:  20    -0.140366077372E+03   -0.14809E-03   -0.23541E-05 16656   0.237E-02    0.456E-03
DAV:  21    -0.140366122566E+03   -0.45194E-04   -0.10167E-05 18096   0.147E-02    0.276E-03
DAV:  22    -0.140366129118E+03   -0.65517E-05   -0.36091E-06 24144   0.857E-03    0.197E-03
DAV:  23    -0.140366137876E+03   -0.87578E-05   -0.16018E-06 21696   0.485E-03    0.922E-04
DAV:  24    -0.140366141680E+03   -0.38047E-05   -0.43733E-07 21312   0.238E-03    0.501E-04
DAV:  25    -0.140366143450E+03   -0.17700E-05   -0.10653E-07 20832   0.113E-03    0.271E-04
DAV:  26    -0.140366144477E+03   -0.10270E-05   -0.76306E-08 18864   0.899E-04    0.124E-04
DAV:  27    -0.140366144806E+03   -0.32934E-06   -0.21443E-08 18432   0.514E-04
   1 F= -.14225959E+03 E0= -.14225846E+03  d E =-.142260E+03  mag=     0.0000
 curvature:   0.00 expect dE= 0.000E+00 dE for cont linesearch  0.000E+00
 trial: gam= 0.00000 g(F)=  0.123E+00 g(S)=  0.000E+00 ort = 0.000E+00 (trialstep = 0.100E+01)
 search vector abs. value=  0.123E+00
 bond charge predicted
       N       E                     dE             d eps       ncg     rms          rms(c)
DAV:   1    -0.140307657023E+03    0.58487E-01   -0.19875E+01 14208   0.150E+01    0.128E+00
DAV:   2    -0.140258724702E+03    0.48932E-01   -0.34722E-01 24480   0.206E+00    0.618E-01
DAV:   3    -0.140253865946E+03    0.48588E-02   -0.47489E-02 23040   0.682E-01    0.266E-01
DAV:   4    -0.140253764792E+03    0.10115E-03   -0.50902E-03 20160   0.220E-01    0.104E-01
DAV:   5    -0.140253764715E+03    0.77509E-07   -0.37913E-04 18960   0.728E-02    0.233E-02
DAV:   6    -0.140253769063E+03   -0.43486E-05   -0.44035E-05 22272   0.241E-02    0.142E-02
DAV:   7    -0.140253781436E+03   -0.12372E-04   -0.20131E-05 19872   0.148E-02    0.351E-03
DAV:   8    -0.140253792036E+03   -0.10600E-04   -0.22062E-06 21360   0.482E-03    0.186E-03
DAV:   9    -0.140253812784E+03   -0.20748E-04   -0.26377E-06 17856   0.358E-03    0.119E-03
DAV:  10    -0.140253820559E+03   -0.77759E-05   -0.61137E-07 22176   0.166E-03    0.943E-04
DAV:  11    -0.140253828083E+03   -0.75233E-05   -0.79779E-07 16416   0.150E-03    0.432E-04
DAV:  12    -0.140253830343E+03   -0.22604E-05   -0.19235E-07 17376   0.724E-04    0.303E-04
DAV:  13    -0.140253830879E+03   -0.53555E-06   -0.29429E-08 19584   0.331E-04
   2 F= -.14215272E+03 E0= -.14215124E+03  d E =0.106866E+00  mag=    -0.0000
 trial-energy change:    0.106866  1 .order    0.105049   -0.123161    0.333259
 step:   0.2652(harm=  0.2698)  dis= 0.00811  next Energy=  -142.275885 (dE=-0.163E-01)
 bond charge predicted
       N       E                     dE             d eps       ncg     rms          rms(c)
DAV:   1    -0.140409019774E+03   -0.15519E+00   -0.10665E+01 14208   0.109E+01    0.941E-01
DAV:   2    -0.140383549866E+03    0.25470E-01   -0.18194E-01 23424   0.153E+00    0.453E-01
DAV:   3    -0.140380679680E+03    0.28702E-02   -0.30191E-02 23520   0.528E-01    0.184E-01
DAV:   4    -0.140380563429E+03    0.11625E-03   -0.32417E-03 18528   0.175E-01    0.824E-02
DAV:   5    -0.140380554122E+03    0.93074E-05   -0.26059E-04 19728   0.610E-02    0.146E-02
DAV:   6    -0.140380550585E+03    0.35372E-05   -0.52854E-05 19488   0.248E-02    0.727E-03
DAV:   7    -0.140380556219E+03   -0.56340E-05   -0.50983E-06 24816   0.777E-03    0.173E-03
DAV:   8    -0.140380561429E+03   -0.52103E-05   -0.36512E-07 23616   0.194E-03    0.130E-03
DAV:   9    -0.140380570447E+03   -0.90179E-05   -0.60720E-07 20688   0.178E-03    0.756E-04
DAV:  10    -0.140380576120E+03   -0.56731E-05   -0.28016E-07 17664   0.107E-03    0.656E-04
DAV:  11    -0.140380582174E+03   -0.60543E-05   -0.52830E-07 14784   0.119E-03    0.276E-04
DAV:  12    -0.140380582723E+03   -0.54845E-06   -0.12642E-08 24480   0.242E-04
   3 F= -.14227587E+03 E0= -.14227460E+03  d E =-.162772E-01  mag=     0.0000
 curvature:  -0.13 expect dE=-0.339E-04 dE for cont linesearch -0.704E-08
 ZBRENT: interpolating
 opt :   0.2650  next Energy=  -142.275866 (dE=-0.163E-01)
 bond charge predicted
       N       E                     dE             d eps       ncg     rms          rms(c)
DAV:   1    -0.140380584280E+03   -0.21055E-05   -0.62594E-07 15360   0.264E-03    0.232E-04
DAV:   2    -0.140380584372E+03   -0.92191E-07   -0.12009E-08 26016   0.395E-04
   4 F= -.14227587E+03 E0= -.14227460E+03  d E =-.162777E-01  mag=     0.0000
 curvature:  -0.13 expect dE=-0.333E-04 dE for cont linesearch -0.293E-09
 trial: gam= 0.00217 g(F)=  0.251E-03 g(S)=  0.000E+00 ort =-0.165E-04 (trialstep = 0.853E+00)
 search vector abs. value=  0.251E-03
 bond charge predicted
       N       E                     dE             d eps       ncg     rms          rms(c)
DAV:   1    -0.140380733581E+03   -0.14930E-03   -0.15518E-02 14208   0.540E-01    0.241E-02
DAV:   2    -0.140380735682E+03   -0.21012E-05   -0.11192E-04 24576   0.468E-02    0.157E-02
DAV:   3    -0.140380738750E+03   -0.30676E-05   -0.15247E-05 14256   0.157E-02    0.327E-03
DAV:   4    -0.140380738685E+03    0.65056E-07   -0.26657E-06 25056   0.656E-03
   5 F= -.14227600E+03 E0= -.14227475E+03  d E =-.135472E-03  mag=     0.0000
 trial-energy change:   -0.000135  1 .order   -0.000135   -0.000214   -0.000056
 step:   1.1553(harm=  1.1553)  dis= 0.00187  next Energy=  -142.276011 (dE=-0.145E-03)
 bond charge predicted
       N       E                     dE             d eps       ncg     rms          rms(c)
DAV:   1    -0.140380754912E+03   -0.16162E-04   -0.19542E-03 14400   0.192E-01    0.876E-03
DAV:   2    -0.140380754963E+03   -0.50654E-07   -0.14637E-05 23424   0.170E-02    0.578E-03
DAV:   3    -0.140380755786E+03   -0.82339E-06   -0.20124E-06 16704   0.574E-03
   6 F= -.14227601E+03 E0= -.14227476E+03  d E =-.145936E-03  mag=    -0.0000
 curvature:  -0.58 expect dE=-0.885E-04 dE for cont linesearch -0.134E-08
 trial: gam= 0.61187 g(F)=  0.153E-03 g(S)=  0.000E+00 ort =-0.763E-06 (trialstep = 0.913E+00)
 search vector abs. value=  0.246E-03
 bond charge predicted
       N       E                     dE             d eps       ncg     rms          rms(c)
DAV:   1    -0.140380718289E+03    0.36674E-04   -0.20204E-02 14976   0.636E-01    0.323E-02
DAV:   2    -0.140380718890E+03   -0.60086E-06   -0.26288E-04 15168   0.739E-02    0.203E-02
DAV:   3    -0.140380718032E+03    0.85731E-06   -0.41177E-05 17328   0.271E-02    0.728E-03
DAV:   4    -0.140380718064E+03   -0.31802E-07   -0.83652E-06 23472   0.110E-02
   7 F= -.14227595E+03 E0= -.14227471E+03  d E =0.594159E-04  mag=     0.0000
 trial-energy change:    0.000059  1 .order    0.000058   -0.000139    0.000256
 step:   0.3217(harm=  0.3217)  dis= 0.00046  next Energy=  -142.276037 (dE=-0.245E-04)
 bond charge predicted
       N       E                     dE             d eps       ncg     rms          rms(c)
DAV:   1    -0.140380789012E+03   -0.70980E-04   -0.85461E-03 16368   0.413E-01    0.214E-02
DAV:   2    -0.140380787892E+03    0.11196E-05   -0.11217E-04 14976   0.483E-02    0.132E-02
DAV:   3    -0.140380787367E+03    0.52564E-06   -0.17367E-05 14976   0.177E-02    0.465E-03
DAV:   4    -0.140380787536E+03   -0.16972E-06   -0.35886E-06 22608   0.718E-03
   8 F= -.14227604E+03 E0= -.14227479E+03  d E =-.241916E-04  mag=     0.0000
 curvature:  -0.26 expect dE=-0.848E-05 dE for cont linesearch -0.854E-09
 trial: gam= 0.22479 g(F)=  0.327E-04 g(S)=  0.000E+00 ort =-0.899E-06 (trialstep = 0.795E+00)
 search vector abs. value=  0.447E-04
 bond charge predicted
       N       E                     dE             d eps       ncg     rms          rms(c)
DAV:   1    -0.140380806565E+03   -0.19199E-04   -0.26540E-03 14208   0.229E-01    0.118E-02
DAV:   2    -0.140380806671E+03   -0.10520E-06   -0.37422E-05 15360   0.272E-02    0.747E-03
DAV:   3    -0.140380806849E+03   -0.17798E-06   -0.44862E-06 17328   0.880E-03
   9 F= -.14227604E+03 E0= -.14227479E+03  d E =-.334797E-05  mag=     0.0000
 trial-energy change:   -0.000003  1 .order   -0.000003   -0.000026    0.000021
 step:   0.4429(harm=  0.4429)  dis= 0.00023  next Energy=  -142.276044 (dE=-0.719E-05)
 bond charge predicted
       N       E                     dE             d eps       ncg     rms          rms(c)
DAV:   1    -0.140380803978E+03    0.26926E-05   -0.51306E-04 15360   0.101E-01    0.446E-03
DAV:   2    -0.140380804078E+03   -0.99927E-07   -0.70107E-06 14208   0.116E-02
  10 F= -.14227604E+03 E0= -.14227479E+03  d E =-.765491E-05  mag=     0.0000
 curvature:  -0.30 expect dE=-0.808E-05 dE for cont linesearch -0.352E-09
 trial: gam= 0.80283 g(F)=  0.265E-04 g(S)=  0.000E+00 ort = 0.227E-06 (trialstep = 0.582E+00)
 search vector abs. value=  0.557E-04
 bond charge predicted
       N       E                     dE             d eps       ncg     rms          rms(c)
DAV:   1    -0.140380832327E+03   -0.28349E-04   -0.17487E-03 14208   0.187E-01    0.812E-03
DAV:   2    -0.140380832527E+03   -0.20073E-06   -0.15327E-05 14208   0.175E-02    0.531E-03
DAV:   3    -0.140380832851E+03   -0.32346E-06   -0.14986E-06 18480   0.490E-03
  11 F= -.14227605E+03 E0= -.14227480E+03  d E =-.982737E-05  mag=    -0.0000
 trial-energy change:   -0.000010  1 .order   -0.000010   -0.000016   -0.000004
 step:   0.7739(harm=  0.7739)  dis= 0.00039  next Energy=  -142.276054 (dE=-0.103E-04)
 bond charge predicted
       N       E                     dE             d eps       ncg     rms          rms(c)
DAV:   1    -0.140380839885E+03   -0.73581E-05   -0.19224E-04 15072   0.621E-02    0.306E-03
DAV:   2    -0.140380839834E+03    0.51055E-07   -0.16767E-06 15936   0.581E-03
  12 F= -.14227605E+03 E0= -.14227480E+03  d E =-.105501E-04  mag=     0.0000
 curvature:  -0.81 expect dE=-0.190E-04 dE for cont linesearch -0.120E-07
 trial: gam= 0.86924 g(F)=  0.236E-04 g(S)=  0.000E+00 ort = 0.910E-06 (trialstep = 0.513E+00)
 search vector abs. value=  0.672E-04
 bond charge predicted
       N       E                     dE             d eps       ncg     rms          rms(c)
DAV:   1    -0.140380872431E+03   -0.32546E-04   -0.19547E-03 14208   0.197E-01    0.917E-03
DAV:   2    -0.140380872514E+03   -0.83203E-07   -0.18125E-05 14400   0.194E-02    0.594E-03
DAV:   3    -0.140380872651E+03   -0.13698E-06   -0.18688E-06 14208   0.568E-03
  13 F= -.14227606E+03 E0= -.14227481E+03  d E =-.752140E-05  mag=     0.0000
 trial-energy change:   -0.000008  1 .order   -0.000007   -0.000013   -0.000002
 step:   0.5925(harm=  0.5925)  dis= 0.00026  next Energy=  -142.276062 (dE=-0.722E-05)
 bond charge predicted
       N       E                     dE             d eps       ncg     rms          rms(c)
DAV:   1    -0.140380876808E+03   -0.42941E-05   -0.47278E-05 21408   0.307E-02    0.178E-03
DAV:   2    -0.140380876787E+03    0.21172E-07   -0.31454E-07 18912   0.256E-03
  14 F= -.14227606E+03 E0= -.14227481E+03  d E =-.777176E-05  mag=     0.0000
 curvature:  -0.82 expect dE=-0.180E-04 dE for cont linesearch -0.196E-07
 trial: gam= 0.96792 g(F)=  0.220E-04 g(S)=  0.000E+00 ort = 0.127E-05 (trialstep = 0.407E+00)
 search vector abs. value=  0.875E-04
 bond charge predicted
       N       E                     dE             d eps       ncg     rms          rms(c)
DAV:   1    -0.140380911193E+03   -0.34385E-04   -0.14353E-03 14208   0.171E-01    0.755E-03
DAV:   2    -0.140380911325E+03   -0.13237E-06   -0.11932E-05 14208   0.152E-02    0.508E-03
DAV:   3    -0.140380911536E+03   -0.21100E-06   -0.10082E-06 15744   0.396E-03
  15 F= -.14227607E+03 E0= -.14227482E+03  d E =-.881404E-05  mag=    -0.0000
 ZBRENT: can't locate minimum, use default step
 trial-energy change:   -0.000009  1 .order   -0.000009   -0.000009   -0.000008
 step:   1.6268(harm=  2.3005)  dis= 0.00080  next Energy=  -142.276089 (dE=-0.268E-04)
 bond charge predicted
       N       E                     dE             d eps       ncg     rms          rms(c)
DAV:   1    -0.140381004401E+03   -0.93076E-04   -0.12969E-02 14208   0.513E-01    0.228E-02
DAV:   2    -0.140381007002E+03   -0.26011E-05   -0.10524E-04 14208   0.451E-02    0.152E-02
DAV:   3    -0.140381007377E+03   -0.37457E-06   -0.88850E-06 14208   0.117E-02
  16 F= -.14227609E+03 E0= -.14227484E+03  d E =-.268516E-04  mag=     0.0000
 curvature:  -3.78 expect dE=-0.124E-03 dE for cont linesearch -0.246E-05
 ZBRENT: increasing intervall
 opt :   4.0671  next Energy=  -142.276079 (dE=-0.169E-04)
 bond charge predicted
       N       E                     dE             d eps       ncg     rms          rms(c)
DAV:   1    -0.140381149789E+03   -0.14279E-03   -0.51895E-02 14208   0.103E+00    0.457E-02
DAV:   2    -0.140381163563E+03   -0.13774E-04   -0.41989E-04 15168   0.901E-02    0.306E-02
DAV:   3    -0.140381162238E+03    0.13247E-05   -0.35297E-05 14448   0.233E-02    0.604E-03
DAV:   4    -0.140381162754E+03   -0.51587E-06   -0.37308E-06 25344   0.714E-03
  17 F= -.14227609E+03 E0= -.14227484E+03  d E =-.268443E-04  mag=     0.0000
 curvature:  15.23 expect dE= 0.285E-02 dE for cont linesearch  0.211E-04
 ZBRENT: bracketing found
 ZBRENT: interpolating
 opt :   2.6192  next Energy=  -142.276093 (dE=-0.306E-04)
 bond charge predicted
       N       E                     dE             d eps       ncg     rms          rms(c)
DAV:   1    -0.140381072673E+03    0.89565E-04   -0.18201E-02 14208   0.607E-01    0.266E-02
DAV:   2    -0.140381076312E+03   -0.36388E-05   -0.14862E-04 16464   0.535E-02    0.178E-02
DAV:   3    -0.140381076353E+03   -0.41518E-07   -0.12403E-05 14208   0.136E-02    0.358E-03
DAV:   4    -0.140381076576E+03   -0.22299E-06   -0.13059E-06 16320   0.425E-03
  18 F= -.14227610E+03 E0= -.14227484E+03  d E =-.328375E-04  mag=     0.0000
 curvature:  -2.70 expect dE=-0.204E-03 dE for cont linesearch -0.183E-06
 trial: gam= 3.37332 g(F)=  0.755E-04 g(S)=  0.000E+00 ort = 0.243E-05 (trialstep = 0.683E-01)
 search vector abs. value=  0.109E-02
 bond charge predicted
       N       E                     dE             d eps       ncg     rms          rms(c)
DAV:   1    -0.140381097479E+03   -0.21126E-04   -0.49190E-04 16608   0.992E-02    0.438E-03
DAV:   2    -0.140381097448E+03    0.31558E-07   -0.35957E-06 14208   0.812E-03
  19 F= -.14227610E+03 E0= -.14227485E+03  d E =-.551565E-05  mag=     0.0000
 ZBRENT: can't locate minimum, use default step
 trial-energy change:   -0.000006  1 .order   -0.000005   -0.000006   -0.000005
 step:   0.2733(harm=  0.8766)  dis= 0.00047  next Energy=  -142.276132 (dE=-0.367E-04)
 bond charge predicted
       N       E                     dE             d eps       ncg     rms          rms(c)
DAV:   1    -0.140381158414E+03   -0.60935E-04   -0.44389E-03 14208   0.298E-01    0.138E-02
DAV:   2    -0.140381159089E+03   -0.67547E-06   -0.36477E-05 14208   0.264E-02    0.929E-03
DAV:   3    -0.140381159361E+03   -0.27116E-06   -0.30313E-06 14208   0.689E-03
  20 F= -.14227612E+03 E0= -.14227486E+03  d E =-.213668E-04  mag=    -0.0000
 curvature:  -2.52 expect dE=-0.165E-03 dE for cont linesearch -0.115E-04
 ZBRENT: increasing intervall
 opt :   0.6832  next Energy=  -142.276143 (dE=-0.475E-04)
 bond charge predicted
       N       E                     dE             d eps       ncg     rms          rms(c)
DAV:   1    -0.140381275854E+03   -0.11676E-03   -0.17854E-02 14208   0.598E-01    0.271E-02
DAV:   2    -0.140381280081E+03   -0.42276E-05   -0.14665E-04 14208   0.531E-02    0.182E-02
DAV:   3    -0.140381280056E+03    0.25117E-07   -0.11927E-05 14208   0.136E-02    0.379E-03
DAV:   4    -0.140381280302E+03   -0.24627E-06   -0.11647E-06 15648   0.414E-03
  21 F= -.14227615E+03 E0= -.14227489E+03  d E =-.502443E-04  mag=    -0.0000
 curvature:  -5.72 expect dE=-0.397E-03 dE for cont linesearch -0.207E-04
 ZBRENT: increasing intervall
 opt :   1.5030  next Energy=  -142.276191 (dE=-0.953E-04)
 bond charge predicted
       N       E                     dE             d eps       ncg     rms          rms(c)
DAV:   1    -0.140381493822E+03   -0.21377E-03   -0.71422E-02 14208   0.120E+00    0.541E-02
DAV:   2    -0.140381511633E+03   -0.17811E-04   -0.58323E-04 14208   0.106E-01    0.362E-02
DAV:   3    -0.140381508704E+03    0.29289E-05   -0.48584E-05 14304   0.273E-02    0.749E-03
DAV:   4    -0.140381509491E+03   -0.78684E-06   -0.46826E-06 17664   0.804E-03
  22 F= -.14227619E+03 E0= -.14227493E+03  d E =-.955163E-04  mag=    -0.0000
 curvature: -12.45 expect dE=-0.177E-02 dE for cont linesearch -0.192E-04
 ZBRENT: increasing intervall
 opt :   3.1426  next Energy=  -142.276222 (dE=-0.127E-03)
 bond charge predicted
       N       E                     dE             d eps       ncg     rms          rms(c)
DAV:   1    -0.140381860059E+03   -0.35135E-03   -0.28573E-01 14208   0.239E+00    0.108E-01
DAV:   2    -0.140381937117E+03   -0.77059E-04   -0.23251E-03 15264   0.211E-01    0.723E-02
DAV:   3    -0.140381917709E+03    0.19408E-04   -0.19344E-04 15408   0.537E-02    0.146E-02
DAV:   4    -0.140381919994E+03   -0.22847E-05   -0.18376E-05 17520   0.159E-02    0.617E-03
DAV:   5    -0.140381920073E+03   -0.79348E-07   -0.17859E-06 15264   0.503E-03
  23 F= -.14227623E+03 E0= -.14227497E+03  d E =-.138961E-03  mag=    -0.0000
 curvature: -20.42 expect dE=-0.111E-01 dE for cont linesearch -0.106E-05
 trial: gam= 7.30777 g(F)=  0.545E-03 g(S)=  0.000E+00 ort = 0.751E-05 (trialstep = 0.127E-01)
 search vector abs. value=  0.587E-01
 bond charge predicted
       N       E                     dE             d eps       ncg     rms          rms(c)
DAV:   1    -0.140381948884E+03   -0.28890E-04   -0.93922E-04 15936   0.137E-01    0.617E-03
DAV:   2    -0.140381948989E+03   -0.10481E-06   -0.75983E-06 16608   0.119E-02
  24 F= -.14227624E+03 E0= -.14227498E+03  d E =-.766648E-05  mag=     0.0000
 ZBRENT: can't locate minimum, use default step
 trial-energy change:   -0.000008  1 .order   -0.000007   -0.000008   -0.000007
 step:   0.0506(harm=  0.2191)  dis= 0.00062  next Energy=  -142.276300 (dE=-0.657E-04)
 bond charge predicted
       N       E                     dE             d eps       ncg     rms          rms(c)
DAV:   1    -0.140382032625E+03   -0.83741E-04   -0.83867E-03 14208   0.411E-01    0.189E-02
DAV:   2    -0.140382034364E+03   -0.17390E-05   -0.68665E-05 15552   0.362E-02    0.127E-02
DAV:   3    -0.140382034595E+03   -0.23173E-06   -0.55869E-06 14496   0.932E-03
  25 F= -.14227626E+03 E0= -.14227500E+03  d E =-.295504E-04  mag=    -0.0000
 curvature:  -3.58 expect dE=-0.172E-02 dE for cont linesearch -0.166E-04
 ZBRENT: increasing intervall
 opt :   0.1265  next Energy=  -142.276300 (dE=-0.658E-04)
 bond charge predicted
       N       E                     dE             d eps       ncg     rms          rms(c)
DAV:   1    -0.140382194344E+03   -0.15998E-03   -0.33738E-02 14208   0.823E-01    0.369E-02
DAV:   2    -0.140382203584E+03   -0.92406E-05   -0.27463E-04 14688   0.727E-02    0.249E-02
DAV:   3    -0.140382202674E+03    0.91038E-06   -0.21802E-05 14208   0.184E-02    0.515E-03
DAV:   4    -0.140382203096E+03   -0.42228E-06   -0.21521E-06 15456   0.572E-03
  26 F= -.14227630E+03 E0= -.14227504E+03  d E =-.707216E-04  mag=    -0.0000
 curvature:  -7.83 expect dE=-0.317E-02 dE for cont linesearch -0.319E-04
 ZBRENT: increasing intervall
 opt :   0.2783  next Energy=  -142.276374 (dE=-0.140E-03)
 bond charge predicted
       N       E                     dE             d eps       ncg     rms          rms(c)
DAV:   1    -0.140382497117E+03   -0.29444E-03   -0.13496E-01 14208   0.165E+00    0.737E-02
DAV:   2    -0.140382534770E+03   -0.37653E-04   -0.10912E-03 14688   0.145E-01    0.494E-02
DAV:   3    -0.140382526798E+03    0.79727E-05   -0.88808E-05 14304   0.369E-02    0.101E-02
DAV:   4    -0.140382528045E+03   -0.12473E-05   -0.86332E-06 16608   0.110E-02    0.424E-03
DAV:   5    -0.140382528052E+03   -0.72205E-08   -0.94015E-07 15024   0.375E-03
  27 F= -.14227638E+03 E0= -.14227510E+03  d E =-.141461E-03  mag=    -0.0000
 curvature: -17.03 expect dE=-0.532E-02 dE for cont linesearch -0.510E-04
 ZBRENT: increasing intervall
 opt :   0.5819  next Energy=  -142.276482 (dE=-0.248E-03)
 bond charge predicted
       N       E                     dE             d eps       ncg     rms          rms(c)
DAV:   1    -0.140383014764E+03   -0.48672E-03   -0.53945E-01 14208   0.329E+00    0.147E-01
DAV:   2    -0.140383171139E+03   -0.15637E-03   -0.43484E-03 16560   0.289E-01    0.985E-02
DAV:   3    -0.140383126772E+03    0.44367E-04   -0.35679E-04 14880   0.726E-02    0.194E-02
DAV:   4    -0.140383130391E+03   -0.36184E-05   -0.34540E-05 23424   0.216E-02    0.813E-03
DAV:   5    -0.140383130501E+03   -0.11012E-06   -0.37533E-06 15072   0.651E-03
  28 F= -.14227647E+03 E0= -.14227519E+03  d E =-.237327E-03  mag=     0.0000
 curvature: -35.45 expect dE=-0.130E-01 dE for cont linesearch -0.309E-04
 ZBRENT: increasing intervall
 opt :   1.1891  next Energy=  -142.276492 (dE=-0.257E-03)
 bond charge predicted
       N       E                     dE             d eps       ncg     rms          rms(c)
DAV:   1    -0.140383695192E+03   -0.56480E-03   -0.21570E+00 14208   0.658E+00    0.294E-01
DAV:   2    -0.140384338266E+03   -0.64307E-03   -0.17225E-02 17136   0.575E-01    0.197E-01
DAV:   3    -0.140384130010E+03    0.20826E-03   -0.14104E-03 15936   0.143E-01    0.383E-02
DAV:   4    -0.140384141734E+03   -0.11724E-04   -0.13396E-04 22848   0.428E-02    0.160E-02
DAV:   5    -0.140384141491E+03    0.24363E-06   -0.14386E-05 15456   0.128E-02    0.377E-03
DAV:   6    -0.140384141769E+03   -0.27817E-06   -0.12949E-06 17376   0.507E-03
  29 F= -.14227648E+03 E0= -.14227519E+03  d E =-.242338E-03  mag=    -0.0000
 curvature: -23.06 expect dE=-0.335E-01 dE for cont linesearch -0.160E-04
 ZBRENT: bracketing found
 ZBRENT: interpolating
 opt :   0.9027  next Energy=  -142.276506 (dE=-0.271E-03)
 bond charge predicted
       N       E                     dE             d eps       ncg     rms          rms(c)
DAV:   1    -0.140383597012E+03    0.54448E-03   -0.47994E-01 14208   0.310E+00    0.139E-01
DAV:   2    -0.140383735161E+03   -0.13815E-03   -0.38606E-03 18240   0.271E-01    0.933E-02
DAV:   3    -0.140383694293E+03    0.40868E-04   -0.31320E-04 15408   0.668E-02    0.175E-02
DAV:   4    -0.140383697061E+03   -0.27677E-05   -0.30144E-05 15168   0.203E-02    0.748E-03
DAV:   5    -0.140383697338E+03   -0.27699E-06   -0.34014E-06 16512   0.643E-03
  30 F= -.14227651E+03 E0= -.14227522E+03  d E =-.271307E-03  mag=     0.0000
 curvature: -41.64 expect dE=-0.322E-01 dE for cont linesearch -0.163E-06
 trial: gam= 1.52001 g(F)=  0.774E-03 g(S)=  0.000E+00 ort =-0.152E-04 (trialstep = 0.821E-01)
 search vector abs. value=  0.136E+00
 bond charge predicted
       N       E                     dE             d eps       ncg     rms          rms(c)
DAV:   1    -0.140383937461E+03   -0.24040E-03   -0.92569E-02 14208   0.136E+00    0.606E-02
DAV:   2    -0.140383960690E+03   -0.23229E-04   -0.73760E-04 14784   0.119E-01    0.406E-02
DAV:   3    -0.140383955514E+03    0.51755E-05   -0.61004E-05 15264   0.305E-02    0.848E-03
DAV:   4    -0.140383956451E+03   -0.93708E-06   -0.58760E-06 19632   0.907E-03
  31 F= -.14227656E+03 E0= -.14227527E+03  d E =-.556105E-04  mag=     0.0000
 trial-energy change:   -0.000056  1 .order   -0.000052   -0.000062   -0.000043
 step:   0.2678(harm=  0.2678)  dis= 0.00506  next Energy=  -142.276606 (dE=-0.100E-03)
 bond charge predicted
       N       E                     dE             d eps       ncg     rms          rms(c)
DAV:   1    -0.140384381475E+03   -0.42596E-03   -0.47408E-01 14208   0.309E+00    0.137E-01
DAV:   2    -0.140384517590E+03   -0.13611E-03   -0.37800E-03 14736   0.270E-01    0.920E-02
DAV:   3    -0.140384479761E+03    0.37828E-04   -0.31038E-04 14736   0.687E-02    0.190E-02
DAV:   4    -0.140384483197E+03   -0.34353E-05   -0.30729E-05 18144   0.206E-02    0.798E-03
DAV:   5    -0.140384483076E+03    0.12082E-06   -0.34797E-06 15936   0.671E-03
  32 F= -.14227663E+03 E0= -.14227534E+03  d E =-.122930E-03  mag=    -0.0000
 curvature: -24.34 expect dE=-0.358E-02 dE for cont linesearch -0.472E-05
 ZBRENT: extrapolating
 opt :   0.3522  next Energy=  -142.276635 (dE=-0.130E-03)
 bond charge predicted
       N       E                     dE             d eps       ncg     rms          rms(c)
DAV:   1    -0.140384673247E+03   -0.19005E-03   -0.97865E-02 14208   0.140E+00    0.621E-02
DAV:   2    -0.140384700073E+03   -0.26825E-04   -0.79204E-04 14688   0.124E-01    0.417E-02
DAV:   3    -0.140384694491E+03    0.55816E-05   -0.64923E-05 14400   0.316E-02    0.881E-03
DAV:   4    -0.140384695488E+03   -0.99704E-06   -0.65096E-06 15840   0.977E-03
  33 F= -.14227663E+03 E0= -.14227534E+03  d E =-.127113E-03  mag=    -0.0000
 curvature: -35.41 expect dE=-0.620E-02 dE for cont linesearch -0.352E-05
 ZBRENT: bracketing found
 ZBRENT: interpolating
 opt :   0.3170  next Energy=  -142.276635 (dE=-0.129E-03)
 bond charge predicted
       N       E                     dE             d eps       ncg     rms          rms(c)
DAV:   1    -0.140384605642E+03    0.88849E-04   -0.16973E-02 14208   0.584E-01    0.254E-02
DAV:   2    -0.140384609401E+03   -0.37590E-05   -0.13835E-04 15840   0.518E-02    0.171E-02
DAV:   3    -0.140384608595E+03    0.80655E-06   -0.11230E-05 16704   0.131E-02    0.406E-03
DAV:   4    -0.140384608983E+03   -0.38857E-06   -0.11719E-06 14832   0.497E-03
  34 F= -.14227663E+03 E0= -.14227534E+03  d E =-.127439E-03  mag=    -0.0000
 curvature: -20.63 expect dE=-0.307E-02 dE for cont linesearch -0.620E-06
 ZBRENT: interpolating
 opt :   0.3295  next Energy=  -142.276633 (dE=-0.128E-03)
 bond charge predicted
       N       E                     dE             d eps       ncg     rms          rms(c)
DAV:   1    -0.140384640122E+03   -0.31528E-04   -0.21388E-03 16560   0.207E-01    0.895E-03
DAV:   2    -0.140384640197E+03   -0.74433E-07   -0.15473E-05 14592   0.169E-02    0.584E-03
DAV:   3    -0.140384640214E+03   -0.17380E-07   -0.15908E-06 15360   0.491E-03
  35 F= -.14227663E+03 E0= -.14227534E+03  d E =-.127866E-03  mag=     0.0000
 curvature: -13.31 expect dE=-0.209E-02 dE for cont linesearch -0.103E-06
 ZBRENT: interpolating
 opt :   0.3253  next Energy=  -142.276634 (dE=-0.128E-03)
 bond charge predicted
       N       E                     dE             d eps       ncg     rms          rms(c)
DAV:   1    -0.140384629853E+03    0.10344E-04   -0.24116E-04 14208   0.697E-02    0.294E-03
DAV:   2    -0.140384629902E+03   -0.49394E-07   -0.21599E-06 14784   0.651E-03
  36 F= -.14227663E+03 E0= -.14227534E+03  d E =-.127914E-03  mag=     0.0000
 curvature:  -8.84 expect dE=-0.136E-02 dE for cont linesearch -0.145E-06
 ZBRENT: interpolating
 opt :   0.3278  next Energy=  -142.276633 (dE=-0.128E-03)
 bond charge predicted
       N       E                     dE             d eps       ncg     rms          rms(c)
DAV:   1    -0.140384636018E+03   -0.61648E-05   -0.86953E-05 16080   0.416E-02    0.141E-03
DAV:   2    -0.140384636102E+03   -0.84242E-07   -0.75222E-07 14688   0.395E-03
  37 F= -.14227663E+03 E0= -.14227534E+03  d E =-.127970E-03  mag=     0.0000
 curvature:  -1.69 expect dE=-0.261E-03 dE for cont linesearch -0.150E-08
 trial: gam= 0.11691 g(F)=  0.154E-03 g(S)=  0.000E+00 ort =-0.110E-04 (trialstep = 0.131E+00)
 search vector abs. value=  0.202E-02
 bond charge predicted
       N       E                     dE             d eps       ncg     rms          rms(c)
DAV:   1    -0.140384682876E+03   -0.46858E-04   -0.34325E-03 14208   0.264E-01    0.117E-02
DAV:   2    -0.140384683523E+03   -0.64729E-06   -0.27214E-05 16032   0.233E-02    0.797E-03
DAV:   3    -0.140384683639E+03   -0.11578E-06   -0.20203E-06 14208   0.586E-03
  38 F= -.14227665E+03 E0= -.14227536E+03  d E =-.188269E-04  mag=    -0.0000
 ZBRENT: can't locate minimum, use default step
 trial-energy change:   -0.000019  1 .order   -0.000018   -0.000020   -0.000017
 step:   0.5249(harm=  0.8322)  dis= 0.00139  next Energy=  -142.276697 (dE=-0.636E-04)
 bond charge predicted
       N       E                     dE             d eps       ncg     rms          rms(c)
DAV:   1    -0.140384800231E+03   -0.11671E-03   -0.30907E-02 14208   0.792E-01    0.342E-02
DAV:   2    -0.140384809578E+03   -0.93470E-05   -0.24015E-04 14208   0.693E-02    0.232E-02
DAV:   3    -0.140384808582E+03    0.99641E-06   -0.16841E-05 14208   0.170E-02    0.498E-03
DAV:   4    -0.140384808972E+03   -0.39042E-06   -0.16671E-06 16800   0.522E-03
  39 F= -.14227669E+03 E0= -.14227539E+03  d E =-.580479E-04  mag=    -0.0000
 curvature:  -4.43 expect dE=-0.495E-03 dE for cont linesearch -0.836E-05
 ZBRENT: increasing intervall
 opt :   1.3122  next Energy=  -142.276687 (dE=-0.538E-04)
 bond charge predicted
       N       E                     dE             d eps       ncg     rms          rms(c)
DAV:   1    -0.140384946503E+03   -0.13792E-03   -0.12371E-01 14208   0.158E+00    0.683E-02
DAV:   2    -0.140384986538E+03   -0.40035E-04   -0.96260E-04 14208   0.139E-01    0.463E-02
DAV:   3    -0.140384978765E+03    0.77733E-05   -0.67962E-05 14208   0.340E-02    0.993E-03
DAV:   4    -0.140384980059E+03   -0.12944E-05   -0.67232E-06 18624   0.103E-02    0.366E-03
DAV:   5    -0.140384979730E+03    0.32950E-06   -0.82274E-07 17424   0.414E-03
  40 F= -.14227669E+03 E0= -.14227538E+03  d E =-.569108E-04  mag=     0.0000
 curvature:   2.27 expect dE= 0.124E-02 dE for cont linesearch  0.510E-05
 ZBRENT: bracketing found
 ZBRENT: interpolating
 opt :   0.9011  next Energy=  -142.276703 (dE=-0.696E-04)
 bond charge predicted
       N       E                     dE             d eps       ncg     rms          rms(c)
DAV:   1    -0.140384894722E+03    0.85338E-04   -0.33693E-02 14208   0.827E-01    0.354E-02
DAV:   2    -0.140384904898E+03   -0.10177E-04   -0.26470E-04 14208   0.727E-02    0.241E-02
DAV:   3    -0.140384903480E+03    0.14188E-05   -0.18624E-05 14400   0.179E-02    0.529E-03
DAV:   4    -0.140384903922E+03   -0.44264E-06   -0.18706E-06 14400   0.577E-03
  41 F= -.14227670E+03 E0= -.14227540E+03  d E =-.708185E-04  mag=     0.0000
 curvature:  -5.15 expect dE=-0.125E-02 dE for cont linesearch -0.141E-06
 trial: gam= 1.56916 g(F)=  0.243E-03 g(S)=  0.000E+00 ort = 0.743E-05 (trialstep = 0.110E+00)
 search vector abs. value=  0.523E-02
 bond charge predicted
       N       E                     dE             d eps       ncg     rms          rms(c)
DAV:   1    -0.140384965312E+03   -0.61832E-04   -0.60116E-03 14208   0.350E-01    0.146E-02
DAV:   2    -0.140384967388E+03   -0.20765E-05   -0.47636E-05 14784   0.308E-02    0.101E-02
DAV:   3    -0.140384966994E+03    0.39393E-06   -0.31119E-06 14784   0.790E-03
  42 F= -.14227673E+03 E0= -.14227543E+03  d E =-.242911E-04  mag=    -0.0000
 ZBRENT: can't locate minimum, use default step
 trial-energy change:   -0.000024  1 .order   -0.000025   -0.000028   -0.000021
 step:   0.4397(harm=  0.4681)  dis= 0.00182  next Energy=  -142.276764 (dE=-0.596E-04)
 bond charge predicted
       N       E                     dE             d eps       ncg     rms          rms(c)
DAV:   1    -0.140385107642E+03   -0.14025E-03   -0.54274E-02 14208   0.105E+00    0.447E-02
DAV:   2    -0.140385128888E+03   -0.21246E-04   -0.42114E-04 14880   0.914E-02    0.310E-02
DAV:   3    -0.140385125998E+03    0.28900E-05   -0.26784E-05 14976   0.219E-02    0.636E-03
DAV:   4    -0.140385126641E+03   -0.64272E-06   -0.27278E-06 14208   0.783E-03
  43 F= -.14227677E+03 E0= -.14227547E+03  d E =-.677112E-04  mag=    -0.0000
 curvature:  -4.78 expect dE=-0.340E-03 dE for cont linesearch -0.264E-05
 ZBRENT: extrapolating
 opt :   0.5655  next Energy=  -142.276775 (dE=-0.711E-04)
 bond charge predicted
       N       E                     dE             d eps       ncg     rms          rms(c)
DAV:   1    -0.140385172348E+03   -0.46350E-04   -0.79280E-03 15168   0.402E-01    0.173E-02
DAV:   2    -0.140385175339E+03   -0.29907E-05   -0.60633E-05 14640   0.347E-02    0.119E-02
DAV:   3    -0.140385174678E+03    0.66093E-06   -0.44044E-06 16032   0.997E-03
  44 F= -.14227678E+03 E0= -.14227548E+03  d E =-.714630E-04  mag=     0.0000
 curvature:  -6.12 expect dE=-0.578E-03 dE for cont linesearch -0.285E-08
 trial: gam= 0.37118 g(F)=  0.944E-04 g(S)=  0.000E+00 ort = 0.156E-05 (trialstep = 0.201E+00)
 search vector abs. value=  0.816E-03
 bond charge predicted
       N       E                     dE             d eps       ncg     rms          rms(c)
DAV:   1    -0.140385209436E+03   -0.34097E-04   -0.31962E-03 14208   0.256E-01    0.111E-02
DAV:   2    -0.140385211129E+03   -0.16928E-05   -0.27332E-05 15552   0.239E-02    0.761E-03
DAV:   3    -0.140385210623E+03    0.50555E-06   -0.17108E-06 15360   0.681E-03
  45 F= -.14227679E+03 E0= -.14227549E+03  d E =-.162349E-04  mag=    -0.0000
 trial-energy change:   -0.000016  1 .order   -0.000016   -0.000019   -0.000012
 step:   0.5374(harm=  0.5374)  dis= 0.00088  next Energy=  -142.276801 (dE=-0.255E-04)
 bond charge predicted
       N       E                     dE             d eps       ncg     rms          rms(c)
DAV:   1    -0.140385249988E+03   -0.38859E-04   -0.89294E-03 14208   0.428E-01    0.185E-02
DAV:   2    -0.140385254046E+03   -0.40585E-05   -0.75441E-05 14784   0.391E-02    0.126E-02
DAV:   3    -0.140385253215E+03    0.83156E-06   -0.44553E-06 14784   0.101E-02
  46 F= -.14227680E+03 E0= -.14227550E+03  d E =-.258411E-04  mag=     0.0000
 curvature:  -2.31 expect dE=-0.274E-03 dE for cont linesearch -0.528E-07
 trial: gam= 1.33719 g(F)=  0.119E-03 g(S)=  0.000E+00 ort =-0.432E-05 (trialstep = 0.140E+00)
 search vector abs. value=  0.157E-02
 bond charge predicted
       N       E                     dE             d eps       ncg     rms          rms(c)
DAV:   1    -0.140385273384E+03   -0.19338E-04   -0.29159E-03 14208   0.245E-01    0.104E-02
DAV:   2    -0.140385275051E+03   -0.16672E-05   -0.21832E-05 14208   0.214E-02    0.735E-03
DAV:   3    -0.140385274279E+03    0.77201E-06   -0.15467E-06 15600   0.725E-03
  47 F= -.14227682E+03 E0= -.14227552E+03  d E =-.139889E-04  mag=    -0.0000
 ZBRENT: can't locate minimum, use default step
 trial-energy change:   -0.000014  1 .order   -0.000014   -0.000016   -0.000012
 step:   0.5592(harm=  0.6695)  dis= 0.00128  next Energy=  -142.276839 (dE=-0.378E-04)
 bond charge predicted
       N       E                     dE             d eps       ncg     rms          rms(c)
DAV:   1    -0.140385307738E+03   -0.32687E-04   -0.26337E-02 14208   0.736E-01    0.298E-02
DAV:   2    -0.140385320030E+03   -0.12292E-04   -0.19267E-04 15936   0.616E-02    0.211E-02
DAV:   3    -0.140385318210E+03    0.18197E-05   -0.90339E-06 16032   0.142E-02    0.553E-03
DAV:   4    -0.140385318635E+03   -0.42467E-06   -0.17169E-06 14208   0.761E-03
  48 F= -.14227684E+03 E0= -.14227554E+03  d E =-.370601E-04  mag=    -0.0000
 curvature:  -4.44 expect dE=-0.366E-03 dE for cont linesearch -0.504E-06
 trial: gam= 0.42010 g(F)=  0.824E-04 g(S)=  0.000E+00 ort = 0.133E-04 (trialstep = 0.224E+00)
 search vector abs. value=  0.370E-03
 bond charge predicted
       N       E                     dE             d eps       ncg     rms          rms(c)
DAV:   1    -0.140385323780E+03   -0.55701E-05   -0.17839E-03 15888   0.190E-01    0.873E-03
DAV:   2    -0.140385324283E+03   -0.50307E-06   -0.16062E-05 14208   0.179E-02    0.577E-03
DAV:   3    -0.140385323993E+03    0.29022E-06   -0.14246E-06 14208   0.585E-03
  49 F= -.14227686E+03 E0= -.14227556E+03  d E =-.182014E-04  mag=     0.0000
 ZBRENT: can't locate minimum, use default step
 trial-energy change:   -0.000018  1 .order   -0.000018   -0.000020   -0.000016
 step:   0.8947(harm=  1.0913)  dis= 0.00107  next Energy=  -142.276887 (dE=-0.480E-04)
 bond charge predicted
       N       E                     dE             d eps       ncg     rms          rms(c)
DAV:   1    -0.140385310662E+03    0.13621E-04   -0.15971E-02 14208   0.568E-01    0.258E-02
DAV:   2    -0.140385315082E+03   -0.44203E-05   -0.15096E-04 14208   0.545E-02    0.173E-02
DAV:   3    -0.140385314241E+03    0.84147E-06   -0.11143E-05 14208   0.145E-02    0.583E-03
DAV:   4    -0.140385314326E+03   -0.85619E-07   -0.19842E-06 14208   0.721E-03
  50 F= -.14227689E+03 E0= -.14227558E+03  d E =-.469808E-04  mag=     0.0000
 curvature:  -2.18 expect dE=-0.368E-03 dE for cont linesearch -0.114E-05
 trial: gam= 2.05530 g(F)=  0.169E-03 g(S)=  0.000E+00 ort = 0.139E-04 (trialstep = 0.740E-01)
 search vector abs. value=  0.179E-02
 bond charge predicted
       N       E                     dE             d eps       ncg     rms          rms(c)
DAV:   1    -0.140385321690E+03   -0.74489E-05   -0.95822E-04 14208   0.140E-01    0.609E-03
DAV:   2    -0.140385322276E+03   -0.58659E-06   -0.80413E-06 14304   0.135E-02
  51 F= -.14227690E+03 E0= -.14227560E+03  d E =-.146290E-04  mag=     0.0000
 ZBRENT: can't locate minimum, use default step
 trial-energy change:   -0.000015  1 .order   -0.000014   -0.000015   -0.000013
 step:   0.2961(harm=  0.7627)  dis= 0.00065  next Energy=  -142.276961 (dE=-0.753E-04)
 bond charge predicted
       N       E                     dE             d eps       ncg     rms          rms(c)
DAV:   1    -0.140385336502E+03   -0.14812E-04   -0.85933E-03 14208   0.418E-01    0.190E-02
DAV:   2    -0.140385339252E+03   -0.27503E-05   -0.68498E-05 14208   0.373E-02    0.129E-02
DAV:   3    -0.140385338316E+03    0.93617E-06   -0.65220E-06 15216   0.125E-02
  52 F= -.14227694E+03 E0= -.14227563E+03  d E =-.507253E-04  mag=    -0.0000
 curvature:  -1.87 expect dE=-0.192E-03 dE for cont linesearch -0.210E-04
 ZBRENT: increasing intervall
 opt :   0.7402  next Energy=  -142.276983 (dE=-0.974E-04)
 bond charge predicted
       N       E                     dE             d eps       ncg     rms          rms(c)
DAV:   1    -0.140385337693E+03    0.15586E-05   -0.34477E-02 14208   0.836E-01    0.365E-02
DAV:   2    -0.140385349229E+03   -0.11535E-04   -0.27145E-04 16128   0.734E-02    0.250E-02
DAV:   3    -0.140385347294E+03    0.19346E-05   -0.21524E-05 16032   0.205E-02    0.508E-03
DAV:   4    -0.140385347944E+03   -0.64961E-06   -0.44652E-06 14400   0.123E-02
  53 F= -.14227699E+03 E0= -.14227568E+03  d E =-.100562E-03  mag=    -0.0000
 curvature:  -4.16 expect dE=-0.956E-03 dE for cont linesearch -0.108E-04
 ZBRENT: increasing intervall
 opt :   1.6284  next Energy=  -142.276981 (dE=-0.957E-04)
 bond charge predicted
       N       E                     dE             d eps       ncg     rms          rms(c)
DAV:   1    -0.140385226823E+03    0.12047E-03   -0.13797E-01 14208   0.167E+00    0.732E-02
DAV:   2    -0.140385272769E+03   -0.45946E-04   -0.10791E-03 17568   0.145E-01    0.499E-02
DAV:   3    -0.140385263193E+03    0.95757E-05   -0.81215E-05 16272   0.359E-02    0.937E-03
DAV:   4    -0.140385264477E+03   -0.12843E-05   -0.90929E-06 14784   0.146E-02    0.394E-03
DAV:   5    -0.140385264091E+03    0.38642E-06   -0.27901E-06 14208   0.998E-03
  54 F= -.14227698E+03 E0= -.14227568E+03  d E =-.976004E-04  mag=     0.0000
 curvature:   1.88 expect dE= 0.239E-02 dE for cont linesearch  0.664E-05
 ZBRENT: bracketing found
 ZBRENT: interpolating
 opt :   1.1502  next Energy=  -142.277000 (dE=-0.115E-03)
 bond charge predicted
       N       E                     dE             d eps       ncg     rms          rms(c)
DAV:   1    -0.140385319145E+03   -0.54667E-04   -0.39982E-02 15408   0.900E-01    0.395E-02
DAV:   2    -0.140385328489E+03   -0.93444E-05   -0.28976E-04 14928   0.745E-02    0.265E-02
DAV:   3    -0.140385326731E+03    0.17581E-05   -0.25299E-05 14784   0.202E-02    0.470E-03
DAV:   4    -0.140385327086E+03   -0.35518E-06   -0.27670E-06 14208   0.784E-03
  55 F= -.14227700E+03 E0= -.14227570E+03  d E =-.116931E-03  mag=     0.0000
 curvature:  -3.96 expect dE=-0.229E-02 dE for cont linesearch -0.919E-07
 trial: gam= 3.82543 g(F)=  0.580E-03 g(S)=  0.000E+00 ort = 0.645E-05 (trialstep = 0.193E-01)
 search vector abs. value=  0.268E-01
 bond charge predicted
       N       E                     dE             d eps       ncg     rms          rms(c)
DAV:   1    -0.140385330746E+03   -0.40152E-05   -0.98148E-04 16080   0.141E-01    0.604E-03
DAV:   2    -0.140385331165E+03   -0.41847E-06   -0.76670E-06 14208   0.133E-02
  56 F= -.14227701E+03 E0= -.14227571E+03  d E =-.111716E-04  mag=     0.0000
 ZBRENT: can't locate minimum, use default step
 trial-energy change:   -0.000011  1 .order   -0.000011   -0.000012   -0.000010
 step:   0.0772(harm=  0.1930)  dis= 0.00068  next Energy=  -142.277061 (dE=-0.583E-04)
 bond charge predicted
       N       E                     dE             d eps       ncg     rms          rms(c)
DAV:   1    -0.140385338724E+03   -0.79775E-05   -0.88715E-03 15360   0.424E-01    0.194E-02
DAV:   2    -0.140385340836E+03   -0.21128E-05   -0.66571E-05 14448   0.366E-02    0.130E-02
DAV:   3    -0.140385339947E+03    0.88972E-06   -0.78849E-06 15696   0.140E-02
  57 F= -.14227704E+03 E0= -.14227574E+03  d E =-.413680E-04  mag=    -0.0000
 curvature:  -2.38 expect dE=-0.117E-02 dE for cont linesearch -0.206E-04
 ZBRENT: increasing intervall
 opt :   0.1930  next Energy=  -142.277093 (dE=-0.899E-04)
 bond charge predicted
       N       E                     dE             d eps       ncg     rms          rms(c)
DAV:   1    -0.140385340212E+03    0.62418E-06   -0.35623E-02 14208   0.848E-01    0.372E-02
DAV:   2    -0.140385351794E+03   -0.11582E-04   -0.28208E-04 16032   0.749E-02    0.254E-02
DAV:   3    -0.140385349963E+03    0.18312E-05   -0.23935E-05 16032   0.218E-02    0.503E-03
DAV:   4    -0.140385350560E+03   -0.59640E-06   -0.55581E-06 14448   0.139E-02
  58 F= -.14227710E+03 E0= -.14227579E+03  d E =-.946650E-04  mag=    -0.0000
 curvature:  -5.61 expect dE=-0.233E-02 dE for cont linesearch -0.303E-04
 ZBRENT: increasing intervall
 opt :   0.4246  next Energy=  -142.277162 (dE=-0.159E-03)
 bond charge predicted
       N       E                     dE             d eps       ncg     rms          rms(c)
DAV:   1    -0.140385293635E+03    0.56329E-04   -0.14248E-01 14208   0.170E+00    0.744E-02
DAV:   2    -0.140385339866E+03   -0.46231E-04   -0.11181E-03 17328   0.148E-01    0.508E-02
DAV:   3    -0.140385330125E+03    0.97405E-05   -0.89497E-05 16320   0.373E-02    0.922E-03
DAV:   4    -0.140385331256E+03   -0.11311E-05   -0.10032E-05 14784   0.153E-02    0.411E-03
DAV:   5    -0.140385330910E+03    0.34595E-06   -0.30146E-06 14208   0.102E-02
  59 F= -.14227716E+03 E0= -.14227586E+03  d E =-.160764E-03  mag=     0.0000
 curvature: -12.00 expect dE=-0.511E-02 dE for cont linesearch -0.133E-04
 ZBRENT: increasing intervall
 opt :   0.8879  next Energy=  -142.277147 (dE=-0.144E-03)
 bond charge predicted
       N       E                     dE             d eps       ncg     rms          rms(c)
DAV:   1    -0.140384992184E+03    0.33907E-03   -0.56959E-01 14208   0.339E+00    0.148E-01
DAV:   2    -0.140385178255E+03   -0.18607E-03   -0.44468E-03 18432   0.293E-01    0.101E-01
DAV:   3    -0.140385129796E+03    0.48459E-04   -0.35347E-04 15888   0.715E-02    0.180E-02
DAV:   4    -0.140385132512E+03   -0.27164E-05   -0.32810E-05 16704   0.222E-02    0.795E-03
DAV:   5    -0.140385132245E+03    0.26720E-06   -0.42912E-06 14832   0.920E-03
  60 F= -.14227714E+03 E0= -.14227583E+03  d E =-.134856E-03  mag=    -0.0000
 curvature:  14.84 expect dE= 0.166E-01 dE for cont linesearch  0.410E-04
 ZBRENT: bracketing found
 ZBRENT: interpolating
 opt :   0.6043  next Energy=  -142.277179 (dE=-0.176E-03)
 bond charge predicted
       N       E                     dE             d eps       ncg     rms          rms(c)
DAV:   1    -0.140385227799E+03   -0.95287E-04   -0.21349E-01 14208   0.208E+00    0.909E-02
DAV:   2    -0.140385292987E+03   -0.65188E-04   -0.16589E-03 15408   0.180E-01    0.617E-02
DAV:   3    -0.140385277845E+03    0.15142E-04   -0.13371E-04 15888   0.458E-02    0.119E-02
DAV:   4    -0.140385279397E+03   -0.15524E-05   -0.13950E-05 14208   0.172E-02    0.507E-03
DAV:   5    -0.140385278805E+03    0.59191E-06   -0.38207E-06 16608   0.111E-02
  61 F= -.14227718E+03 E0= -.14227587E+03  d E =-.175397E-03  mag=     0.0000
 curvature:  -5.60 expect dE=-0.330E-02 dE for cont linesearch -0.996E-08
 trial: gam= 0.66762 g(F)=  0.589E-03 g(S)=  0.000E+00 ort =-0.690E-05 (trialstep = 0.136E+00)
 search vector abs. value=  0.125E-01
 bond charge predicted
       N       E                     dE             d eps       ncg     rms          rms(c)
DAV:   1    -0.140385289310E+03   -0.99132E-05   -0.23242E-02 15264   0.685E-01    0.303E-02
DAV:   2    -0.140385293626E+03   -0.43159E-05   -0.17559E-04 14208   0.578E-02    0.203E-02
DAV:   3    -0.140385292719E+03    0.90724E-06   -0.16508E-05 15024   0.167E-02    0.386E-03
DAV:   4    -0.140385293075E+03   -0.35628E-06   -0.25234E-06 14208   0.838E-03
  62 F= -.14227725E+03 E0= -.14227594E+03  d E =-.731389E-04  mag=     0.0000
 ZBRENT: can't locate minimum, use default step
 trial-energy change:   -0.000073  1 .order   -0.000072   -0.000080   -0.000064
 step:   0.5452(harm=  0.6803)  dis= 0.00312  next Energy=  -142.277377 (dE=-0.199E-03)
 bond charge predicted
       N       E                     dE             d eps       ncg     rms          rms(c)
DAV:   1    -0.140385197438E+03    0.95281E-04   -0.20922E-01 14208   0.206E+00    0.911E-02
DAV:   2    -0.140385257831E+03   -0.60393E-04   -0.16590E-03 16128   0.179E-01    0.614E-02
DAV:   3    -0.140385242625E+03    0.15206E-04   -0.13601E-04 15936   0.455E-02    0.122E-02
DAV:   4    -0.140385243984E+03   -0.13594E-05   -0.14224E-05 14208   0.162E-02    0.521E-03
DAV:   5    -0.140385243586E+03    0.39817E-06   -0.29049E-06 14496   0.921E-03
  63 F= -.14227738E+03 E0= -.14227606E+03  d E =-.200479E-03  mag=    -0.0000
 curvature:  -6.85 expect dE=-0.446E-02 dE for cont linesearch -0.126E-04
 ZBRENT: extrapolating
 opt :   0.7426  next Energy=  -142.277394 (dE=-0.215E-03)
 bond charge predicted
       N       E                     dE             d eps       ncg     rms          rms(c)
DAV:   1    -0.140385160987E+03    0.82997E-04   -0.48743E-02 14208   0.993E-01    0.437E-02
DAV:   2    -0.140385174613E+03   -0.13625E-04   -0.39577E-04 16128   0.875E-02    0.296E-02
DAV:   3    -0.140385172110E+03    0.25028E-05   -0.32467E-05 16128   0.230E-02    0.605E-03
DAV:   4    -0.140385172638E+03   -0.52851E-06   -0.44738E-06 14400   0.108E-02
  64 F= -.14227739E+03 E0= -.14227608E+03  d E =-.215165E-03  mag=    -0.0000
 curvature:  -8.13 expect dE=-0.920E-02 dE for cont linesearch -0.268E-06
 trial: gam= 1.91704 g(F)=  0.113E-02 g(S)=  0.000E+00 ort =-0.203E-04 (trialstep = 0.685E-01)
 search vector abs. value=  0.471E-01
 bond charge predicted
       N       E                     dE             d eps       ncg     rms          rms(c)
DAV:   1    -0.140385182631E+03   -0.10521E-04   -0.21986E-02 14208   0.667E-01    0.295E-02
DAV:   2    -0.140385189138E+03   -0.65069E-05   -0.17552E-04 16032   0.589E-02    0.201E-02
DAV:   3    -0.140385188078E+03    0.10602E-05   -0.15391E-05 15984   0.172E-02    0.387E-03
DAV:   4    -0.140385188649E+03   -0.57090E-06   -0.35390E-06 14448   0.109E-02
  65 F= -.14227746E+03 E0= -.14227615E+03  d E =-.703688E-04  mag=    -0.0000
 ZBRENT: can't locate minimum, use default step
 trial-energy change:   -0.000070  1 .order   -0.000069   -0.000075   -0.000063
 step:   0.2741(harm=  0.4277)  dis= 0.00308  next Energy=  -142.277627 (dE=-0.234E-03)
 bond charge predicted
       N       E                     dE             d eps       ncg     rms          rms(c)
DAV:   1    -0.140385115627E+03    0.72451E-04   -0.19765E-01 14208   0.200E+00    0.882E-02
DAV:   2    -0.140385174803E+03   -0.59176E-04   -0.15387E-03 17760   0.173E-01    0.598E-02
DAV:   3    -0.140385160779E+03    0.14024E-04   -0.12485E-04 16560   0.427E-02    0.105E-02
DAV:   4    -0.140385162190E+03   -0.14114E-05   -0.12039E-05 14880   0.149E-02    0.473E-03
DAV:   5    -0.140385161715E+03    0.47580E-06   -0.26641E-06 14928   0.877E-03
  66 F= -.14227760E+03 E0= -.14227628E+03  d E =-.206742E-03  mag=     0.0000
 curvature:  -7.54 expect dE=-0.274E-02 dE for cont linesearch -0.256E-04
 ZBRENT: increasing intervall
 opt :   0.6852  next Energy=  -142.277552 (dE=-0.159E-03)
 bond charge predicted
       N       E                     dE             d eps       ncg     rms          rms(c)
DAV:   1    -0.140384599096E+03    0.56309E-03   -0.79038E-01 14208   0.400E+00    0.176E-01
DAV:   2    -0.140384836903E+03   -0.23781E-03   -0.61019E-03 18384   0.343E-01    0.119E-01
DAV:   3    -0.140384768223E+03    0.68680E-04   -0.49824E-04 17520   0.839E-02    0.207E-02
DAV:   4    -0.140384771608E+03   -0.33849E-05   -0.44020E-05 17856   0.257E-02    0.934E-03
DAV:   5    -0.140384770876E+03    0.73216E-06   -0.61702E-06 17568   0.110E-02
  67 F= -.14227754E+03 E0= -.14227622E+03  d E =-.144941E-03  mag=    -0.0000
 curvature:  14.20 expect dE= 0.248E-01 dE for cont linesearch  0.137E-03
 ZBRENT: bracketing found
 ZBRENT: interpolating
 opt :   0.4271  next Energy=  -142.277631 (dE=-0.237E-03)
 bond charge predicted
       N       E                     dE             d eps       ncg     rms          rms(c)
DAV:   1    -0.140384999298E+03   -0.22769E-03   -0.31162E-01 14208   0.251E+00    0.111E-01
DAV:   2    -0.140385091248E+03   -0.91950E-04   -0.24167E-03 16656   0.217E-01    0.746E-02
DAV:   3    -0.140385066725E+03    0.24523E-04   -0.19971E-04 16512   0.547E-02    0.136E-02
DAV:   4    -0.140385068554E+03   -0.18290E-05   -0.19514E-05 14208   0.196E-02    0.604E-03
DAV:   5    -0.140385068027E+03    0.52741E-06   -0.46632E-06 17136   0.119E-02
  68 F= -.14227763E+03 E0= -.14227631E+03  d E =-.235190E-03  mag=     0.0000
 curvature:  -3.17 expect dE=-0.167E-02 dE for cont linesearch -0.138E-07
 trial: gam= 0.45866 g(F)=  0.527E-03 g(S)=  0.000E+00 ort =-0.143E-04 (trialstep = 0.140E+00)
 search vector abs. value=  0.104E-01
 bond charge predicted
       N       E                     dE             d eps       ncg     rms          rms(c)
DAV:   1    -0.140385100100E+03   -0.31546E-04   -0.20113E-02 15792   0.634E-01    0.287E-02
DAV:   2    -0.140385103185E+03   -0.30853E-05   -0.15612E-04 16848   0.538E-02    0.190E-02
DAV:   3    -0.140385102230E+03    0.95502E-06   -0.14520E-05 16128   0.155E-02    0.407E-03
DAV:   4    -0.140385102493E+03   -0.26249E-06   -0.23836E-06 14208   0.820E-03
  69 F= -.14227770E+03 E0= -.14227638E+03  d E =-.672546E-04  mag=     0.0000
 ZBRENT: can't locate minimum, use default step
 trial-energy change:   -0.000067  1 .order   -0.000065   -0.000073   -0.000058
 step:   0.5609(harm=  0.6833)  dis= 0.00295  next Energy=  -142.277806 (dE=-0.178E-03)
 bond charge predicted
       N       E                     dE             d eps       ncg     rms          rms(c)
DAV:   1    -0.140385082203E+03    0.20027E-04   -0.18103E-01 14208   0.190E+00    0.861E-02
DAV:   2    -0.140385129377E+03   -0.47174E-04   -0.14965E-03 16512   0.169E-01    0.576E-02
DAV:   3    -0.140385116150E+03    0.13227E-04   -0.12132E-04 16368   0.426E-02    0.132E-02
DAV:   4    -0.140385117621E+03   -0.14710E-05   -0.12943E-05 14496   0.153E-02    0.517E-03
DAV:   5    -0.140385117286E+03    0.33528E-06   -0.24791E-06 15744   0.870E-03
  70 F= -.14227781E+03 E0= -.14227649E+03  d E =-.180319E-03  mag=    -0.0000
 curvature:  -6.50 expect dE=-0.304E-02 dE for cont linesearch -0.894E-05
 ZBRENT: extrapolating
 opt :   0.7324  next Energy=  -142.277819 (dE=-0.191E-03)
 bond charge predicted
       N       E                     dE             d eps       ncg     rms          rms(c)
DAV:   1    -0.140385081394E+03    0.36226E-04   -0.30079E-02 14208   0.776E-01    0.347E-02
DAV:   2    -0.140385088944E+03   -0.75496E-05   -0.25507E-04 15888   0.698E-02    0.234E-02
DAV:   3    -0.140385087470E+03    0.14741E-05   -0.20750E-05 15984   0.182E-02    0.559E-03
DAV:   4    -0.140385087824E+03   -0.35386E-06   -0.28546E-06 14400   0.849E-03
  71 F= -.14227782E+03 E0= -.14227651E+03  d E =-.191039E-03  mag=    -0.0000
 curvature:  -7.47 expect dE=-0.563E-02 dE for cont linesearch -0.151E-06
 trial: gam= 1.43503 g(F)=  0.754E-03 g(S)=  0.000E+00 ort =-0.145E-04 (trialstep = 0.122E+00)
 search vector abs. value=  0.222E-01
 bond charge predicted
       N       E                     dE             d eps       ncg     rms          rms(c)
DAV:   1    -0.140385082326E+03    0.51443E-05   -0.31856E-02 14208   0.801E-01    0.357E-02
DAV:   2    -0.140385092372E+03   -0.10046E-04   -0.25930E-04 15072   0.709E-02    0.243E-02
DAV:   3    -0.140385090492E+03    0.18793E-05   -0.21616E-05 15744   0.194E-02    0.469E-03
DAV:   4    -0.140385091112E+03   -0.61984E-06   -0.35162E-06 14304   0.102E-02
  72 F= -.14227790E+03 E0= -.14227659E+03  d E =-.821431E-04  mag=    -0.0000
 ZBRENT: can't locate minimum, use default step
 trial-energy change:   -0.000082  1 .order   -0.000081   -0.000089   -0.000072
 step:   0.4863(harm=  0.6396)  dis= 0.00368  next Energy=  -142.278054 (dE=-0.234E-03)
 bond charge predicted
       N       E                     dE             d eps       ncg     rms          rms(c)
DAV:   1    -0.140384926791E+03    0.16370E-03   -0.28656E-01 14208   0.240E+00    0.107E-01
DAV:   2    -0.140385018991E+03   -0.92201E-04   -0.22957E-03 17952   0.210E-01    0.728E-02
DAV:   3    -0.140384997378E+03    0.21613E-04   -0.18392E-04 16992   0.518E-02    0.129E-02
DAV:   4    -0.140384998705E+03   -0.13270E-05   -0.18285E-05 16032   0.187E-02    0.578E-03
DAV:   5    -0.140384998145E+03    0.56072E-06   -0.41289E-06 17712   0.110E-02
  73 F= -.14227805E+03 E0= -.14227673E+03  d E =-.226834E-03  mag=     0.0000
 curvature:  -8.83 expect dE=-0.460E-02 dE for cont linesearch -0.150E-04
 ZBRENT: extrapolating
 opt :   0.6634  next Energy=  -142.278063 (dE=-0.244E-03)
 bond charge predicted
       N       E                     dE             d eps       ncg     rms          rms(c)
DAV:   1    -0.140384881131E+03    0.11757E-03   -0.67516E-02 14208   0.117E+00    0.517E-02
DAV:   2    -0.140384903055E+03   -0.21925E-04   -0.55481E-04 18384   0.103E-01    0.353E-02
DAV:   3    -0.140384898662E+03    0.43932E-05   -0.44250E-05 17088   0.256E-02    0.631E-03
DAV:   4    -0.140384899134E+03   -0.47151E-06   -0.49081E-06 14880   0.106E-02
  74 F= -.14227806E+03 E0= -.14227675E+03  d E =-.243634E-03  mag=     0.0000
 curvature: -10.12 expect dE=-0.885E-02 dE for cont linesearch -0.340E-06
 trial: gam= 1.17104 g(F)=  0.875E-03 g(S)=  0.000E+00 ort =-0.273E-04 (trialstep = 0.163E+00)
 search vector abs. value=  0.312E-01
 bond charge predicted
       N       E                     dE             d eps       ncg     rms          rms(c)
DAV:   1    -0.140384817784E+03    0.80878E-04   -0.83074E-02 14208   0.130E+00    0.575E-02
DAV:   2    -0.140384844596E+03   -0.26812E-04   -0.68575E-04 16416   0.116E-01    0.390E-02
DAV:   3    -0.140384838569E+03    0.60269E-05   -0.56438E-05 16608   0.304E-02    0.802E-03
DAV:   4    -0.140384839296E+03   -0.72653E-06   -0.82177E-06 14784   0.147E-02
  75 F= -.14227817E+03 E0= -.14227685E+03  d E =-.103945E-03  mag=     0.0000
 trial-energy change:   -0.000104  1 .order   -0.000101   -0.000138   -0.000064
 step:   0.3046(harm=  0.3046)  dis= 0.00278  next Energy=  -142.278191 (dE=-0.128E-03)
 bond charge predicted
       N       E                     dE             d eps       ncg     rms          rms(c)
DAV:   1    -0.140384712366E+03    0.12620E-03   -0.62163E-02 14208   0.112E+00    0.498E-02
DAV:   2    -0.140384733252E+03   -0.20886E-04   -0.51705E-04 16656   0.101E-01    0.339E-02
DAV:   3    -0.140384728851E+03    0.44011E-05   -0.43477E-05 16848   0.279E-02    0.705E-03
DAV:   4    -0.140384729475E+03   -0.62456E-06   -0.87321E-06 14496   0.163E-02
  76 F= -.14227820E+03 E0= -.14227688E+03  d E =-.135958E-03  mag=     0.0000
 curvature:  -5.64 expect dE=-0.902E-03 dE for cont linesearch -0.320E-07
 trial: gam= 0.12293 g(F)=  0.160E-03 g(S)=  0.000E+00 ort = 0.133E-04 (trialstep = 0.192E+00)
 search vector abs. value=  0.635E-03
 bond charge predicted
       N       E                     dE             d eps       ncg     rms          rms(c)
DAV:   1    -0.140384735591E+03   -0.67405E-05   -0.25524E-03 14400   0.227E-01    0.105E-02
DAV:   2    -0.140384737029E+03   -0.14380E-05   -0.24027E-05 16320   0.237E-02    0.702E-03
DAV:   3    -0.140384736194E+03    0.83506E-06   -0.38652E-06 16320   0.110E-02
  77 F= -.14227822E+03 E0= -.14227691E+03  d E =-.253640E-04  mag=    -0.0000
 trial-energy change:   -0.000025  1 .order   -0.000025   -0.000031   -0.000019
 step:   0.4811(harm=  0.4811)  dis= 0.00065  next Energy=  -142.278238 (dE=-0.389E-04)
 bond charge predicted
       N       E                     dE             d eps       ncg     rms          rms(c)
DAV:   1    -0.140384721807E+03    0.15223E-04   -0.57908E-03 14208   0.341E-01    0.153E-02
DAV:   2    -0.140384723795E+03   -0.19881E-05   -0.51001E-05 17088   0.329E-02    0.102E-02
DAV:   3    -0.140384722832E+03    0.96298E-06   -0.52976E-06 16080   0.116E-02
  78 F= -.14227824E+03 E0= -.14227692E+03  d E =-.401536E-04  mag=     0.0000
 curvature:  -0.95 expect dE=-0.119E-03 dE for cont linesearch -0.695E-08
 trial: gam= 0.82643 g(F)=  0.126E-03 g(S)=  0.000E+00 ort =-0.216E-05 (trialstep = 0.249E+00)
 search vector abs. value=  0.556E-03
 bond charge predicted
       N       E                     dE             d eps       ncg     rms          rms(c)
DAV:   1    -0.140384714928E+03    0.88668E-05   -0.33096E-03 14400   0.263E-01    0.114E-02
DAV:   2    -0.140384716678E+03   -0.17502E-05   -0.29261E-05 16368   0.256E-02    0.783E-03
DAV:   3    -0.140384716151E+03    0.52650E-06   -0.35201E-06 16272   0.105E-02
  79 F= -.14227826E+03 E0= -.14227695E+03  d E =-.245449E-04  mag=    -0.0000
 trial-energy change:   -0.000025  1 .order   -0.000024   -0.000031   -0.000017
 step:   0.5568(harm=  0.5568)  dis= 0.00065  next Energy=  -142.278274 (dE=-0.345E-04)
 bond charge predicted
       N       E                     dE             d eps       ncg     rms          rms(c)
DAV:   1    -0.140384686863E+03    0.29815E-04   -0.50236E-03 14208   0.324E-01    0.137E-02
DAV:   2    -0.140384689061E+03   -0.21983E-05   -0.43888E-05 17664   0.308E-02    0.942E-03
DAV:   3    -0.140384688733E+03    0.32840E-06   -0.41587E-06 15936   0.110E-02
  80 F= -.14227827E+03 E0= -.14227696E+03  d E =-.356058E-04  mag=     0.0000
 curvature:  -1.25 expect dE=-0.121E-03 dE for cont linesearch -0.596E-09
 trial: gam= 0.74482 g(F)=  0.971E-04 g(S)=  0.000E+00 ort =-0.515E-06 (trialstep = 0.311E+00)
 search vector abs. value=  0.405E-03
 bond charge predicted
       N       E                     dE             d eps       ncg     rms          rms(c)
DAV:   1    -0.140384648226E+03    0.40836E-04   -0.35081E-03 15024   0.265E-01    0.126E-02
DAV:   2    -0.140384649533E+03   -0.13070E-05   -0.37868E-05 16224   0.281E-02    0.849E-03
DAV:   3    -0.140384649059E+03    0.47319E-06   -0.42670E-06 15360   0.110E-02
  81 F= -.14227829E+03 E0= -.14227698E+03  d E =-.188668E-04  mag=    -0.0000
 trial-energy change:   -0.000019  1 .order   -0.000018   -0.000030   -0.000007
 step:   0.4013(harm=  0.4013)  dis= 0.00041  next Energy=  -142.278294 (dE=-0.194E-04)
 bond charge predicted
       N       E                     dE             d eps       ncg     rms          rms(c)
DAV:   1    -0.140384633251E+03    0.16282E-04   -0.29829E-04 14208   0.783E-02    0.412E-03
DAV:   2    -0.140384633573E+03   -0.32225E-06   -0.48806E-06 16704   0.123E-02
  82 F= -.14227830E+03 E0= -.14227698E+03  d E =-.203862E-04  mag=    -0.0000
 curvature:  -0.84 expect dE=-0.448E-04 dE for cont linesearch -0.183E-09
 trial: gam= 0.54555 g(F)=  0.533E-04 g(S)=  0.000E+00 ort = 0.297E-06 (trialstep = 0.329E+00)
 search vector abs. value=  0.174E-03
 bond charge predicted
       N       E                     dE             d eps       ncg     rms          rms(c)
DAV:   1    -0.140384600475E+03    0.32776E-04   -0.18159E-03 14304   0.193E-01    0.895E-03
DAV:   2    -0.140384601297E+03   -0.82279E-06   -0.18332E-05 14304   0.209E-02    0.608E-03
DAV:   3    -0.140384601055E+03    0.24215E-06   -0.32086E-06 14736   0.103E-02
  83 F= -.14227831E+03 E0= -.14227699E+03  d E =-.140107E-04  mag=     0.0000
 trial-energy change:   -0.000014  1 .order   -0.000014   -0.000018   -0.000010
 step:   0.7952(harm=  0.7952)  dis= 0.00052  next Energy=  -142.278316 (dE=-0.213E-04)
 bond charge predicted
       N       E                     dE             d eps       ncg     rms          rms(c)
DAV:   1    -0.140384541811E+03    0.59486E-04   -0.36462E-03 15072   0.274E-01    0.117E-02
DAV:   2    -0.140384543152E+03   -0.13407E-05   -0.32981E-05 14304   0.268E-02    0.791E-03
DAV:   3    -0.140384542905E+03    0.24699E-06   -0.38680E-06 14352   0.107E-02
  84 F= -.14227832E+03 E0= -.14227700E+03  d E =-.217753E-04  mag=    -0.0000
 curvature:  -1.29 expect dE=-0.662E-04 dE for cont linesearch -0.373E-08
 trial: gam= 0.99204 g(F)=  0.511E-04 g(S)=  0.000E+00 ort =-0.709E-06 (trialstep = 0.333E+00)
 search vector abs. value=  0.221E-03
 bond charge predicted
       N       E                     dE             d eps       ncg     rms          rms(c)
DAV:   1    -0.140384515772E+03    0.27380E-04   -0.25448E-03 14352   0.229E-01    0.997E-03
DAV:   2    -0.140384516753E+03   -0.98120E-06   -0.27270E-05 14208   0.247E-02    0.673E-03
DAV:   3    -0.140384516395E+03    0.35808E-06   -0.33038E-06 14208   0.987E-03
  85 F= -.14227833E+03 E0= -.14227701E+03  d E =-.117915E-04  mag=     0.0000
 trial-energy change:   -0.000012  1 .order   -0.000011   -0.000017   -0.000006
 step:   0.5007(harm=  0.5007)  dis= 0.00038  next Energy=  -142.278330 (dE=-0.126E-04)
 bond charge predicted
       N       E                     dE             d eps       ncg     rms          rms(c)
DAV:   1    -0.140384498500E+03    0.18253E-04   -0.65306E-04 14208   0.117E-01    0.540E-03
DAV:   2    -0.140384498976E+03   -0.47551E-06   -0.79847E-06 15168   0.147E-02
  86 F= -.14227833E+03 E0= -.14227701E+03  d E =-.137342E-04  mag=     0.0000
 curvature:  -1.10 expect dE=-0.411E-04 dE for cont linesearch -0.303E-08
 trial: gam= 0.70678 g(F)=  0.374E-04 g(S)=  0.000E+00 ort =-0.782E-06 (trialstep = 0.366E+00)
 search vector abs. value=  0.147E-03
 bond charge predicted
       N       E                     dE             d eps       ncg     rms          rms(c)
DAV:   1    -0.140384456201E+03    0.42299E-04   -0.20214E-03 14592   0.203E-01    0.981E-03
DAV:   2    -0.140384457171E+03   -0.97003E-06   -0.22202E-05 14208   0.225E-02    0.662E-03
DAV:   3    -0.140384456810E+03    0.36122E-06   -0.33469E-06 15120   0.103E-02
  87 F= -.14227834E+03 E0= -.14227702E+03  d E =-.103403E-04  mag=    -0.0000
 trial-energy change:   -0.000010  1 .order   -0.000010   -0.000013   -0.000007
 step:   0.7395(harm=  0.7395)  dis= 0.00048  next Energy=  -142.278344 (dE=-0.136E-04)
 bond charge predicted
       N       E                     dE             d eps       ncg     rms          rms(c)
DAV:   1    -0.140384406223E+03    0.50948E-04   -0.21064E-03 14496   0.208E-01    0.923E-03
DAV:   2    -0.140384407330E+03   -0.11066E-05   -0.22838E-05 14208   0.226E-02    0.626E-03
DAV:   3    -0.140384406929E+03    0.40011E-06   -0.28024E-06 14496   0.929E-03
  88 F= -.14227834E+03 E0= -.14227703E+03  d E =-.140253E-04  mag=     0.0000
 curvature:  -1.47 expect dE=-0.139E-03 dE for cont linesearch -0.602E-08
 trial: gam= 2.58727 g(F)=  0.946E-04 g(S)=  0.000E+00 ort =-0.775E-06 (trialstep = 0.603E-01)
 search vector abs. value=  0.107E-02
 bond charge predicted
       N       E                     dE             d eps       ncg     rms          rms(c)
DAV:   1    -0.140384384733E+03    0.22597E-04   -0.38267E-04 14208   0.886E-02    0.405E-03
DAV:   2    -0.140384385070E+03   -0.33739E-06   -0.46033E-06 14208   0.114E-02
  89 F= -.14227835E+03 E0= -.14227703E+03  d E =-.591948E-05  mag=     0.0000
 ZBRENT: can't locate minimum, use default step
 trial-energy change:   -0.000006  1 .order   -0.000005   -0.000006   -0.000005
 step:   0.2412(harm=  0.7800)  dis= 0.00041  next Energy=  -142.278381 (dE=-0.361E-04)
 bond charge predicted
       N       E                     dE             d eps       ncg     rms          rms(c)
DAV:   1    -0.140384315560E+03    0.69173E-04   -0.34368E-03 14208   0.264E-01    0.121E-02
DAV:   2    -0.140384317175E+03   -0.16148E-05   -0.33495E-05 14208   0.268E-02    0.832E-03
DAV:   3    -0.140384316721E+03    0.45386E-06   -0.34965E-06 15888   0.104E-02
  90 F= -.14227837E+03 E0= -.14227705E+03  d E =-.209686E-04  mag=    -0.0000
 curvature:  -1.99 expect dE=-0.159E-03 dE for cont linesearch -0.113E-04
 ZBRENT: increasing intervall
 opt :   0.6029  next Energy=  -142.278391 (dE=-0.466E-04)
 bond charge predicted
       N       E                     dE             d eps       ncg     rms          rms(c)
DAV:   1    -0.140384170214E+03    0.14696E-03   -0.13755E-02 14208   0.527E-01    0.225E-02
DAV:   2    -0.140384176548E+03   -0.63338E-05   -0.12900E-04 14880   0.509E-02    0.156E-02
DAV:   3    -0.140384175603E+03    0.94499E-06   -0.86538E-06 15648   0.149E-02
  91 F= -.14227839E+03 E0= -.14227707E+03  d E =-.467099E-04  mag=     0.0000
 curvature:  -4.50 expect dE=-0.362E-03 dE for cont linesearch -0.135E-04
 ZBRENT: increasing intervall
 opt :   1.3264  next Energy=  -142.278417 (dE=-0.722E-04)
 bond charge predicted
       N       E                     dE             d eps       ncg     rms          rms(c)
DAV:   1    -0.140383849859E+03    0.32669E-03   -0.55012E-02 14208   0.105E+00    0.451E-02
DAV:   2    -0.140383874394E+03   -0.24535E-04   -0.50840E-04 15456   0.999E-02    0.312E-02
DAV:   3    -0.140383871635E+03    0.27594E-05   -0.29855E-05 15936   0.255E-02    0.884E-03
DAV:   4    -0.140383871727E+03   -0.92286E-07   -0.79636E-06 16896   0.160E-02
  92 F= -.14227842E+03 E0= -.14227711E+03  d E =-.765472E-04  mag=     0.0000
 curvature:  -8.51 expect dE=-0.132E-02 dE for cont linesearch -0.217E-05
 trial: gam= 1.19515 g(F)=  0.155E-03 g(S)=  0.000E+00 ort = 0.165E-04 (trialstep = 0.195E+00)
 search vector abs. value=  0.173E-02
 bond charge predicted
       N       E                     dE             d eps       ncg     rms          rms(c)
DAV:   1    -0.140383797990E+03    0.73645E-04   -0.61817E-03 14208   0.352E-01    0.160E-02
DAV:   2    -0.140383801208E+03   -0.32181E-05   -0.66560E-05 16272   0.378E-02    0.109E-02
DAV:   3    -0.140383800460E+03    0.74805E-06   -0.64593E-06 16176   0.137E-02
  93 F= -.14227845E+03 E0= -.14227713E+03  d E =-.285251E-04  mag=    -0.0000
 trial-energy change:   -0.000029  1 .order   -0.000028   -0.000034   -0.000022
 step:   0.5351(harm=  0.5351)  dis= 0.00120  next Energy=  -142.278468 (dE=-0.468E-04)
 bond charge predicted
       N       E                     dE             d eps       ncg     rms          rms(c)
DAV:   1    -0.140383638596E+03    0.16261E-03   -0.18777E-02 14208   0.613E-01    0.278E-02
DAV:   2    -0.140383647101E+03   -0.85041E-05   -0.19533E-04 16416   0.631E-02    0.189E-02
DAV:   3    -0.140383645745E+03    0.13559E-05   -0.15694E-05 16368   0.199E-02    0.635E-03
DAV:   4    -0.140383645883E+03   -0.13806E-06   -0.87337E-06 14928   0.170E-02
  94 F= -.14227847E+03 E0= -.14227716E+03  d E =-.482383E-04  mag=    -0.0000
 curvature:  -2.64 expect dE=-0.514E-03 dE for cont linesearch -0.296E-07
 trial: gam= 1.51744 g(F)=  0.194E-03 g(S)=  0.000E+00 ort =-0.440E-05 (trialstep = 0.109E+00)
 search vector abs. value=  0.416E-02
 bond charge predicted
       N       E                     dE             d eps       ncg     rms          rms(c)
DAV:   1    -0.140383574016E+03    0.71729E-04   -0.46888E-03 14880   0.307E-01    0.136E-02
DAV:   2    -0.140383576335E+03   -0.23192E-05   -0.44618E-05 18000   0.303E-02    0.941E-03
DAV:   3    -0.140383575631E+03    0.70426E-06   -0.40670E-06 16848   0.107E-02
  95 F= -.14227849E+03 E0= -.14227718E+03  d E =-.188206E-04  mag=     0.0000
 ZBRENT: can't locate minimum, use default step
 trial-energy change:   -0.000019  1 .order   -0.000019   -0.000020   -0.000017
 step:   0.4367(harm=  0.5709)  dis= 0.00148  next Energy=  -142.278523 (dE=-0.535E-04)
 bond charge predicted
       N       E                     dE             d eps       ncg     rms          rms(c)
DAV:   1    -0.140383327275E+03    0.24906E-03   -0.42089E-02 14208   0.919E-01    0.400E-02
DAV:   2    -0.140383345561E+03   -0.18286E-04   -0.39636E-04 17712   0.877E-02    0.277E-02
DAV:   3    -0.140383342944E+03    0.26172E-05   -0.24063E-05 16992   0.223E-02    0.735E-03
DAV:   4    -0.140383343101E+03   -0.15711E-06   -0.69057E-06 14400   0.148E-02
  96 F= -.14227852E+03 E0= -.14227721E+03  d E =-.535995E-04  mag=     0.0000
 curvature:  -5.79 expect dE=-0.120E-02 dE for cont linesearch -0.288E-05
 ZBRENT: extrapolating
 opt :   0.5768  next Energy=  -142.278526 (dE=-0.568E-04)
 bond charge predicted
       N       E                     dE             d eps       ncg     rms          rms(c)
DAV:   1    -0.140383229941E+03    0.11300E-03   -0.77206E-03 14304   0.394E-01    0.174E-02
DAV:   2    -0.140383233754E+03   -0.38128E-05   -0.74625E-05 17280   0.387E-02    0.121E-02
DAV:   3    -0.140383232955E+03    0.79881E-06   -0.53801E-06 16848   0.117E-02
  97 F= -.14227853E+03 E0= -.14227722E+03  d E =-.578241E-04  mag=    -0.0000
 curvature:  -6.41 expect dE=-0.189E-02 dE for cont linesearch -0.128E-08
 trial: gam= 1.11217 g(F)=  0.294E-03 g(S)=  0.000E+00 ort = 0.912E-06 (trialstep = 0.155E+00)
 search vector abs. value=  0.544E-02
 bond charge predicted
       N       E                     dE             d eps       ncg     rms          rms(c)
DAV:   1    -0.140383108742E+03    0.12501E-03   -0.13279E-02 14208   0.519E-01    0.222E-02
DAV:   2    -0.140383115061E+03   -0.63190E-05   -0.12907E-04 16608   0.511E-02    0.155E-02
DAV:   3    -0.140383113956E+03    0.11048E-05   -0.92405E-06 16368   0.151E-02    0.469E-03
DAV:   4    -0.140383114114E+03   -0.15800E-06   -0.43247E-06 14208   0.119E-02
  98 F= -.14227857E+03 E0= -.14227726E+03  d E =-.416999E-04  mag=    -0.0000
 ZBRENT: can't locate minimum, use default step
 trial-energy change:   -0.000042  1 .order   -0.000040   -0.000046   -0.000035
 step:   0.6198(harm=  0.6614)  dis= 0.00255  next Energy=  -142.278625 (dE=-0.976E-04)
 bond charge predicted
       N       E                     dE             d eps       ncg     rms          rms(c)
DAV:   1    -0.140382649106E+03    0.46485E-03   -0.11959E-01 14208   0.156E+00    0.661E-02
DAV:   2    -0.140382699179E+03   -0.50074E-04   -0.11313E-03 18528   0.148E-01    0.457E-02
DAV:   3    -0.140382690527E+03    0.86523E-05   -0.63837E-05 16512   0.327E-02    0.128E-02
DAV:   4    -0.140382690833E+03   -0.30634E-06   -0.97845E-06 17616   0.137E-02
  99 F= -.14227863E+03 E0= -.14227732E+03  d E =-.100204E-03  mag=    -0.0000
 curvature:  -6.05 expect dE=-0.184E-02 dE for cont linesearch -0.701E-07
 trial: gam= 1.04559 g(F)=  0.304E-03 g(S)=  0.000E+00 ort = 0.794E-05 (trialstep = 0.215E+00)
 search vector abs. value=  0.627E-02
 bond charge predicted
       N       E                     dE             d eps       ncg     rms          rms(c)
DAV:   1    -0.140382501187E+03    0.18934E-03   -0.30200E-02 14208   0.782E-01    0.332E-02
DAV:   2    -0.140382514811E+03   -0.13624E-04   -0.28538E-04 16944   0.752E-02    0.229E-02
DAV:   3    -0.140382512588E+03    0.22232E-05   -0.17177E-05 16608   0.186E-02    0.665E-03
DAV:   4    -0.140382512687E+03   -0.99888E-07   -0.40672E-06 16032   0.110E-02
 100 F= -.14227868E+03 E0= -.14227737E+03  d E =-.494944E-04  mag=    -0.0000
 trial-energy change:   -0.000049  1 .order   -0.000048   -0.000067   -0.000028
 step:   0.3665(harm=  0.3665)  dis= 0.00151  next Energy=  -142.278685 (dE=-0.573E-04)
 bond charge predicted
       N       E                     dE             d eps       ncg     rms          rms(c)
DAV:   1    -0.140382357773E+03    0.15481E-03   -0.14945E-02 14208   0.550E-01    0.235E-02
DAV:   2    -0.140382364708E+03   -0.69344E-05   -0.14166E-04 17568   0.532E-02    0.163E-02
DAV:   3    -0.140382363312E+03    0.13958E-05   -0.85863E-06 16752   0.135E-02    0.475E-03
DAV:   4    -0.140382363473E+03   -0.16162E-06   -0.26098E-06 14208   0.901E-03
 101 F= -.14227869E+03 E0= -.14227738E+03  d E =-.605615E-04  mag=    -0.0000
 curvature:  -3.67 expect dE=-0.771E-03 dE for cont linesearch -0.448E-09
 trial: gam= 0.76905 g(F)=  0.210E-03 g(S)=  0.000E+00 ort =-0.874E-06 (trialstep = 0.245E+00)
 search vector abs. value=  0.392E-02
 bond charge predicted
       N       E                     dE             d eps       ncg     rms          rms(c)
DAV:   1    -0.140382217282E+03    0.14603E-03   -0.23499E-02 14208   0.689E-01    0.294E-02
DAV:   2    -0.140382226892E+03   -0.96101E-05   -0.21751E-04 18480   0.650E-02    0.204E-02
DAV:   3    -0.140382225616E+03    0.12763E-05   -0.11703E-05 16464   0.146E-02    0.556E-03
DAV:   4    -0.140382225800E+03   -0.18467E-06   -0.20944E-06 14784   0.742E-03
 102 F= -.14227873E+03 E0= -.14227743E+03  d E =-.460959E-04  mag=    -0.0000
 trial-energy change:   -0.000046  1 .order   -0.000045   -0.000051   -0.000038
 step:   0.9543(harm=  0.9543)  dis= 0.00325  next Energy=  -142.278788 (dE=-0.999E-04)
 bond charge predicted
       N       E                     dE             d eps       ncg     rms          rms(c)
DAV:   1    -0.140381691118E+03    0.53450E-03   -0.19598E-01 14208   0.199E+00    0.847E-02
DAV:   2    -0.140381767986E+03   -0.76868E-04   -0.17624E-03 18624   0.184E-01    0.583E-02
DAV:   3    -0.140381753452E+03    0.14534E-04   -0.96311E-05 16560   0.401E-02    0.154E-02
DAV:   4    -0.140381754485E+03   -0.10329E-05   -0.12912E-05 18192   0.156E-02    0.453E-03
DAV:   5    -0.140381754310E+03    0.17451E-06   -0.24500E-06 16224   0.843E-03
 103 F= -.14227879E+03 E0= -.14227749E+03  d E =-.105738E-03  mag=     0.0000
 curvature:  -8.92 expect dE=-0.321E-02 dE for cont linesearch -0.117E-06
 trial: gam= 1.57249 g(F)=  0.359E-03 g(S)=  0.000E+00 ort = 0.716E-05 (trialstep = 0.151E+00)
 search vector abs. value=  0.101E-01
 bond charge predicted
       N       E                     dE             d eps       ncg     rms          rms(c)
DAV:   1    -0.140381595708E+03    0.15878E-03   -0.22162E-02 14208   0.668E-01    0.285E-02
DAV:   2    -0.140381605572E+03   -0.98641E-05   -0.21355E-04 18144   0.641E-02    0.199E-02
DAV:   3    -0.140381604061E+03    0.15103E-05   -0.11586E-05 16560   0.148E-02    0.534E-03
DAV:   4    -0.140381604213E+03   -0.15198E-06   -0.22932E-06 14832   0.795E-03
 104 F= -.14227884E+03 E0= -.14227753E+03  d E =-.449198E-04  mag=     0.0000
 trial-energy change:   -0.000045  1 .order   -0.000044   -0.000056   -0.000032
 step:   0.3469(harm=  0.3469)  dis= 0.00188  next Energy=  -142.278858 (dE=-0.643E-04)
 bond charge predicted
       N       E                     dE             d eps       ncg     rms          rms(c)
DAV:   1    -0.140381358917E+03    0.24514E-03   -0.37624E-02 14208   0.871E-01    0.375E-02
DAV:   2    -0.140381375138E+03   -0.16221E-04   -0.35691E-04 17808   0.830E-02    0.261E-02
DAV:   3    -0.140381372896E+03    0.22420E-05   -0.19554E-05 16704   0.190E-02    0.681E-03
DAV:   4    -0.140381373144E+03   -0.24791E-06   -0.33816E-06 14832   0.937E-03
 105 F= -.14227886E+03 E0= -.14227755E+03  d E =-.679266E-04  mag=     0.0000
 curvature:  -4.71 expect dE=-0.989E-03 dE for cont linesearch -0.201E-07
 trial: gam= 0.58600 g(F)=  0.210E-03 g(S)=  0.000E+00 ort = 0.655E-05 (trialstep = 0.190E+00)
 search vector abs. value=  0.367E-02
 bond charge predicted
       N       E                     dE             d eps       ncg     rms          rms(c)
DAV:   1    -0.140381246373E+03    0.12652E-03   -0.13047E-02 14208   0.513E-01    0.221E-02
DAV:   2    -0.140381252374E+03   -0.60012E-05   -0.12586E-04 16944   0.497E-02    0.154E-02
DAV:   3    -0.140381251311E+03    0.10639E-05   -0.72090E-06 16512   0.123E-02    0.444E-03
DAV:   4    -0.140381251467E+03   -0.15646E-06   -0.18810E-06 14208   0.764E-03
 106 F= -.14227890E+03 E0= -.14227759E+03  d E =-.353743E-04  mag=     0.0000
 trial-energy change:   -0.000035  1 .order   -0.000034   -0.000041   -0.000028
 step:   0.5944(harm=  0.5944)  dis= 0.00207  next Energy=  -142.278925 (dE=-0.636E-04)
 bond charge predicted
       N       E                     dE             d eps       ncg     rms          rms(c)
DAV:   1    -0.140380926131E+03    0.32518E-03   -0.59130E-02 14208   0.109E+00    0.467E-02
DAV:   2    -0.140380950863E+03   -0.24732E-04   -0.55899E-04 18192   0.104E-01    0.325E-02
DAV:   3    -0.140380947003E+03    0.38602E-05   -0.29582E-05 16416   0.227E-02    0.892E-03
DAV:   4    -0.140380947277E+03   -0.27428E-06   -0.42911E-06 15552   0.959E-03
 107 F= -.14227893E+03 E0= -.14227762E+03  d E =-.657018E-04  mag=     0.0000
 curvature:  -5.10 expect dE=-0.134E-02 dE for cont linesearch -0.702E-07
 trial: gam= 1.31217 g(F)=  0.263E-03 g(S)=  0.000E+00 ort =-0.710E-05 (trialstep = 0.151E+00)
 search vector abs. value=  0.657E-02
 bond charge predicted
       N       E                     dE             d eps       ncg     rms          rms(c)
DAV:   1    -0.140380832483E+03    0.11452E-03   -0.15253E-02 14208   0.556E-01    0.233E-02
DAV:   2    -0.140380839642E+03   -0.71587E-05   -0.13708E-04 15504   0.522E-02    0.163E-02
DAV:   3    -0.140380838420E+03    0.12224E-05   -0.79436E-06 15888   0.132E-02    0.460E-03
DAV:   4    -0.140380838626E+03   -0.20613E-06   -0.20140E-06 14208   0.794E-03
 108 F= -.14227896E+03 E0= -.14227766E+03  d E =-.351044E-04  mag=    -0.0000
 ZBRENT: can't locate minimum, use default step
 trial-energy change:   -0.000035  1 .order   -0.000034   -0.000038   -0.000029
 step:   0.6057(harm=  0.6463)  dis= 0.00270  next Energy=  -142.279009 (dE=-0.821E-04)
 bond charge predicted
       N       E                     dE             d eps       ncg     rms          rms(c)
DAV:   1    -0.140380408522E+03    0.42990E-03   -0.13710E-01 14208   0.167E+00    0.696E-02
DAV:   2    -0.140380467163E+03   -0.58641E-04   -0.11972E-03 18528   0.153E-01    0.485E-02
DAV:   3    -0.140380456891E+03    0.10271E-04   -0.62495E-05 16560   0.327E-02    0.123E-02
DAV:   4    -0.140380457525E+03   -0.63404E-06   -0.81600E-06 17280   0.125E-02
 109 F= -.14227901E+03 E0= -.14227770E+03  d E =-.854573E-04  mag=     0.0000
 curvature:  -8.30 expect dE=-0.193E-02 dE for cont linesearch -0.631E-08
 trial: gam= 0.75462 g(F)=  0.233E-03 g(S)=  0.000E+00 ort = 0.223E-05 (trialstep = 0.242E+00)
 search vector abs. value=  0.398E-02
 bond charge predicted
       N       E                     dE             d eps       ncg     rms          rms(c)
DAV:   1    -0.140380342481E+03    0.11441E-03   -0.23379E-02 14208   0.688E-01    0.295E-02
DAV:   2    -0.140380353172E+03   -0.10691E-04   -0.21684E-04 16368   0.656E-02    0.204E-02
DAV:   3    -0.140380351048E+03    0.21236E-05   -0.13038E-05 16416   0.166E-02    0.590E-03
DAV:   4    -0.140380351201E+03   -0.15341E-06   -0.33913E-06 15072   0.102E-02
 110 F= -.14227905E+03 E0= -.14227774E+03  d E =-.390977E-04  mag=     0.0000
 trial-energy change:   -0.000039  1 .order   -0.000037   -0.000057   -0.000018
 step:   0.3503(harm=  0.3503)  dis= 0.00127  next Energy=  -142.279054 (dE=-0.411E-04)
 bond charge predicted
       N       E                     dE             d eps       ncg     rms          rms(c)
DAV:   1    -0.140380289589E+03    0.61459E-04   -0.46433E-03 14880   0.306E-01    0.134E-02
DAV:   2    -0.140380291674E+03   -0.20849E-05   -0.41490E-05 17424   0.287E-02    0.920E-03
DAV:   3    -0.140380291120E+03    0.55368E-06   -0.27664E-06 16464   0.804E-03
 111 F= -.14227906E+03 E0= -.14227775E+03  d E =-.438448E-04  mag=    -0.0000
 curvature:  -2.97 expect dE=-0.421E-03 dE for cont linesearch -0.158E-08
 trial: gam= 0.68706 g(F)=  0.142E-03 g(S)=  0.000E+00 ort =-0.145E-05 (trialstep = 0.264E+00)
 search vector abs. value=  0.202E-02
 bond charge predicted
       N       E                     dE             d eps       ncg     rms          rms(c)
DAV:   1    -0.140380201041E+03    0.90633E-04   -0.13232E-02 14208   0.518E-01    0.222E-02
DAV:   2    -0.140380207433E+03   -0.63919E-05   -0.11802E-04 16560   0.481E-02    0.156E-02
DAV:   3    -0.140380206358E+03    0.10741E-05   -0.66834E-06 16512   0.122E-02    0.426E-03
DAV:   4    -0.140380206493E+03   -0.13430E-06   -0.18598E-06 14208   0.772E-03
 112 F= -.14227909E+03 E0= -.14227778E+03  d E =-.317499E-04  mag=    -0.0000
 trial-energy change:   -0.000032  1 .order   -0.000031   -0.000037   -0.000025
 step:   0.7834(harm=  0.7834)  dis= 0.00200  next Energy=  -142.279112 (dE=-0.551E-04)
 bond charge predicted
       N       E                     dE             d eps       ncg     rms          rms(c)
DAV:   1    -0.140379983404E+03    0.22295E-03   -0.51330E-02 14208   0.102E+00    0.434E-02
DAV:   2    -0.140380006575E+03   -0.23171E-04   -0.45318E-04 17808   0.933E-02    0.304E-02
DAV:   3    -0.140380003240E+03    0.33349E-05   -0.23055E-05 16704   0.204E-02    0.800E-03
DAV:   4    -0.140380003448E+03   -0.20818E-06   -0.32981E-06 15744   0.889E-03
 113 F= -.14227911E+03 E0= -.14227781E+03  d E =-.576990E-04  mag=    -0.0000
 curvature:  -5.61 expect dE=-0.124E-02 dE for cont linesearch -0.101E-07
 trial: gam= 1.48453 g(F)=  0.222E-03 g(S)=  0.000E+00 ort =-0.190E-05 (trialstep = 0.159E+00)
 search vector abs. value=  0.466E-02
 bond charge predicted
       N       E                     dE             d eps       ncg     rms          rms(c)
DAV:   1    -0.140379907050E+03    0.96190E-04   -0.11436E-02 14208   0.481E-01    0.204E-02
DAV:   2    -0.140379912480E+03   -0.54302E-05   -0.99777E-05 15696   0.444E-02    0.143E-02
DAV:   3    -0.140379911617E+03    0.86351E-06   -0.54121E-06 15984   0.111E-02
 114 F= -.14227914E+03 E0= -.14227784E+03  d E =-.303460E-04  mag=     0.0000
 trial-energy change:   -0.000030  1 .order   -0.000029   -0.000035   -0.000024
 step:   0.5211(harm=  0.5211)  dis= 0.00194  next Energy=  -142.279171 (dE=-0.570E-04)
 bond charge predicted
       N       E                     dE             d eps       ncg     rms          rms(c)
DAV:   1    -0.140379640310E+03    0.27217E-03   -0.59006E-02 14208   0.109E+00    0.461E-02
DAV:   2    -0.140379667090E+03   -0.26779E-04   -0.50672E-04 16416   0.994E-02    0.322E-02
DAV:   3    -0.140379663261E+03    0.38288E-05   -0.25672E-05 16368   0.225E-02    0.926E-03
DAV:   4    -0.140379663420E+03   -0.15973E-06   -0.41067E-06 16752   0.106E-02
 115 F= -.14227917E+03 E0= -.14227787E+03  d E =-.597944E-04  mag=    -0.0000
 curvature:  -5.55 expect dE=-0.901E-03 dE for cont linesearch -0.493E-07
 trial: gam= 0.74606 g(F)=  0.162E-03 g(S)=  0.000E+00 ort =-0.643E-05 (trialstep = 0.232E+00)
 search vector abs. value=  0.275E-02
 bond charge predicted
       N       E                     dE             d eps       ncg     rms          rms(c)
DAV:   1    -0.140379568033E+03    0.95228E-04   -0.14775E-02 14208   0.548E-01    0.235E-02
DAV:   2    -0.140379575344E+03   -0.73114E-05   -0.13576E-04 16800   0.521E-02    0.162E-02
DAV:   3    -0.140379573905E+03    0.14389E-05   -0.73608E-06 16416   0.129E-02    0.548E-03
DAV:   4    -0.140379573950E+03   -0.44683E-07   -0.22774E-06 14592   0.842E-03
 116 F= -.14227920E+03 E0= -.14227790E+03  d E =-.274357E-04  mag=     0.0000
 trial-energy change:   -0.000027  1 .order   -0.000026   -0.000036   -0.000015
 step:   0.3993(harm=  0.3993)  dis= 0.00125  next Energy=  -142.279206 (dE=-0.314E-04)
 bond charge predicted
       N       E                     dE             d eps       ncg     rms          rms(c)
DAV:   1    -0.140379492857E+03    0.81048E-04   -0.77522E-03 14208   0.397E-01    0.170E-02
DAV:   2    -0.140379496673E+03   -0.38159E-05   -0.71245E-05 17328   0.377E-02    0.117E-02
DAV:   3    -0.140379495918E+03    0.75453E-06   -0.37589E-06 16368   0.915E-03
 117 F= -.14227921E+03 E0= -.14227790E+03  d E =-.340353E-04  mag=    -0.0000
 curvature:  -3.48 expect dE=-0.501E-03 dE for cont linesearch -0.411E-09
 trial: gam= 0.90454 g(F)=  0.144E-03 g(S)=  0.000E+00 ort =-0.570E-06 (trialstep = 0.265E+00)
 search vector abs. value=  0.239E-02
 bond charge predicted
       N       E                     dE             d eps       ncg     rms          rms(c)
DAV:   1    -0.140379428433E+03    0.68240E-04   -0.16267E-02 14208   0.577E-01    0.240E-02
DAV:   2    -0.140379436657E+03   -0.82243E-05   -0.13488E-04 16128   0.515E-02    0.170E-02
DAV:   3    -0.140379435288E+03    0.13693E-05   -0.71049E-06 16224   0.127E-02    0.487E-03
DAV:   4    -0.140379435440E+03   -0.15148E-06   -0.18896E-06 14304   0.772E-03
 118 F= -.14227924E+03 E0= -.14227794E+03  d E =-.328655E-04  mag=    -0.0000
 trial-energy change:   -0.000033  1 .order   -0.000032   -0.000038   -0.000027
 step:   0.8866(harm=  0.8866)  dis= 0.00235  next Energy=  -142.279272 (dE=-0.636E-04)
 bond charge predicted
       N       E                     dE             d eps       ncg     rms          rms(c)
DAV:   1    -0.140379216259E+03    0.21903E-03   -0.89634E-02 14208   0.135E+00    0.557E-02
DAV:   2    -0.140379259373E+03   -0.43114E-04   -0.73619E-04 18288   0.119E-01    0.395E-02
DAV:   3    -0.140379252265E+03    0.71083E-05   -0.34583E-05 16704   0.251E-02    0.106E-02
DAV:   4    -0.140379252471E+03   -0.20640E-06   -0.50105E-06 15744   0.107E-02
 119 F= -.14227928E+03 E0= -.14227798E+03  d E =-.687932E-04  mag=    -0.0000
 curvature:  -7.39 expect dE=-0.136E-02 dE for cont linesearch -0.256E-07
 trial: gam= 1.19845 g(F)=  0.184E-03 g(S)=  0.000E+00 ort = 0.288E-05 (trialstep = 0.257E+00)
 search vector abs. value=  0.362E-02
 bond charge predicted
       N       E                     dE             d eps       ncg     rms          rms(c)
DAV:   1    -0.140379150083E+03    0.10218E-03   -0.22874E-02 14208   0.682E-01    0.287E-02
DAV:   2    -0.140379161601E+03   -0.11518E-04   -0.19794E-04 15504   0.625E-02    0.202E-02
DAV:   3    -0.140379159713E+03    0.18881E-05   -0.10072E-05 15792   0.150E-02    0.654E-03
DAV:   4    -0.140379159815E+03   -0.10207E-06   -0.24512E-06 14784   0.871E-03
 120 F= -.14227931E+03 E0= -.14227801E+03  d E =-.350015E-04  mag=    -0.0000
 trial-energy change:   -0.000035  1 .order   -0.000033   -0.000048   -0.000019
 step:   0.4180(harm=  0.4180)  dis= 0.00149  next Energy=  -142.279316 (dE=-0.392E-04)
 bond charge predicted
       N       E                     dE             d eps       ncg     rms          rms(c)
DAV:   1    -0.140379082715E+03    0.76998E-04   -0.90087E-03 14208   0.428E-01    0.180E-02
DAV:   2    -0.140379087333E+03   -0.46180E-05   -0.78742E-05 16512   0.397E-02    0.127E-02
DAV:   3    -0.140379086481E+03    0.85182E-06   -0.42612E-06 16224   0.103E-02
 121 F= -.14227932E+03 E0= -.14227802E+03  d E =-.417968E-04  mag=     0.0000
 curvature:  -4.03 expect dE=-0.648E-03 dE for cont linesearch -0.456E-08
 trial: gam= 0.95242 g(F)=  0.161E-03 g(S)=  0.000E+00 ort = 0.202E-05 (trialstep = 0.289E+00)
 search vector abs. value=  0.345E-02
 bond charge predicted
       N       E                     dE             d eps       ncg     rms          rms(c)
DAV:   1    -0.140378974266E+03    0.11307E-03   -0.27146E-02 14208   0.742E-01    0.310E-02
DAV:   2    -0.140378987807E+03   -0.13541E-04   -0.22736E-04 16416   0.666E-02    0.220E-02
DAV:   3    -0.140378985695E+03    0.21127E-05   -0.11670E-05 16320   0.163E-02    0.660E-03
DAV:   4    -0.140378985865E+03   -0.17089E-06   -0.31012E-06 14400   0.997E-03
 122 F= -.14227936E+03 E0= -.14227806E+03  d E =-.376909E-04  mag=     0.0000
 trial-energy change:   -0.000038  1 .order   -0.000036   -0.000047   -0.000025
 step:   0.6314(harm=  0.6314)  dis= 0.00208  next Energy=  -142.279370 (dE=-0.513E-04)
 bond charge predicted
       N       E                     dE             d eps       ncg     rms          rms(c)
DAV:   1    -0.140378824623E+03    0.16107E-03   -0.38171E-02 14208   0.879E-01    0.366E-02
DAV:   2    -0.140378843356E+03   -0.18733E-04   -0.31945E-04 17424   0.787E-02    0.260E-02
DAV:   3    -0.140378840449E+03    0.29067E-05   -0.15427E-05 16704   0.181E-02    0.765E-03
DAV:   4    -0.140378840627E+03   -0.17789E-06   -0.34055E-06 14544   0.102E-02
 123 F= -.14227937E+03 E0= -.14227807E+03  d E =-.560776E-04  mag=     0.0000
 curvature:  -6.70 expect dE=-0.147E-02 dE for cont linesearch -0.276E-07
 trial: gam= 1.27941 g(F)=  0.219E-03 g(S)=  0.000E+00 ort = 0.377E-05 (trialstep = 0.210E+00)
 search vector abs. value=  0.588E-02
 bond charge predicted
       N       E                     dE             d eps       ncg     rms          rms(c)
DAV:   1    -0.140378782232E+03    0.58217E-04   -0.25037E-02 14208   0.715E-01    0.292E-02
DAV:   2    -0.140378795043E+03   -0.12811E-04   -0.20212E-04 16944   0.632E-02    0.210E-02
DAV:   3    -0.140378793076E+03    0.19678E-05   -0.99436E-06 16560   0.155E-02    0.589E-03
DAV:   4    -0.140378793297E+03   -0.22138E-06   -0.31755E-06 14208   0.102E-02
 124 F= -.14227942E+03 E0= -.14227811E+03  d E =-.425675E-04  mag=     0.0000
 trial-energy change:   -0.000043  1 .order   -0.000041   -0.000047   -0.000034
 step:   0.7809(harm=  0.7809)  dis= 0.00352  next Energy=  -142.279462 (dE=-0.875E-04)
 bond charge predicted
       N       E                     dE             d eps       ncg     rms          rms(c)
DAV:   1    -0.140378523290E+03    0.26979E-03   -0.18517E-01 14208   0.195E+00    0.793E-02
DAV:   2    -0.140378613633E+03   -0.90344E-04   -0.14711E-03 18432   0.169E-01    0.568E-02
DAV:   3    -0.140378599764E+03    0.13869E-04   -0.63695E-05 16608   0.346E-02    0.148E-02
DAV:   4    -0.140378600201E+03   -0.43729E-06   -0.91963E-06 15744   0.148E-02
 125 F= -.14227947E+03 E0= -.14227816E+03  d E =-.941546E-04  mag=     0.0000
 curvature: -10.25 expect dE=-0.315E-02 dE for cont linesearch -0.231E-06
 trial: gam= 1.50595 g(F)=  0.307E-03 g(S)=  0.000E+00 ort =-0.115E-04 (trialstep = 0.140E+00)
 search vector abs. value=  0.136E-01
 bond charge predicted
       N       E                     dE             d eps       ncg     rms          rms(c)
DAV:   1    -0.140378540976E+03    0.58788E-04   -0.26321E-02 14208   0.734E-01    0.301E-02
DAV:   2    -0.140378554873E+03   -0.13896E-04   -0.21374E-04 15744   0.654E-02    0.215E-02
DAV:   3    -0.140378552856E+03    0.20163E-05   -0.11157E-05 16128   0.169E-02    0.647E-03
DAV:   4    -0.140378553062E+03   -0.20544E-06   -0.40915E-06 14208   0.116E-02
 126 F= -.14227951E+03 E0= -.14227820E+03  d E =-.367623E-04  mag=     0.0000
 trial-energy change:   -0.000037  1 .order   -0.000034   -0.000041   -0.000027
 step:   0.4279(harm=  0.4279)  dis= 0.00281  next Energy=  -142.279531 (dE=-0.619E-04)
 bond charge predicted
       N       E                     dE             d eps       ncg     rms          rms(c)
DAV:   1    -0.140378361942E+03    0.19091E-03   -0.11086E-01 14208   0.151E+00    0.614E-02
DAV:   2    -0.140378417247E+03   -0.55305E-04   -0.88214E-04 17904   0.131E-01    0.437E-02
DAV:   3    -0.140378408180E+03    0.90674E-05   -0.38516E-05 16704   0.276E-02    0.123E-02
DAV:   4    -0.140378408501E+03   -0.32161E-06   -0.66258E-06 14640   0.133E-02
 127 F= -.14227953E+03 E0= -.14227823E+03  d E =-.645612E-04  mag=     0.0000
 curvature: -10.05 expect dE=-0.297E-02 dE for cont linesearch -0.123E-05
 trial: gam= 1.03109 g(F)=  0.295E-03 g(S)=  0.000E+00 ort =-0.408E-04 (trialstep = 0.183E+00)
 search vector abs. value=  0.147E-01
 bond charge predicted
       N       E                     dE             d eps       ncg     rms          rms(c)
DAV:   1    -0.140378305362E+03    0.10282E-03   -0.48140E-02 14208   0.991E-01    0.404E-02
DAV:   2    -0.140378329991E+03   -0.24629E-04   -0.37560E-04 16176   0.858E-02    0.289E-02
DAV:   3    -0.140378326330E+03    0.36606E-05   -0.17413E-05 16224   0.203E-02    0.839E-03
DAV:   4    -0.140378326579E+03   -0.24862E-06   -0.46522E-06 14208   0.123E-02
 128 F= -.14227958E+03 E0= -.14227827E+03  d E =-.453608E-04  mag=     0.0000
 ZBRENT: can't locate minimum, use default step
 trial-energy change:   -0.000045  1 .order   -0.000041   -0.000046   -0.000036
 step:   0.7328(harm=  0.8205)  dis= 0.00519  next Energy=  -142.279637 (dE=-0.104E-03)
