<?xml version="1.0" encoding="ISO-8859-1"?>
<modeling>
 <generator>
  <i name="program" type="string">vasp </i>
  <i name="version" type="string">6.3.2  </i>
  <i name="subversion" type="string">27Jun22 (build Dec 22 2022 13:13:19) complex                          parallel </i>
  <i name="platform" type="string">LinuxIFC </i>
  <i name="date" type="string">2023 08 23 </i>
  <i name="time" type="string">04:30:49 </i>
 </generator>
 <incar>
  <i type="string" name="SYSTEM">Lattice</i>
  <i type="int" name="ISTART">     0</i>
  <i type="string" name="PREC">Accurate</i>
  <i type="string" name="ALGO">Normal</i>
  <i type="int" name="ISPIN">     2</i>
  <i type="int" name="ICHARG">     2</i>
  <i type="int" name="NELM">    64</i>
  <i type="int" name="IBRION">     2</i>
  <i name="EDIFF">      0.00000100</i>
  <i name="EDIFFG">     -0.00100000</i>
  <i type="int" name="NSW">   128</i>
  <i type="int" name="ISIF">     2</i>
  <i name="ENCUT">    450.00000000</i>
  <i name="POTIM">      0.50000000</i>
  <i type="int" name="ISMEAR">     0</i>
  <i name="SIGMA">      0.10000000</i>
  <i type="logical" name="LWAVE"> F  </i>
  <i type="logical" name="LCHARG"> F  </i>
  <i type="string" name="GGA">PE</i>
  <i type="int" name="IVDW">    12</i>
 </incar>
 <primitive_cell>
  <structure name="primitive_cell" >
   <crystal>
    <varray name="basis" >
     <v>       4.18983090       2.41900000       0.00000000 </v>
     <v>      -4.18983090       2.41900000       0.00000000 </v>
     <v>       0.00000000       0.00000000      15.00000000 </v>
    </varray>
    <i name="volume">    304.05602867 </i>
    <varray name="rec_basis" >
     <v>       0.11933656       0.20669698       0.00000000 </v>
     <v>      -0.11933656       0.20669698       0.00000000 </v>
     <v>       0.00000000       0.00000000       0.06666667 </v>
    </varray>
   </crystal>
   <varray name="positions" >
    <v>       0.00415361       0.00267210       0.12034134 </v>
    <v>       0.35695335       0.00285503       0.09748893 </v>
    <v>       0.00423858       0.35550699       0.09749256 </v>
    <v>       0.65142295       0.65006557       0.09747688 </v>
    <v>       0.32808646       0.32671938       0.10030508 </v>
    <v>       0.68027775       0.00278085       0.10027562 </v>
    <v>       0.00416530       0.67883808       0.10026559 </v>
    <v>       0.08333267       0.41666633       0.33646667 </v>
    <v>       0.24999967       0.24999933       0.33646667 </v>
    <v>       0.08333267       0.91666633       0.33646667 </v>
    <v>       0.24999967       0.74999933       0.33646667 </v>
    <v>       0.58333267       0.41666633       0.33646667 </v>
    <v>       0.74999967       0.24999933       0.33646667 </v>
    <v>       0.58333267       0.91666633       0.33646667 </v>
    <v>       0.74999967       0.74999933       0.33646667 </v>
   </varray>
  </structure>
  <varray name="primitive_index" >
   <v type="int" >        1 </v>
   <v type="int" >        2 </v>
   <v type="int" >        3 </v>
   <v type="int" >        4 </v>
   <v type="int" >        5 </v>
   <v type="int" >        6 </v>
   <v type="int" >        7 </v>
   <v type="int" >        8 </v>
   <v type="int" >        9 </v>
   <v type="int" >       10 </v>
   <v type="int" >       11 </v>
   <v type="int" >       12 </v>
   <v type="int" >       13 </v>
   <v type="int" >       14 </v>
   <v type="int" >       15 </v>
  </varray>
 </primitive_cell>
 <kpoints>
  <generation param="Gamma">
   <v type="int" name="divisions">      12       12        1 </v>
   <v name="usershift">      0.00000000       0.00000000       0.00000000 </v>
   <v name="genvec1">      0.08333333      -0.00000000       0.00000000 </v>
   <v name="genvec2">     -0.00000000       0.08333333       0.00000000 </v>
   <v name="genvec3">      0.00000000       0.00000000       1.00000000 </v>
   <v name="shift">      0.00000000       0.00000000       0.00000000 </v>
  </generation>
  <varray name="kpointlist" >
   <v>       0.00000000       0.00000000       0.00000000 </v>
   <v>       0.08333333      -0.00000000       0.00000000 </v>
   <v>      -0.00000000       0.08333333       0.00000000 </v>
   <v>      -0.08333333       0.08333333       0.00000000 </v>
   <v>       0.16666667       0.00000000       0.00000000 </v>
   <v>       0.00000000       0.16666667       0.00000000 </v>
   <v>      -0.16666667       0.16666667       0.00000000 </v>
   <v>       0.25000000       0.00000000       0.00000000 </v>
   <v>       0.00000000       0.25000000       0.00000000 </v>
   <v>      -0.25000000       0.25000000       0.00000000 </v>
   <v>       0.33333333       0.00000000       0.00000000 </v>
   <v>       0.00000000       0.33333333       0.00000000 </v>
   <v>      -0.33333333       0.33333333       0.00000000 </v>
   <v>       0.41666667       0.00000000       0.00000000 </v>
   <v>      -0.00000000       0.41666667       0.00000000 </v>
   <v>      -0.41666667       0.41666667       0.00000000 </v>
   <v>       0.50000000       0.00000000       0.00000000 </v>
   <v>       0.00000000       0.50000000       0.00000000 </v>
   <v>       0.50000000       0.50000000       0.00000000 </v>
   <v>       0.08333333       0.08333333       0.00000000 </v>
   <v>      -0.08333333       0.16666667       0.00000000 </v>
   <v>      -0.16666667       0.08333333       0.00000000 </v>
   <v>       0.16666667       0.08333333       0.00000000 </v>
   <v>      -0.08333333       0.25000000       0.00000000 </v>
   <v>      -0.25000000       0.16666667       0.00000000 </v>
   <v>      -0.16666667       0.25000000       0.00000000 </v>
   <v>       0.08333333       0.16666667       0.00000000 </v>
   <v>       0.25000000      -0.08333333       0.00000000 </v>
   <v>       0.25000000       0.08333333       0.00000000 </v>
   <v>      -0.08333333       0.33333333       0.00000000 </v>
   <v>      -0.33333333       0.25000000       0.00000000 </v>
   <v>      -0.25000000       0.33333333       0.00000000 </v>
   <v>       0.08333333       0.25000000       0.00000000 </v>
   <v>       0.33333333      -0.08333333       0.00000000 </v>
   <v>       0.33333333       0.08333333       0.00000000 </v>
   <v>      -0.08333333       0.41666667       0.00000000 </v>
   <v>      -0.41666667       0.33333333       0.00000000 </v>
   <v>      -0.33333333       0.41666667       0.00000000 </v>
   <v>       0.08333333       0.33333333       0.00000000 </v>
   <v>       0.41666667      -0.08333333       0.00000000 </v>
   <v>       0.41666667       0.08333333       0.00000000 </v>
   <v>      -0.08333333       0.50000000       0.00000000 </v>
   <v>       0.50000000       0.41666667       0.00000000 </v>
   <v>      -0.41666667       0.50000000       0.00000000 </v>
   <v>       0.08333333       0.41666667       0.00000000 </v>
   <v>       0.50000000      -0.08333333       0.00000000 </v>
   <v>       0.16666667       0.16666667       0.00000000 </v>
   <v>      -0.16666667       0.33333333       0.00000000 </v>
   <v>      -0.33333333       0.16666667       0.00000000 </v>
   <v>       0.25000000       0.16666667       0.00000000 </v>
   <v>      -0.16666667       0.41666667       0.00000000 </v>
   <v>      -0.41666667       0.25000000       0.00000000 </v>
   <v>      -0.25000000       0.41666667       0.00000000 </v>
   <v>       0.16666667       0.25000000       0.00000000 </v>
   <v>       0.41666667      -0.16666667       0.00000000 </v>
   <v>       0.33333333       0.16666667       0.00000000 </v>
   <v>      -0.16666667       0.50000000       0.00000000 </v>
   <v>       0.50000000       0.33333333       0.00000000 </v>
   <v>      -0.33333333       0.50000000       0.00000000 </v>
   <v>       0.16666667       0.33333333       0.00000000 </v>
   <v>       0.50000000      -0.16666667       0.00000000 </v>
   <v>       0.41666667       0.16666667       0.00000000 </v>
   <v>      -0.16666667      -0.41666667       0.00000000 </v>
   <v>       0.41666667       0.41666667       0.00000000 </v>
   <v>       0.25000000       0.25000000       0.00000000 </v>
   <v>      -0.25000000       0.50000000       0.00000000 </v>
   <v>       0.50000000       0.25000000       0.00000000 </v>
   <v>       0.33333333       0.25000000       0.00000000 </v>
   <v>      -0.25000000      -0.41666667       0.00000000 </v>
   <v>       0.41666667       0.33333333       0.00000000 </v>
   <v>      -0.33333333      -0.41666667       0.00000000 </v>
   <v>       0.25000000       0.33333333       0.00000000 </v>
   <v>      -0.41666667      -0.25000000       0.00000000 </v>
   <v>       0.33333333       0.33333333       0.00000000 </v>
  </varray>
  <varray name="weights" >
   <v>       0.00694444 </v>
   <v>       0.01388889 </v>
   <v>       0.01388889 </v>
   <v>       0.01388889 </v>
   <v>       0.01388889 </v>
   <v>       0.01388889 </v>
   <v>       0.01388889 </v>
   <v>       0.01388889 </v>
   <v>       0.01388889 </v>
   <v>       0.01388889 </v>
   <v>       0.01388889 </v>
   <v>       0.01388889 </v>
   <v>       0.01388889 </v>
   <v>       0.01388889 </v>
   <v>       0.01388889 </v>
   <v>       0.01388889 </v>
   <v>       0.00694444 </v>
   <v>       0.00694444 </v>
   <v>       0.00694444 </v>
   <v>       0.01388889 </v>
   <v>       0.01388889 </v>
   <v>       0.01388889 </v>
   <v>       0.01388889 </v>
   <v>       0.01388889 </v>
   <v>       0.01388889 </v>
   <v>       0.01388889 </v>
   <v>       0.01388889 </v>
   <v>       0.01388889 </v>
   <v>       0.01388889 </v>
   <v>       0.01388889 </v>
   <v>       0.01388889 </v>
   <v>       0.01388889 </v>
   <v>       0.01388889 </v>
   <v>       0.01388889 </v>
   <v>       0.01388889 </v>
   <v>       0.01388889 </v>
   <v>       0.01388889 </v>
   <v>       0.01388889 </v>
   <v>       0.01388889 </v>
   <v>       0.01388889 </v>
   <v>       0.01388889 </v>
   <v>       0.01388889 </v>
   <v>       0.01388889 </v>
   <v>       0.01388889 </v>
   <v>       0.01388889 </v>
   <v>       0.01388889 </v>
   <v>       0.01388889 </v>
   <v>       0.01388889 </v>
   <v>       0.01388889 </v>
   <v>       0.01388889 </v>
   <v>       0.01388889 </v>
   <v>       0.01388889 </v>
   <v>       0.01388889 </v>
   <v>       0.01388889 </v>
   <v>       0.01388889 </v>
   <v>       0.01388889 </v>
   <v>       0.01388889 </v>
   <v>       0.01388889 </v>
   <v>       0.01388889 </v>
   <v>       0.01388889 </v>
   <v>       0.01388889 </v>
   <v>       0.01388889 </v>
   <v>       0.01388889 </v>
   <v>       0.01388889 </v>
   <v>       0.01388889 </v>
   <v>       0.01388889 </v>
   <v>       0.01388889 </v>
   <v>       0.01388889 </v>
   <v>       0.01388889 </v>
   <v>       0.01388889 </v>
   <v>       0.01388889 </v>
   <v>       0.01388889 </v>
   <v>       0.01388889 </v>
   <v>       0.01388889 </v>
  </varray>
 </kpoints>
 <parameters>
  <separator name="general" >
   <i type="string" name="SYSTEM">Lattice</i>
   <i type="logical" name="LCOMPAT"> F  </i>
  </separator>
  <separator name="electronic" >
   <i type="string" name="PREC">accura</i>
   <i name="ENMAX">    450.00000000</i>
   <i name="ENAUG">    644.87300000</i>
   <i name="EDIFF">      0.00000100</i>
   <i type="int" name="IALGO">    38</i>
   <i type="int" name="IWAVPR">    11</i>
   <i type="int" name="NBANDS">    48</i>
   <i type="int" name="NBANDSLOW">    -1</i>
   <i type="int" name="NBANDSHIGH">    -1</i>
   <i name="NELECT">     56.00000000</i>
   <i type="int" name="TURBO">     0</i>
   <i type="int" name="IRESTART">     0</i>
   <i type="int" name="NREBOOT">     0</i>
   <i type="int" name="NMIN">     0</i>
   <i name="EREF">      0.00000000</i>
   <separator name="electronic smearing" >
    <i type="int" name="ISMEAR">     0</i>
    <i name="SIGMA">      0.10000000</i>
    <i name="KSPACING">      0.50000000</i>
    <i type="logical" name="KGAMMA"> T  </i>
    <i type="logical" name="KBLOWUP"> T  </i>
   </separator>
   <separator name="electronic projectors" >
    <i type="logical" name="LREAL"> F  </i>
    <v name="ROPT">      0.00000000      0.00000000</v>
    <i type="int" name="LMAXPAW">  -100</i>
    <i type="int" name="LMAXMIX">     2</i>
    <i type="logical" name="NLSPLINE"> F  </i>
   </separator>
   <separator name="electronic startup" >
    <i type="int" name="ISTART">     0</i>
    <i type="int" name="ICHARG">     2</i>
    <i type="int" name="INIWAV">     1</i>
   </separator>
   <separator name="electronic spin" >
    <i type="int" name="ISPIN">     2</i>
    <i type="logical" name="LNONCOLLINEAR"> F  </i>
    <v name="MAGMOM">      1.00000000      1.00000000      1.00000000      1.00000000      1.00000000      1.00000000      1.00000000      1.00000000      1.00000000      1.00000000      1.00000000      1.00000000      1.00000000      1.00000000      1.00000000</v>
    <i name="NUPDOWN">     -1.00000000</i>
    <i type="logical" name="LSORBIT"> F  </i>
    <v name="SAXIS">      0.00000000      0.00000000      1.00000000</v>
    <i type="logical" name="LSPIRAL"> F  </i>
    <v name="QSPIRAL">      0.00000000      0.00000000      0.00000000</v>
    <i type="logical" name="LZEROZ"> F  </i>
   </separator>
   <separator name="electronic exchange-correlation" >
    <i type="logical" name="LASPH"> F  </i>
    <i type="logical" name="LMETAGGA"> F  </i>
   </separator>
   <separator name="electronic convergence" >
    <i type="int" name="NELM">    64</i>
    <i type="int" name="NELMDL">    -5</i>
    <i type="int" name="NELMIN">     2</i>
    <i name="ENINI">    450.00000000</i>
    <separator name="electronic convergence detail" >
     <i type="logical" name="LDIAG"> T  </i>
     <i type="logical" name="LSUBROT"> F  </i>
     <i name="WEIMIN">      0.00100000</i>
     <i name="EBREAK">      0.00000001</i>
     <i name="DEPER">      0.30000000</i>
     <i type="int" name="NRMM">     4</i>
     <i name="TIME">      0.40000000</i>
    </separator>
   </separator>
   <separator name="electronic mixer" >
    <i name="AMIX">      0.40000000</i>
    <i name="BMIX">      1.00000000</i>
    <i name="AMIN">      0.10000000</i>
    <i name="AMIX_MAG">      1.60000000</i>
    <i name="BMIX_MAG">      1.00000000</i>
    <separator name="electronic mixer details" >
     <i type="int" name="IMIX">     4</i>
     <i type="logical" name="MIXFIRST"> F  </i>
     <i type="int" name="MAXMIX">   -45</i>
     <i name="WC">    100.00000000</i>
     <i type="int" name="INIMIX">     1</i>
     <i type="int" name="MIXPRE">     1</i>
     <i type="int" name="MREMOVE">     5</i>
    </separator>
   </separator>
   <separator name="electronic dipolcorrection" >
    <i type="logical" name="LDIPOL"> F  </i>
    <i type="logical" name="LMONO"> F  </i>
    <i type="int" name="IDIPOL">     0</i>
    <i name="EPSILON">      1.00000000</i>
    <v name="DIPOL">   -100.00000000   -100.00000000   -100.00000000</v>
    <i name="EFIELD">      0.00000000</i>
   </separator>
  </separator>
  <separator name="grids" >
   <i type="int" name="NGX">    36</i>
   <i type="int" name="NGY">    36</i>
   <i type="int" name="NGZ">   108</i>
   <i type="int" name="NGXF">    72</i>
   <i type="int" name="NGYF">    72</i>
   <i type="int" name="NGZF">   216</i>
   <i type="logical" name="ADDGRID"> F  </i>
  </separator>
  <separator name="ionic" >
   <i type="int" name="NSW">   128</i>
   <i type="int" name="IBRION">     2</i>
   <i type="int" name="MDALGO">     0</i>
   <i type="int" name="ISIF">     2</i>
   <i name="PSTRESS">      0.00000000</i>
   <i name="EDIFFG">     -0.00100000</i>
   <i type="int" name="NFREE">     1</i>
   <i name="POTIM">      0.50000000</i>
   <i name="SMASS">     -3.00000000</i>
   <i name="SCALEE">      1.00000000</i>
  </separator>
  <separator name="ionic md" >
   <i name="TEBEG">      0.00010000</i>
   <i name="TEEND">      0.00010000</i>
   <i type="int" name="NBLOCK">     1</i>
   <i type="int" name="KBLOCK">   128</i>
   <i type="int" name="NPACO">   256</i>
   <i name="APACO">     10.00000000</i>
  </separator>
  <separator name="symmetry" >
   <i type="int" name="ISYM">     2</i>
   <i name="SYMPREC">      0.00001000</i>
  </separator>
  <separator name="dos" >
   <i type="int" name="LORBIT">     0</i>
   <v name="RWIGS">     -1.00000000     -1.00000000</v>
   <i type="int" name="NEDOS">   301</i>
   <i name="EMIN">     10.00000000</i>
   <i name="EMAX">    -10.00000000</i>
   <i name="EFERMI">      0.00000000</i>
  </separator>
  <separator name="writing" >
   <i type="int" name="NWRITE">     2</i>
   <i type="logical" name="LWAVE"> F  </i>
   <i type="logical" name="LDOWNSAMPLE"> F  </i>
   <i type="logical" name="LCHARG"> F  </i>
   <i type="logical" name="LPARD"> F  </i>
   <i type="logical" name="LVTOT"> F  </i>
   <i type="logical" name="LVHAR"> F  </i>
   <i type="logical" name="LELF"> F  </i>
   <i type="logical" name="LOPTICS"> F  </i>
   <v name="STM">      0.00000000      0.00000000      0.00000000      0.00000000      0.00000000      0.00000000      0.00000000</v>
  </separator>
  <separator name="performance" >
   <i type="int" name="NPAR">    48</i>
   <i type="int" name="NSIM">     4</i>
   <i type="int" name="NBLK">    -1</i>
   <i type="logical" name="LPLANE"> T  </i>
   <i type="logical" name="LSCALAPACK"> T  </i>
   <i type="logical" name="LSCAAWARE"> F  </i>
   <i type="logical" name="LSCALU"> F  </i>
   <i type="logical" name="LASYNC"> F  </i>
   <i type="logical" name="LORBITALREAL"> F  </i>
  </separator>
  <separator name="miscellaneous" >
   <i type="int" name="IDIOT">     3</i>
   <i type="int" name="PHON_NSTRUCT">    -1</i>
   <i type="logical" name="LMUSIC"> F  </i>
   <v name="POMASS">     10.81100000     12.01100000</v>
   <v name="DARWINR">      0.00000000      0.00000000</v>
   <v name="DARWINV">      1.00000000      1.00000000</v>
   <i type="logical" name="LCORR"> T  </i>
  </separator>
  <i type="logical" name="GGA_COMPAT"> T  </i>
  <i type="logical" name="LBERRY"> F  </i>
  <i type="int" name="ICORELEVEL">     0</i>
  <i type="logical" name="LDAU"> F  </i>
  <i type="int" name="I_CONSTRAINED_M">     0</i>
  <separator name="electronic exchange-correlation" >
   <i type="string" name="GGA">PE</i>
   <i type="int" name="VOSKOWN">     0</i>
   <i type="logical" name="LHFCALC"> F  </i>
   <i type="string" name="PRECFOCK"></i>
   <i type="logical" name="LSYMGRAD"> F  </i>
   <i type="logical" name="LHFONE"> F  </i>
   <i type="logical" name="LRHFCALC"> F  </i>
   <i type="logical" name="LTHOMAS"> F  </i>
   <i type="logical" name="LMODELHF"> F  </i>
   <i type="logical" name="LFOCKACE"> F  </i>
   <i name="ENCUT4O">     -1.00000000</i>
   <i type="int" name="EXXOEP">     0</i>
   <i type="int" name="FOURORBIT">     0</i>
   <i name="AEXX">      0.00000000</i>
   <i name="HFALPHA">      0.00000000</i>
   <i name="MCALPHA">      0.00000000</i>
   <i name="ALDAX">      1.00000000</i>
   <i name="AGGAX">      1.00000000</i>
   <i name="ALDAC">      1.00000000</i>
   <i name="AGGAC">      1.00000000</i>
   <i type="int" name="NKREDX">     1</i>
   <i type="int" name="NKREDY">     1</i>
   <i type="int" name="NKREDZ">     1</i>
   <i type="logical" name="SHIFTRED"> F  </i>
   <i type="logical" name="ODDONLY"> F  </i>
   <i type="logical" name="EVENONLY"> F  </i>
   <i type="int" name="LMAXFOCK">     0</i>
   <i type="int" name="NMAXFOCKAE">     0</i>
   <i type="logical" name="LFOCKAEDFT"> F  </i>
   <i name="HFSCREEN">      0.00000000</i>
   <i name="HFSCREENC">      0.00000000</i>
   <i type="int" name="NBANDSGWLOW">     0</i>
  </separator>
  <separator name="vdW DFT" >
   <i type="logical" name="LUSE_VDW"> F  </i>
   <i name="Zab_VDW">     -0.84910000</i>
   <i name="PARAM1">      0.12340000</i>
   <i name="PARAM2">      1.00000000</i>
   <i name="PARAM3">      0.00000000</i>
  </separator>
  <separator name="model GW" >
   <i type="int" name="MODEL_GW">     0</i>
   <i name="MODEL_EPS0">     12.16224115</i>
   <i name="MODEL_ALPHA">      1.00000000</i>
  </separator>
  <separator name="linear response parameters" >
   <i type="logical" name="LEPSILON"> F  </i>
   <i type="logical" name="LRPA"> F  </i>
   <i type="logical" name="LNABLA"> F  </i>
   <i type="logical" name="LVEL"> F  </i>
   <i name="CSHIFT">      0.10000000</i>
   <i name="OMEGAMAX">     -1.00000000</i>
   <i name="DEG_THRESHOLD">      0.00200000</i>
   <i name="RTIME">     -0.10000000</i>
   <i name="WPLASMAI">      0.00000000</i>
   <v name="DFIELD">      0.00000000      0.00000000      0.00000000</v>
   <v name="WPLASMA">      0.00000000      0.00000000      0.00000000      0.00000000      0.00000000      0.00000000      0.00000000      0.00000000      0.00000000</v>
  </separator>
  <separator name="orbital magnetization" >
   <i type="logical" name="NUCIND"> F  </i>
   <v name="MAGPOS">      0.00000000      0.00000000      0.00000000</v>
   <i type="logical" name="LNICSALL"> T  </i>
   <i type="logical" name="ORBITALMAG"> F  </i>
   <i type="logical" name="LMAGBLOCH"> F  </i>
   <i type="logical" name="LCHIMAG"> F  </i>
   <i type="logical" name="LGAUGE"> T  </i>
   <i type="int" name="MAGATOM">     0</i>
   <v name="MAGDIPOL">      0.00000000      0.00000000      0.00000000</v>
   <v name="AVECCONST">      0.00000000      0.00000000      0.00000000</v>
  </separator>
  <separator name="response functions" >
   <i type="logical" name="LFINITE_TEMPERATURE"> F  </i>
   <i type="logical" name="LADDER"> F  </i>
   <i type="logical" name="LRPAFORCE"> F  </i>
   <i type="logical" name="LFXC"> F  </i>
   <i type="logical" name="LHARTREE"> T  </i>
   <i type="int" name="IBSE">     0</i>
   <v type="int" name="KPOINT">    -1     0     0     0</v>
   <i type="logical" name="LTCTC"> F  </i>
   <i type="logical" name="LTCTE"> F  </i>
   <i type="logical" name="LTETE"> F  </i>
   <i type="logical" name="LTRIPLET"> F  </i>
   <i type="logical" name="LFXCEPS"> F  </i>
   <i type="logical" name="LFXHEG"> F  </i>
   <i type="int" name="NATURALO">     2</i>
   <i type="logical" name="LHOLEGF"> F  </i>
   <i type="logical" name="L2ORDER"> F  </i>
   <i type="logical" name="LDMP1"> F  </i>
   <i type="logical" name="LMP2LT"> F  </i>
   <i type="logical" name="LSMP2LT"> F  </i>
   <i type="logical" name="LGWLF"> F  </i>
   <i name="ENCUTGW">     -2.00000000</i>
   <i name="ENCUTGWSOFT">     -2.00000000</i>
   <i name="ENCUTLF">     -1.00000000</i>
   <i type="logical" name="LESF_SPLINES"> F  </i>
   <i type="int" name="LMAXMP2">    -1</i>
   <i name="SCISSOR">      0.00000000</i>
   <i type="int" name="NOMEGA">     0</i>
   <i type="int" name="NOMEGAR">     0</i>
   <i type="int" name="NBANDSGW">    -1</i>
   <i type="int" name="NBANDSO">    -1</i>
   <i type="int" name="NBANDSV">    -1</i>
   <i type="int" name="NELMGW">     1</i>
   <i type="int" name="NELMHF">     1</i>
   <i type="int" name="DIM">     3</i>
   <i type="int" name="IESPILON">     4</i>
   <i type="int" name="ANTIRES">     0</i>
   <i name="OMEGAMAX">    -30.00000000</i>
   <i name="OMEGAMIN">    -30.00000000</i>
   <i name="OMEGATL">   -200.00000000</i>
   <i type="int" name="OMEGAGRID">     0</i>
   <i name="CSHIFT">     -0.10000000</i>
   <i type="logical" name="LSELFENERGY"> F  </i>
   <i type="logical" name="LSPECTRAL"> F  </i>
   <i type="logical" name="LSPECTRALGW"> F  </i>
   <i type="logical" name="LSINGLES"> F  </i>
   <i type="logical" name="LFERMIGW"> F  </i>
   <i type="logical" name="ODDONLYGW"> F  </i>
   <i type="logical" name="EVENONLYGW"> F  </i>
   <i type="int" name="NKREDLFX">     1</i>
   <i type="int" name="NKREDLFY">     1</i>
   <i type="int" name="NKREDLFZ">     1</i>
   <i type="int" name="MAXMEM">  2800</i>
   <i type="int" name="TELESCOPE">     0</i>
   <i type="int" name="NTAUPAR">    -1</i>
   <i type="int" name="NOMEGAPAR">    -1</i>
   <i name="DAMP_NEWTON">      0.80000001</i>
   <i name="LAMBDA">      1.00000000</i>
  </separator>
  <separator name="External order field" >
   <i name="OFIELD_KAPPA">      0.00000000</i>
   <v name="OFIELD_K">      0.00000000      0.00000000      0.00000000</v>
   <i name="OFIELD_Q6_NEAR">      0.00000000</i>
   <i name="OFIELD_Q6_FAR">      0.00000000</i>
   <i name="OFIELD_A">      0.00000000</i>
  </separator>
  <separator name="optional k-points parameters" >
   <i type="int" name="KPOINTS_OPT_MODE">     1</i>
   <i type="logical" name="LKPOINTS_OPT"> F  </i>
  </separator>
  <separator name="solvation model" >
   <i type="logical" name="LSOL"> F  </i>
  </separator>
 </parameters>
 <atominfo>
  <atoms>      15 </atoms>
  <types>       2 </types>
  <array name="atoms" >
   <dimension dim="1">ion</dimension>
   <field type="string">element</field>
   <field type="int">atomtype</field>
   <set>
    <rc><c>B </c><c>   1</c></rc>
    <rc><c>B </c><c>   1</c></rc>
    <rc><c>B </c><c>   1</c></rc>
    <rc><c>B </c><c>   1</c></rc>
    <rc><c>C </c><c>   2</c></rc>
    <rc><c>C </c><c>   2</c></rc>
    <rc><c>C </c><c>   2</c></rc>
    <rc><c>C </c><c>   2</c></rc>
    <rc><c>C </c><c>   2</c></rc>
    <rc><c>C </c><c>   2</c></rc>
    <rc><c>C </c><c>   2</c></rc>
    <rc><c>C </c><c>   2</c></rc>
    <rc><c>C </c><c>   2</c></rc>
    <rc><c>C </c><c>   2</c></rc>
    <rc><c>C </c><c>   2</c></rc>
   </set>
  </array>
  <array name="atomtypes" >
   <dimension dim="1">type</dimension>
   <field type="int">atomspertype</field>
   <field type="string">element</field>
   <field>mass</field>
   <field>valence</field>
   <field type="string">pseudopotential</field>
   <set>
    <rc><c>   4</c><c>B </c><c>     10.81100000</c><c>      3.00000000</c><c>  PAW_PBE B 06Sep2000                   </c></rc>
    <rc><c>  11</c><c>C </c><c>     12.01100000</c><c>      4.00000000</c><c>  PAW_PBE C 08Apr2002                   </c></rc>
   </set>
  </array>
 </atominfo>
 <structure name="initialpos" >
  <crystal>
   <varray name="basis" >
    <v>       4.18983090       2.41900000       0.00000000 </v>
    <v>      -4.18983090       2.41900000       0.00000000 </v>
    <v>       0.00000000       0.00000000      15.00000000 </v>
   </varray>
   <i name="volume">    304.05602867 </i>
   <varray name="rec_basis" >
    <v>       0.11933656       0.20669698       0.00000000 </v>
    <v>      -0.11933656       0.20669698       0.00000000 </v>
    <v>       0.00000000       0.00000000       0.06666667 </v>
   </varray>
  </crystal>
  <varray name="positions" >
   <v>       0.00415361       0.00267210       0.12034134 </v>
   <v>       0.35695335       0.00285503       0.09748893 </v>
   <v>       0.00423858       0.35550699       0.09749256 </v>
   <v>       0.65142295       0.65006557       0.09747688 </v>
   <v>       0.32808646       0.32671938       0.10030508 </v>
   <v>       0.68027775       0.00278085       0.10027562 </v>
   <v>       0.00416530       0.67883808       0.10026559 </v>
   <v>       0.08333267       0.41666633       0.33646667 </v>
   <v>       0.24999967       0.24999933       0.33646667 </v>
   <v>       0.08333267       0.91666633       0.33646667 </v>
   <v>       0.24999967       0.74999933       0.33646667 </v>
   <v>       0.58333267       0.41666633       0.33646667 </v>
   <v>       0.74999967       0.24999933       0.33646667 </v>
   <v>       0.58333267       0.91666633       0.33646667 </v>
   <v>       0.74999967       0.74999933       0.33646667 </v>
  </varray>
 </structure>
 <calculation>
  <scstep>
   <time name="dav">    5.46    5.53</time>
   <time name="total">    5.51    5.58</time>
   <energy>
    <i name="alphaZ">     58.50005645 </i>
    <i name="ewald">   4729.03220767 </i>
    <i name="hartreedc">  -6284.08780320 </i>
    <i name="XCdc">    175.25345059 </i>
    <i name="pawpsdc">   1365.87943566 </i>
    <i name="pawaedc">  -1368.52100941 </i>
    <i name="eentropy">     -0.02034746 </i>
    <i name="bandstr">   -376.47824272 </i>
    <i name="atom">   1903.26342058 </i>
    <i name="e_fr_energy">    202.82116816 </i>
    <i name="e_wo_entrp">    202.84151562 </i>
    <i name="e_0_energy">    202.83134189 </i>
   </energy>
  </scstep>
  <scstep>
   <time name="dav">    8.03    8.11</time>
   <time name="total">    8.03    8.11</time>
   <energy>
    <i name="e_fr_energy">   -116.98439699 </i>
    <i name="e_wo_entrp">   -116.98338250 </i>
    <i name="e_0_energy">   -116.98388974 </i>
   </energy>
  </scstep>
  <scstep>
   <time name="dav">   11.28   11.37</time>
   <time name="total">   11.28   11.37</time>
   <energy>
    <i name="e_fr_energy">   -129.50314065 </i>
    <i name="e_wo_entrp">   -129.50007440 </i>
    <i name="e_0_energy">   -129.50160753 </i>
   </energy>
  </scstep>
  <scstep>
   <time name="dav">    8.25    8.33</time>
   <time name="total">    8.25    8.33</time>
   <energy>
    <i name="e_fr_energy">   -129.52583892 </i>
    <i name="e_wo_entrp">   -129.52273927 </i>
    <i name="e_0_energy">   -129.52428909 </i>
   </energy>
  </scstep>
  <scstep>
   <time name="dav">   10.71   10.78</time>
   <time name="total">   10.98   11.07</time>
   <energy>
    <i name="e_fr_energy">   -129.52589577 </i>
    <i name="e_wo_entrp">   -129.52279605 </i>
    <i name="e_0_energy">   -129.52434591 </i>
   </energy>
  </scstep>
  <scstep>
   <time name="dav">   10.79   10.87</time>
   <time name="total">   11.09   11.18</time>
   <energy>
    <i name="e_fr_energy">    -92.05162196 </i>
    <i name="e_wo_entrp">    -92.04540087 </i>
    <i name="e_0_energy">    -92.04851142 </i>
   </energy>
  </scstep>
  <scstep>
   <time name="dav">    9.08    9.16</time>
   <time name="total">    9.38    9.47</time>
   <energy>
    <i name="e_fr_energy">   -100.51556341 </i>
    <i name="e_wo_entrp">   -100.50999386 </i>
    <i name="e_0_energy">   -100.51277863 </i>
   </energy>
  </scstep>
  <scstep>
   <time name="dav">    9.92    9.99</time>
   <time name="total">   10.21   10.29</time>
   <energy>
    <i name="e_fr_energy">   -110.40364647 </i>
    <i name="e_wo_entrp">   -110.40362116 </i>
    <i name="e_0_energy">   -110.40363381 </i>
   </energy>
  </scstep>
  <scstep>
   <time name="dav">    7.91    7.98</time>
   <time name="total">    8.21    8.28</time>
   <energy>
    <i name="e_fr_energy">   -117.17336906 </i>
    <i name="e_wo_entrp">   -117.17336539 </i>
    <i name="e_0_energy">   -117.17336722 </i>
   </energy>
  </scstep>
  <scstep>
   <time name="dav">   10.07   10.14</time>
   <time name="total">   10.38   10.46</time>
   <energy>
    <i name="e_fr_energy">   -123.46733257 </i>
    <i name="e_wo_entrp">   -123.46673526 </i>
    <i name="e_0_energy">   -123.46703391 </i>
   </energy>
  </scstep>
  <scstep>
   <time name="dav">   10.28   10.35</time>
   <time name="total">   10.57   10.65</time>
   <energy>
    <i name="e_fr_energy">   -125.27961501 </i>
    <i name="e_wo_entrp">   -125.27841899 </i>
    <i name="e_0_energy">   -125.27901700 </i>
   </energy>
  </scstep>
  <scstep>
   <time name="dav">    7.77    7.83</time>
   <time name="total">    8.06    8.13</time>
   <energy>
    <i name="e_fr_energy">   -125.43872648 </i>
    <i name="e_wo_entrp">   -125.43724269 </i>
    <i name="e_0_energy">   -125.43798458 </i>
   </energy>
  </scstep>
  <scstep>
   <time name="dav">    6.81    6.86</time>
   <time name="total">    7.10    7.16</time>
   <energy>
    <i name="e_fr_energy">   -125.46576562 </i>
    <i name="e_wo_entrp">   -125.46421254 </i>
    <i name="e_0_energy">   -125.46498908 </i>
   </energy>
  </scstep>
  <scstep>
   <time name="dav">    8.45    8.50</time>
   <time name="total">    8.73    8.80</time>
   <energy>
    <i name="e_fr_energy">   -125.48797070 </i>
    <i name="e_wo_entrp">   -125.48641261 </i>
    <i name="e_0_energy">   -125.48719165 </i>
   </energy>
  </scstep>
  <scstep>
   <time name="dav">    7.53    7.58</time>
   <time name="total">    7.82    7.88</time>
   <energy>
    <i name="e_fr_energy">   -125.49546160 </i>
    <i name="e_wo_entrp">   -125.49390280 </i>
    <i name="e_0_energy">   -125.49468220 </i>
   </energy>
  </scstep>
  <scstep>
   <time name="dav">    6.82    6.87</time>
   <time name="total">    7.11    7.16</time>
   <energy>
    <i name="e_fr_energy">   -125.49743399 </i>
    <i name="e_wo_entrp">   -125.49587518 </i>
    <i name="e_0_energy">   -125.49665459 </i>
   </energy>
  </scstep>
  <scstep>
   <time name="dav">    5.63    5.67</time>
   <time name="total">    5.92    5.97</time>
   <energy>
    <i name="e_fr_energy">   -125.49868950 </i>
    <i name="e_wo_entrp">   -125.49713071 </i>
    <i name="e_0_energy">   -125.49791011 </i>
   </energy>
  </scstep>
  <scstep>
   <time name="dav">    6.57    6.61</time>
   <time name="total">    6.86    6.91</time>
   <energy>
    <i name="e_fr_energy">   -125.49941625 </i>
    <i name="e_wo_entrp">   -125.49785747 </i>
    <i name="e_0_energy">   -125.49863686 </i>
   </energy>
  </scstep>
  <scstep>
   <time name="dav">    7.52    7.57</time>
   <time name="total">    7.81    7.88</time>
   <energy>
    <i name="e_fr_energy">   -125.49984577 </i>
    <i name="e_wo_entrp">   -125.49828698 </i>
    <i name="e_0_energy">   -125.49906637 </i>
   </energy>
  </scstep>
  <scstep>
   <time name="dav">    9.12    9.19</time>
   <time name="total">    9.41    9.49</time>
   <energy>
    <i name="e_fr_energy">   -125.49989625 </i>
    <i name="e_wo_entrp">   -125.49833746 </i>
    <i name="e_0_energy">   -125.49911685 </i>
   </energy>
  </scstep>
  <scstep>
   <time name="dav">    8.03    8.08</time>
   <time name="total">    8.32    8.39</time>
   <energy>
    <i name="e_fr_energy">   -125.49991803 </i>
    <i name="e_wo_entrp">   -125.49835924 </i>
    <i name="e_0_energy">   -125.49913863 </i>
   </energy>
  </scstep>
  <scstep>
   <time name="dav">    9.00    9.06</time>
   <time name="total">    9.30    9.38</time>
   <energy>
    <i name="e_fr_energy">   -125.49994001 </i>
    <i name="e_wo_entrp">   -125.49838121 </i>
    <i name="e_0_energy">   -125.49916061 </i>
   </energy>
  </scstep>
  <scstep>
   <time name="dav">    8.67    8.74</time>
   <time name="total">    8.96    9.04</time>
   <energy>
    <i name="e_fr_energy">   -125.49995492 </i>
    <i name="e_wo_entrp">   -125.49839612 </i>
    <i name="e_0_energy">   -125.49917552 </i>
   </energy>
  </scstep>
  <scstep>
   <time name="dav">    9.51    9.58</time>
   <time name="total">    9.80    9.88</time>
   <energy>
    <i name="e_fr_energy">   -125.49995783 </i>
    <i name="e_wo_entrp">   -125.49839903 </i>
    <i name="e_0_energy">   -125.49917843 </i>
   </energy>
  </scstep>
  <scstep>
   <time name="dav">    9.14    9.21</time>
   <time name="total">    9.18    9.24</time>
   <energy>
    <i name="alphaZ">     58.50005645 </i>
    <i name="ewald">   4729.03220767 </i>
    <i name="hartreedc">  -6487.34607192 </i>
    <i name="XCdc">    180.68049366 </i>
    <i name="pawpsdc">   5782.17274305 </i>
    <i name="pawaedc">  -5786.60187944 </i>
    <i name="eentropy">     -0.00155880 </i>
    <i name="bandstr">   -505.19937001 </i>
    <i name="atom">   1903.26342058 </i>
    <i name="e_fr_energy">   -125.49995877 </i>
    <i name="e_wo_entrp">   -125.49839997 </i>
    <i name="e_0_energy">   -125.49917937 </i>
   </energy>
  </scstep>
  <structure>
   <crystal>
    <varray name="basis" >
     <v>       4.18983090       2.41900000       0.00000000 </v>
     <v>      -4.18983090       2.41900000       0.00000000 </v>
     <v>       0.00000000       0.00000000      15.00000000 </v>
    </varray>
    <i name="volume">    304.05602867 </i>
    <varray name="rec_basis" >
     <v>       0.11933656       0.20669698       0.00000000 </v>
     <v>      -0.11933656       0.20669698       0.00000000 </v>
     <v>       0.00000000       0.00000000       0.06666667 </v>
    </varray>
   </crystal>
   <varray name="positions" >
    <v>       0.00415361       0.00267210       0.12034134 </v>
    <v>       0.35695335       0.00285503       0.09748893 </v>
    <v>       0.00423858       0.35550699       0.09749256 </v>
    <v>       0.65142295       0.65006557       0.09747688 </v>
    <v>       0.32808646       0.32671938       0.10030508 </v>
    <v>       0.68027775       0.00278085       0.10027562 </v>
    <v>       0.00416530       0.67883808       0.10026559 </v>
    <v>       0.08333267       0.41666633       0.33646667 </v>
    <v>       0.24999967       0.24999933       0.33646667 </v>
    <v>       0.08333267       0.91666633       0.33646667 </v>
    <v>       0.24999967       0.74999933       0.33646667 </v>
    <v>       0.58333267       0.41666633       0.33646667 </v>
    <v>       0.74999967       0.24999933       0.33646667 </v>
    <v>       0.58333267       0.91666633       0.33646667 </v>
    <v>       0.74999967       0.74999933       0.33646667 </v>
   </varray>
  </structure>
  <varray name="forces" >
   <v>      -0.00092629      -0.00048555      -0.36295406 </v>
   <v>      -0.10243159      -0.06176565       0.09694134 </v>
   <v>       0.07827581      -0.05522370       0.11475065 </v>
   <v>       0.01386672       0.10476817       0.11057009 </v>
   <v>       0.02021741      -0.32741109      -0.00172527 </v>
   <v>       0.29955147       0.18050090       0.01508278 </v>
   <v>      -0.27670693       0.16052767       0.00315035 </v>
   <v>      -0.01113342       0.00491211      -0.00122452 </v>
   <v>      -0.00754107       0.02230778       0.02870702 </v>
   <v>       0.00327482       0.01469092      -0.00500404 </v>
   <v>       0.02961770       0.01278565      -0.00958039 </v>
   <v>      -0.00237092      -0.00349276      -0.01414296 </v>
   <v>      -0.00601530      -0.00321960      -0.00174648 </v>
   <v>      -0.01666387      -0.01456128       0.02159693 </v>
   <v>      -0.02101456      -0.03433356       0.00557855 </v>
  </varray>
  <varray name="stress" >
   <v>       1.78451681       0.08520706      -0.59359636 </v>
   <v>       0.08520709       1.55682091      -0.01914937 </v>
   <v>      -0.59359637      -0.01914935      -2.32256666 </v>
  </varray>
  <energy>
   <i name="e_fr_energy">   -127.09203145 </i>
   <i name="e_wo_entrp">   -127.09047265 </i>
   <i name="e_0_energy">   -127.09125205 </i>
  </energy>
  <time name="totalsc">  222.95  224.84</time>
 </calculation>
 <calculation>
  <scstep>
   <time name="dav">    5.45    5.50</time>
   <time name="total">    5.75    5.80</time>
   <energy>
    <i name="alphaZ">     58.50005645 </i>
    <i name="ewald">   4732.53355836 </i>
    <i name="hartreedc">  -6489.53444002 </i>
    <i name="XCdc">    180.75629727 </i>
    <i name="pawpsdc">   5782.20275240 </i>
    <i name="pawaedc">  -5786.63188701 </i>
    <i name="eentropy">     -0.00155609 </i>
    <i name="bandstr">   -506.59637260 </i>
    <i name="atom">   1903.26342058 </i>
    <i name="e_fr_energy">   -125.50817067 </i>
    <i name="e_wo_entrp">   -125.50661458 </i>
    <i name="e_0_energy">   -125.50739263 </i>
   </energy>
  </scstep>
  <scstep>
   <time name="dav">   10.76   10.84</time>
   <time name="total">   11.04   11.13</time>
   <energy>
    <i name="e_fr_energy">   -125.50049574 </i>
    <i name="e_wo_entrp">   -125.49893933 </i>
    <i name="e_0_energy">   -125.49971754 </i>
   </energy>
  </scstep>
  <scstep>
   <time name="dav">    8.61    8.67</time>
   <time name="total">    8.90    8.97</time>
   <energy>
    <i name="e_fr_energy">   -125.49962973 </i>
    <i name="e_wo_entrp">   -125.49807317 </i>
    <i name="e_0_energy">   -125.49885145 </i>
   </energy>
  </scstep>
  <scstep>
   <time name="dav">   11.18   11.26</time>
   <time name="total">   11.47   11.56</time>
   <energy>
    <i name="e_fr_energy">   -125.49959213 </i>
    <i name="e_wo_entrp">   -125.49803556 </i>
    <i name="e_0_energy">   -125.49881385 </i>
   </energy>
  </scstep>
  <scstep>
   <time name="dav">   10.32   10.39</time>
   <time name="total">   10.61   10.69</time>
   <energy>
    <i name="e_fr_energy">   -125.49959497 </i>
    <i name="e_wo_entrp">   -125.49803841 </i>
    <i name="e_0_energy">   -125.49881669 </i>
   </energy>
  </scstep>
  <scstep>
   <time name="dav">    9.19    9.25</time>
   <time name="total">    9.22    9.28</time>
   <energy>
    <i name="alphaZ">     58.50005645 </i>
    <i name="ewald">   4732.53355836 </i>
    <i name="hartreedc">  -6490.22688949 </i>
    <i name="XCdc">    180.77174364 </i>
    <i name="pawpsdc">   5807.27485260 </i>
    <i name="pawaedc">  -5811.71207888 </i>
    <i name="eentropy">     -0.00155656 </i>
    <i name="bandstr">   -505.90270166 </i>
    <i name="atom">   1903.26342058 </i>
    <i name="e_fr_energy">   -125.49959496 </i>
    <i name="e_wo_entrp">   -125.49803841 </i>
    <i name="e_0_energy">   -125.49881668 </i>
   </energy>
  </scstep>
  <structure>
   <crystal>
    <varray name="basis" >
     <v>       4.18983090       2.41900000       0.00000000 </v>
     <v>      -4.18983090       2.41900000       0.00000000 </v>
     <v>       0.00000000       0.00000000      15.00000000 </v>
    </varray>
    <i name="volume">    304.05602867 </i>
    <varray name="rec_basis" >
     <v>       0.11933656       0.20669698       0.00000000 </v>
     <v>      -0.11933656       0.20669698       0.00000000 </v>
     <v>       0.00000000       0.00000000       0.06666667 </v>
    </varray>
   </crystal>
   <varray name="positions" >
    <v>       0.00414343       0.00267259       0.11917401 </v>
    <v>       0.35574774       0.00282884       0.09780071 </v>
    <v>       0.00413855       0.35450568       0.09786162 </v>
    <v>       0.65254749       0.65103045       0.09783249 </v>
    <v>       0.32493804       0.32333817       0.10029953 </v>
    <v>       0.68380218       0.00285619       0.10032413 </v>
    <v>       0.00417299       0.68203183       0.10027572 </v>
    <v>       0.08331755       0.41677941       0.33646273 </v>
    <v>       0.25017870       0.25026519       0.33655899 </v>
    <v>       0.08349801       0.91679397       0.33645057 </v>
    <v>       0.25029767       0.74995631       0.33643585 </v>
    <v>       0.58328419       0.41664515       0.33642118 </v>
    <v>       0.74993293       0.25000186       0.33646105 </v>
    <v>       0.58309153       0.91661707       0.33653613 </v>
    <v>       0.74953632       0.74977796       0.33648461 </v>
   </varray>
  </structure>
  <varray name="forces" >
   <v>      -0.00247716       0.00431267      -0.15295994 </v>
   <v>       0.25800492       0.14480786       0.05380438 </v>
   <v>      -0.21337598       0.13247961       0.06652056 </v>
   <v>       0.01175799      -0.26589096       0.06288906 </v>
   <v>       0.00073334       0.54071326      -0.02243303 </v>
   <v>      -0.49045224      -0.28748073      -0.01274777 </v>
   <v>       0.46735699      -0.26823554      -0.01951170 </v>
   <v>       0.02249456      -0.02008493       0.00372436 </v>
   <v>       0.00068694      -0.07510311       0.00674656 </v>
   <v>      -0.02741437      -0.05601617       0.00569414 </v>
   <v>      -0.12575840      -0.04679566      -0.00265553 </v>
   <v>       0.00122968       0.00925770       0.00146036 </v>
   <v>       0.00430646       0.00866434      -0.00114890 </v>
   <v>       0.04161390       0.05794012       0.00895245 </v>
   <v>       0.05129338       0.12143153       0.00166499 </v>
  </varray>
  <varray name="stress" >
   <v>       4.20180702       0.11547828      -0.60607097 </v>
   <v>       0.11547827       4.11428839      -0.01245461 </v>
   <v>      -0.60607095      -0.01245457      -1.94501548 </v>
  </varray>
  <energy>
   <i name="e_fr_energy">   -127.09115092 </i>
   <i name="e_wo_entrp">   -127.08959437 </i>
   <i name="e_0_energy">   -127.09037265 </i>
  </energy>
  <time name="totalsc">   61.67   62.17</time>
 </calculation>
 <calculation>
  <scstep>
   <time name="dav">    5.46    5.50</time>
   <time name="total">    5.75    5.80</time>
   <energy>
    <i name="alphaZ">     58.50005645 </i>
    <i name="ewald">   4730.68974731 </i>
    <i name="hartreedc">  -6489.06828493 </i>
    <i name="XCdc">    180.73149309 </i>
    <i name="pawpsdc">   5807.28398356 </i>
    <i name="pawaedc">  -5811.72119959 </i>
    <i name="eentropy">     -0.00155803 </i>
    <i name="bandstr">   -505.18647822 </i>
    <i name="atom">   1903.26342058 </i>
    <i name="e_fr_energy">   -125.50881979 </i>
    <i name="e_wo_entrp">   -125.50726176 </i>
    <i name="e_0_energy">   -125.50804077 </i>
   </energy>
  </scstep>
  <scstep>
   <time name="dav">   10.66   10.72</time>
   <time name="total">   10.94   11.01</time>
   <energy>
    <i name="e_fr_energy">   -125.50672021 </i>
    <i name="e_wo_entrp">   -125.50516234 </i>
    <i name="e_0_energy">   -125.50594127 </i>
   </energy>
  </scstep>
  <scstep>
   <time name="dav">    9.29    9.35</time>
   <time name="total">    9.57    9.65</time>
   <energy>
    <i name="e_fr_energy">   -125.50649622 </i>
    <i name="e_wo_entrp">   -125.50493843 </i>
    <i name="e_0_energy">   -125.50571733 </i>
   </energy>
  </scstep>
  <scstep>
   <time name="dav">    9.60    9.67</time>
   <time name="total">    9.89    9.97</time>
   <energy>
    <i name="e_fr_energy">   -125.50648663 </i>
    <i name="e_wo_entrp">   -125.50492883 </i>
    <i name="e_0_energy">   -125.50570773 </i>
   </energy>
  </scstep>
  <scstep>
   <time name="dav">    9.30    9.37</time>
   <time name="total">    9.34    9.40</time>
   <energy>
    <i name="alphaZ">     58.50005645 </i>
    <i name="ewald">   4730.68974731 </i>
    <i name="hartreedc">  -6488.73148477 </i>
    <i name="XCdc">    180.72360204 </i>
    <i name="pawpsdc">   5793.81660436 </i>
    <i name="pawaedc">  -5798.24938025 </i>
    <i name="eentropy">     -0.00155780 </i>
    <i name="bandstr">   -505.51749521 </i>
    <i name="atom">   1903.26342058 </i>
    <i name="e_fr_energy">   -125.50648731 </i>
    <i name="e_wo_entrp">   -125.50492951 </i>
    <i name="e_0_energy">   -125.50570841 </i>
   </energy>
  </scstep>
  <structure>
   <crystal>
    <varray name="basis" >
     <v>       4.18983090       2.41900000       0.00000000 </v>
     <v>      -4.18983090       2.41900000       0.00000000 </v>
     <v>       0.00000000       0.00000000      15.00000000 </v>
    </varray>
    <i name="volume">    304.05602867 </i>
    <varray name="rec_basis" >
     <v>       0.11933656       0.20669698       0.00000000 </v>
     <v>      -0.11933656       0.20669698       0.00000000 </v>
     <v>       0.00000000       0.00000000       0.06666667 </v>
    </varray>
   </crystal>
   <varray name="positions" >
    <v>       0.00414869       0.00267234       0.11977734 </v>
    <v>       0.35637085       0.00284238       0.09763957 </v>
    <v>       0.00419025       0.35502320       0.09767088 </v>
    <v>       0.65196628       0.65053176       0.09764870 </v>
    <v>       0.32656528       0.32508572       0.10030240 </v>
    <v>       0.68198060       0.00281725       0.10029906 </v>
    <v>       0.00416901       0.68038116       0.10027048 </v>
    <v>       0.08332536       0.41672097       0.33646476 </v>
    <v>       0.25008617       0.25012779       0.33651128 </v>
    <v>       0.08341255       0.91672800       0.33645889 </v>
    <v>       0.25014365       0.74997855       0.33645178 </v>
    <v>       0.58330924       0.41665610       0.33644469 </v>
    <v>       0.74996742       0.25000055       0.33646395 </v>
    <v>       0.58321616       0.91664253       0.33650023 </v>
    <v>       0.74977580       0.74989237       0.33647534 </v>
   </varray>
  </structure>
  <varray name="forces" >
   <v>      -0.00221643       0.00159896      -0.26053069 </v>
   <v>       0.07500759       0.04001754       0.07603455 </v>
   <v>      -0.06538299       0.03670280       0.09134589 </v>
   <v>       0.01297966      -0.07751891       0.08745179 </v>
   <v>       0.01123958       0.09062415      -0.01193595 </v>
   <v>      -0.08127226      -0.04487565       0.00153051 </v>
   <v>       0.08138638      -0.04572172      -0.00804246 </v>
   <v>       0.00512198      -0.00710635       0.00112586 </v>
   <v>      -0.00352846      -0.02469922       0.01812641 </v>
   <v>      -0.01159180      -0.01948148       0.00015396 </v>
   <v>      -0.04530239      -0.01579042      -0.00625911 </v>
   <v>      -0.00072784       0.00265399      -0.00663626 </v>
   <v>      -0.00107954       0.00252230      -0.00151712 </v>
   <v>       0.01142426       0.02019523       0.01546628 </v>
   <v>       0.01394227       0.04087877       0.00368636 </v>
  </varray>
  <varray name="stress" >
   <v>       2.83938035       0.09487168      -0.60015478 </v>
   <v>       0.09487166       2.67788707      -0.01543855 </v>
   <v>      -0.60015477      -0.01543857      -2.12830498 </v>
  </varray>
  <energy>
   <i name="e_fr_energy">   -127.09830815 </i>
   <i name="e_wo_entrp">   -127.09675035 </i>
   <i name="e_0_energy">   -127.09752925 </i>
  </energy>
  <time name="totalsc">   50.17   50.54</time>
 </calculation>
 <calculation>
  <scstep>
   <time name="dav">    5.46    5.49</time>
   <time name="total">    5.74    5.79</time>
   <energy>
    <i name="alphaZ">     58.50005645 </i>
    <i name="ewald">   4731.03884780 </i>
    <i name="hartreedc">  -6488.83796559 </i>
    <i name="XCdc">    180.74096579 </i>
    <i name="pawpsdc">   5793.77132895 </i>
    <i name="pawaedc">  -5798.20410902 </i>
    <i name="eentropy">     -0.00156308 </i>
    <i name="bandstr">   -505.78277885 </i>
    <i name="atom">   1903.26342058 </i>
    <i name="e_fr_energy">   -125.51179697 </i>
    <i name="e_wo_entrp">   -125.51023390 </i>
    <i name="e_0_energy">   -125.51101544 </i>
   </energy>
  </scstep>
  <scstep>
   <time name="dav">   11.68   11.75</time>
   <time name="total">   11.97   12.06</time>
   <energy>
    <i name="e_fr_energy">   -125.51183590 </i>
    <i name="e_wo_entrp">   -125.51027301 </i>
    <i name="e_0_energy">   -125.51105446 </i>
   </energy>
  </scstep>
  <scstep>
   <time name="dav">    8.95    9.01</time>
   <time name="total">    9.24    9.31</time>
   <energy>
    <i name="e_fr_energy">   -125.51183207 </i>
    <i name="e_wo_entrp">   -125.51026944 </i>
    <i name="e_0_energy">   -125.51105075 </i>
   </energy>
  </scstep>
  <scstep>
   <time name="dav">   10.80   10.86</time>
   <time name="total">   11.08   11.16</time>
   <energy>
    <i name="e_fr_energy">   -125.51183291 </i>
    <i name="e_wo_entrp">   -125.51027026 </i>
    <i name="e_0_energy">   -125.51105158 </i>
   </energy>
  </scstep>
  <scstep>
   <time name="dav">    8.89    8.96</time>
   <time name="total">    8.93    9.00</time>
   <energy>
    <i name="alphaZ">     58.50005645 </i>
    <i name="ewald">   4731.03884780 </i>
    <i name="hartreedc">  -6488.83546582 </i>
    <i name="XCdc">    180.74055800 </i>
    <i name="pawpsdc">   5798.86100792 </i>
    <i name="pawaedc">  -5803.29554453 </i>
    <i name="eentropy">     -0.00156265 </i>
    <i name="bandstr">   -505.78315108 </i>
    <i name="atom">   1903.26342058 </i>
    <i name="e_fr_energy">   -125.51183335 </i>
    <i name="e_wo_entrp">   -125.51027070 </i>
    <i name="e_0_energy">   -125.51105202 </i>
   </energy>
  </scstep>
  <structure>
   <crystal>
    <varray name="basis" >
     <v>       4.18983090       2.41900000       0.00000000 </v>
     <v>      -4.18983090       2.41900000       0.00000000 </v>
     <v>       0.00000000       0.00000000      15.00000000 </v>
    </varray>
    <i name="volume">    304.05602867 </i>
    <varray name="rec_basis" >
     <v>       0.11933656       0.20669698       0.00000000 </v>
     <v>      -0.11933656       0.20669698       0.00000000 </v>
     <v>       0.00000000       0.00000000       0.06666667 </v>
    </varray>
   </crystal>
   <varray name="positions" >
    <v>       0.00414918       0.00269819       0.11875499 </v>
    <v>       0.35683590       0.00280689       0.09793123 </v>
    <v>       0.00415767       0.35545636       0.09801999 </v>
    <v>       0.65160131       0.64999571       0.09798345 </v>
    <v>       0.32670251       0.32505286       0.10026669 </v>
    <v>       0.68197820       0.00285304       0.10031474 </v>
    <v>       0.00418212       0.68029382       0.10024964 </v>
    <v>       0.08328476       0.41665725       0.33646710 </v>
    <v>       0.24988869       0.24998690       0.33658498 </v>
    <v>       0.08321693       0.91664330       0.33645560 </v>
    <v>       0.24983781       0.75006123       0.33642658 </v>
    <v>       0.58331796       0.41667867       0.33641499 </v>
    <v>       0.74996891       0.25002926       0.33645827 </v>
    <v>       0.58339971       0.91675268       0.33656096 </v>
    <v>       0.75010567       0.75013449       0.33649013 </v>
   </varray>
  </structure>
  <varray name="forces" >
   <v>       0.00151519       0.00161616      -0.23837525 </v>
   <v>       0.05275807       0.02705581       0.04554222 </v>
   <v>      -0.03396090       0.02607164       0.05330846 </v>
   <v>       0.00585793      -0.04961869       0.05121320 </v>
   <v>       0.00108199       0.09383016       0.01802578 </v>
   <v>      -0.08085499      -0.05318684       0.02610902 </v>
   <v>       0.08357021      -0.04504359       0.02068481 </v>
   <v>      -0.02609272       0.01851064       0.00312420 </v>
   <v>       0.00691951       0.04472709       0.00235172 </v>
   <v>       0.00366755       0.04772472       0.00585619 </v>
   <v>       0.08601616       0.03635186       0.00149483 </v>
   <v>      -0.02272708      -0.00334499       0.00425864 </v>
   <v>      -0.00626409      -0.00304394       0.00075912 </v>
   <v>      -0.03801589      -0.05223420       0.00385589 </v>
   <v>      -0.03347095      -0.08941583       0.00179115 </v>
  </varray>
  <varray name="stress" >
   <v>       3.33737153       0.09650027      -0.56436046 </v>
   <v>       0.09650023       2.96601565      -0.01615375 </v>
   <v>      -0.56436040      -0.01615375      -2.09401788 </v>
  </varray>
  <energy>
   <i name="e_fr_energy">   -127.10355614 </i>
   <i name="e_wo_entrp">   -127.10199349 </i>
   <i name="e_0_energy">   -127.10277482 </i>
  </energy>
  <time name="totalsc">   51.63   52.03</time>
 </calculation>
 <calculation>
  <scstep>
   <time name="dav">    5.44    5.49</time>
   <time name="total">    5.73    5.78</time>
   <energy>
    <i name="alphaZ">     58.50005645 </i>
    <i name="ewald">   4731.61435828 </i>
    <i name="hartreedc">  -6488.86629841 </i>
    <i name="XCdc">    180.77895831 </i>
    <i name="pawpsdc">   5798.88936387 </i>
    <i name="pawaedc">  -5803.32390965 </i>
    <i name="eentropy">     -0.00156302 </i>
    <i name="bandstr">   -506.37195240 </i>
    <i name="atom">   1903.26342058 </i>
    <i name="e_fr_energy">   -125.51756601 </i>
    <i name="e_wo_entrp">   -125.51600299 </i>
    <i name="e_0_energy">   -125.51678450 </i>
   </energy>
  </scstep>
  <scstep>
   <time name="dav">   11.16   11.23</time>
   <time name="total">   11.44   11.53</time>
   <energy>
    <i name="e_fr_energy">   -125.51788273 </i>
    <i name="e_wo_entrp">   -125.51631941 </i>
    <i name="e_0_energy">   -125.51710107 </i>
   </energy>
  </scstep>
  <scstep>
   <time name="dav">    8.50    8.57</time>
   <time name="total">    8.79    8.87</time>
   <energy>
    <i name="e_fr_energy">   -125.51785198 </i>
    <i name="e_wo_entrp">   -125.51628846 </i>
    <i name="e_0_energy">   -125.51707022 </i>
   </energy>
  </scstep>
  <scstep>
   <time name="dav">   11.24   11.31</time>
   <time name="total">   11.52   11.61</time>
   <energy>
    <i name="e_fr_energy">   -125.51785729 </i>
    <i name="e_wo_entrp">   -125.51629365 </i>
    <i name="e_0_energy">   -125.51707547 </i>
   </energy>
  </scstep>
  <scstep>
   <time name="dav">    9.07    9.13</time>
   <time name="total">    9.35    9.43</time>
   <energy>
    <i name="e_fr_energy">   -125.51786003 </i>
    <i name="e_wo_entrp">   -125.51629638 </i>
    <i name="e_0_energy">   -125.51707820 </i>
   </energy>
  </scstep>
  <scstep>
   <time name="dav">    9.78    9.85</time>
   <time name="total">    9.81    9.89</time>
   <energy>
    <i name="alphaZ">     58.50005645 </i>
    <i name="ewald">   4731.61435828 </i>
    <i name="hartreedc">  -6488.83841386 </i>
    <i name="XCdc">    180.77763899 </i>
    <i name="pawpsdc">   5810.26996467 </i>
    <i name="pawaedc">  -5814.70852053 </i>
    <i name="eentropy">     -0.00156363 </i>
    <i name="bandstr">   -506.39480115 </i>
    <i name="atom">   1903.26342058 </i>
    <i name="e_fr_energy">   -125.51786019 </i>
    <i name="e_wo_entrp">   -125.51629657 </i>
    <i name="e_0_energy">   -125.51707838 </i>
   </energy>
  </scstep>
  <structure>
   <crystal>
    <varray name="basis" >
     <v>       4.18983090       2.41900000       0.00000000 </v>
     <v>      -4.18983090       2.41900000       0.00000000 </v>
     <v>       0.00000000       0.00000000      15.00000000 </v>
    </varray>
    <i name="volume">    304.05602867 </i>
    <varray name="rec_basis" >
     <v>       0.11933656       0.20669698       0.00000000 </v>
     <v>      -0.11933656       0.20669698       0.00000000 </v>
     <v>       0.00000000       0.00000000       0.06666667 </v>
    </varray>
   </crystal>
   <varray name="positions" >
    <v>       0.00415042       0.00276323       0.11618267 </v>
    <v>       0.35800600       0.00271762       0.09866507 </v>
    <v>       0.00407570       0.35654625       0.09889838 </v>
    <v>       0.65068300       0.64864695       0.09882574 </v>
    <v>       0.32704781       0.32497019       0.10017684 </v>
    <v>       0.68197215       0.00294310       0.10035418 </v>
    <v>       0.00421511       0.68007407       0.10019721 </v>
    <v>       0.08318259       0.41649692       0.33647296 </v>
    <v>       0.24939182       0.24963241       0.33677044 </v>
    <v>       0.08272471       0.91643016       0.33644731 </v>
    <v>       0.24906830       0.75026927       0.33636316 </v>
    <v>       0.58333989       0.41673545       0.33634027 </v>
    <v>       0.74997264       0.25010150       0.33644398 </v>
    <v>       0.58386152       0.91702984       0.33671375 </v>
    <v>       0.75093568       0.75074369       0.33652736 </v>
   </varray>
  </structure>
  <varray name="forces" >
   <v>       0.01122889       0.00128901      -0.19985091 </v>
   <v>      -0.01458053      -0.01149200      -0.02596870 </v>
   <v>       0.05454033      -0.00809231      -0.03648174 </v>
   <v>      -0.01086186       0.03245059      -0.03418963 </v>
   <v>      -0.02233611       0.09236333       0.09348922 </v>
   <v>      -0.07127564      -0.06746622       0.08873811 </v>
   <v>       0.07955796      -0.03845067       0.09307043 </v>
   <v>      -0.10452908       0.08305988       0.00799553 </v>
   <v>       0.03233888       0.21980257      -0.03731643 </v>
   <v>       0.04346406       0.22036118       0.01954647 </v>
   <v>       0.41618753       0.16414302       0.02129155 </v>
   <v>      -0.07742098      -0.01882536       0.03185643 </v>
   <v>      -0.01940964      -0.01749785       0.00639968 </v>
   <v>      -0.16082668      -0.23066814      -0.02545318 </v>
   <v>      -0.15607713      -0.42097703      -0.00312683 </v>
  </varray>
  <varray name="stress" >
   <v>       4.54880957       0.13071940      -0.48621751 </v>
   <v>       0.13071941       3.67674803      -0.01782063 </v>
   <v>      -0.48621748      -0.01782064      -2.01096535 </v>
  </varray>
  <energy>
   <i name="e_fr_energy">   -127.10931058 </i>
   <i name="e_wo_entrp">   -127.10774695 </i>
   <i name="e_0_energy">   -127.10852876 </i>
  </energy>
  <time name="totalsc">   61.33   62.20</time>
 </calculation>
 <calculation>
  <scstep>
   <time name="dav">    5.51    5.55</time>
   <time name="total">    5.80    5.85</time>
   <energy>
    <i name="alphaZ">     58.50005645 </i>
    <i name="ewald">   4731.67044710 </i>
    <i name="hartreedc">  -6488.84085771 </i>
    <i name="XCdc">    180.78084157 </i>
    <i name="pawpsdc">   5810.27077117 </i>
    <i name="pawaedc">  -5814.70932615 </i>
    <i name="eentropy">     -0.00156491 </i>
    <i name="bandstr">   -506.45320925 </i>
    <i name="atom">   1903.26342058 </i>
    <i name="e_fr_energy">   -125.51942116 </i>
    <i name="e_wo_entrp">   -125.51785624 </i>
    <i name="e_0_energy">   -125.51863870 </i>
   </energy>
  </scstep>
  <scstep>
   <time name="dav">   11.15   11.22</time>
   <time name="total">   11.44   11.52</time>
   <energy>
    <i name="e_fr_energy">   -125.51942421 </i>
    <i name="e_wo_entrp">   -125.51785933 </i>
    <i name="e_0_energy">   -125.51864177 </i>
   </energy>
  </scstep>
  <scstep>
   <time name="dav">    8.60    8.65</time>
   <time name="total">    8.88    8.95</time>
   <energy>
    <i name="e_fr_energy">   -125.51942302 </i>
    <i name="e_wo_entrp">   -125.51785818 </i>
    <i name="e_0_energy">   -125.51864060 </i>
   </energy>
  </scstep>
  <scstep>
   <time name="dav">   10.72   10.79</time>
   <time name="total">   10.75   10.82</time>
   <energy>
    <i name="alphaZ">     58.50005645 </i>
    <i name="ewald">   4731.67044710 </i>
    <i name="hartreedc">  -6488.82745169 </i>
    <i name="XCdc">    180.78046410 </i>
    <i name="pawpsdc">   5811.12732303 </i>
    <i name="pawaedc">  -5815.56621447 </i>
    <i name="eentropy">     -0.00156484 </i>
    <i name="bandstr">   -506.46590371 </i>
    <i name="atom">   1903.26342058 </i>
    <i name="e_fr_energy">   -125.51942345 </i>
    <i name="e_wo_entrp">   -125.51785861 </i>
    <i name="e_0_energy">   -125.51864103 </i>
   </energy>
  </scstep>
  <structure>
   <crystal>
    <varray name="basis" >
     <v>       4.18983090       2.41900000       0.00000000 </v>
     <v>      -4.18983090       2.41900000       0.00000000 </v>
     <v>       0.00000000       0.00000000      15.00000000 </v>
    </varray>
    <i name="volume">    304.05602867 </i>
    <varray name="rec_basis" >
     <v>       0.11933656       0.20669698       0.00000000 </v>
     <v>      -0.11933656       0.20669698       0.00000000 </v>
     <v>       0.00000000       0.00000000       0.06666667 </v>
    </varray>
   </crystal>
   <varray name="positions" >
    <v>       0.00415408       0.00276748       0.11589242 </v>
    <v>       0.35811569       0.00270717       0.09873572 </v>
    <v>       0.00407800       0.35663887       0.09898217 </v>
    <v>       0.65060170       0.64852767       0.09890620 </v>
    <v>       0.32711890       0.32500957       0.10018141 </v>
    <v>       0.68192225       0.00294030       0.10037117 </v>
    <v>       0.00422185       0.68001348       0.10020551 </v>
    <v>       0.08318252       0.41654572       0.33647473 </v>
    <v>       0.24944961       0.24968771       0.33678380 </v>
    <v>       0.08278615       0.91649714       0.33644933 </v>
    <v>       0.24917373       0.75025583       0.33635984 </v>
    <v>       0.58331329       0.41675296       0.33633735 </v>
    <v>       0.74995999       0.25010598       0.33644347 </v>
    <v>       0.58376158       0.91699542       0.33672553 </v>
    <v>       0.75078798       0.75065537       0.33653068 </v>
   </varray>
  </structure>
  <varray name="forces" >
   <v>       0.01231656       0.00101957      -0.19551488 </v>
   <v>      -0.02189934      -0.01574827      -0.03016246 </v>
   <v>       0.06122607      -0.01134738      -0.04229471 </v>
   <v>      -0.01216630       0.04021473      -0.03960866 </v>
   <v>      -0.02348222       0.08346861       0.09787766 </v>
   <v>      -0.06226779      -0.06315199       0.09185069 </v>
   <v>       0.07231209      -0.03385552       0.09699377 </v>
   <v>      -0.08872076       0.07119869       0.00809657 </v>
   <v>       0.02168648       0.19619363      -0.03964127 </v>
   <v>       0.04235292       0.18771256       0.02002657 </v>
   <v>       0.36101907       0.14353908       0.02280057 </v>
   <v>      -0.06199684      -0.01837125       0.03335147 </v>
   <v>      -0.02016565      -0.01662130       0.00698862 </v>
   <v>      -0.13967788      -0.19907341      -0.02756262 </v>
   <v>      -0.14053639      -0.36517775      -0.00320130 </v>
  </varray>
  <varray name="stress" >
   <v>       4.55368474       0.10711539      -0.47872431 </v>
   <v>       0.10711537       3.81179689      -0.01679302 </v>
   <v>      -0.47872430      -0.01679300      -1.99730191 </v>
  </varray>
  <energy>
   <i name="e_fr_energy">   -127.11085054 </i>
   <i name="e_wo_entrp">   -127.10928570 </i>
   <i name="e_0_energy">   -127.11006812 </i>
  </energy>
  <time name="totalsc">   41.55   41.86</time>
 </calculation>
 <calculation>
  <scstep>
   <time name="dav">    5.47    5.51</time>
   <time name="total">    5.75    5.80</time>
   <energy>
    <i name="alphaZ">     58.50005645 </i>
    <i name="ewald">   4731.80944617 </i>
    <i name="hartreedc">  -6488.82939307 </i>
    <i name="XCdc">    180.78989670 </i>
    <i name="pawpsdc">   5811.19380391 </i>
    <i name="pawaedc">  -5815.63270767 </i>
    <i name="eentropy">     -0.00156386 </i>
    <i name="bandstr">   -506.61608935 </i>
    <i name="atom">   1903.26342058 </i>
    <i name="e_fr_energy">   -125.52313015 </i>
    <i name="e_wo_entrp">   -125.52156629 </i>
    <i name="e_0_energy">   -125.52234822 </i>
   </energy>
  </scstep>
  <scstep>
   <time name="dav">   10.75   10.81</time>
   <time name="total">   11.03   11.11</time>
   <energy>
    <i name="e_fr_energy">   -125.52315408 </i>
    <i name="e_wo_entrp">   -125.52159005 </i>
    <i name="e_0_energy">   -125.52237207 </i>
   </energy>
  </scstep>
  <scstep>
   <time name="dav">    7.82    7.87</time>
   <time name="total">    8.10    8.17</time>
   <energy>
    <i name="e_fr_energy">   -125.52314261 </i>
    <i name="e_wo_entrp">   -125.52157835 </i>
    <i name="e_0_energy">   -125.52236048 </i>
   </energy>
  </scstep>
  <scstep>
   <time name="dav">   10.99   11.06</time>
   <time name="total">   11.28   11.36</time>
   <energy>
    <i name="e_fr_energy">   -125.52314325 </i>
    <i name="e_wo_entrp">   -125.52157899 </i>
    <i name="e_0_energy">   -125.52236112 </i>
   </energy>
  </scstep>
  <scstep>
   <time name="dav">    8.53    8.59</time>
   <time name="total">    8.57    8.63</time>
   <energy>
    <i name="alphaZ">     58.50005645 </i>
    <i name="ewald">   4731.80944617 </i>
    <i name="hartreedc">  -6488.82970428 </i>
    <i name="XCdc">    180.78919747 </i>
    <i name="pawpsdc">   5813.98148744 </i>
    <i name="pawaedc">  -5818.42142162 </i>
    <i name="eentropy">     -0.00156425 </i>
    <i name="bandstr">   -506.61406186 </i>
    <i name="atom">   1903.26342058 </i>
    <i name="e_fr_energy">   -125.52314391 </i>
    <i name="e_wo_entrp">   -125.52157966 </i>
    <i name="e_0_energy">   -125.52236178 </i>
   </energy>
  </scstep>
  <structure>
   <crystal>
    <varray name="basis" >
     <v>       4.18983090       2.41900000       0.00000000 </v>
     <v>      -4.18983090       2.41900000       0.00000000 </v>
     <v>       0.00000000       0.00000000      15.00000000 </v>
    </varray>
    <i name="volume">    304.05602867 </i>
    <varray name="rec_basis" >
     <v>       0.11933656       0.20669698       0.00000000 </v>
     <v>      -0.11933656       0.20669698       0.00000000 </v>
     <v>       0.00000000       0.00000000       0.06666667 </v>
    </varray>
   </crystal>
   <varray name="positions" >
    <v>       0.00416503       0.00278021       0.11502167 </v>
    <v>       0.35844476       0.00267581       0.09894770 </v>
    <v>       0.00408490       0.35691675       0.09923353 </v>
    <v>       0.65035781       0.64816983       0.09914758 </v>
    <v>       0.32733218       0.32512769       0.10019511 </v>
    <v>       0.68177256       0.00293189       0.10042214 </v>
    <v>       0.00424208       0.67983172       0.10023041 </v>
    <v>       0.08318234       0.41669214       0.33648003 </v>
    <v>       0.24962299       0.24985359       0.33682387 </v>
    <v>       0.08297045       0.91669807       0.33645539 </v>
    <v>       0.24949003       0.75021550       0.33634989 </v>
    <v>       0.58323349       0.41680546       0.33632859 </v>
    <v>       0.74992206       0.25011940       0.33644193 </v>
    <v>       0.58346176       0.91689219       0.33676087 </v>
    <v>       0.75034491       0.75039041       0.33654064 </v>
   </varray>
  </structure>
  <varray name="forces" >
   <v>       0.01547519       0.00012990      -0.18400798 </v>
   <v>      -0.04524170      -0.02898355      -0.04251799 </v>
   <v>       0.08237537      -0.02210271      -0.05953718 </v>
   <v>      -0.01599600       0.06477232      -0.05564128 </v>
   <v>      -0.02653400       0.05571349       0.11133686 </v>
   <v>      -0.03439449      -0.04933138       0.10158400 </v>
   <v>       0.04935716      -0.01975913       0.10915326 </v>
   <v>      -0.04136415       0.03581732       0.00844297 </v>
   <v>      -0.01018397       0.12556420      -0.04682068 </v>
   <v>       0.03970138       0.09150706       0.02139288 </v>
   <v>       0.19616687       0.08136073       0.02732005 </v>
   <v>      -0.01578753      -0.01703084       0.03794032 </v>
   <v>      -0.02270728      -0.01401207       0.00878360 </v>
   <v>      -0.07588646      -0.10418708      -0.03394888 </v>
   <v>      -0.09498039      -0.19945826      -0.00347996 </v>
  </varray>
  <varray name="stress" >
   <v>       4.57034308       0.04269914      -0.45567349 </v>
   <v>       0.04269913       4.22104777      -0.01346148 </v>
   <v>      -0.45567351      -0.01346146      -1.99101923 </v>
  </varray>
  <energy>
   <i name="e_fr_energy">   -127.11449481 </i>
   <i name="e_wo_entrp">   -127.11293056 </i>
   <i name="e_0_energy">   -127.11371269 </i>
  </energy>
  <time name="totalsc">   49.41   49.78</time>
 </calculation>
 <calculation>
  <scstep>
   <time name="dav">    5.46    5.49</time>
   <time name="total">    5.75    5.79</time>
   <energy>
    <i name="alphaZ">     58.50005645 </i>
    <i name="ewald">   4731.95473053 </i>
    <i name="hartreedc">  -6488.73670911 </i>
    <i name="XCdc">    180.80587281 </i>
    <i name="pawpsdc">   5814.06008393 </i>
    <i name="pawaedc">  -5818.50001986 </i>
    <i name="eentropy">     -0.00154071 </i>
    <i name="bandstr">   -506.87214906 </i>
    <i name="atom">   1903.26342058 </i>
    <i name="e_fr_energy">   -125.52625444 </i>
    <i name="e_wo_entrp">   -125.52471373 </i>
    <i name="e_0_energy">   -125.52548409 </i>
   </energy>
  </scstep>
  <scstep>
   <time name="dav">   11.13   11.20</time>
   <time name="total">   11.42   11.49</time>
   <energy>
    <i name="e_fr_energy">   -125.52634888 </i>
    <i name="e_wo_entrp">   -125.52480670 </i>
    <i name="e_0_energy">   -125.52557779 </i>
   </energy>
  </scstep>
  <scstep>
   <time name="dav">    8.18    8.25</time>
   <time name="total">    8.47    8.55</time>
   <energy>
    <i name="e_fr_energy">   -125.52630005 </i>
    <i name="e_wo_entrp">   -125.52475619 </i>
    <i name="e_0_energy">   -125.52552812 </i>
   </energy>
  </scstep>
  <scstep>
   <time name="dav">   11.16   11.23</time>
   <time name="total">   11.44   11.52</time>
   <energy>
    <i name="e_fr_energy">   -125.52630249 </i>
    <i name="e_wo_entrp">   -125.52475848 </i>
    <i name="e_0_energy">   -125.52553049 </i>
   </energy>
  </scstep>
  <scstep>
   <time name="dav">    8.78    8.84</time>
   <time name="total">    9.07    9.14</time>
   <energy>
    <i name="e_fr_energy">   -125.52630438 </i>
    <i name="e_wo_entrp">   -125.52476037 </i>
    <i name="e_0_energy">   -125.52553237 </i>
   </energy>
  </scstep>
  <scstep>
   <time name="dav">   10.41   10.48</time>
   <time name="total">   10.44   10.52</time>
   <energy>
    <i name="alphaZ">     58.50005645 </i>
    <i name="ewald">   4731.95473053 </i>
    <i name="hartreedc">  -6488.75594683 </i>
    <i name="XCdc">    180.80474151 </i>
    <i name="pawpsdc">   5819.15763804 </i>
    <i name="pawaedc">  -5823.59947529 </i>
    <i name="eentropy">     -0.00154391 </i>
    <i name="bandstr">   -506.84992520 </i>
    <i name="atom">   1903.26342058 </i>
    <i name="e_fr_energy">   -125.52630411 </i>
    <i name="e_wo_entrp">   -125.52476021 </i>
    <i name="e_0_energy">   -125.52553216 </i>
   </energy>
  </scstep>
  <structure>
   <crystal>
    <varray name="basis" >
     <v>       4.18983090       2.41900000       0.00000000 </v>
     <v>      -4.18983090       2.41900000       0.00000000 </v>
     <v>       0.00000000       0.00000000      15.00000000 </v>
    </varray>
    <i name="volume">    304.05602867 </i>
    <varray name="rec_basis" >
     <v>       0.11933656       0.20669698       0.00000000 </v>
     <v>      -0.11933656       0.20669698       0.00000000 </v>
     <v>       0.00000000       0.00000000       0.06666667 </v>
    </varray>
   </crystal>
   <varray name="positions" >
    <v>       0.00418695       0.00280566       0.11328016 </v>
    <v>       0.35910291       0.00261309       0.09937165 </v>
    <v>       0.00409869       0.35747251       0.09973626 </v>
    <v>       0.64987002       0.64745413       0.09963033 </v>
    <v>       0.32775875       0.32536393       0.10022250 </v>
    <v>       0.68147316       0.00291508       0.10052407 </v>
    <v>       0.00428253       0.67946820       0.10028021 </v>
    <v>       0.08318197       0.41698497       0.33649062 </v>
    <v>       0.24996975       0.25018537       0.33690401 </v>
    <v>       0.08333905       0.91709994       0.33646751 </v>
    <v>       0.25012262       0.75013486       0.33632997 </v>
    <v>       0.58307390       0.41691047       0.33631107 </v>
    <v>       0.74984618       0.25014625       0.33643885 </v>
    <v>       0.58286212       0.91668571       0.33683154 </v>
    <v>       0.74945876       0.74986050       0.33656056 </v>
   </varray>
  </structure>
  <varray name="forces" >
   <v>       0.02180110      -0.00174037      -0.16684695 </v>
   <v>      -0.09710260      -0.05836651      -0.06543738 </v>
   <v>       0.12937607      -0.04661246      -0.09197412 </v>
   <v>      -0.02336322       0.11962758      -0.08571374 </v>
   <v>      -0.03234097      -0.00448765       0.13822262 </v>
   <v>       0.02570167      -0.01890999       0.12127267 </v>
   <v>      -0.00077484       0.01071878       0.13349890 </v>
   <v>       0.05270420      -0.03505791       0.00924599 </v>
   <v>      -0.07376291      -0.01617121      -0.06109936 </v>
   <v>       0.03500673      -0.09628710       0.02382941 </v>
   <v>      -0.13259914      -0.04588058       0.03613177 </v>
   <v>       0.07707348      -0.01426756       0.04694270 </v>
   <v>      -0.02786255      -0.00826367       0.01237913 </v>
   <v>       0.05350843       0.08814881      -0.04645459 </v>
   <v>      -0.00736544       0.12754984      -0.00399705 </v>
  </varray>
  <varray name="stress" >
   <v>       4.60697991      -0.05966566      -0.41092436 </v>
   <v>      -0.05966565       5.03638039      -0.00490125 </v>
   <v>      -0.41092431      -0.00490125      -1.99057120 </v>
  </varray>
  <energy>
   <i name="e_fr_energy">   -127.11747421 </i>
   <i name="e_wo_entrp">   -127.11593031 </i>
   <i name="e_0_energy">   -127.11670226 </i>
  </energy>
  <time name="totalsc">   61.26   62.15</time>
 </calculation>
 <calculation>
  <scstep>
   <time name="dav">    5.49    5.53</time>
   <time name="total">    5.78    5.83</time>
   <energy>
    <i name="alphaZ">     58.50005645 </i>
    <i name="ewald">   4732.21672973 </i>
    <i name="hartreedc">  -6488.93470094 </i>
    <i name="XCdc">    180.80994069 </i>
    <i name="pawpsdc">   5819.18580063 </i>
    <i name="pawaedc">  -5823.62763774 </i>
    <i name="eentropy">     -0.00155471 </i>
    <i name="bandstr">   -506.93980480 </i>
    <i name="atom">   1903.26342058 </i>
    <i name="e_fr_energy">   -125.52775012 </i>
    <i name="e_wo_entrp">   -125.52619541 </i>
    <i name="e_0_energy">   -125.52697276 </i>
   </energy>
  </scstep>
  <scstep>
   <time name="dav">    9.66    9.73</time>
   <time name="total">    9.95   10.03</time>
   <energy>
    <i name="e_fr_energy">   -125.52775768 </i>
    <i name="e_wo_entrp">   -125.52620334 </i>
    <i name="e_0_energy">   -125.52698051 </i>
   </energy>
  </scstep>
  <scstep>
   <time name="dav">    8.71    8.77</time>
   <time name="total">    9.00    9.07</time>
   <energy>
    <i name="e_fr_energy">   -125.52775558 </i>
    <i name="e_wo_entrp">   -125.52620171 </i>
    <i name="e_0_energy">   -125.52697865 </i>
   </energy>
  </scstep>
  <scstep>
   <time name="dav">   10.28   10.35</time>
   <time name="total">   10.31   10.38</time>
   <energy>
    <i name="alphaZ">     58.50005645 </i>
    <i name="ewald">   4732.21672973 </i>
    <i name="hartreedc">  -6488.98647170 </i>
    <i name="XCdc">    180.80958417 </i>
    <i name="pawpsdc">   5820.83235255 </i>
    <i name="pawaedc">  -5825.27478206 </i>
    <i name="eentropy">     -0.00155386 </i>
    <i name="bandstr">   -506.88709156 </i>
    <i name="atom">   1903.26342058 </i>
    <i name="e_fr_energy">   -125.52775571 </i>
    <i name="e_wo_entrp">   -125.52620184 </i>
    <i name="e_0_energy">   -125.52697877 </i>
   </energy>
  </scstep>
  <structure>
   <crystal>
    <varray name="basis" >
     <v>       4.18983090       2.41900000       0.00000000 </v>
     <v>      -4.18983090       2.41900000       0.00000000 </v>
     <v>       0.00000000       0.00000000      15.00000000 </v>
    </varray>
    <i name="volume">    304.05602867 </i>
    <varray name="rec_basis" >
     <v>       0.11933656       0.20669698       0.00000000 </v>
     <v>      -0.11933656       0.20669698       0.00000000 </v>
     <v>       0.00000000       0.00000000       0.06666667 </v>
    </varray>
   </crystal>
   <varray name="positions" >
    <v>       0.00420533       0.00279281       0.11284591 </v>
    <v>       0.35909580       0.00259699       0.09943391 </v>
    <v>       0.00413727       0.35743515       0.09980419 </v>
    <v>       0.64990239       0.64747289       0.09969663 </v>
    <v>       0.32781894       0.32543158       0.10028490 </v>
    <v>       0.68140509       0.00286866       0.10059518 </v>
    <v>       0.00430408       0.67940601       0.10034538 </v>
    <v>       0.08317601       0.41696329       0.33649663 </v>
    <v>       0.24996794       0.25028863       0.33689581 </v>
    <v>       0.08331983       0.91703636       0.33647982 </v>
    <v>       0.25009996       0.75015689       0.33634060 </v>
    <v>       0.58307877       0.41685787       0.33632662 </v>
    <v>       0.74979930       0.25016183       0.33644328 </v>
    <v>       0.58288738       0.91671508       0.33682735 </v>
    <v>       0.74942924       0.74991662       0.33656311 </v>
   </varray>
  </structure>
  <varray name="forces" >
   <v>       0.02162531      -0.00203571      -0.15327983 </v>
   <v>      -0.08546661      -0.05121068      -0.05907687 </v>
   <v>       0.11289296      -0.03987536      -0.08645256 </v>
   <v>      -0.02280132       0.10457207      -0.07980589 </v>
   <v>      -0.02907335      -0.00560821       0.12811864 </v>
   <v>       0.02567108      -0.01509750       0.11017490 </v>
   <v>       0.00009963       0.00943454       0.12323039 </v>
   <v>       0.03119217      -0.02924025       0.00806499 </v>
   <v>      -0.03582044      -0.04216065      -0.05741493 </v>
   <v>       0.00346906      -0.07473554       0.02189969 </v>
   <v>      -0.11734931      -0.04670359       0.03560765 </v>
   <v>       0.04058675      -0.00108148       0.04396067 </v>
   <v>      -0.00720446      -0.00170291       0.01297125 </v>
   <v>       0.04050098       0.07664045      -0.04506216 </v>
   <v>       0.02167754       0.11880481      -0.00293593 </v>
  </varray>
  <varray name="stress" >
   <v>       4.85987678      -0.02275078      -0.40310196 </v>
   <v>      -0.02275079       5.01604632      -0.00669036 </v>
   <v>      -0.40310196      -0.00669030      -1.96928826 </v>
  </varray>
  <energy>
   <i name="e_fr_energy">   -127.11884561 </i>
   <i name="e_wo_entrp">   -127.11729175 </i>
   <i name="e_0_energy">   -127.11806868 </i>
  </energy>
[...]
       <r>     2.7649     1.1333    30.8863 </r>
       <r>     2.8717     0.6548    30.9562 </r>
       <r>     2.9785     1.0107    31.0642 </r>
       <r>     3.0853     1.4509    31.2191 </r>
       <r>     3.1921     1.3499    31.3633 </r>
       <r>     3.2989     1.2662    31.4985 </r>
       <r>     3.4057     1.2860    31.6358 </r>
       <r>     3.5124     1.1328    31.7568 </r>
       <r>     3.6192     2.1984    31.9915 </r>
       <r>     3.7260     2.9036    32.3016 </r>
       <r>     3.8328     2.9947    32.6214 </r>
       <r>     3.9396     2.6853    32.9082 </r>
       <r>     4.0464     2.9230    33.2203 </r>
       <r>     4.1532     3.2654    33.5690 </r>
       <r>     4.2600     3.2227    33.9132 </r>
       <r>     4.3668     3.0887    34.2430 </r>
       <r>     4.4735     3.2286    34.5878 </r>
       <r>     4.5803     2.7975    34.8865 </r>
       <r>     4.6871     2.6119    35.1655 </r>
       <r>     4.7939     3.3382    35.5219 </r>
       <r>     4.9007     3.6175    35.9083 </r>
       <r>     5.0075     2.7739    36.2045 </r>
       <r>     5.1143     3.1557    36.5415 </r>
       <r>     5.2211     3.1751    36.8805 </r>
       <r>     5.3279     2.5888    37.1570 </r>
       <r>     5.4346     2.9876    37.4760 </r>
       <r>     5.5414     3.2409    37.8221 </r>
       <r>     5.6482     3.6114    38.2078 </r>
       <r>     5.7550     2.4483    38.4692 </r>
       <r>     5.8618     2.6157    38.7486 </r>
       <r>     5.9686     2.7821    39.0457 </r>
       <r>     6.0754     2.8526    39.3503 </r>
       <r>     6.1822     1.9839    39.5621 </r>
       <r>     6.2890     2.1755    39.7945 </r>
       <r>     6.3957     2.7307    40.0861 </r>
       <r>     6.5025     3.3298    40.4417 </r>
       <r>     6.6093     3.1849    40.7818 </r>
       <r>     6.7161     3.0378    41.1062 </r>
       <r>     6.8229     4.1213    41.5463 </r>
       <r>     6.9297     3.6577    41.9369 </r>
       <r>     7.0365     3.3069    42.2900 </r>
       <r>     7.1433     3.3791    42.6509 </r>
       <r>     7.2500     2.8562    42.9559 </r>
       <r>     7.3568     2.2222    43.1932 </r>
       <r>     7.4636     2.9082    43.5038 </r>
       <r>     7.5704     3.0748    43.8321 </r>
       <r>     7.6772     2.7013    44.1206 </r>
       <r>     7.7840     3.3909    44.4827 </r>
       <r>     7.8908     3.9763    44.9073 </r>
       <r>     7.9976     4.0100    45.3355 </r>
       <r>     8.1044     4.1126    45.7747 </r>
       <r>     8.2111     4.0828    46.2107 </r>
       <r>     8.3179     3.5614    46.5910 </r>
       <r>     8.4247     4.5726    47.0793 </r>
       <r>     8.5315     4.2583    47.5341 </r>
       <r>     8.6383     2.2417    47.7735 </r>
       <r>     8.7451     1.1676    47.8982 </r>
       <r>     8.8519     0.5360    47.9554 </r>
       <r>     8.9587     0.3429    47.9920 </r>
       <r>     9.0655     0.0721    47.9997 </r>
       <r>     9.1722     0.0027    48.0000 </r>
       <r>     9.2790     0.0000    48.0000 </r>
       <r>     9.3858     0.0000    48.0000 </r>
       <r>     9.4926     0.0000    48.0000 </r>
       <r>     9.5994     0.0000    48.0000 </r>
       <r>     9.7062     0.0000    48.0000 </r>
       <r>     9.8130     0.0000    48.0000 </r>
       <r>     9.9198     0.0000    48.0000 </r>
       <r>    10.0266     0.0000    48.0000 </r>
       <r>    10.1333     0.0000    48.0000 </r>
       <r>    10.2401     0.0000    48.0000 </r>
       <r>    10.3469     0.0000    48.0000 </r>
      </set>
      <set comment="spin 2">
       <r>   -21.6897     0.0000     0.0000 </r>
       <r>   -21.5829     0.0000     0.0000 </r>
       <r>   -21.4761     0.0000     0.0000 </r>
       <r>   -21.3693     0.0000     0.0000 </r>
       <r>   -21.2626     0.0000     0.0000 </r>
       <r>   -21.1558     0.0000     0.0000 </r>
       <r>   -21.0490     0.0000     0.0000 </r>
       <r>   -20.9422     0.0000     0.0000 </r>
       <r>   -20.8354     0.0000     0.0000 </r>
       <r>   -20.7286     0.0000     0.0000 </r>
       <r>   -20.6218     0.0000     0.0000 </r>
       <r>   -20.5150     0.0000     0.0000 </r>
       <r>   -20.4082     0.0009     0.0001 </r>
       <r>   -20.3015     0.0345     0.0038 </r>
       <r>   -20.1947     0.2516     0.0306 </r>
       <r>   -20.0879     0.5295     0.0872 </r>
       <r>   -19.9811     0.5761     0.1487 </r>
       <r>   -19.8743     0.6303     0.2160 </r>
       <r>   -19.7675     0.5291     0.2725 </r>
       <r>   -19.6607     0.6858     0.3458 </r>
       <r>   -19.5539     0.5414     0.4036 </r>
       <r>   -19.4471     0.5367     0.4609 </r>
       <r>   -19.3404     0.7678     0.5429 </r>
       <r>   -19.2336     0.4939     0.5956 </r>
       <r>   -19.1268     0.4852     0.6475 </r>
       <r>   -19.0200     0.7778     0.7305 </r>
       <r>   -18.9132     0.6724     0.8023 </r>
       <r>   -18.8064     0.3852     0.8435 </r>
       <r>   -18.6996     0.5363     0.9007 </r>
       <r>   -18.5928     0.8853     0.9953 </r>
       <r>   -18.4861     0.5942     1.0587 </r>
       <r>   -18.3793     0.4888     1.1109 </r>
       <r>   -18.2725     0.3723     1.1507 </r>
       <r>   -18.1657     0.8193     1.2382 </r>
       <r>   -18.0589     0.8634     1.3304 </r>
       <r>   -17.9521     0.4704     1.3806 </r>
       <r>   -17.8453     0.4071     1.4241 </r>
       <r>   -17.7385     0.5182     1.4794 </r>
       <r>   -17.6317     0.7673     1.5613 </r>
       <r>   -17.5250     0.8867     1.6560 </r>
       <r>   -17.4182     0.8041     1.7419 </r>
       <r>   -17.3114     0.9781     1.8464 </r>
       <r>   -17.2046     1.3083     1.9861 </r>
       <r>   -17.0978     1.8665     2.1854 </r>
       <r>   -16.9910     2.0593     2.4053 </r>
       <r>   -16.8842     2.3315     2.6543 </r>
       <r>   -16.7774     2.7076     2.9434 </r>
       <r>   -16.6706     1.7964     3.1353 </r>
       <r>   -16.5639     0.4665     3.1851 </r>
       <r>   -16.4571     0.8291     3.2736 </r>
       <r>   -16.3503     1.0912     3.3901 </r>
       <r>   -16.2435     0.6011     3.4543 </r>
       <r>   -16.1367     0.5382     3.5118 </r>
       <r>   -16.0299     0.4847     3.5636 </r>
       <r>   -15.9231     0.5055     3.6176 </r>
       <r>   -15.8163     0.4290     3.6634 </r>
       <r>   -15.7095     0.9598     3.7659 </r>
       <r>   -15.6028     1.0897     3.8822 </r>
       <r>   -15.4960     0.5397     3.9399 </r>
       <r>   -15.3892     0.4928     3.9925 </r>
       <r>   -15.2824     0.4239     4.0378 </r>
       <r>   -15.1756     0.5617     4.0977 </r>
       <r>   -15.0688     0.7848     4.1815 </r>
       <r>   -14.9620     1.4702     4.3385 </r>
       <r>   -14.8552     2.2999     4.5841 </r>
       <r>   -14.7484     2.4259     4.8432 </r>
       <r>   -14.6417     2.1107     5.0686 </r>
       <r>   -14.5349     1.4394     5.2223 </r>
       <r>   -14.4281     0.9981     5.3289 </r>
       <r>   -14.3213     1.6949     5.5099 </r>
       <r>   -14.2145     2.0491     5.7287 </r>
       <r>   -14.1077     1.6354     5.9034 </r>
       <r>   -14.0009     1.3646     6.0491 </r>
       <r>   -13.8941     1.6664     6.2270 </r>
       <r>   -13.7873     2.4684     6.4906 </r>
       <r>   -13.6806     2.3886     6.7457 </r>
       <r>   -13.5738     2.2589     6.9869 </r>
       <r>   -13.4670     1.3803     7.1343 </r>
       <r>   -13.3602     0.8167     7.2215 </r>
       <r>   -13.2534     0.4330     7.2678 </r>
       <r>   -13.1466     0.4686     7.3178 </r>
       <r>   -13.0398     0.8144     7.4048 </r>
       <r>   -12.9330     0.9273     7.5038 </r>
       <r>   -12.8262     0.6216     7.5702 </r>
       <r>   -12.7195     0.7979     7.6554 </r>
       <r>   -12.6127     0.9181     7.7535 </r>
       <r>   -12.5059     0.7362     7.8321 </r>
       <r>   -12.3991     0.7057     7.9074 </r>
       <r>   -12.2923     0.4623     7.9568 </r>
       <r>   -12.1855     0.6863     8.0301 </r>
       <r>   -12.0787     1.0708     8.1444 </r>
       <r>   -11.9719     0.5264     8.2007 </r>
       <r>   -11.8651     0.4019     8.2436 </r>
       <r>   -11.7584     0.4363     8.2902 </r>
       <r>   -11.6516     0.6527     8.3599 </r>
       <r>   -11.5448     0.9013     8.4561 </r>
       <r>   -11.4380     0.5930     8.5194 </r>
       <r>   -11.3312     0.2310     8.5441 </r>
       <r>   -11.2244     0.5229     8.6000 </r>
       <r>   -11.1176     0.7463     8.6797 </r>
       <r>   -11.0108     0.6858     8.7529 </r>
       <r>   -10.9040     0.9176     8.8509 </r>
       <r>   -10.7973     0.8989     8.9469 </r>
       <r>   -10.6905     0.3769     8.9871 </r>
       <r>   -10.5837     1.0092     9.0949 </r>
       <r>   -10.4769     1.6976     9.2762 </r>
       <r>   -10.3701     1.9451     9.4839 </r>
       <r>   -10.2633     1.9849     9.6959 </r>
       <r>   -10.1565     1.9657     9.9058 </r>
       <r>   -10.0497     2.1961    10.1403 </r>
       <r>    -9.9429     2.1541    10.3703 </r>
       <r>    -9.8362     1.3086    10.5101 </r>
       <r>    -9.7294     1.1522    10.6331 </r>
       <r>    -9.6226     1.7393    10.8189 </r>
       <r>    -9.5158     1.6072    10.9905 </r>
       <r>    -9.4090     2.0757    11.2121 </r>
       <r>    -9.3022     2.3565    11.4638 </r>
       <r>    -9.1954     1.7793    11.6538 </r>
       <r>    -9.0886     1.2326    11.7854 </r>
       <r>    -8.9818     0.8365    11.8747 </r>
       <r>    -8.8751     2.0478    12.0934 </r>
       <r>    -8.7683     2.7734    12.3896 </r>
       <r>    -8.6615     1.7968    12.5815 </r>
       <r>    -8.5547     1.0114    12.6895 </r>
       <r>    -8.4479     1.4277    12.8419 </r>
       <r>    -8.3411     2.5041    13.1093 </r>
       <r>    -8.2343     2.3703    13.3625 </r>
       <r>    -8.1275     1.5928    13.5326 </r>
       <r>    -8.0207     2.1170    13.7586 </r>
       <r>    -7.9140     3.0304    14.0823 </r>
       <r>    -7.8072     3.0985    14.4131 </r>
       <r>    -7.7004     2.6053    14.6914 </r>
       <r>    -7.5936     1.4323    14.8443 </r>
       <r>    -7.4868     0.9085    14.9413 </r>
       <r>    -7.3800     2.1612    15.1721 </r>
       <r>    -7.2732     2.3811    15.4264 </r>
       <r>    -7.1664     1.6148    15.5988 </r>
       <r>    -7.0596     1.4472    15.7534 </r>
       <r>    -6.9529     2.0618    15.9736 </r>
       <r>    -6.8461     2.2943    16.2186 </r>
       <r>    -6.7393     2.4334    16.4784 </r>
       <r>    -6.6325     2.8435    16.7821 </r>
       <r>    -6.5257     2.5290    17.0522 </r>
       <r>    -6.4189     2.7366    17.3444 </r>
       <r>    -6.3121     2.1947    17.5788 </r>
       <r>    -6.2053     2.2692    17.8211 </r>
       <r>    -6.0986     3.2708    18.1704 </r>
       <r>    -5.9918     3.1532    18.5071 </r>
       <r>    -5.8850     3.9220    18.9259 </r>
       <r>    -5.7782     3.4306    19.2923 </r>
       <r>    -5.6714     2.3614    19.5445 </r>
       <r>    -5.5646     2.6921    19.8319 </r>
       <r>    -5.4578     4.1174    20.2716 </r>
       <r>    -5.3510     4.3256    20.7336 </r>
       <r>    -5.2442     2.8478    21.0377 </r>
       <r>    -5.1375     2.1340    21.2655 </r>
       <r>    -5.0307     1.3066    21.4051 </r>
       <r>    -4.9239     1.2517    21.5387 </r>
       <r>    -4.8171     1.7763    21.7284 </r>
       <r>    -4.7103     1.5238    21.8912 </r>
       <r>    -4.6035     1.0646    22.0048 </r>
       <r>    -4.4967     1.1004    22.1224 </r>
       <r>    -4.3899     1.9134    22.3267 </r>
       <r>    -4.2831     3.0295    22.6502 </r>
       <r>    -4.1764     2.6799    22.9364 </r>
       <r>    -4.0696     2.2703    23.1788 </r>
       <r>    -3.9628     2.5855    23.4549 </r>
       <r>    -3.8560     3.1904    23.7956 </r>
       <r>    -3.7492     2.4268    24.0548 </r>
       <r>    -3.6424     2.4188    24.3131 </r>
       <r>    -3.5356     2.5318    24.5835 </r>
       <r>    -3.4288     2.0947    24.8072 </r>
       <r>    -3.3220     1.6103    24.9791 </r>
       <r>    -3.2153     1.6606    25.1564 </r>
       <r>    -3.1085     2.3310    25.4054 </r>
       <r>    -3.0017     2.2573    25.6464 </r>
       <r>    -2.8949     1.5376    25.8106 </r>
       <r>    -2.7881     1.5842    25.9798 </r>
       <r>    -2.6813     1.0291    26.0897 </r>
       <r>    -2.5745     1.2437    26.2225 </r>
       <r>    -2.4677     2.2251    26.4601 </r>
       <r>    -2.3609     2.1148    26.6860 </r>
       <r>    -2.2542     0.5904    26.7490 </r>
       <r>    -2.1474     0.6817    26.8218 </r>
       <r>    -2.0406     1.3728    26.9684 </r>
       <r>    -1.9338     1.1949    27.0960 </r>
       <r>    -1.8270     1.3751    27.2429 </r>
       <r>    -1.7202     1.3916    27.3915 </r>
       <r>    -1.6134     1.3081    27.5311 </r>
       <r>    -1.5066     1.0069    27.6387 </r>
       <r>    -1.3998     0.4735    27.6892 </r>
       <r>    -1.2931     0.5431    27.7472 </r>
       <r>    -1.1863     0.5471    27.8057 </r>
       <r>    -1.0795     0.4162    27.8501 </r>
       <r>    -0.9727     0.6774    27.9224 </r>
       <r>    -0.8659     0.4866    27.9744 </r>
       <r>    -0.7591     0.1009    27.9852 </r>
       <r>    -0.6523     0.0087    27.9861 </r>
       <r>    -0.5455     0.0002    27.9861 </r>
       <r>    -0.4387     0.0024    27.9864 </r>
       <r>    -0.3320     0.0492    27.9916 </r>
       <r>    -0.2252     0.1422    28.0068 </r>
       <r>    -0.1184     0.0624    28.0135 </r>
       <r>    -0.0116     0.0039    28.0139 </r>
       <r>     0.0952     0.0000    28.0139 </r>
       <r>     0.2020     0.0009    28.0140 </r>
       <r>     0.3088     0.0482    28.0191 </r>
       <r>     0.4156     0.3344    28.0549 </r>
       <r>     0.5224     0.3459    28.0918 </r>
       <r>     0.6291     0.1330    28.1060 </r>
       <r>     0.7359     0.4723    28.1564 </r>
       <r>     0.8427     0.7606    28.2376 </r>
       <r>     0.9495     1.1591    28.3614 </r>
       <r>     1.0563     2.8173    28.6623 </r>
       <r>     1.1631     2.7726    28.9584 </r>
       <r>     1.2699     0.9015    29.0546 </r>
       <r>     1.3767     0.3865    29.0959 </r>
       <r>     1.4835     0.8346    29.1850 </r>
       <r>     1.5902     1.7249    29.3692 </r>
       <r>     1.6970     2.4255    29.6283 </r>
       <r>     1.8038     1.8761    29.8286 </r>
       <r>     1.9106     1.0382    29.9395 </r>
       <r>     2.0174     0.8917    30.0347 </r>
       <r>     2.1242     1.3399    30.1778 </r>
       <r>     2.2310     0.9447    30.2787 </r>
       <r>     2.3378     1.0637    30.3923 </r>
       <r>     2.4446     0.9443    30.4931 </r>
       <r>     2.5513     0.9537    30.5949 </r>
       <r>     2.6581     1.5950    30.7653 </r>
       <r>     2.7649     1.1334    30.8863 </r>
       <r>     2.8717     0.6551    30.9563 </r>
       <r>     2.9785     1.0112    31.0642 </r>
       <r>     3.0853     1.4508    31.2192 </r>
       <r>     3.1921     1.3499    31.3633 </r>
       <r>     3.2989     1.2664    31.4986 </r>
       <r>     3.4057     1.2857    31.6359 </r>
       <r>     3.5124     1.1331    31.7569 </r>
       <r>     3.6192     2.1990    31.9917 </r>
       <r>     3.7260     2.9035    32.3017 </r>
       <r>     3.8328     2.9947    32.6216 </r>
       <r>     3.9396     2.6851    32.9083 </r>
       <r>     4.0464     2.9237    33.2205 </r>
       <r>     4.1532     3.2651    33.5692 </r>
       <r>     4.2600     3.2228    33.9133 </r>
       <r>     4.3668     3.0883    34.2431 </r>
       <r>     4.4735     3.2291    34.5880 </r>
       <r>     4.5803     2.7975    34.8867 </r>
       <r>     4.6871     2.6132    35.1658 </r>
       <r>     4.7939     3.3394    35.5224 </r>
       <r>     4.9007     3.6176    35.9087 </r>
       <r>     5.0075     2.7740    36.2049 </r>
       <r>     5.1143     3.1562    36.5420 </r>
       <r>     5.2211     3.1734    36.8809 </r>
       <r>     5.3279     2.5893    37.1574 </r>
       <r>     5.4346     2.9871    37.4764 </r>
       <r>     5.5414     3.2425    37.8226 </r>
       <r>     5.6482     3.6114    38.2083 </r>
       <r>     5.7550     2.4486    38.4698 </r>
       <r>     5.8618     2.6157    38.7491 </r>
       <r>     5.9686     2.7807    39.0460 </r>
       <r>     6.0754     2.8517    39.3506 </r>
       <r>     6.1822     1.9841    39.5625 </r>
       <r>     6.2890     2.1771    39.7949 </r>
       <r>     6.3957     2.7298    40.0865 </r>
       <r>     6.5025     3.3299    40.4420 </r>
       <r>     6.6093     3.1849    40.7822 </r>
       <r>     6.7161     3.0397    41.1068 </r>
       <r>     6.8229     4.1224    41.5470 </r>
       <r>     6.9297     3.6571    41.9375 </r>
       <r>     7.0365     3.3072    42.2907 </r>
       <r>     7.1433     3.3786    42.6515 </r>
       <r>     7.2500     2.8545    42.9563 </r>
       <r>     7.3568     2.2224    43.1937 </r>
       <r>     7.4636     2.9133    43.5048 </r>
       <r>     7.5704     3.0718    43.8328 </r>
       <r>     7.6772     2.7015    44.1213 </r>
       <r>     7.7840     3.3940    44.4837 </r>
       <r>     7.8908     3.9758    44.9083 </r>
       <r>     7.9976     4.0099    45.3365 </r>
       <r>     8.1044     4.1134    45.7758 </r>
       <r>     8.2111     4.0781    46.2113 </r>
       <r>     8.3179     3.5609    46.5915 </r>
       <r>     8.4247     4.5747    47.0801 </r>
       <r>     8.5315     4.2538    47.5343 </r>
       <r>     8.6383     2.2405    47.7736 </r>
       <r>     8.7451     1.1670    47.8982 </r>
       <r>     8.8519     0.5355    47.9554 </r>
       <r>     8.9587     0.3428    47.9920 </r>
       <r>     9.0655     0.0721    47.9997 </r>
       <r>     9.1722     0.0027    48.0000 </r>
       <r>     9.2790     0.0000    48.0000 </r>
       <r>     9.3858     0.0000    48.0000 </r>
       <r>     9.4926     0.0000    48.0000 </r>
       <r>     9.5994     0.0000    48.0000 </r>
       <r>     9.7062     0.0000    48.0000 </r>
       <r>     9.8130     0.0000    48.0000 </r>
       <r>     9.9198     0.0000    48.0000 </r>
       <r>    10.0266     0.0000    48.0000 </r>
       <r>    10.1333     0.0000    48.0000 </r>
       <r>    10.2401     0.0000    48.0000 </r>
       <r>    10.3469     0.0000    48.0000 </r>
      </set>
     </set>
    </array>
   </total>
  </dos>
 </calculation>
 <structure name="finalpos" >
  <crystal>
   <varray name="basis" >
    <v>       4.18983090       2.41900000       0.00000000 </v>
    <v>      -4.18983090       2.41900000       0.00000000 </v>
    <v>       0.00000000       0.00000000      15.00000000 </v>
   </varray>
   <i name="volume">    304.05602867 </i>
   <varray name="rec_basis" >
    <v>       0.11933656       0.20669698       0.00000000 </v>
    <v>      -0.11933656       0.20669698       0.00000000 </v>
    <v>       0.00000000       0.00000000       0.06666667 </v>
   </varray>
  </crystal>
  <varray name="positions" >
   <v>       0.02402073      -0.01597103       0.09780540 </v>
   <v>       0.37912494      -0.01601132       0.10131340 </v>
   <v>       0.02377833       0.33867195       0.10194332 </v>
   <v>       0.66907068       0.62875267       0.10178306 </v>
   <v>       0.34785808       0.30744954       0.10123710 </v>
   <v>       0.70051513      -0.01579592       0.10115012 </v>
   <v>       0.02414206       0.66008170       0.10129712 </v>
   <v>       0.06604796       0.43320435       0.33722800 </v>
   <v>       0.23247174       0.26636771       0.33757026 </v>
   <v>       0.06588170       0.93326335       0.33751146 </v>
   <v>       0.23269810       0.76665628       0.33733404 </v>
   <v>       0.56597717       0.43331832       0.33738028 </v>
   <v>       0.73255942       0.26656489       0.33710957 </v>
   <v>       0.56580355       0.93299535       0.33727009 </v>
   <v>       0.73267772       0.76655281       0.33744611 </v>
  </varray>
 </structure>
</modeling>
