  16  16   0   4
  0.2070545E+02  0.5050000E-09  0.5050000E-09  0.1500000E-08  0.5000000E-15
  1.000000000000000E-004
  CAR 
 Lattice                                 
      9.25072893    -20.86409793  301     -0.30524538      1.00000000
    -20.864  0.0000E+00  0.0000E+00  0.0000E+00  0.0000E+00
    -20.764  0.0000E+00  0.0000E+00  0.0000E+00  0.0000E+00
    -20.663  0.0000E+00  0.0000E+00  0.0000E+00  0.0000E+00
    -20.563  0.0000E+00  0.0000E+00  0.0000E+00  0.0000E+00
    -20.463  0.0000E+00  0.0000E+00  0.0000E+00  0.0000E+00
    -20.362  0.0000E+00  0.0000E+00  0.0000E+00  0.0000E+00
    -20.262  0.0000E+00  0.0000E+00  0.0000E+00  0.0000E+00
    -20.161  0.0000E+00  0.0000E+00  0.0000E+00  0.0000E+00
    -20.061  0.3300E-18  0.3300E-18  0.3313E-19  0.3313E-19
    -19.961  0.1408E-13  0.1408E-13  0.1413E-14  0.1413E-14
    -19.860  0.8328E-10  0.8328E-10  0.8361E-11  0.8361E-11
    -19.760  0.7697E-07  0.7697E-07  0.7735E-08  0.7735E-08
    -19.660  0.1194E-04  0.1194E-04  0.1206E-05  0.1206E-05
    -19.559  0.3400E-03  0.3400E-03  0.3533E-04  0.3533E-04
    -19.459  0.2141E-02  0.2141E-02  0.2503E-03  0.2503E-03
    -19.358  0.4385E-02  0.4385E-02  0.6904E-03  0.6904E-03
    -19.258  0.4898E-02  0.4898E-02  0.1182E-02  0.1182E-02
    -19.158  0.5211E-02  0.5211E-02  0.1705E-02  0.1705E-02
    -19.057  0.4609E-02  0.4609E-02  0.2168E-02  0.2168E-02
    -18.957  0.5670E-02  0.5670E-02  0.2737E-02  0.2737E-02
    -18.856  0.4500E-02  0.4500E-02  0.3189E-02  0.3189E-02
    -18.756  0.4830E-02  0.4830E-02  0.3673E-02  0.3673E-02
    -18.656  0.6215E-02  0.6215E-02  0.4297E-02  0.4297E-02
    -18.555  0.4006E-02  0.4006E-02  0.4699E-02  0.4699E-02
    -18.455  0.4565E-02  0.4565E-02  0.5158E-02  0.5158E-02
    -18.355  0.6486E-02  0.6486E-02  0.5809E-02  0.5809E-02
    -18.254  0.5261E-02  0.5261E-02  0.6337E-02  0.6337E-02
    -18.154  0.3189E-02  0.3189E-02  0.6657E-02  0.6657E-02
    -18.053  0.5430E-02  0.5430E-02  0.7202E-02  0.7202E-02
    -17.953  0.7018E-02  0.7018E-02  0.7907E-02  0.7907E-02
    -17.853  0.4691E-02  0.4691E-02  0.8377E-02  0.8377E-02
    -17.752  0.3811E-02  0.3811E-02  0.8760E-02  0.8760E-02
    -17.652  0.3941E-02  0.3941E-02  0.9156E-02  0.9156E-02
    -17.551  0.7567E-02  0.7567E-02  0.9915E-02  0.9915E-02
    -17.451  0.6259E-02  0.6259E-02  0.1054E-01  0.1054E-01
    -17.351  0.3445E-02  0.3445E-02  0.1089E-01  0.1089E-01
    -17.250  0.3915E-02  0.3915E-02  0.1128E-01  0.1128E-01
    -17.150  0.4903E-02  0.4903E-02  0.1177E-01  0.1177E-01
    -17.050  0.7310E-02  0.7310E-02  0.1251E-01  0.1251E-01
    -16.949  0.6524E-02  0.6524E-02  0.1316E-01  0.1316E-01
    -16.849  0.4321E-02  0.4321E-02  0.1360E-01  0.1360E-01
    -16.748  0.2458E-02  0.2458E-02  0.1384E-01  0.1384E-01
    -16.648  0.5110E-02  0.5110E-02  0.1436E-01  0.1436E-01
    -16.548  0.7396E-02  0.7396E-02  0.1510E-01  0.1510E-01
    -16.447  0.6550E-02  0.6550E-02  0.1576E-01  0.1576E-01
    -16.347  0.5361E-02  0.5361E-02  0.1629E-01  0.1629E-01
    -16.246  0.4491E-02  0.4491E-02  0.1675E-01  0.1675E-01
    -16.146  0.2581E-02  0.2581E-02  0.1700E-01  0.1700E-01
    -16.046  0.5040E-02  0.5040E-02  0.1751E-01  0.1751E-01
    -15.945  0.1181E-01  0.1181E-01  0.1870E-01  0.1870E-01
    -15.845  0.1170E-01  0.1170E-01  0.1987E-01  0.1987E-01
    -15.745  0.1118E-01  0.1118E-01  0.2099E-01  0.2099E-01
    -15.644  0.1073E-01  0.1073E-01  0.2207E-01  0.2207E-01
    -15.544  0.1123E-01  0.1123E-01  0.2320E-01  0.2320E-01
    -15.443  0.1025E-01  0.1025E-01  0.2423E-01  0.2423E-01
    -15.343  0.1574E-01  0.1574E-01  0.2581E-01  0.2581E-01
    -15.243  0.1713E-01  0.1713E-01  0.2752E-01  0.2752E-01
    -15.142  0.1559E-01  0.1559E-01  0.2909E-01  0.2909E-01
    -15.042  0.1255E-01  0.1255E-01  0.3035E-01  0.3035E-01
    -14.942  0.9619E-02  0.9619E-02  0.3132E-01  0.3132E-01
    -14.841  0.7326E-02  0.7326E-02  0.3205E-01  0.3205E-01
    -14.741  0.7605E-02  0.7605E-02  0.3281E-01  0.3281E-01
    -14.640  0.1210E-01  0.1210E-01  0.3403E-01  0.3403E-01
    -14.540  0.1160E-01  0.1160E-01  0.3519E-01  0.3519E-01
    -14.440  0.1293E-01  0.1293E-01  0.3649E-01  0.3649E-01
    -14.339  0.1057E-01  0.1057E-01  0.3755E-01  0.3755E-01
    -14.239  0.9608E-02  0.9608E-02  0.3852E-01  0.3852E-01
    -14.138  0.1021E-01  0.1021E-01  0.3954E-01  0.3954E-01
    -14.038  0.1337E-01  0.1337E-01  0.4088E-01  0.4088E-01
    -13.938  0.1072E-01  0.1072E-01  0.4196E-01  0.4196E-01
    -13.837  0.5373E-02  0.5373E-02  0.4250E-01  0.4250E-01
    -13.737  0.3037E-02  0.3037E-02  0.4280E-01  0.4280E-01
    -13.637  0.4397E-02  0.4397E-02  0.4324E-01  0.4324E-01
    -13.536  0.6684E-02  0.6684E-02  0.4392E-01  0.4392E-01
    -13.436  0.6001E-02  0.6001E-02  0.4452E-01  0.4452E-01
    -13.335  0.4947E-02  0.4947E-02  0.4501E-01  0.4501E-01
    -13.235  0.5303E-02  0.5303E-02  0.4555E-01  0.4555E-01
    -13.135  0.8181E-02  0.8181E-02  0.4637E-01  0.4637E-01
    -13.034  0.6615E-02  0.6615E-02  0.4703E-01  0.4703E-01
    -12.934  0.6997E-02  0.6997E-02  0.4773E-01  0.4773E-01
    -12.833  0.7385E-02  0.7385E-02  0.4848E-01  0.4848E-01
    -12.733  0.9977E-02  0.9977E-02  0.4948E-01  0.4948E-01
    -12.633  0.1404E-01  0.1404E-01  0.5089E-01  0.5089E-01
    -12.532  0.1347E-01  0.1347E-01  0.5224E-01  0.5224E-01
    -12.432  0.1537E-01  0.1537E-01  0.5378E-01  0.5378E-01
    -12.332  0.1377E-01  0.1377E-01  0.5516E-01  0.5516E-01
    -12.231  0.1640E-01  0.1640E-01  0.5681E-01  0.5681E-01
    -12.131  0.1728E-01  0.1728E-01  0.5854E-01  0.5854E-01
    -12.030  0.1532E-01  0.1532E-01  0.6008E-01  0.6008E-01
    -11.930  0.1764E-01  0.1764E-01  0.6185E-01  0.6185E-01
    -11.830  0.1392E-01  0.1392E-01  0.6325E-01  0.6325E-01
    -11.729  0.8154E-02  0.8154E-02  0.6407E-01  0.6407E-01
    -11.629  0.6058E-02  0.6058E-02  0.6468E-01  0.6468E-01
    -11.529  0.5979E-02  0.5979E-02  0.6528E-01  0.6528E-01
    -11.428  0.6255E-02  0.6255E-02  0.6591E-01  0.6591E-01
    -11.328  0.5390E-02  0.5390E-02  0.6645E-01  0.6645E-01
    -11.227  0.5563E-02  0.5563E-02  0.6701E-01  0.6701E-01
    -11.127  0.4767E-02  0.4767E-02  0.6748E-01  0.6748E-01
    -11.027  0.3817E-02  0.3817E-02  0.6787E-01  0.6787E-01
    -10.926  0.7884E-02  0.7884E-02  0.6866E-01  0.6866E-01
    -10.826  0.1175E-01  0.1175E-01  0.6984E-01  0.6984E-01
    -10.725  0.1137E-01  0.1137E-01  0.7098E-01  0.7098E-01
    -10.625  0.1204E-01  0.1204E-01  0.7219E-01  0.7219E-01
    -10.525  0.1490E-01  0.1490E-01  0.7368E-01  0.7368E-01
    -10.424  0.1234E-01  0.1234E-01  0.7492E-01  0.7492E-01
    -10.324  0.1319E-01  0.1319E-01  0.7625E-01  0.7625E-01
    -10.224  0.9301E-02  0.9300E-02  0.7718E-01  0.7718E-01
    -10.123  0.9758E-02  0.9758E-02  0.7816E-01  0.7816E-01
    -10.023  0.8652E-02  0.8652E-02  0.7903E-01  0.7903E-01
     -9.922  0.7965E-02  0.7965E-02  0.7983E-01  0.7983E-01
     -9.822  0.1179E-01  0.1179E-01  0.8101E-01  0.8101E-01
     -9.722  0.1124E-01  0.1124E-01  0.8214E-01  0.8214E-01
     -9.621  0.1716E-01  0.1716E-01  0.8386E-01  0.8386E-01
     -9.521  0.1643E-01  0.1643E-01  0.8551E-01  0.8551E-01
     -9.420  0.1370E-01  0.1370E-01  0.8689E-01  0.8689E-01
     -9.320  0.1785E-01  0.1785E-01  0.8868E-01  0.8868E-01
     -9.220  0.1337E-01  0.1337E-01  0.9002E-01  0.9002E-01
     -9.119  0.1061E-01  0.1061E-01  0.9108E-01  0.9108E-01
     -9.019  0.1457E-01  0.1457E-01  0.9255E-01  0.9255E-01
     -8.919  0.2305E-01  0.2305E-01  0.9486E-01  0.9486E-01
     -8.818  0.1889E-01  0.1889E-01  0.9676E-01  0.9676E-01
     -8.718  0.6420E-02  0.6420E-02  0.9740E-01  0.9740E-01
     -8.617  0.7532E-02  0.7532E-02  0.9816E-01  0.9816E-01
     -8.517  0.1507E-01  0.1507E-01  0.9967E-01  0.9967E-01
     -8.417  0.1926E-01  0.1926E-01  0.1016E+00  0.1016E+00
     -8.316  0.1569E-01  0.1569E-01  0.1032E+00  0.1032E+00
     -8.216  0.1480E-01  0.1480E-01  0.1047E+00  0.1047E+00
     -8.115  0.1068E-01  0.1068E-01  0.1057E+00  0.1057E+00
     -8.015  0.9504E-02  0.9504E-02  0.1067E+00  0.1067E+00
     -7.915  0.1412E-01  0.1412E-01  0.1081E+00  0.1081E+00
     -7.814  0.1929E-01  0.1929E-01  0.1100E+00  0.1100E+00
     -7.714  0.2120E-01  0.2120E-01  0.1122E+00  0.1122E+00
     -7.614  0.1544E-01  0.1544E-01  0.1137E+00  0.1137E+00
     -7.513  0.1541E-01  0.1541E-01  0.1153E+00  0.1153E+00
     -7.413  0.1272E-01  0.1272E-01  0.1165E+00  0.1165E+00
     -7.312  0.1699E-01  0.1699E-01  0.1182E+00  0.1182E+00
     -7.212  0.2115E-01  0.2115E-01  0.1204E+00  0.1204E+00
     -7.112  0.1485E-01  0.1485E-01  0.1219E+00  0.1219E+00
     -7.011  0.1800E-01  0.1800E-01  0.1237E+00  0.1237E+00
     -6.911  0.2289E-01  0.2289E-01  0.1260E+00  0.1260E+00
     -6.811  0.2476E-01  0.2476E-01  0.1285E+00  0.1285E+00
     -6.710  0.2524E-01  0.2524E-01  0.1310E+00  0.1310E+00
     -6.610  0.3286E-01  0.3286E-01  0.1343E+00  0.1343E+00
     -6.509  0.3278E-01  0.3278E-01  0.1376E+00  0.1376E+00
     -6.409  0.2260E-01  0.2260E-01  0.1398E+00  0.1398E+00
     -6.309  0.1780E-01  0.1780E-01  0.1416E+00  0.1416E+00
     -6.208  0.1590E-01  0.1590E-01  0.1432E+00  0.1432E+00
     -6.108  0.1871E-01  0.1871E-01  0.1451E+00  0.1451E+00
     -6.007  0.1888E-01  0.1888E-01  0.1470E+00  0.1470E+00
     -5.907  0.1608E-01  0.1608E-01  0.1486E+00  0.1486E+00
     -5.807  0.1564E-01  0.1564E-01  0.1502E+00  0.1502E+00
     -5.706  0.1665E-01  0.1665E-01  0.1519E+00  0.1519E+00
     -5.606  0.1389E-01  0.1389E-01  0.1533E+00  0.1533E+00
     -5.506  0.1279E-01  0.1279E-01  0.1545E+00  0.1545E+00
     -5.405  0.1648E-01  0.1648E-01  0.1562E+00  0.1562E+00
     -5.305  0.1714E-01  0.1714E-01  0.1579E+00  0.1579E+00
     -5.204  0.1613E-01  0.1613E-01  0.1595E+00  0.1595E+00
     -5.104  0.1407E-01  0.1407E-01  0.1609E+00  0.1609E+00
     -5.004  0.1959E-01  0.1959E-01  0.1629E+00  0.1629E+00
     -4.903  0.1971E-01  0.1971E-01  0.1649E+00  0.1649E+00
     -4.803  0.1096E-01  0.1096E-01  0.1660E+00  0.1660E+00
     -4.702  0.1110E-01  0.1110E-01  0.1671E+00  0.1671E+00
     -4.602  0.1900E-01  0.1900E-01  0.1690E+00  0.1690E+00
     -4.502  0.1964E-01  0.1964E-01  0.1710E+00  0.1710E+00
     -4.401  0.1797E-01  0.1797E-01  0.1728E+00  0.1728E+00
     -4.301  0.2291E-01  0.2291E-01  0.1751E+00  0.1751E+00
     -4.201  0.2535E-01  0.2535E-01  0.1776E+00  0.1776E+00
     -4.100  0.2285E-01  0.2285E-01  0.1799E+00  0.1799E+00
     -4.000  0.2413E-01  0.2413E-01  0.1823E+00  0.1823E+00
     -3.899  0.2950E-01  0.2950E-01  0.1853E+00  0.1853E+00
     -3.799  0.2510E-01  0.2510E-01  0.1878E+00  0.1878E+00
     -3.699  0.1873E-01  0.1873E-01  0.1897E+00  0.1897E+00
     -3.598  0.1852E-01  0.1852E-01  0.1916E+00  0.1916E+00
     -3.498  0.1513E-01  0.1513E-01  0.1931E+00  0.1931E+00
     -3.397  0.1174E-01  0.1174E-01  0.1943E+00  0.1943E+00
     -3.297  0.6342E-02  0.6342E-02  0.1949E+00  0.1949E+00
     -3.197  0.9248E-02  0.9248E-02  0.1958E+00  0.1958E+00
     -3.096  0.1375E-01  0.1375E-01  0.1972E+00  0.1972E+00
     -2.996  0.1648E-01  0.1648E-01  0.1989E+00  0.1989E+00
     -2.896  0.1322E-01  0.1322E-01  0.2002E+00  0.2002E+00
     -2.795  0.1288E-01  0.1288E-01  0.2015E+00  0.2015E+00
     -2.695  0.9574E-02  0.9574E-02  0.2024E+00  0.2024E+00
     -2.594  0.1188E-01  0.1188E-01  0.2036E+00  0.2036E+00
     -2.494  0.1528E-01  0.1528E-01  0.2052E+00  0.2052E+00
     -2.394  0.1282E-01  0.1282E-01  0.2065E+00  0.2065E+00
     -2.293  0.1060E-01  0.1060E-01  0.2075E+00  0.2075E+00
     -2.193  0.1214E-01  0.1214E-01  0.2087E+00  0.2087E+00
     -2.093  0.6681E-02  0.6681E-02  0.2094E+00  0.2094E+00
     -1.992  0.4527E-02  0.4527E-02  0.2099E+00  0.2099E+00
     -1.892  0.6683E-02  0.6683E-02  0.2105E+00  0.2105E+00
     -1.791  0.9417E-02  0.9417E-02  0.2115E+00  0.2115E+00
     -1.691  0.8188E-02  0.8188E-02  0.2123E+00  0.2123E+00
     -1.591  0.9501E-02  0.9501E-02  0.2133E+00  0.2133E+00
     -1.490  0.7581E-02  0.7581E-02  0.2140E+00  0.2140E+00
     -1.390  0.4752E-02  0.4752E-02  0.2145E+00  0.2145E+00
     -1.289  0.5438E-02  0.5438E-02  0.2150E+00  0.2150E+00
     -1.189  0.6606E-02  0.6606E-02  0.2157E+00  0.2157E+00
     -1.089  0.7183E-02  0.7183E-02  0.2164E+00  0.2164E+00
     -0.988  0.6105E-02  0.6105E-02  0.2170E+00  0.2170E+00
     -0.888  0.3372E-02  0.3372E-02  0.2174E+00  0.2174E+00
     -0.788  0.1576E-02  0.1576E-02  0.2175E+00  0.2175E+00
     -0.687  0.1118E-02  0.1118E-02  0.2176E+00  0.2176E+00
     -0.587  0.3626E-02  0.3626E-02  0.2180E+00  0.2180E+00
     -0.486  0.3532E-02  0.3532E-02  0.2184E+00  0.2184E+00
     -0.386  0.1591E-02  0.1591E-02  0.2185E+00  0.2185E+00
     -0.286  0.2976E-02  0.2976E-02  0.2188E+00  0.2188E+00
     -0.185  0.4580E-02  0.4580E-02  0.2193E+00  0.2193E+00
     -0.085  0.4228E-02  0.4228E-02  0.2197E+00  0.2197E+00
      0.016  0.4710E-02  0.4710E-02  0.2202E+00  0.2202E+00
      0.116  0.8038E-02  0.8038E-02  0.2210E+00  0.2210E+00
      0.216  0.1143E-01  0.1143E-01  0.2221E+00  0.2221E+00
      0.317  0.1288E-01  0.1288E-01  0.2234E+00  0.2234E+00
      0.417  0.1001E-01  0.1001E-01  0.2244E+00  0.2244E+00
      0.517  0.4789E-02  0.4789E-02  0.2249E+00  0.2249E+00
      0.618  0.9446E-02  0.9446E-02  0.2259E+00  0.2259E+00
      0.718  0.9970E-02  0.9970E-02  0.2269E+00  0.2269E+00
      0.819  0.5029E-02  0.5029E-02  0.2274E+00  0.2274E+00
      0.919  0.3459E-02  0.3459E-02  0.2277E+00  0.2277E+00
      1.019  0.7625E-02  0.7625E-02  0.2285E+00  0.2285E+00
      1.120  0.1716E-01  0.1716E-01  0.2302E+00  0.2302E+00
      1.220  0.2103E-01  0.2103E-01  0.2323E+00  0.2323E+00
      1.320  0.1609E-01  0.1609E-01  0.2339E+00  0.2339E+00
      1.421  0.9606E-02  0.9606E-02  0.2349E+00  0.2349E+00
      1.521  0.9867E-02  0.9867E-02  0.2359E+00  0.2359E+00
      1.622  0.1038E-01  0.1038E-01  0.2369E+00  0.2369E+00
      1.722  0.8387E-02  0.8387E-02  0.2378E+00  0.2378E+00
      1.822  0.1321E-01  0.1321E-01  0.2391E+00  0.2391E+00
      1.923  0.1622E-01  0.1622E-01  0.2407E+00  0.2407E+00
      2.023  0.1367E-01  0.1367E-01  0.2421E+00  0.2421E+00
      2.124  0.9437E-02  0.9437E-02  0.2430E+00  0.2430E+00
      2.224  0.5881E-02  0.5881E-02  0.2436E+00  0.2436E+00
      2.324  0.8855E-02  0.8855E-02  0.2445E+00  0.2445E+00
      2.425  0.1167E-01  0.1167E-01  0.2457E+00  0.2457E+00
      2.525  0.1469E-01  0.1469E-01  0.2472E+00  0.2472E+00
      2.625  0.1675E-01  0.1675E-01  0.2489E+00  0.2489E+00
      2.726  0.1559E-01  0.1559E-01  0.2504E+00  0.2504E+00
      2.826  0.1081E-01  0.1081E-01  0.2515E+00  0.2515E+00
      2.927  0.1215E-01  0.1215E-01  0.2527E+00  0.2527E+00
      3.027  0.1638E-01  0.1638E-01  0.2544E+00  0.2544E+00
      3.127  0.2150E-01  0.2150E-01  0.2565E+00  0.2565E+00
      3.228  0.1688E-01  0.1688E-01  0.2582E+00  0.2582E+00
      3.328  0.1731E-01  0.1730E-01  0.2600E+00  0.2600E+00
      3.429  0.2214E-01  0.2214E-01  0.2622E+00  0.2622E+00
      3.529  0.2779E-01  0.2779E-01  0.2650E+00  0.2650E+00
      3.629  0.2411E-01  0.2411E-01  0.2674E+00  0.2674E+00
      3.730  0.1666E-01  0.1666E-01  0.2691E+00  0.2691E+00
      3.830  0.1474E-01  0.1475E-01  0.2705E+00  0.2705E+00
      3.930  0.1959E-01  0.1959E-01  0.2725E+00  0.2725E+00
      4.031  0.2129E-01  0.2128E-01  0.2746E+00  0.2746E+00
      4.131  0.2005E-01  0.2005E-01  0.2767E+00  0.2767E+00
      4.232  0.1962E-01  0.1963E-01  0.2786E+00  0.2786E+00
      4.332  0.2242E-01  0.2242E-01  0.2809E+00  0.2809E+00
      4.432  0.2330E-01  0.2330E-01  0.2832E+00  0.2832E+00
      4.533  0.2538E-01  0.2538E-01  0.2858E+00  0.2858E+00
      4.633  0.2575E-01  0.2576E-01  0.2883E+00  0.2883E+00
      4.734  0.2229E-01  0.2230E-01  0.2906E+00  0.2906E+00
      4.834  0.1938E-01  0.1938E-01  0.2925E+00  0.2925E+00
      4.934  0.1965E-01  0.1965E-01  0.2945E+00  0.2945E+00
      5.035  0.2949E-01  0.2950E-01  0.2975E+00  0.2975E+00
      5.135  0.2608E-01  0.2607E-01  0.3001E+00  0.3001E+00
      5.235  0.2199E-01  0.2199E-01  0.3023E+00  0.3023E+00
      5.336  0.2887E-01  0.2888E-01  0.3052E+00  0.3052E+00
      5.436  0.3233E-01  0.3232E-01  0.3084E+00  0.3084E+00
      5.537  0.2630E-01  0.2630E-01  0.3111E+00  0.3111E+00
      5.637  0.2689E-01  0.2690E-01  0.3138E+00  0.3138E+00
      5.737  0.1811E-01  0.1810E-01  0.3156E+00  0.3156E+00
      5.838  0.1545E-01  0.1544E-01  0.3171E+00  0.3171E+00
      5.938  0.2797E-01  0.2798E-01  0.3199E+00  0.3200E+00
      6.038  0.3322E-01  0.3322E-01  0.3233E+00  0.3233E+00
      6.139  0.3206E-01  0.3206E-01  0.3265E+00  0.3265E+00
      6.239  0.3284E-01  0.3285E-01  0.3298E+00  0.3298E+00
      6.340  0.3017E-01  0.3015E-01  0.3328E+00  0.3328E+00
      6.440  0.2378E-01  0.2378E-01  0.3352E+00  0.3352E+00
      6.540  0.2847E-01  0.2849E-01  0.3381E+00  0.3381E+00
      6.641  0.3024E-01  0.3023E-01  0.3411E+00  0.3411E+00
      6.741  0.3106E-01  0.3105E-01  0.3442E+00  0.3442E+00
      6.842  0.3643E-01  0.3643E-01  0.3479E+00  0.3479E+00
      6.942  0.3479E-01  0.3478E-01  0.3514E+00  0.3514E+00
      7.042  0.3292E-01  0.3292E-01  0.3547E+00  0.3547E+00
      7.143  0.3037E-01  0.3037E-01  0.3577E+00  0.3577E+00
      7.243  0.2856E-01  0.2857E-01  0.3606E+00  0.3606E+00
      7.343  0.3612E-01  0.3612E-01  0.3642E+00  0.3642E+00
      7.444  0.3594E-01  0.3593E-01  0.3678E+00  0.3678E+00
      7.544  0.2642E-01  0.2642E-01  0.3705E+00  0.3705E+00
      7.645  0.1837E-01  0.1837E-01  0.3723E+00  0.3723E+00
      7.745  0.1546E-01  0.1546E-01  0.3739E+00  0.3739E+00
      7.845  0.7712E-02  0.7705E-02  0.3747E+00  0.3747E+00
      7.946  0.2834E-02  0.2831E-02  0.3749E+00  0.3749E+00
      8.046  0.6156E-03  0.6154E-03  0.3750E+00  0.3750E+00
      8.147  0.3290E-04  0.3290E-04  0.3750E+00  0.3750E+00
      8.247  0.2955E-06  0.2955E-06  0.3750E+00  0.3750E+00
      8.347  0.3956E-09  0.3956E-09  0.3750E+00  0.3750E+00
      8.448  0.7531E-13  0.7531E-13  0.3750E+00  0.3750E+00
      8.548  0.2160E-17  0.2160E-17  0.3750E+00  0.3750E+00
      8.648  0.0000E+00  0.0000E+00  0.3750E+00  0.3750E+00
      8.749  0.0000E+00  0.0000E+00  0.3750E+00  0.3750E+00
      8.849  0.0000E+00  0.0000E+00  0.3750E+00  0.3750E+00
      8.950  0.0000E+00  0.0000E+00  0.3750E+00  0.3750E+00
      9.050  0.0000E+00  0.0000E+00  0.3750E+00  0.3750E+00
      9.150  0.0000E+00  0.0000E+00  0.3750E+00  0.3750E+00
      9.251  0.0000E+00  0.0000E+00  0.3750E+00  0.3750E+00
