Lattice                                 
           1
     4.373428    2.525000    0.000000
    -4.373428    2.525000    0.000000
     0.000000    0.000000   15.000000
   B    C 
     8     8
Direct configuration=     1
   0.66888689  0.00000000  0.10000000
   0.33111211  0.00000000  0.10000000
   0.00000000  0.33111211  0.10000000
   0.00000000  0.66888689  0.10000000
   0.33111211  0.33111211  0.10000000
   0.66888689  0.66888689  0.10000000
   0.66666600  0.33333300  0.09922189
   0.33333300  0.66666600  0.10077811
   0.33333267  0.16666633  0.47060000
   0.49999967  0.99999933  0.47060000
   0.33333267  0.66666633  0.47060000
   0.49999967  0.49999933  0.47060000
   0.83333267  0.16666633  0.47060000
   0.99999967  0.99999933  0.47060000
   0.83333267  0.66666633  0.47060000
   0.99999967  0.49999933  0.47060000
Direct configuration=     2
   0.66888200 -0.00000008  0.10002496
   0.33111692 -0.00000008  0.10002496
   0.00000008  0.33111700  0.10002496
   0.00000008  0.66888208  0.10002496
   0.33111692  0.33111700  0.10002496
   0.66888200  0.66888208  0.10002496
   0.66666600  0.33333300  0.09926101
   0.33333300  0.66666600  0.10079694
   0.33332686  0.16666343  0.47057431
   0.50000088  0.00000175  0.47057378
   0.33333267  0.66666633  0.47057311
   0.50000088  0.49999812  0.47057378
   0.83333557  0.16666343  0.47057431
   0.99999967  0.99999933  0.47057490
   0.83333557  0.66667214  0.47057431
   0.99999725  0.49999812  0.47057378
Direct configuration=     3
   0.66886734 -0.00000031  0.10009984
   0.33113135 -0.00000031  0.10009984
   0.00000031  0.33113166  0.10009984
   0.00000031  0.66886765  0.10009984
   0.33113135  0.33113166  0.10009984
   0.66886734  0.66886765  0.10009984
   0.66666600  0.33333300  0.09937839
   0.33333300  0.66666600  0.10085340
   0.33330943  0.16665471  0.47049723
   0.50000450  0.00000901  0.47049514
   0.33333267  0.66666633  0.47049244
   0.50000450  0.49999450  0.47049514
   0.83334429  0.16665471  0.47049723
   0.99999967  0.99999933  0.47049961
   0.83334429  0.66668957  0.47049723
   0.99998999  0.49999450  0.47049514
Direct configuration=     4
   0.66883801 -0.00000078  0.10024960
   0.33116021 -0.00000078  0.10024960
   0.00000078  0.33116099  0.10024960
   0.00000078  0.66883879  0.10024960
   0.33116021  0.33116099  0.10024960
   0.66883801  0.66883879  0.10024960
   0.66666600  0.33333300  0.09961315
   0.33333300  0.66666600  0.10096633
   0.33327457  0.16663729  0.47034308
   0.50001176  0.00002352  0.47033785
   0.33333267  0.66666633  0.47033111
   0.50001176  0.49998724  0.47033785
   0.83336171  0.16663729  0.47034308
   0.99999967  0.99999933  0.47034902
   0.83336171  0.66672443  0.47034308
   0.99997548  0.49998724  0.47033785
Direct configuration=     5
   0.66877936 -0.00000172  0.10054912
   0.33121792 -0.00000172  0.10054912
   0.00000172  0.33121964  0.10054912
   0.00000172  0.66878108  0.10054912
   0.33121792  0.33121964  0.10054912
   0.66877936  0.66878108  0.10054912
   0.66666600  0.33333300  0.10008267
   0.33333300  0.66666600  0.10119220
   0.33320486  0.16660243  0.47003478
   0.50002628  0.00005255  0.47002326
   0.33333267  0.66666633  0.47000844
   0.50002628  0.49997272  0.47002326
   0.83339657  0.16660243  0.47003478
   0.99999967  0.99999933  0.47004784
   0.83339657  0.66679414  0.47003478
   0.99994645  0.49997272  0.47002326
Direct configuration=     6
   0.66866205 -0.00000361  0.10114817
   0.33133334 -0.00000361  0.10114817
   0.00000361  0.33133695  0.10114817
   0.00000361  0.66866566  0.10114817
   0.33133334  0.33133695  0.10114817
   0.66866205  0.66866566  0.10114817
   0.66666600  0.33333300  0.10102170
   0.33333300  0.66666600  0.10164393
   0.33306544  0.16653272  0.46941817
   0.50005531  0.00011061  0.46939409
   0.33333267  0.66666633  0.46936311
   0.50005531  0.49994369  0.46939409
   0.83346628  0.16653272  0.46941817
   0.99999967  0.99999933  0.46944548
   0.83346628  0.66693356  0.46941817
   0.99988839  0.49994369  0.46939409
Direct configuration=     7
   0.66842744 -0.00000737  0.10234626
   0.33156419 -0.00000737  0.10234626
   0.00000737  0.33157156  0.10234626
   0.00000737  0.66843481  0.10234626
   0.33156419  0.33157156  0.10234626
   0.66842744  0.66843481  0.10234626
   0.66666600  0.33333300  0.10289976
   0.33333300  0.66666600  0.10254740
   0.33278660  0.16639330  0.46818496
   0.50011336  0.00022673  0.46813575
   0.33333267  0.66666633  0.46807244
   0.50011336  0.49988564  0.46813575
   0.83360570  0.16639330  0.46818496
   0.99999967  0.99999933  0.46824076
   0.83360570  0.66721240  0.46818496
   0.99977227  0.49988564  0.46813575
Direct configuration=     8
   0.66795823 -0.00001489  0.10474243
   0.33202588 -0.00001489  0.10474243
   0.00001489  0.33204077  0.10474243
   0.00001489  0.66797312  0.10474243
   0.33202588  0.33204077  0.10474243
   0.66795823  0.66797312  0.10474243
   0.66666600  0.33333300  0.10665588
   0.33333300  0.66666600  0.10435432
   0.33222891  0.16611445  0.46571853
   0.50022948  0.00045896  0.46561906
   0.33333267  0.66666633  0.46549110
   0.50022948  0.49976952  0.46561906
   0.83388455  0.16611445  0.46571853
   0.99999967  0.99999933  0.46583133
   0.83388455  0.66777009  0.46571853
   0.99954004  0.49976952  0.46561906
Direct configuration=     9
   0.66795809 -0.00001489  0.10474427
   0.33202602 -0.00001489  0.10474427
   0.00001489  0.33204091  0.10474427
   0.00001489  0.66797298  0.10474427
   0.33202602  0.33204091  0.10474427
   0.66795809  0.66797298  0.10474427
   0.66666600  0.33333300  0.10665875
   0.33333300  0.66666600  0.10435570
   0.33222899  0.16611450  0.46571664
   0.50022946  0.00045891  0.46561714
   0.33333267  0.66666633  0.46548914
   0.50022946  0.49976954  0.46561714
   0.83388450  0.16611450  0.46571664
   0.99999967  0.99999933  0.46582948
   0.83388450  0.66777001  0.46571664
   0.99954009  0.49976954  0.46561714
Direct configuration=    10
   0.66795768 -0.00001488  0.10474978
   0.33202644 -0.00001488  0.10474978
   0.00001488  0.33204132  0.10474978
   0.00001488  0.66797256  0.10474978
   0.33202644  0.33204132  0.10474978
   0.66795768  0.66797256  0.10474978
   0.66666600  0.33333300  0.10666734
   0.33333300  0.66666600  0.10435984
   0.33222925  0.16611462  0.46571097
   0.50022939  0.00045877  0.46561136
   0.33333267  0.66666633  0.46548325
   0.50022939  0.49976961  0.46561136
   0.83388438  0.16611462  0.46571097
   0.99999967  0.99999933  0.46582391
   0.83388438  0.66776975  0.46571097
   0.99954023  0.49976961  0.46561136
Direct configuration=    11
   0.66795686 -0.00001487  0.10476081
   0.33202727 -0.00001487  0.10476081
   0.00001487  0.33204214  0.10476081
   0.00001487  0.66797173  0.10476081
   0.33202727  0.33204214  0.10476081
   0.66795686  0.66797173  0.10476081
   0.66666600  0.33333300  0.10668453
   0.33333300  0.66666600  0.10436811
   0.33222976  0.16611488  0.46569962
   0.50022925  0.00045849  0.46559981
   0.33333267  0.66666633  0.46547147
   0.50022925  0.49976975  0.46559981
   0.83388412  0.16611488  0.46569962
   0.99999967  0.99999933  0.46581277
   0.83388412  0.66776924  0.46569962
   0.99954051  0.49976975  0.46559981
Direct configuration=    12
   0.66795523 -0.00001483  0.10478285
   0.33202894 -0.00001483  0.10478285
   0.00001483  0.33204377  0.10478285
   0.00001483  0.66797006  0.10478285
   0.33202894  0.33204377  0.10478285
   0.66795523  0.66797006  0.10478285
   0.66666600  0.33333300  0.10671891
   0.33333300  0.66666600  0.10438464
   0.33223078  0.16611539  0.46567692
   0.50022897  0.00045794  0.46557672
   0.33333267  0.66666633  0.46544791
   0.50022897  0.49977003  0.46557672
   0.83388361  0.16611539  0.46567692
   0.99999967  0.99999933  0.46579048
   0.83388361  0.66776822  0.46567692
   0.99954106  0.49977003  0.46557672
Direct configuration=    13
   0.66795195 -0.00001476  0.10482695
   0.33203229 -0.00001476  0.10482695
   0.00001476  0.33204705  0.10482695
   0.00001476  0.66796671  0.10482695
   0.33203229  0.33204705  0.10482695
   0.66795195  0.66796671  0.10482695
   0.66666600  0.33333300  0.10678766
   0.33333300  0.66666600  0.10441772
   0.33223282  0.16611641  0.46563153
   0.50022841  0.00045682  0.46553053
   0.33333267  0.66666633  0.46540080
   0.50022841  0.49977059  0.46553053
   0.83388259  0.16611641  0.46563153
   0.99999967  0.99999933  0.46574592
   0.83388259  0.66776618  0.46563153
   0.99954218  0.49977059  0.46553053
Direct configuration=    14
   0.66794541 -0.00001462  0.10491515
   0.33203897 -0.00001462  0.10491515
   0.00001462  0.33205359  0.10491515
   0.00001462  0.66796003  0.10491515
   0.33203897  0.33205359  0.10491515
   0.66794541  0.66796003  0.10491515
   0.66666600  0.33333300  0.10692516
   0.33333300  0.66666600  0.10448387
   0.33223691  0.16611845  0.46554074
   0.50022729  0.00045459  0.46543815
   0.33333267  0.66666633  0.46530658
   0.50022729  0.49977171  0.46543815
   0.83388055  0.16611845  0.46554074
   0.99999967  0.99999933  0.46565680
   0.83388055  0.66776209  0.46554074
   0.99954441  0.49977171  0.46543815
Direct configuration=    15
   0.66793232 -0.00001434  0.10509155
   0.33205234 -0.00001434  0.10509155
   0.00001434  0.33206668  0.10509155
   0.00001434  0.66794666  0.10509155
   0.33205234  0.33206668  0.10509155
   0.66793232  0.66794666  0.10509155
   0.66666600  0.33333300  0.10720017
   0.33333300  0.66666600  0.10461618
   0.33224507  0.16612254  0.46535916
   0.50022506  0.00045013  0.46525340
   0.33333267  0.66666633  0.46511813
   0.50022506  0.49977394  0.46525340
   0.83387646  0.16612254  0.46535916
   0.99999967  0.99999933  0.46547856
   0.83387646  0.66775393  0.46535916
   0.99954887  0.49977394  0.46525340
Direct configuration=    16
   0.66790614 -0.00001378  0.10544434
   0.33207909 -0.00001378  0.10544434
   0.00001378  0.33209286  0.10544434
   0.00001378  0.66791991  0.10544434
   0.33207909  0.33209286  0.10544434
   0.66790614  0.66791991  0.10544434
   0.66666600  0.33333300  0.10775019
   0.33333300  0.66666600  0.10488079
   0.33226141  0.16613071  0.46499601
   0.50022060  0.00044120  0.46488389
   0.33333267  0.66666633  0.46474123
   0.50022060  0.49977840  0.46488389
   0.83386829  0.16613071  0.46499601
   0.99999967  0.99999933  0.46512208
   0.83386829  0.66773759  0.46499601
   0.99955780  0.49977840  0.46488389
Direct configuration=    17
   0.66785377 -0.00001266  0.10614992
   0.33213257 -0.00001266  0.10614992
   0.00001266  0.33214523  0.10614992
   0.00001266  0.66786643  0.10614992
   0.33213257  0.33214523  0.10614992
   0.66785377  0.66786643  0.10614992
   0.66666600  0.33333300  0.10885022
   0.33333300  0.66666600  0.10541000
   0.33229409  0.16614704  0.46426971
   0.50021167  0.00042334  0.46414487
   0.33333267  0.66666633  0.46398743
   0.50021167  0.49978733  0.46414487
   0.83385196  0.16614704  0.46426971
   0.99999967  0.99999933  0.46440911
   0.83385196  0.66770491  0.46426971
   0.99957566  0.49978733  0.46414487
Direct configuration=    18
   0.66774904 -0.00001041  0.10756108
   0.33223954 -0.00001041  0.10756108
   0.00001041  0.33224996  0.10756108
   0.00001041  0.66775946  0.10756108
   0.33223954  0.33224996  0.10756108
   0.66774904  0.66775946  0.10756108
   0.66666600  0.33333300  0.11105029
   0.33333300  0.66666600  0.10646844
   0.33235944  0.16617972  0.46281710
   0.50019382  0.00038764  0.46266683
   0.33333267  0.66666633  0.46247983
   0.50019382  0.49980518  0.46266683
   0.83381928  0.16617972  0.46281710
   0.99999967  0.99999933  0.46298317
   0.83381928  0.66763956  0.46281710
   0.99961136  0.49980518  0.46266683
Direct configuration=    19
   0.66753959 -0.00000592  0.11038340
   0.33245349 -0.00000592  0.11038340
   0.00000592  0.33245941  0.11038340
   0.00000592  0.66754551  0.11038340
   0.33245349  0.33245941  0.11038340
   0.66753959  0.66754551  0.11038340
   0.66666600  0.33333300  0.11545042
   0.33333300  0.66666600  0.10858531
   0.33249013  0.16624507  0.45991189
   0.50015811  0.00031622  0.45971075
   0.33333267  0.66666633  0.45946463
   0.50015811  0.49984089  0.45971075
   0.83375393  0.16624507  0.45991189
   0.99999967  0.99999933  0.46013130
   0.83375393  0.66750887  0.45991189
   0.99968278  0.49984089  0.45971075
Direct configuration=    20
   0.66712068  0.00000306  0.11602805
   0.33288138  0.00000306  0.11602805
  -0.00000306  0.33287832  0.11602805
  -0.00000306  0.66711762  0.11602805
   0.33288138  0.33287832  0.11602805
   0.66712068  0.66711762  0.11602805
   0.66666600  0.33333300  0.12425069
   0.33333300  0.66666600  0.11281906
   0.33275153  0.16637577  0.45410147
   0.50008670  0.00017339  0.45379858
   0.33333267  0.66666633  0.45343424
   0.50008670  0.49991230  0.45379858
   0.83362323  0.16637577  0.45410147
   0.99999967  0.99999933  0.45442755
   0.83362323  0.66724747  0.45410147
   0.99982561  0.49991230  0.45379858
Direct configuration=    21
   0.66628286  0.00002101  0.12731734
   0.33373715  0.00002101  0.12731734
  -0.00002101  0.33371614  0.12731734
  -0.00002101  0.66626185  0.12731734
   0.33373715  0.33371614  0.12731734
   0.66628286  0.66626185  0.12731734
   0.66666600  0.33333300  0.14185123
   0.33333300  0.66666600  0.12128656
   0.33327433  0.16663717  0.44248063
   0.49994386 -0.00011227  0.44197426
   0.33333267  0.66666633  0.44137345
   0.49994386  0.50005514  0.44197426
   0.83336183  0.16663717  0.44248063
   0.99999967  0.99999933  0.44302006
   0.83336183  0.66672467  0.44248063
   0.00011127  0.50005514  0.44197426
Direct configuration=    22
   0.66460722  0.00005693  0.14989592
   0.33544870  0.00005693  0.14989592
  -0.00005693  0.33539178  0.14989592
  -0.00005693  0.66455030  0.14989592
   0.33544870  0.33539178  0.14989592
   0.66460722  0.66455030  0.14989592
   0.66666600  0.33333300  0.17705232
   0.33333300  0.66666600  0.13822154
   0.33431992  0.16715996  0.41923895
   0.49965820 -0.00068359  0.41832561
   0.33333267  0.66666633  0.41725188
   0.49965820  0.50034080  0.41832561
   0.83283904  0.16715996  0.41923895
   0.99999967  0.99999933  0.42020508
   0.83283904  0.66567908  0.41923895
   0.00068259  0.50034080  0.41832561
Direct configuration=    23
   0.66544738  0.00003892  0.13857514
   0.33459054  0.00003892  0.13857514
  -0.00003892  0.33455162  0.13857514
  -0.00003892  0.66540846  0.13857514
   0.33459054  0.33455162  0.13857514
   0.66544738  0.66540846  0.13857514
   0.66666600  0.33333300  0.15940268
   0.33333300  0.66666600  0.12973043
   0.33379567  0.16689783  0.43089221
   0.49980143 -0.00039713  0.43018292
   0.33333267  0.66666633  0.42934631
   0.49980143  0.50019757  0.43018292
   0.83310117  0.16689783  0.43089221
   0.99999967  0.99999933  0.43164439
   0.83310117  0.66620333  0.43089221
   0.00039613  0.50019757  0.43018292
Direct configuration=    24
   0.66488218  0.00005104  0.14619094
   0.33516785  0.00005104  0.14619094
  -0.00005104  0.33511682  0.14619094
  -0.00005104  0.66483115  0.14619094
   0.33516785  0.33511682  0.14619094
   0.66488218  0.66483115  0.14619094
   0.66666600  0.33333300  0.17127609
   0.33333300  0.66666600  0.13544264
   0.33414835  0.16707417  0.42305274
   0.49970508 -0.00058984  0.42220617
   0.33333267  0.66666633  0.42121004
   0.49970508  0.50029392  0.42220617
   0.83292483  0.16707417  0.42305274
   0.99999967  0.99999933  0.42394884
   0.83292483  0.66585065  0.42305274
   0.00058884  0.50029392  0.42220617
Direct configuration=    25
   0.66511332  0.00004608  0.14307645
   0.33493176  0.00004608  0.14307645
  -0.00004608  0.33488568  0.14307645
  -0.00004608  0.66506724  0.14307645
   0.33493176  0.33488568  0.14307645
   0.66511332  0.66506724  0.14307645
   0.66666600  0.33333300  0.16642044
   0.33333300  0.66666600  0.13310662
   0.33400412  0.16700206  0.42625870
   0.49974448 -0.00051103  0.42546828
   0.33333267  0.66666633  0.42453738
   0.49974448  0.50025452  0.42546828
   0.83299694  0.16700206  0.42625870
   0.99999967  0.99999933  0.42709595
   0.83299694  0.66599488  0.42625870
   0.00051003  0.50025452  0.42546828
Direct configuration=    26
   0.66521081  0.00018334  0.14524124
   0.33497153  0.00018334  0.14524124
  -0.00018334  0.33478819  0.14524124
  -0.00018334  0.66502747  0.14524124
   0.33497153  0.33478819  0.14524124
   0.66521081  0.66502747  0.14524124
   0.66666600  0.33333300  0.16969690
   0.33333300  0.66666600  0.13471305
   0.33400060  0.16700030  0.42403663
   0.49975743 -0.00048514  0.42322314
   0.33333267  0.66666633  0.42227061
   0.49975743  0.50024157  0.42322314
   0.83299870  0.16700030  0.42403663
   0.99999967  0.99999933  0.42489270
   0.83299870  0.66599840  0.42403663
   0.00048414  0.50024157  0.42322314
Direct configuration=    27
   0.66544008  0.00050612  0.15033210
   0.33506504  0.00050612  0.15033210
  -0.00050612  0.33455892  0.15033210
  -0.00050612  0.66493396  0.15033210
   0.33506504  0.33455892  0.15033210
   0.66544008  0.66493396  0.15033210
   0.66666600  0.33333300  0.17740203
   0.33333300  0.66666600  0.13849083
   0.33399231  0.16699615  0.41881107
   0.49978788 -0.00042424  0.41794335
   0.33333267  0.66666633  0.41693991
   0.49978788  0.50021112  0.41794335
   0.83300285  0.16699615  0.41881107
   0.99999967  0.99999933  0.41971141
   0.83300285  0.66600669  0.41881107
   0.00042324  0.50021112  0.41794335
Direct configuration=    28
   0.66577279  0.00068593  0.15042195
   0.33491215  0.00068593  0.15042195
  -0.00068593  0.33422621  0.15042195
  -0.00068593  0.66508685  0.15042195
   0.33491215  0.33422621  0.15042195
   0.66577279  0.66508685  0.15042195
   0.66666600  0.33333300  0.17733180
   0.33333300  0.66666600  0.13855081
   0.33384366  0.16692183  0.41873245
   0.49983799 -0.00032401  0.41788993
   0.33333267  0.66666633  0.41692072
   0.49983799  0.50016101  0.41788993
   0.83307717  0.16692183  0.41873245
   0.99999967  0.99999933  0.41959783
   0.83307717  0.66615534  0.41873245
   0.00032301  0.50016101  0.41788993
Direct configuration=    29
   0.66677089  0.00122536  0.15069152
   0.33445347  0.00122536  0.15069152
  -0.00122536  0.33322811  0.15069152
  -0.00122536  0.66554553  0.15069152
   0.33445347  0.33322811  0.15069152
   0.66677089  0.66554553  0.15069152
   0.66666600  0.33333300  0.17712109
   0.33333300  0.66666600  0.13873075
   0.33339772  0.16669886  0.41849659
   0.49998833 -0.00002333  0.41772968
   0.33333267  0.66666633  0.41686314
   0.49998833  0.50001067  0.41772968
   0.83330014  0.16669886  0.41849659
   0.99999967  0.99999933  0.41925710
   0.83330014  0.66660128  0.41849659
   0.00002233  0.50001067  0.41772968
Direct configuration=    30
   0.66876710  0.00230422  0.15123065
   0.33353613  0.00230422  0.15123065
  -0.00230422  0.33123190  0.15123065
  -0.00230422  0.66646287  0.15123065
   0.33353613  0.33123190  0.15123065
   0.66876710  0.66646287  0.15123065
   0.66666600  0.33333300  0.17669969
   0.33333300  0.66666600  0.13909064
   0.33250584  0.16625292  0.41802488
   0.50028901  0.00057803  0.41740918
   0.33333267  0.66666633  0.41674800
   0.50028901  0.49970999  0.41740918
   0.83374608  0.16625292  0.41802488
   0.99999967  0.99999933  0.41857563
   0.83374608  0.66749316  0.41802488
  -0.00057903  0.49970999  0.41740918
Direct configuration=    31
   0.66889286  0.00215687  0.15142582
   0.33326300  0.00215687  0.15142582
  -0.00215687  0.33110614  0.15142582
  -0.00215687  0.66673600  0.15142582
   0.33326300  0.33110614  0.15142582
   0.66889286  0.66673600  0.15142582
   0.66666600  0.33333300  0.17623669
   0.33333300  0.66666600  0.13927073
   0.33280331  0.16640165  0.41786576
   0.50018191  0.00036382  0.41734627
   0.33333267  0.66666633  0.41679221
   0.50018191  0.49981709  0.41734627
   0.83359735  0.16640165  0.41786576
   0.99999967  0.99999933  0.41830936
   0.83359735  0.66719569  0.41786576
  -0.00036482  0.49981709  0.41734627
Direct configuration=    32
   0.66927016  0.00171480  0.15201132
   0.33244364  0.00171480  0.15201132
  -0.00171480  0.33072884  0.15201132
  -0.00171480  0.66755536  0.15201132
   0.33244364  0.33072884  0.15201132
   0.66927016  0.66755536  0.15201132
   0.66666600  0.33333300  0.17484767
   0.33333300  0.66666600  0.13981101
   0.33369569  0.16684785  0.41738842
   0.49986059 -0.00027882  0.41715757
   0.33333267  0.66666633  0.41692486
   0.49986059  0.50013841  0.41715757
   0.83315115  0.16684785  0.41738842
   0.99999967  0.99999933  0.41751054
   0.83315115  0.66630331  0.41738842
   0.00027782  0.50013841  0.41715757
Direct configuration=    33
   0.67002475  0.00083066  0.15318234
   0.33080491  0.00083066  0.15318234
  -0.00083066  0.32997425  0.15318234
  -0.00083066  0.66919409  0.15318234
   0.33080491  0.32997425  0.15318234
   0.67002475  0.66919409  0.15318234
   0.66666600  0.33333300  0.17206965
   0.33333300  0.66666600  0.14089156
   0.33548046  0.16774023  0.41643374
   0.49921796 -0.00156409  0.41678015
   0.33333267  0.66666633  0.41719015
   0.49921796  0.50078104  0.41678015
   0.83225877  0.16774023  0.41643374
   0.99999967  0.99999933  0.41591291
   0.83225877  0.66451854  0.41643374
   0.00156309  0.50078104  0.41678015
Direct configuration=    34
   0.66972697  0.00117956  0.15272023
   0.33145159  0.00117956  0.15272023
  -0.00117956  0.33027203  0.15272023
  -0.00117956  0.66854741  0.15272023
   0.33145159  0.33027203  0.15272023
   0.66972697  0.66854741  0.15272023
   0.66666600  0.33333300  0.17316592
   0.33333300  0.66666600  0.14046515
   0.33477615  0.16738808  0.41681048
   0.49947155 -0.00105689  0.41692909
   0.33333267  0.66666633  0.41708546
   0.49947155  0.50052745  0.41692909
   0.83261092  0.16738808  0.41681048
   0.99999967  0.99999933  0.41654337
   0.83261092  0.66522285  0.41681048
   0.00105589  0.50052745  0.41692909
Direct configuration=    35
   0.66940609  0.00088141  0.15296070
   0.33147432  0.00088141  0.15296070
  -0.00088141  0.33059291  0.15296070
  -0.00088141  0.66852468  0.15296070
   0.33147432  0.33059291  0.15296070
   0.66940609  0.66852468  0.15296070
   0.66666600  0.33333300  0.17251153
   0.33333300  0.66666600  0.14071160
   0.33448186  0.16724093  0.41662923
   0.49959153 -0.00081694  0.41685145
   0.33333267  0.66666633  0.41710355
   0.49959153  0.50040747  0.41685145
   0.83275807  0.16724093  0.41662923
   0.99999967  0.99999933  0.41626707
   0.83275807  0.66551714  0.41662923
   0.00081594  0.50040747  0.41685145
Direct configuration=    36
   0.66844344 -0.00001305  0.15368211
   0.33154252 -0.00001305  0.15368211
   0.00001305  0.33155556  0.15368211
   0.00001305  0.66845648  0.15368211
   0.33154252  0.33155556  0.15368211
   0.66844344  0.66845648  0.15368211
   0.66666600  0.33333300  0.17054835
   0.33333300  0.66666600  0.14145097
   0.33359896  0.16679948  0.41608550
   0.49995147 -0.00009706  0.41661852
   0.33333267  0.66666633  0.41715783
   0.49995147  0.50004753  0.41661852
   0.83319952  0.16679948  0.41608550
   0.99999967  0.99999933  0.41543814
   0.83319952  0.66640004  0.41608550
   0.00009606  0.50004753  0.41661852
Direct configuration=    37
   0.66651813 -0.00180196  0.15512492
   0.33167891 -0.00180196  0.15512492
   0.00180196  0.33348087  0.15512492
   0.00180196  0.66832009  0.15512492
   0.33167891  0.33348087  0.15512492
   0.66651813  0.66832009  0.15512492
   0.66666600  0.33333300  0.16662200
   0.33333300  0.66666600  0.14292971
   0.33183317  0.16591658  0.41499803
   0.50067134  0.00134268  0.41615266
   0.33333267  0.66666633  0.41726639
   0.50067134  0.49932766  0.41615266
   0.83408242  0.16591658  0.41499803
   0.99999967  0.99999933  0.41378029
   0.83408242  0.66816583  0.41499803
  -0.00134368  0.49932766  0.41615266
Direct configuration=    38
   0.66771878 -0.00068637  0.15422516
   0.33159385 -0.00068637  0.15422516
   0.00068637  0.33228022  0.15422516
   0.00068637  0.66840515  0.15422516
   0.33159385  0.33228022  0.15422516
   0.66771878  0.66840515  0.15422516
   0.66666600  0.33333300  0.16907054
   0.33333300  0.66666600  0.14200755
   0.33293434  0.16646717  0.41567619
   0.50022242  0.00044483  0.41644317
   0.33333267  0.66666633  0.41719869
   0.50022242  0.49977658  0.41644317
   0.83353183  0.16646717  0.41567619
   0.99999967  0.99999933  0.41481415
   0.83353183  0.66706466  0.41567619
  -0.00044583  0.49977658  0.41644317
Direct configuration=    39
   0.66758283 -0.00035956  0.15444577
   0.33205661 -0.00035956  0.15444577
   0.00035956  0.33241617  0.15444577
   0.00035956  0.66794239  0.15444577
   0.33205661  0.33241617  0.15444577
   0.66758283  0.66794239  0.15444577
   0.66666600  0.33333300  0.16844270
   0.33333300  0.66666600  0.14223937
   0.33306768  0.16653384  0.41556900
   0.50012222  0.00024444  0.41631854
   0.33333267  0.66666633  0.41703154
   0.50012222  0.49987678  0.41631854
   0.83346516  0.16653384  0.41556900
   0.99999967  0.99999933  0.41474918
   0.83346516  0.66693132  0.41556900
  -0.00024544  0.49987678  0.41631854
Direct configuration=    40
   0.66734151  0.00022051  0.15483733
   0.33287800  0.00022051  0.15483733
  -0.00022051  0.33265749  0.15483733
  -0.00022051  0.66712100  0.15483733
   0.33287800  0.33265749  0.15483733
   0.66734151  0.66712100  0.15483733
   0.66666600  0.33333300  0.16732831
   0.33333300  0.66666600  0.14265086
   0.33330435  0.16665218  0.41537873
   0.49994437 -0.00011126  0.41609732
   0.33333267  0.66666633  0.41673484
   0.49994437  0.50005463  0.41609732
   0.83334682  0.16665218  0.41537873
   0.99999967  0.99999933  0.41463385
   0.83334682  0.66669465  0.41537873
   0.00011026  0.50005463  0.41609732
Direct configuration=    41
   0.66754049  0.00020144  0.15497345
   0.33265995  0.00020144  0.15497345
  -0.00020144  0.33245851  0.15497345
  -0.00020144  0.66733905  0.15497345
   0.33265995  0.33245851  0.15497345
   0.66754049  0.66733905  0.15497345
   0.66666600  0.33333300  0.16697491
   0.33333300  0.66666600  0.14285124
   0.33340143  0.16670071  0.41536723
   0.49996752 -0.00006496  0.41594264
   0.33333267  0.66666633  0.41643931
   0.49996752  0.50003148  0.41594264
   0.83329829  0.16670071  0.41536723
   0.99999967  0.99999933  0.41476421
   0.83329829  0.66659757  0.41536723
   0.00006396  0.50003148  0.41594264
Direct configuration=    42
   0.66813742  0.00014423  0.15538182
   0.33200581  0.00014423  0.15538182
  -0.00014423  0.33186158  0.15538182
  -0.00014423  0.66799319  0.15538182
   0.33200581  0.33186158  0.15538182
   0.66813742  0.66799319  0.15538182
   0.66666600  0.33333300  0.16591470
   0.33333300  0.66666600  0.14345239
   0.33369264  0.16684632  0.41533272
   0.50003696  0.00007391  0.41547861
   0.33333267  0.66666633  0.41555271
   0.50003696  0.49996204  0.41547861
   0.83315268  0.16684632  0.41533272
   0.99999967  0.99999933  0.41515530
   0.83315268  0.66630636  0.41533272
  -0.00007491  0.49996204  0.41547861
Direct configuration=    43
   0.66836621  0.00012231  0.15553833
   0.33175510  0.00012231  0.15553833
  -0.00012231  0.33163279  0.15553833
  -0.00012231  0.66824390  0.15553833
   0.33175510  0.33163279  0.15553833
   0.66836621  0.66824390  0.15553833
   0.66666600  0.33333300  0.16550836
   0.33333300  0.66666600  0.14368279
   0.33380426  0.16690213  0.41531950
   0.50006357  0.00012714  0.41530076
   0.33333267  0.66666633  0.41521290
   0.50006357  0.49993543  0.41530076
   0.83309687  0.16690213  0.41531950
   0.99999967  0.99999933  0.41530520
   0.83309687  0.66619474  0.41531950
  -0.00012814  0.49993543  0.41530076
Direct configuration=    44
   0.66808233 -0.00032927  0.15575089
   0.33158740 -0.00032927  0.15575089
   0.00032927  0.33191667  0.15575089
   0.00032927  0.66841160  0.15575089
   0.33158740  0.33191667  0.15575089
   0.66808233  0.66841160  0.15575089
   0.66666600  0.33333300  0.16502814
   0.33333300  0.66666600  0.14417430
   0.33294123  0.16647062  0.41525793
   0.49999189 -0.00001623  0.41504001
   0.33333267  0.66666633  0.41477257
   0.49999189  0.50000711  0.41504001
   0.83352838  0.16647062  0.41525793
   0.99999967  0.99999933  0.41542586
   0.83352838  0.66705777  0.41525793
   0.00001523  0.50000711  0.41504001
Direct configuration=    45
   0.66814485 -0.00022981  0.15570407
   0.33162433 -0.00022981  0.15570407
   0.00022981  0.33185415  0.15570407
   0.00022981  0.66837467  0.15570407
   0.33162433  0.33185415  0.15570407
   0.66814485  0.66837467  0.15570407
   0.66666600  0.33333300  0.16513391
   0.33333300  0.66666600  0.14406605
   0.33313131  0.16656565  0.41527149
   0.50000767  0.00001535  0.41509744
   0.33333267  0.66666633  0.41486955
   0.50000767  0.49999133  0.41509744
   0.83343335  0.16656565  0.41527149
   0.99999967  0.99999933  0.41539929
   0.83343335  0.66686769  0.41527149
  -0.00001635  0.49999133  0.41509744
Direct configuration=    46
   0.66786022 -0.00028903  0.15580150
   0.33184974 -0.00028903  0.15580150
   0.00028903  0.33213878  0.15580150
   0.00028903  0.66814926  0.15580150
   0.33184974  0.33213878  0.15580150
   0.66786022  0.66814926  0.15580150
   0.66666600  0.33333300  0.16498572
   0.33333300  0.66666600  0.14441646
   0.33325125  0.16662562  0.41517996
   0.49997755 -0.00004490  0.41499170
   0.33333267  0.66666633  0.41475806
   0.49997755  0.50002145  0.41499170
   0.83337338  0.16662562  0.41517996
   0.99999967  0.99999933  0.41531576
   0.83337338  0.66674775  0.41517996
   0.00004390  0.50002145  0.41499170
Direct configuration=    47
   0.66753813 -0.00035605  0.15591175
   0.33210482 -0.00035605  0.15591175
   0.00035605  0.33246087  0.15591175
   0.00035605  0.66789418  0.15591175
   0.33210482  0.33246087  0.15591175
   0.66753813  0.66789418  0.15591175
   0.66666600  0.33333300  0.16481804
   0.33333300  0.66666600  0.14481298
   0.33338697  0.16669349  0.41507639
   0.49994346 -0.00011308  0.41487206
   0.33333267  0.66666633  0.41463191
   0.49994346  0.50005554  0.41487206
   0.83330551  0.16669349  0.41507639