<?xml version="1.0" encoding="ISO-8859-1"?>
<modeling>
 <generator>
  <i name="program" type="string">vasp </i>
  <i name="version" type="string">6.3.2  </i>
  <i name="subversion" type="string">27Jun22 (build Dec 22 2022 13:13:19) complex                          parallel </i>
  <i name="platform" type="string">LinuxIFC </i>
  <i name="date" type="string">2023 08 23 </i>
  <i name="time" type="string">05:26:39 </i>
 </generator>
 <incar>
  <i type="string" name="SYSTEM">Lattice</i>
  <i type="int" name="ISTART">     0</i>
  <i type="string" name="PREC">Accurate</i>
  <i type="string" name="ALGO">Normal</i>
  <i type="int" name="ISPIN">     2</i>
  <i type="int" name="ICHARG">     2</i>
  <i type="int" name="NELM">    64</i>
  <i type="int" name="IBRION">     2</i>
  <i name="EDIFF">      0.00000100</i>
  <i name="EDIFFG">     -0.00100000</i>
  <i type="int" name="NSW">   128</i>
  <i type="int" name="ISIF">     2</i>
  <i name="ENCUT">    450.00000000</i>
  <i name="POTIM">      0.50000000</i>
  <i type="int" name="ISMEAR">     0</i>
  <i name="SIGMA">      0.10000000</i>
  <i type="logical" name="LWAVE"> F  </i>
  <i type="logical" name="LCHARG"> F  </i>
  <i type="string" name="GGA">PE</i>
  <i type="int" name="IVDW">    12</i>
 </incar>
 <primitive_cell>
  <structure name="primitive_cell" >
   <crystal>
    <varray name="basis" >
     <v>       4.18723283       2.41750000       0.00000000 </v>
     <v>      -4.18723283       2.41750000       0.00000000 </v>
     <v>       0.00000000       0.00000000      15.00000000 </v>
    </varray>
    <i name="volume">    303.67906080 </i>
    <varray name="rec_basis" >
     <v>       0.11941060       0.20682523       0.00000000 </v>
     <v>      -0.11941060       0.20682523       0.00000000 </v>
     <v>       0.00000000       0.00000000       0.06666667 </v>
    </varray>
   </crystal>
   <varray name="positions" >
    <v>       0.00415361       0.00267210       0.12034134 </v>
    <v>       0.35695335       0.00285503       0.09748893 </v>
    <v>       0.00423858       0.35550699       0.09749256 </v>
    <v>       0.65142295       0.65006557       0.09747688 </v>
    <v>       0.32808646       0.32671938       0.10030508 </v>
    <v>       0.68027775       0.00278085       0.10027562 </v>
    <v>       0.00416530       0.67883808       0.10026559 </v>
    <v>       0.08333267       0.41666633       0.33646667 </v>
    <v>       0.24999967       0.24999933       0.33646667 </v>
    <v>       0.08333267       0.91666633       0.33646667 </v>
    <v>       0.24999967       0.74999933       0.33646667 </v>
    <v>       0.58333267       0.41666633       0.33646667 </v>
    <v>       0.74999967       0.24999933       0.33646667 </v>
    <v>       0.58333267       0.91666633       0.33646667 </v>
    <v>       0.74999967       0.74999933       0.33646667 </v>
   </varray>
  </structure>
  <varray name="primitive_index" >
   <v type="int" >        1 </v>
   <v type="int" >        2 </v>
   <v type="int" >        3 </v>
   <v type="int" >        4 </v>
   <v type="int" >        5 </v>
   <v type="int" >        6 </v>
   <v type="int" >        7 </v>
   <v type="int" >        8 </v>
   <v type="int" >        9 </v>
   <v type="int" >       10 </v>
   <v type="int" >       11 </v>
   <v type="int" >       12 </v>
   <v type="int" >       13 </v>
   <v type="int" >       14 </v>
   <v type="int" >       15 </v>
  </varray>
 </primitive_cell>
 <kpoints>
  <generation param="Gamma">
   <v type="int" name="divisions">      12       12        1 </v>
   <v name="usershift">      0.00000000       0.00000000       0.00000000 </v>
   <v name="genvec1">      0.08333333      -0.00000000       0.00000000 </v>
   <v name="genvec2">     -0.00000000       0.08333333       0.00000000 </v>
   <v name="genvec3">      0.00000000       0.00000000       1.00000000 </v>
   <v name="shift">      0.00000000       0.00000000       0.00000000 </v>
  </generation>
  <varray name="kpointlist" >
   <v>       0.00000000       0.00000000       0.00000000 </v>
   <v>       0.08333333       0.00000000       0.00000000 </v>
   <v>       0.00000000       0.08333333       0.00000000 </v>
   <v>      -0.08333333       0.08333333       0.00000000 </v>
   <v>       0.16666667       0.00000000       0.00000000 </v>
   <v>       0.00000000       0.16666667       0.00000000 </v>
   <v>      -0.16666667       0.16666667       0.00000000 </v>
   <v>       0.25000000       0.00000000       0.00000000 </v>
   <v>       0.00000000       0.25000000       0.00000000 </v>
   <v>      -0.25000000       0.25000000       0.00000000 </v>
   <v>       0.33333333       0.00000000       0.00000000 </v>
   <v>       0.00000000       0.33333333       0.00000000 </v>
   <v>      -0.33333333       0.33333333       0.00000000 </v>
   <v>       0.41666667       0.00000000       0.00000000 </v>
   <v>       0.00000000       0.41666667       0.00000000 </v>
   <v>      -0.41666667       0.41666667       0.00000000 </v>
   <v>       0.50000000       0.00000000       0.00000000 </v>
   <v>       0.00000000       0.50000000       0.00000000 </v>
   <v>       0.50000000       0.50000000       0.00000000 </v>
   <v>       0.08333333       0.08333333       0.00000000 </v>
   <v>      -0.08333333       0.16666667       0.00000000 </v>
   <v>      -0.16666667       0.08333333       0.00000000 </v>
   <v>       0.16666667       0.08333333       0.00000000 </v>
   <v>      -0.08333333       0.25000000       0.00000000 </v>
   <v>      -0.25000000       0.16666667       0.00000000 </v>
   <v>      -0.16666667       0.25000000       0.00000000 </v>
   <v>       0.08333333       0.16666667       0.00000000 </v>
   <v>       0.25000000      -0.08333333       0.00000000 </v>
   <v>       0.25000000       0.08333333       0.00000000 </v>
   <v>      -0.08333333       0.33333333       0.00000000 </v>
   <v>      -0.33333333       0.25000000       0.00000000 </v>
   <v>      -0.25000000       0.33333333       0.00000000 </v>
   <v>       0.08333333       0.25000000       0.00000000 </v>
   <v>       0.33333333      -0.08333333       0.00000000 </v>
   <v>       0.33333333       0.08333333       0.00000000 </v>
   <v>      -0.08333333       0.41666667       0.00000000 </v>
   <v>      -0.41666667       0.33333333       0.00000000 </v>
   <v>      -0.33333333       0.41666667       0.00000000 </v>
   <v>       0.08333333       0.33333333       0.00000000 </v>
   <v>       0.41666667      -0.08333333       0.00000000 </v>
   <v>       0.41666667       0.08333333       0.00000000 </v>
   <v>      -0.08333333       0.50000000       0.00000000 </v>
   <v>       0.50000000       0.41666667       0.00000000 </v>
   <v>      -0.41666667       0.50000000       0.00000000 </v>
   <v>       0.08333333       0.41666667       0.00000000 </v>
   <v>       0.50000000      -0.08333333       0.00000000 </v>
   <v>       0.16666667       0.16666667       0.00000000 </v>
   <v>      -0.16666667       0.33333333       0.00000000 </v>
   <v>      -0.33333333       0.16666667       0.00000000 </v>
   <v>       0.25000000       0.16666667       0.00000000 </v>
   <v>      -0.16666667       0.41666667       0.00000000 </v>
   <v>      -0.41666667       0.25000000       0.00000000 </v>
   <v>      -0.25000000       0.41666667       0.00000000 </v>
   <v>       0.16666667       0.25000000       0.00000000 </v>
   <v>       0.41666667      -0.16666667       0.00000000 </v>
   <v>       0.33333333       0.16666667       0.00000000 </v>
   <v>      -0.16666667       0.50000000       0.00000000 </v>
   <v>       0.50000000       0.33333333       0.00000000 </v>
   <v>      -0.33333333       0.50000000       0.00000000 </v>
   <v>       0.16666667       0.33333333       0.00000000 </v>
   <v>       0.50000000      -0.16666667       0.00000000 </v>
   <v>       0.41666667       0.16666667       0.00000000 </v>
   <v>      -0.16666667      -0.41666667       0.00000000 </v>
   <v>       0.41666667       0.41666667       0.00000000 </v>
   <v>       0.25000000       0.25000000       0.00000000 </v>
   <v>      -0.25000000       0.50000000       0.00000000 </v>
   <v>       0.50000000       0.25000000       0.00000000 </v>
   <v>       0.33333333       0.25000000       0.00000000 </v>
   <v>      -0.25000000      -0.41666667       0.00000000 </v>
   <v>       0.41666667       0.33333333       0.00000000 </v>
   <v>      -0.33333333      -0.41666667       0.00000000 </v>
   <v>       0.25000000       0.33333333       0.00000000 </v>
   <v>      -0.41666667      -0.25000000       0.00000000 </v>
   <v>       0.33333333       0.33333333       0.00000000 </v>
  </varray>
  <varray name="weights" >
   <v>       0.00694444 </v>
   <v>       0.01388889 </v>
   <v>       0.01388889 </v>
   <v>       0.01388889 </v>
   <v>       0.01388889 </v>
   <v>       0.01388889 </v>
   <v>       0.01388889 </v>
   <v>       0.01388889 </v>
   <v>       0.01388889 </v>
   <v>       0.01388889 </v>
   <v>       0.01388889 </v>
   <v>       0.01388889 </v>
   <v>       0.01388889 </v>
   <v>       0.01388889 </v>
   <v>       0.01388889 </v>
   <v>       0.01388889 </v>
   <v>       0.00694444 </v>
   <v>       0.00694444 </v>
   <v>       0.00694444 </v>
   <v>       0.01388889 </v>
   <v>       0.01388889 </v>
   <v>       0.01388889 </v>
   <v>       0.01388889 </v>
   <v>       0.01388889 </v>
   <v>       0.01388889 </v>
   <v>       0.01388889 </v>
   <v>       0.01388889 </v>
   <v>       0.01388889 </v>
   <v>       0.01388889 </v>
   <v>       0.01388889 </v>
   <v>       0.01388889 </v>
   <v>       0.01388889 </v>
   <v>       0.01388889 </v>
   <v>       0.01388889 </v>
   <v>       0.01388889 </v>
   <v>       0.01388889 </v>
   <v>       0.01388889 </v>
   <v>       0.01388889 </v>
   <v>       0.01388889 </v>
   <v>       0.01388889 </v>
   <v>       0.01388889 </v>
   <v>       0.01388889 </v>
   <v>       0.01388889 </v>
   <v>       0.01388889 </v>
   <v>       0.01388889 </v>
   <v>       0.01388889 </v>
   <v>       0.01388889 </v>
   <v>       0.01388889 </v>
   <v>       0.01388889 </v>
   <v>       0.01388889 </v>
   <v>       0.01388889 </v>
   <v>       0.01388889 </v>
   <v>       0.01388889 </v>
   <v>       0.01388889 </v>
   <v>       0.01388889 </v>
   <v>       0.01388889 </v>
   <v>       0.01388889 </v>
   <v>       0.01388889 </v>
   <v>       0.01388889 </v>
   <v>       0.01388889 </v>
   <v>       0.01388889 </v>
   <v>       0.01388889 </v>
   <v>       0.01388889 </v>
   <v>       0.01388889 </v>
   <v>       0.01388889 </v>
   <v>       0.01388889 </v>
   <v>       0.01388889 </v>
   <v>       0.01388889 </v>
   <v>       0.01388889 </v>
   <v>       0.01388889 </v>
   <v>       0.01388889 </v>
   <v>       0.01388889 </v>
   <v>       0.01388889 </v>
   <v>       0.01388889 </v>
  </varray>
 </kpoints>
 <parameters>
  <separator name="general" >
   <i type="string" name="SYSTEM">Lattice</i>
   <i type="logical" name="LCOMPAT"> F  </i>
  </separator>
  <separator name="electronic" >
   <i type="string" name="PREC">accura</i>
   <i name="ENMAX">    450.00000000</i>
   <i name="ENAUG">    644.87300000</i>
   <i name="EDIFF">      0.00000100</i>
   <i type="int" name="IALGO">    38</i>
   <i type="int" name="IWAVPR">    11</i>
   <i type="int" name="NBANDS">    48</i>
   <i type="int" name="NBANDSLOW">    -1</i>
   <i type="int" name="NBANDSHIGH">    -1</i>
   <i name="NELECT">     56.00000000</i>
   <i type="int" name="TURBO">     0</i>
   <i type="int" name="IRESTART">     0</i>
   <i type="int" name="NREBOOT">     0</i>
   <i type="int" name="NMIN">     0</i>
   <i name="EREF">      0.00000000</i>
   <separator name="electronic smearing" >
    <i type="int" name="ISMEAR">     0</i>
    <i name="SIGMA">      0.10000000</i>
    <i name="KSPACING">      0.50000000</i>
    <i type="logical" name="KGAMMA"> T  </i>
    <i type="logical" name="KBLOWUP"> T  </i>
   </separator>
   <separator name="electronic projectors" >
    <i type="logical" name="LREAL"> F  </i>
    <v name="ROPT">      0.00000000      0.00000000</v>
    <i type="int" name="LMAXPAW">  -100</i>
    <i type="int" name="LMAXMIX">     2</i>
    <i type="logical" name="NLSPLINE"> F  </i>
   </separator>
   <separator name="electronic startup" >
    <i type="int" name="ISTART">     0</i>
    <i type="int" name="ICHARG">     2</i>
    <i type="int" name="INIWAV">     1</i>
   </separator>
   <separator name="electronic spin" >
    <i type="int" name="ISPIN">     2</i>
    <i type="logical" name="LNONCOLLINEAR"> F  </i>
    <v name="MAGMOM">      1.00000000      1.00000000      1.00000000      1.00000000      1.00000000      1.00000000      1.00000000      1.00000000      1.00000000      1.00000000      1.00000000      1.00000000      1.00000000      1.00000000      1.00000000</v>
    <i name="NUPDOWN">     -1.00000000</i>
    <i type="logical" name="LSORBIT"> F  </i>
    <v name="SAXIS">      0.00000000      0.00000000      1.00000000</v>
    <i type="logical" name="LSPIRAL"> F  </i>
    <v name="QSPIRAL">      0.00000000      0.00000000      0.00000000</v>
    <i type="logical" name="LZEROZ"> F  </i>
   </separator>
   <separator name="electronic exchange-correlation" >
    <i type="logical" name="LASPH"> F  </i>
    <i type="logical" name="LMETAGGA"> F  </i>
   </separator>
   <separator name="electronic convergence" >
    <i type="int" name="NELM">    64</i>
    <i type="int" name="NELMDL">    -5</i>
    <i type="int" name="NELMIN">     2</i>
    <i name="ENINI">    450.00000000</i>
    <separator name="electronic convergence detail" >
     <i type="logical" name="LDIAG"> T  </i>
     <i type="logical" name="LSUBROT"> F  </i>
     <i name="WEIMIN">      0.00100000</i>
     <i name="EBREAK">      0.00000001</i>
     <i name="DEPER">      0.30000000</i>
     <i type="int" name="NRMM">     4</i>
     <i name="TIME">      0.40000000</i>
    </separator>
   </separator>
   <separator name="electronic mixer" >
    <i name="AMIX">      0.40000000</i>
    <i name="BMIX">      1.00000000</i>
    <i name="AMIN">      0.10000000</i>
    <i name="AMIX_MAG">      1.60000000</i>
    <i name="BMIX_MAG">      1.00000000</i>
    <separator name="electronic mixer details" >
     <i type="int" name="IMIX">     4</i>
     <i type="logical" name="MIXFIRST"> F  </i>
     <i type="int" name="MAXMIX">   -45</i>
     <i name="WC">    100.00000000</i>
     <i type="int" name="INIMIX">     1</i>
     <i type="int" name="MIXPRE">     1</i>
     <i type="int" name="MREMOVE">     5</i>
    </separator>
   </separator>
   <separator name="electronic dipolcorrection" >
    <i type="logical" name="LDIPOL"> F  </i>
    <i type="logical" name="LMONO"> F  </i>
    <i type="int" name="IDIPOL">     0</i>
    <i name="EPSILON">      1.00000000</i>
    <v name="DIPOL">   -100.00000000   -100.00000000   -100.00000000</v>
    <i name="EFIELD">      0.00000000</i>
   </separator>
  </separator>
  <separator name="grids" >
   <i type="int" name="NGX">    36</i>
   <i type="int" name="NGY">    36</i>
   <i type="int" name="NGZ">   108</i>
   <i type="int" name="NGXF">    72</i>
   <i type="int" name="NGYF">    72</i>
   <i type="int" name="NGZF">   216</i>
   <i type="logical" name="ADDGRID"> F  </i>
  </separator>
  <separator name="ionic" >
   <i type="int" name="NSW">   128</i>
   <i type="int" name="IBRION">     2</i>
   <i type="int" name="MDALGO">     0</i>
   <i type="int" name="ISIF">     2</i>
   <i name="PSTRESS">      0.00000000</i>
   <i name="EDIFFG">     -0.00100000</i>
   <i type="int" name="NFREE">     1</i>
   <i name="POTIM">      0.50000000</i>
   <i name="SMASS">     -3.00000000</i>
   <i name="SCALEE">      1.00000000</i>
  </separator>
  <separator name="ionic md" >
   <i name="TEBEG">      0.00010000</i>
   <i name="TEEND">      0.00010000</i>
   <i type="int" name="NBLOCK">     1</i>
   <i type="int" name="KBLOCK">   128</i>
   <i type="int" name="NPACO">   256</i>
   <i name="APACO">     10.00000000</i>
  </separator>
  <separator name="symmetry" >
   <i type="int" name="ISYM">     2</i>
   <i name="SYMPREC">      0.00001000</i>
  </separator>
  <separator name="dos" >
   <i type="int" name="LORBIT">     0</i>
   <v name="RWIGS">     -1.00000000     -1.00000000</v>
   <i type="int" name="NEDOS">   301</i>
   <i name="EMIN">     10.00000000</i>
   <i name="EMAX">    -10.00000000</i>
   <i name="EFERMI">      0.00000000</i>
  </separator>
  <separator name="writing" >
   <i type="int" name="NWRITE">     2</i>
   <i type="logical" name="LWAVE"> F  </i>
   <i type="logical" name="LDOWNSAMPLE"> F  </i>
   <i type="logical" name="LCHARG"> F  </i>
   <i type="logical" name="LPARD"> F  </i>
   <i type="logical" name="LVTOT"> F  </i>
   <i type="logical" name="LVHAR"> F  </i>
   <i type="logical" name="LELF"> F  </i>
   <i type="logical" name="LOPTICS"> F  </i>
   <v name="STM">      0.00000000      0.00000000      0.00000000      0.00000000      0.00000000      0.00000000      0.00000000</v>
  </separator>
  <separator name="performance" >
   <i type="int" name="NPAR">    48</i>
   <i type="int" name="NSIM">     4</i>
   <i type="int" name="NBLK">    -1</i>
   <i type="logical" name="LPLANE"> T  </i>
   <i type="logical" name="LSCALAPACK"> T  </i>
   <i type="logical" name="LSCAAWARE"> F  </i>
   <i type="logical" name="LSCALU"> F  </i>
   <i type="logical" name="LASYNC"> F  </i>
   <i type="logical" name="LORBITALREAL"> F  </i>
  </separator>
  <separator name="miscellaneous" >
   <i type="int" name="IDIOT">     3</i>
   <i type="int" name="PHON_NSTRUCT">    -1</i>
   <i type="logical" name="LMUSIC"> F  </i>
   <v name="POMASS">     10.81100000     12.01100000</v>
   <v name="DARWINR">      0.00000000      0.00000000</v>
   <v name="DARWINV">      1.00000000      1.00000000</v>
   <i type="logical" name="LCORR"> T  </i>
  </separator>
  <i type="logical" name="GGA_COMPAT"> T  </i>
  <i type="logical" name="LBERRY"> F  </i>
  <i type="int" name="ICORELEVEL">     0</i>
  <i type="logical" name="LDAU"> F  </i>
  <i type="int" name="I_CONSTRAINED_M">     0</i>
  <separator name="electronic exchange-correlation" >
   <i type="string" name="GGA">PE</i>
   <i type="int" name="VOSKOWN">     0</i>
   <i type="logical" name="LHFCALC"> F  </i>
   <i type="string" name="PRECFOCK"></i>
   <i type="logical" name="LSYMGRAD"> F  </i>
   <i type="logical" name="LHFONE"> F  </i>
   <i type="logical" name="LRHFCALC"> F  </i>
   <i type="logical" name="LTHOMAS"> F  </i>
   <i type="logical" name="LMODELHF"> F  </i>
   <i type="logical" name="LFOCKACE"> F  </i>
   <i name="ENCUT4O">     -1.00000000</i>
   <i type="int" name="EXXOEP">     0</i>
   <i type="int" name="FOURORBIT">     0</i>
   <i name="AEXX">      0.00000000</i>
   <i name="HFALPHA">      0.00000000</i>
   <i name="MCALPHA">      0.00000000</i>
   <i name="ALDAX">      1.00000000</i>
   <i name="AGGAX">      1.00000000</i>
   <i name="ALDAC">      1.00000000</i>
   <i name="AGGAC">      1.00000000</i>
   <i type="int" name="NKREDX">     1</i>
   <i type="int" name="NKREDY">     1</i>
   <i type="int" name="NKREDZ">     1</i>
   <i type="logical" name="SHIFTRED"> F  </i>
   <i type="logical" name="ODDONLY"> F  </i>
   <i type="logical" name="EVENONLY"> F  </i>
   <i type="int" name="LMAXFOCK">     0</i>
   <i type="int" name="NMAXFOCKAE">     0</i>
   <i type="logical" name="LFOCKAEDFT"> F  </i>
   <i name="HFSCREEN">      0.00000000</i>
   <i name="HFSCREENC">      0.00000000</i>
   <i type="int" name="NBANDSGWLOW">     0</i>
  </separator>
  <separator name="vdW DFT" >
   <i type="logical" name="LUSE_VDW"> F  </i>
   <i name="Zab_VDW">     -0.84910000</i>
   <i name="PARAM1">      0.12340000</i>
   <i name="PARAM2">      1.00000000</i>
   <i name="PARAM3">      0.00000000</i>
  </separator>
  <separator name="model GW" >
   <i type="int" name="MODEL_GW">     0</i>
   <i name="MODEL_EPS0">     12.14716243</i>
   <i name="MODEL_ALPHA">      1.00000000</i>
  </separator>
  <separator name="linear response parameters" >
   <i type="logical" name="LEPSILON"> F  </i>
   <i type="logical" name="LRPA"> F  </i>
   <i type="logical" name="LNABLA"> F  </i>
   <i type="logical" name="LVEL"> F  </i>
   <i name="CSHIFT">      0.10000000</i>
   <i name="OMEGAMAX">     -1.00000000</i>
   <i name="DEG_THRESHOLD">      0.00200000</i>
   <i name="RTIME">     -0.10000000</i>
   <i name="WPLASMAI">      0.00000000</i>
   <v name="DFIELD">      0.00000000      0.00000000      0.00000000</v>
   <v name="WPLASMA">      0.00000000      0.00000000      0.00000000      0.00000000      0.00000000      0.00000000      0.00000000      0.00000000      0.00000000</v>
  </separator>
  <separator name="orbital magnetization" >
   <i type="logical" name="NUCIND"> F  </i>
   <v name="MAGPOS">      0.00000000      0.00000000      0.00000000</v>
   <i type="logical" name="LNICSALL"> T  </i>
   <i type="logical" name="ORBITALMAG"> F  </i>
   <i type="logical" name="LMAGBLOCH"> F  </i>
   <i type="logical" name="LCHIMAG"> F  </i>
   <i type="logical" name="LGAUGE"> T  </i>
   <i type="int" name="MAGATOM">     0</i>
   <v name="MAGDIPOL">      0.00000000      0.00000000      0.00000000</v>
   <v name="AVECCONST">      0.00000000      0.00000000      0.00000000</v>
  </separator>
  <separator name="response functions" >
   <i type="logical" name="LFINITE_TEMPERATURE"> F  </i>
   <i type="logical" name="LADDER"> F  </i>
   <i type="logical" name="LRPAFORCE"> F  </i>
   <i type="logical" name="LFXC"> F  </i>
   <i type="logical" name="LHARTREE"> T  </i>
   <i type="int" name="IBSE">     0</i>
   <v type="int" name="KPOINT">    -1     0     0     0</v>
   <i type="logical" name="LTCTC"> F  </i>
   <i type="logical" name="LTCTE"> F  </i>
   <i type="logical" name="LTETE"> F  </i>
   <i type="logical" name="LTRIPLET"> F  </i>
   <i type="logical" name="LFXCEPS"> F  </i>
   <i type="logical" name="LFXHEG"> F  </i>
   <i type="int" name="NATURALO">     2</i>
   <i type="logical" name="LHOLEGF"> F  </i>
   <i type="logical" name="L2ORDER"> F  </i>
   <i type="logical" name="LDMP1"> F  </i>
   <i type="logical" name="LMP2LT"> F  </i>
   <i type="logical" name="LSMP2LT"> F  </i>
   <i type="logical" name="LGWLF"> F  </i>
   <i name="ENCUTGW">     -2.00000000</i>
   <i name="ENCUTGWSOFT">     -2.00000000</i>
   <i name="ENCUTLF">     -1.00000000</i>
   <i type="logical" name="LESF_SPLINES"> F  </i>
   <i type="int" name="LMAXMP2">    -1</i>
   <i name="SCISSOR">      0.00000000</i>
   <i type="int" name="NOMEGA">     0</i>
   <i type="int" name="NOMEGAR">     0</i>
   <i type="int" name="NBANDSGW">    -1</i>
   <i type="int" name="NBANDSO">    -1</i>
   <i type="int" name="NBANDSV">    -1</i>
   <i type="int" name="NELMGW">     1</i>
   <i type="int" name="NELMHF">     1</i>
   <i type="int" name="DIM">     3</i>
   <i type="int" name="IESPILON">     4</i>
   <i type="int" name="ANTIRES">     0</i>
   <i name="OMEGAMAX">    -30.00000000</i>
   <i name="OMEGAMIN">    -30.00000000</i>
   <i name="OMEGATL">   -200.00000000</i>
   <i type="int" name="OMEGAGRID">     0</i>
   <i name="CSHIFT">     -0.10000000</i>
   <i type="logical" name="LSELFENERGY"> F  </i>
   <i type="logical" name="LSPECTRAL"> F  </i>
   <i type="logical" name="LSPECTRALGW"> F  </i>
   <i type="logical" name="LSINGLES"> F  </i>
   <i type="logical" name="LFERMIGW"> F  </i>
   <i type="logical" name="ODDONLYGW"> F  </i>
   <i type="logical" name="EVENONLYGW"> F  </i>
   <i type="int" name="NKREDLFX">     1</i>
   <i type="int" name="NKREDLFY">     1</i>
   <i type="int" name="NKREDLFZ">     1</i>
   <i type="int" name="MAXMEM">  2800</i>
   <i type="int" name="TELESCOPE">     0</i>
   <i type="int" name="NTAUPAR">    -1</i>
   <i type="int" name="NOMEGAPAR">    -1</i>
   <i name="DAMP_NEWTON">      0.80000001</i>
   <i name="LAMBDA">      1.00000000</i>
  </separator>
  <separator name="External order field" >
   <i name="OFIELD_KAPPA">      0.00000000</i>
   <v name="OFIELD_K">      0.00000000      0.00000000      0.00000000</v>
   <i name="OFIELD_Q6_NEAR">      0.00000000</i>
   <i name="OFIELD_Q6_FAR">      0.00000000</i>
   <i name="OFIELD_A">      0.00000000</i>
  </separator>
  <separator name="optional k-points parameters" >
   <i type="int" name="KPOINTS_OPT_MODE">     1</i>
   <i type="logical" name="LKPOINTS_OPT"> F  </i>
  </separator>
  <separator name="solvation model" >
   <i type="logical" name="LSOL"> F  </i>
  </separator>
 </parameters>
 <atominfo>
  <atoms>      15 </atoms>
  <types>       2 </types>
  <array name="atoms" >
   <dimension dim="1">ion</dimension>
   <field type="string">element</field>
   <field type="int">atomtype</field>
   <set>
    <rc><c>B </c><c>   1</c></rc>
    <rc><c>B </c><c>   1</c></rc>
    <rc><c>B </c><c>   1</c></rc>
    <rc><c>B </c><c>   1</c></rc>
    <rc><c>C </c><c>   2</c></rc>
    <rc><c>C </c><c>   2</c></rc>
    <rc><c>C </c><c>   2</c></rc>
    <rc><c>C </c><c>   2</c></rc>
    <rc><c>C </c><c>   2</c></rc>
    <rc><c>C </c><c>   2</c></rc>
    <rc><c>C </c><c>   2</c></rc>
    <rc><c>C </c><c>   2</c></rc>
    <rc><c>C </c><c>   2</c></rc>
    <rc><c>C </c><c>   2</c></rc>
    <rc><c>C </c><c>   2</c></rc>
   </set>
  </array>
  <array name="atomtypes" >
   <dimension dim="1">type</dimension>
   <field type="int">atomspertype</field>
   <field type="string">element</field>
   <field>mass</field>
   <field>valence</field>
   <field type="string">pseudopotential</field>
   <set>
    <rc><c>   4</c><c>B </c><c>     10.81100000</c><c>      3.00000000</c><c>  PAW_PBE B 06Sep2000                   </c></rc>
    <rc><c>  11</c><c>C </c><c>     12.01100000</c><c>      4.00000000</c><c>  PAW_PBE C 08Apr2002                   </c></rc>
   </set>
  </array>
 </atominfo>
 <structure name="initialpos" >
  <crystal>
   <varray name="basis" >
    <v>       4.18723283       2.41750000       0.00000000 </v>
    <v>      -4.18723283       2.41750000       0.00000000 </v>
    <v>       0.00000000       0.00000000      15.00000000 </v>
   </varray>
   <i name="volume">    303.67906080 </i>
   <varray name="rec_basis" >
    <v>       0.11941060       0.20682523       0.00000000 </v>
    <v>      -0.11941060       0.20682523       0.00000000 </v>
    <v>       0.00000000       0.00000000       0.06666667 </v>
   </varray>
  </crystal>
  <varray name="positions" >
   <v>       0.00415361       0.00267210       0.12034134 </v>
   <v>       0.35695335       0.00285503       0.09748893 </v>
   <v>       0.00423858       0.35550699       0.09749256 </v>
   <v>       0.65142295       0.65006557       0.09747688 </v>
   <v>       0.32808646       0.32671938       0.10030508 </v>
   <v>       0.68027775       0.00278085       0.10027562 </v>
   <v>       0.00416530       0.67883808       0.10026559 </v>
   <v>       0.08333267       0.41666633       0.33646667 </v>
   <v>       0.24999967       0.24999933       0.33646667 </v>
   <v>       0.08333267       0.91666633       0.33646667 </v>
   <v>       0.24999967       0.74999933       0.33646667 </v>
   <v>       0.58333267       0.41666633       0.33646667 </v>
   <v>       0.74999967       0.24999933       0.33646667 </v>
   <v>       0.58333267       0.91666633       0.33646667 </v>
   <v>       0.74999967       0.74999933       0.33646667 </v>
  </varray>
 </structure>
 <calculation>
  <scstep>
   <time name="dav">    5.48    5.52</time>
   <time name="total">    5.53    5.57</time>
   <energy>
    <i name="alphaZ">     58.57267470 </i>
    <i name="ewald">   4737.07810174 </i>
    <i name="hartreedc">  -6291.66557299 </i>
    <i name="XCdc">    175.31161000 </i>
    <i name="pawpsdc">   1365.87943566 </i>
    <i name="pawaedc">  -1368.52100941 </i>
    <i name="eentropy">     -0.01876865 </i>
    <i name="bandstr">   -377.05460828 </i>
    <i name="atom">   1903.26342058 </i>
    <i name="e_fr_energy">    202.84528334 </i>
    <i name="e_wo_entrp">    202.86405199 </i>
    <i name="e_0_energy">    202.85466767 </i>
   </energy>
  </scstep>
  <scstep>
   <time name="dav">    7.93    7.99</time>
   <time name="total">    7.93    7.99</time>
   <energy>
    <i name="e_fr_energy">   -116.56306839 </i>
    <i name="e_wo_entrp">   -116.56203311 </i>
    <i name="e_0_energy">   -116.56255075 </i>
   </energy>
  </scstep>
  <scstep>
   <time name="dav">   11.00   11.07</time>
   <time name="total">   11.01   11.08</time>
   <energy>
    <i name="e_fr_energy">   -129.54542575 </i>
    <i name="e_wo_entrp">   -129.54232444 </i>
    <i name="e_0_energy">   -129.54387509 </i>
   </energy>
  </scstep>
  <scstep>
   <time name="dav">    8.43    8.49</time>
   <time name="total">    8.43    8.50</time>
   <energy>
    <i name="e_fr_energy">   -129.57407296 </i>
    <i name="e_wo_entrp">   -129.57098273 </i>
    <i name="e_0_energy">   -129.57252785 </i>
   </energy>
  </scstep>
  <scstep>
   <time name="dav">   10.44   10.51</time>
   <time name="total">   10.70   10.78</time>
   <energy>
    <i name="e_fr_energy">   -129.57413339 </i>
    <i name="e_wo_entrp">   -129.57104306 </i>
    <i name="e_0_energy">   -129.57258822 </i>
   </energy>
  </scstep>
  <scstep>
   <time name="dav">   10.64   10.70</time>
   <time name="total">   10.94   11.02</time>
   <energy>
    <i name="e_fr_energy">    -92.06771774 </i>
    <i name="e_wo_entrp">    -92.06154822 </i>
    <i name="e_0_energy">    -92.06463298 </i>
   </energy>
  </scstep>
  <scstep>
   <time name="dav">    9.32    9.39</time>
   <time name="total">    9.63    9.71</time>
   <energy>
    <i name="e_fr_energy">   -100.54299335 </i>
    <i name="e_wo_entrp">   -100.53744388 </i>
    <i name="e_0_energy">   -100.54021862 </i>
   </energy>
  </scstep>
  <scstep>
   <time name="dav">    9.91    9.97</time>
   <time name="total">   10.20   10.27</time>
   <energy>
    <i name="e_fr_energy">   -110.41986696 </i>
    <i name="e_wo_entrp">   -110.41984205 </i>
    <i name="e_0_energy">   -110.41985451 </i>
   </energy>
  </scstep>
  <scstep>
   <time name="dav">    7.95    8.01</time>
   <time name="total">    8.25    8.32</time>
   <energy>
    <i name="e_fr_energy">   -117.22675986 </i>
    <i name="e_wo_entrp">   -117.22675594 </i>
    <i name="e_0_energy">   -117.22675790 </i>
   </energy>
  </scstep>
  <scstep>
   <time name="dav">    9.98   10.05</time>
   <time name="total">   10.28   10.36</time>
   <energy>
    <i name="e_fr_energy">   -123.45287863 </i>
    <i name="e_wo_entrp">   -123.45228882 </i>
    <i name="e_0_energy">   -123.45258373 </i>
   </energy>
  </scstep>
  <scstep>
   <time name="dav">   10.12   10.17</time>
   <time name="total">   10.41   10.48</time>
   <energy>
    <i name="e_fr_energy">   -125.27862171 </i>
    <i name="e_wo_entrp">   -125.27742547 </i>
    <i name="e_0_energy">   -125.27802359 </i>
   </energy>
  </scstep>
  <scstep>
   <time name="dav">    7.95    8.00</time>
   <time name="total">    8.25    8.31</time>
   <energy>
    <i name="e_fr_energy">   -125.43771009 </i>
    <i name="e_wo_entrp">   -125.43622602 </i>
    <i name="e_0_energy">   -125.43696805 </i>
   </energy>
  </scstep>
  <scstep>
   <time name="dav">    6.72    6.77</time>
   <time name="total">    7.02    7.08</time>
   <energy>
    <i name="e_fr_energy">   -125.46440124 </i>
    <i name="e_wo_entrp">   -125.46284811 </i>
    <i name="e_0_energy">   -125.46362467 </i>
   </energy>
  </scstep>
  <scstep>
   <time name="dav">    8.55    8.61</time>
   <time name="total">    8.86    8.93</time>
   <energy>
    <i name="e_fr_energy">   -125.48656125 </i>
    <i name="e_wo_entrp">   -125.48500311 </i>
    <i name="e_0_energy">   -125.48578218 </i>
   </energy>
  </scstep>
  <scstep>
   <time name="dav">    7.60    7.64</time>
   <time name="total">    7.89    7.95</time>
   <energy>
    <i name="e_fr_energy">   -125.49407302 </i>
    <i name="e_wo_entrp">   -125.49251418 </i>
    <i name="e_0_energy">   -125.49329360 </i>
   </energy>
  </scstep>
  <scstep>
   <time name="dav">    6.68    6.73</time>
   <time name="total">    6.98    7.04</time>
   <energy>
    <i name="e_fr_energy">   -125.49604356 </i>
    <i name="e_wo_entrp">   -125.49448470 </i>
    <i name="e_0_energy">   -125.49526413 </i>
   </energy>
  </scstep>
  <scstep>
   <time name="dav">    5.74    5.78</time>
   <time name="total">    6.04    6.09</time>
   <energy>
    <i name="e_fr_energy">   -125.49730123 </i>
    <i name="e_wo_entrp">   -125.49574241 </i>
    <i name="e_0_energy">   -125.49652182 </i>
   </energy>
  </scstep>
  <scstep>
   <time name="dav">    6.48    6.52</time>
   <time name="total">    6.78    6.83</time>
   <energy>
    <i name="e_fr_energy">   -125.49802614 </i>
    <i name="e_wo_entrp">   -125.49646732 </i>
    <i name="e_0_energy">   -125.49724673 </i>
   </energy>
  </scstep>
  <scstep>
   <time name="dav">    7.47    7.52</time>
   <time name="total">    7.77    7.83</time>
   <energy>
    <i name="e_fr_energy">   -125.49845467 </i>
    <i name="e_wo_entrp">   -125.49689585 </i>
    <i name="e_0_energy">   -125.49767526 </i>
   </energy>
  </scstep>
  <scstep>
   <time name="dav">    9.05    9.10</time>
   <time name="total">    9.34    9.41</time>
   <energy>
    <i name="e_fr_energy">   -125.49850539 </i>
    <i name="e_wo_entrp">   -125.49694656 </i>
    <i name="e_0_energy">   -125.49772597 </i>
   </energy>
  </scstep>
  <scstep>
   <time name="dav">    8.09    8.16</time>
   <time name="total">    8.39    8.46</time>
   <energy>
    <i name="e_fr_energy">   -125.49852753 </i>
    <i name="e_wo_entrp">   -125.49696870 </i>
    <i name="e_0_energy">   -125.49774811 </i>
   </energy>
  </scstep>
  <scstep>
   <time name="dav">    8.98    9.03</time>
   <time name="total">    9.28    9.35</time>
   <energy>
    <i name="e_fr_energy">   -125.49854912 </i>
    <i name="e_wo_entrp">   -125.49699028 </i>
    <i name="e_0_energy">   -125.49776970 </i>
   </energy>
  </scstep>
  <scstep>
   <time name="dav">    8.50    8.55</time>
   <time name="total">    8.80    8.86</time>
   <energy>
    <i name="e_fr_energy">   -125.49856428 </i>
    <i name="e_wo_entrp">   -125.49700544 </i>
    <i name="e_0_energy">   -125.49778486 </i>
   </energy>
  </scstep>
  <scstep>
   <time name="dav">    9.32    9.38</time>
   <time name="total">    9.61    9.68</time>
   <energy>
    <i name="e_fr_energy">   -125.49856725 </i>
    <i name="e_wo_entrp">   -125.49700841 </i>
    <i name="e_0_energy">   -125.49778783 </i>
   </energy>
  </scstep>
  <scstep>
   <time name="dav">    9.16    9.22</time>
   <time name="total">    9.20    9.26</time>
   <energy>
    <i name="alphaZ">     58.57267470 </i>
    <i name="ewald">   4737.07810174 </i>
    <i name="hartreedc">  -6495.56259930 </i>
    <i name="XCdc">    180.75657848 </i>
    <i name="pawpsdc">   5799.22508017 </i>
    <i name="pawaedc">  -5803.66106905 </i>
    <i name="eentropy">     -0.00155884 </i>
    <i name="bandstr">   -505.16919666 </i>
    <i name="atom">   1903.26342058 </i>
    <i name="e_fr_energy">   -125.49856819 </i>
    <i name="e_wo_entrp">   -125.49700935 </i>
    <i name="e_0_energy">   -125.49778877 </i>
   </energy>
  </scstep>
  <structure>
   <crystal>
    <varray name="basis" >
     <v>       4.18723283       2.41750000       0.00000000 </v>
     <v>      -4.18723283       2.41750000       0.00000000 </v>
     <v>       0.00000000       0.00000000      15.00000000 </v>
    </varray>
    <i name="volume">    303.67906080 </i>
    <varray name="rec_basis" >
     <v>       0.11941060       0.20682523       0.00000000 </v>
     <v>      -0.11941060       0.20682523       0.00000000 </v>
     <v>       0.00000000       0.00000000       0.06666667 </v>
    </varray>
   </crystal>
   <varray name="positions" >
    <v>       0.00415361       0.00267210       0.12034134 </v>
    <v>       0.35695335       0.00285503       0.09748893 </v>
    <v>       0.00423858       0.35550699       0.09749256 </v>
    <v>       0.65142295       0.65006557       0.09747688 </v>
    <v>       0.32808646       0.32671938       0.10030508 </v>
    <v>       0.68027775       0.00278085       0.10027562 </v>
    <v>       0.00416530       0.67883808       0.10026559 </v>
    <v>       0.08333267       0.41666633       0.33646667 </v>
    <v>       0.24999967       0.24999933       0.33646667 </v>
    <v>       0.08333267       0.91666633       0.33646667 </v>
    <v>       0.24999967       0.74999933       0.33646667 </v>
    <v>       0.58333267       0.41666633       0.33646667 </v>
    <v>       0.74999967       0.24999933       0.33646667 </v>
    <v>       0.58333267       0.91666633       0.33646667 </v>
    <v>       0.74999967       0.74999933       0.33646667 </v>
   </varray>
  </structure>
  <varray name="forces" >
   <v>      -0.00096400      -0.00043372      -0.35668877 </v>
   <v>      -0.10054747      -0.06071871       0.09525162 </v>
   <v>       0.07645113      -0.05418055       0.11302669 </v>
   <v>       0.01385456       0.10264528       0.10885507 </v>
   <v>       0.02019200      -0.32127856      -0.00185713 </v>
   <v>       0.29418774       0.17739344       0.01490474 </v>
   <v>      -0.27138725       0.15748068       0.00298029 </v>
   <v>      -0.01113531       0.00492399      -0.00127735 </v>
   <v>      -0.00754306       0.02238183       0.02857075 </v>
   <v>       0.00334705       0.01465731      -0.00512601 </v>
   <v>       0.02959831       0.01275521      -0.00964487 </v>
   <v>      -0.00238629      -0.00351671      -0.01419285 </v>
   <v>      -0.00598996      -0.00324566      -0.00179126 </v>
   <v>      -0.01666891      -0.01451759       0.02151916 </v>
   <v>      -0.02100855      -0.03434625       0.00546993 </v>
  </varray>
  <varray name="stress" >
   <v>       4.93819519       0.08505813      -0.59331444 </v>
   <v>       0.08505813       4.71004797      -0.01898358 </v>
   <v>      -0.59331440      -0.01898357      -2.32156473 </v>
  </varray>
  <energy>
   <i name="e_fr_energy">   -127.09101326 </i>
   <i name="e_wo_entrp">   -127.08945442 </i>
   <i name="e_0_energy">   -127.09023384 </i>
  </energy>
  <time name="totalsc">  222.20  223.87</time>
 </calculation>
 <calculation>
  <scstep>
   <time name="dav">    5.46    5.50</time>
   <time name="total">    5.76    5.81</time>
   <energy>
    <i name="alphaZ">     58.57267470 </i>
    <i name="ewald">   4740.52255612 </i>
    <i name="hartreedc">  -6497.71642881 </i>
    <i name="XCdc">    180.83105178 </i>
    <i name="pawpsdc">   5799.25489545 </i>
    <i name="pawaedc">  -5803.69088284 </i>
    <i name="eentropy">     -0.00155610 </i>
    <i name="bandstr">   -506.54212652 </i>
    <i name="atom">   1903.26342058 </i>
    <i name="e_fr_energy">   -125.50639564 </i>
    <i name="e_wo_entrp">   -125.50483954 </i>
    <i name="e_0_energy">   -125.50561759 </i>
   </energy>
  </scstep>
  <scstep>
   <time name="dav">   10.74   10.82</time>
   <time name="total">   11.03   11.12</time>
   <energy>
    <i name="e_fr_energy">   -125.49896863 </i>
    <i name="e_wo_entrp">   -125.49741221 </i>
    <i name="e_0_energy">   -125.49819042 </i>
   </energy>
  </scstep>
  <scstep>
   <time name="dav">    8.51    8.57</time>
   <time name="total">    8.80    8.87</time>
   <energy>
    <i name="e_fr_energy">   -125.49812944 </i>
    <i name="e_wo_entrp">   -125.49657287 </i>
    <i name="e_0_energy">   -125.49735116 </i>
   </energy>
  </scstep>
  <scstep>
   <time name="dav">   11.17   11.24</time>
   <time name="total">   11.46   11.54</time>
   <energy>
    <i name="e_fr_energy">   -125.49809350 </i>
    <i name="e_wo_entrp">   -125.49653692 </i>
    <i name="e_0_energy">   -125.49731521 </i>
   </energy>
  </scstep>
  <scstep>
   <time name="dav">   10.31   10.38</time>
   <time name="total">   10.60   10.67</time>
   <energy>
    <i name="e_fr_energy">   -125.49809628 </i>
    <i name="e_wo_entrp">   -125.49653971 </i>
    <i name="e_0_energy">   -125.49731799 </i>
   </energy>
  </scstep>
  <scstep>
   <time name="dav">    8.96    9.01</time>
   <time name="total">    8.99    9.05</time>
   <energy>
    <i name="alphaZ">     58.57267470 </i>
    <i name="ewald">   4740.52255612 </i>
    <i name="hartreedc">  -6498.39631789 </i>
    <i name="XCdc">    180.84620757 </i>
    <i name="pawpsdc">   5823.94729898 </i>
    <i name="pawaedc">  -5828.39123916 </i>
    <i name="eentropy">     -0.00155657 </i>
    <i name="bandstr">   -505.86114060 </i>
    <i name="atom">   1903.26342058 </i>
    <i name="e_fr_energy">   -125.49809628 </i>
    <i name="e_wo_entrp">   -125.49653971 </i>
    <i name="e_0_energy">   -125.49731799 </i>
   </energy>
  </scstep>
  <structure>
   <crystal>
    <varray name="basis" >
     <v>       4.18723283       2.41750000       0.00000000 </v>
     <v>      -4.18723283       2.41750000       0.00000000 </v>
     <v>       0.00000000       0.00000000      15.00000000 </v>
    </varray>
    <i name="volume">    303.67906080 </i>
    <varray name="rec_basis" >
     <v>       0.11941060       0.20682523       0.00000000 </v>
     <v>      -0.11941060       0.20682523       0.00000000 </v>
     <v>       0.00000000       0.00000000       0.06666667 </v>
    </varray>
   </crystal>
   <varray name="positions" >
    <v>       0.00414373       0.00267333       0.11919416 </v>
    <v>       0.35576829       0.00282841       0.09779528 </v>
    <v>       0.00413839       0.35452598       0.09785608 </v>
    <v>       0.65252694       0.65100993       0.09782698 </v>
    <v>       0.32499713       0.32339740       0.10029910 </v>
    <v>       0.68374247       0.00285613       0.10032356 </v>
    <v>       0.00417323       0.68197276       0.10027517 </v>
    <v>       0.08331765       0.41677961       0.33646256 </v>
    <v>       0.25017953       0.25026611       0.33655856 </v>
    <v>       0.08349820       0.91679330       0.33645018 </v>
    <v>       0.25029744       0.74995610       0.33643565 </v>
    <v>       0.58328383       0.41664499       0.33642102 </v>
    <v>       0.74993278       0.25000146       0.33646091 </v>
    <v>       0.58309179       0.91661750       0.33653588 </v>
    <v>       0.74953594       0.74977766       0.33648426 </v>
   </varray>
  </structure>
  <varray name="forces" >
   <v>      -0.00241025       0.00429056      -0.14992375 </v>
   <v>       0.25671357       0.14400321       0.05291658 </v>
   <v>      -0.21171975       0.13164127       0.06561524 </v>
   <v>       0.01169671      -0.26410847       0.06199073 </v>
   <v>       0.00058277       0.53505355      -0.02231955 </v>
   <v>      -0.48570978      -0.28484489      -0.01264424 </v>
   <v>       0.46233537      -0.26534264      -0.01940625 </v>
   <v>       0.02257771      -0.02031391       0.00364664 </v>
   <v>       0.00069633      -0.07572148       0.00673047 </v>
   <v>      -0.02775192      -0.05624323       0.00552477 </v>
   <v>      -0.12621584      -0.04698123      -0.00276571 </v>
   <v>       0.00145464       0.00941911       0.00133098 </v>
   <v>       0.00433256       0.00881575      -0.00121717 </v>
   <v>       0.04184028       0.05821022       0.00894315 </v>
   <v>       0.05157759       0.12212216       0.00157810 </v>
  </varray>
  <varray name="stress" >
   <v>       7.31408062       0.11407781      -0.60577165 </v>
   <v>       0.11407778       7.22899809      -0.01246431 </v>
   <v>      -0.60577164      -0.01246433      -1.94968077 </v>
  </varray>
  <energy>
   <i name="e_fr_energy">   -127.09003930 </i>
   <i name="e_wo_entrp">   -127.08848273 </i>
   <i name="e_0_energy">   -127.08926102 </i>
  </energy>
  <time name="totalsc">   61.32   61.77</time>
 </calculation>
 <calculation>
  <scstep>
   <time name="dav">    5.45    5.49</time>
   <time name="total">    5.74    5.79</time>
   <energy>
    <i name="alphaZ">     58.57267470 </i>
    <i name="ewald">   4738.70140509 </i>
    <i name="hartreedc">  -6497.25158220 </i>
    <i name="XCdc">    180.80651283 </i>
    <i name="pawpsdc">   5823.95606499 </i>
    <i name="pawaedc">  -5828.39999588 </i>
    <i name="eentropy">     -0.00155806 </i>
    <i name="bandstr">   -505.15405331 </i>
    <i name="atom">   1903.26342058 </i>
    <i name="e_fr_energy">   -125.50711128 </i>
    <i name="e_wo_entrp">   -125.50555322 </i>
    <i name="e_0_energy">   -125.50633225 </i>
   </energy>
  </scstep>
  <scstep>
   <time name="dav">   10.64   10.71</time>
   <time name="total">   10.93   11.01</time>
   <energy>
    <i name="e_fr_energy">   -125.50506454 </i>
    <i name="e_wo_entrp">   -125.50350664 </i>
    <i name="e_0_energy">   -125.50428559 </i>
   </energy>
  </scstep>
  <scstep>
   <time name="dav">    9.09    9.15</time>
   <time name="total">    9.38    9.45</time>
   <energy>
    <i name="e_fr_energy">   -125.50484547 </i>
    <i name="e_wo_entrp">   -125.50328764 </i>
    <i name="e_0_energy">   -125.50406656 </i>
   </energy>
  </scstep>
  <scstep>
   <time name="dav">    9.67    9.73</time>
   <time name="total">    9.96   10.03</time>
   <energy>
    <i name="e_fr_energy">   -125.50483624 </i>
    <i name="e_wo_entrp">   -125.50327841 </i>
    <i name="e_0_energy">   -125.50405732 </i>
   </energy>
  </scstep>
  <scstep>
   <time name="dav">    9.45    9.50</time>
   <time name="total">    9.48    9.54</time>
   <energy>
    <i name="alphaZ">     58.57267470 </i>
    <i name="ewald">   4738.70140509 </i>
    <i name="hartreedc">  -6496.91926110 </i>
    <i name="XCdc">    180.79873406 </i>
    <i name="pawpsdc">   5810.64861799 </i>
    <i name="pawaedc">  -5815.08817093 </i>
    <i name="eentropy">     -0.00155783 </i>
    <i name="bandstr">   -505.48069945 </i>
    <i name="atom">   1903.26342058 </i>
    <i name="e_fr_energy">   -125.50483690 </i>
    <i name="e_wo_entrp">   -125.50327907 </i>
    <i name="e_0_energy">   -125.50405798 </i>
   </energy>
  </scstep>
  <structure>
   <crystal>
    <varray name="basis" >
     <v>       4.18723283       2.41750000       0.00000000 </v>
     <v>      -4.18723283       2.41750000       0.00000000 </v>
     <v>       0.00000000       0.00000000      15.00000000 </v>
    </varray>
    <i name="volume">    303.67906080 </i>
    <varray name="rec_basis" >
     <v>       0.11941060       0.20682523       0.00000000 </v>
     <v>      -0.11941060       0.20682523       0.00000000 </v>
     <v>       0.00000000       0.00000000       0.06666667 </v>
    </varray>
   </crystal>
   <varray name="positions" >
    <v>       0.00414886       0.00267269       0.11978973 </v>
    <v>       0.35638353       0.00284223       0.09763624 </v>
    <v>       0.00419040       0.35503528       0.09766736 </v>
    <v>       0.65195379       0.65051966       0.09764522 </v>
    <v>       0.32660099       0.32512204       0.10030221 </v>
    <v>       0.68194372       0.00281705       0.10029867 </v>
    <v>       0.00416912       0.68034536       0.10027020 </v>
    <v>       0.08332545       0.41672080       0.33646469 </v>
    <v>       0.25008615       0.25012761       0.33651085 </v>
    <v>       0.08341226       0.91672738       0.33645874 </v>
    <v>       0.25014285       0.74997854       0.33645175 </v>
    <v>       0.58330918       0.41665607       0.33644472 </v>
    <v>       0.74996750       0.25000035       0.33646390 </v>
    <v>       0.58321684       0.91664285       0.33649995 </v>
    <v>       0.74977669       0.74989274       0.33647513 </v>
   </varray>
  </structure>
  <varray name="forces" >
   <v>      -0.00219200       0.00161063      -0.25633263 </v>
   <v>       0.07441782       0.03962839       0.07483448 </v>
   <v>      -0.06475630       0.03635203       0.09013298 </v>
   <v>       0.01294722      -0.07678565       0.08624438 </v>
   <v>       0.01119328       0.08910498      -0.01189911 </v>
   <v>      -0.07996963      -0.04415504       0.00155336 </v>
   <v>       0.08004155      -0.04493804      -0.00802475 </v>
   <v>       0.00508195      -0.00715072       0.00105086 </v>
   <v>      -0.00354420      -0.02472908       0.01809890 </v>
   <v>      -0.01164427      -0.01944524      -0.00001638 </v>
   <v>      -0.04517092      -0.01575825      -0.00636018 </v>
   <v>      -0.00063637       0.00268947      -0.00675830 </v>
   <v>      -0.00107804       0.00255378      -0.00157304 </v>
   <v>       0.01139491       0.02018031       0.01545107 </v>
   <v>       0.01391500       0.04084242       0.00359835 </v>
  </varray>
  <varray name="stress" >
   <v>       5.97130725       0.09410095      -0.59983302 </v>
   <v>       0.09410096       5.81038926      -0.01538911 </v>
   <v>      -0.59983302      -0.01538909      -2.13151619 </v>
  </varray>
  <energy>
   <i name="e_fr_energy">   -127.09703864 </i>
   <i name="e_wo_entrp">   -127.09548081 </i>
   <i name="e_0_energy">   -127.09625972 </i>
  </energy>
  <time name="totalsc">   50.18   51.98</time>
 </calculation>
 <calculation>
  <scstep>
   <time name="dav">    5.45    5.49</time>
   <time name="total">    5.74    5.79</time>
   <energy>
    <i name="alphaZ">     58.57267470 </i>
    <i name="ewald">   4739.05567017 </i>
    <i name="hartreedc">  -6497.03284710 </i>
    <i name="XCdc">    180.81592005 </i>
    <i name="pawpsdc">   5810.60112474 </i>
    <i name="pawaedc">  -5815.04068094 </i>
    <i name="eentropy">     -0.00156308 </i>
    <i name="bandstr">   -505.74370418 </i>
    <i name="atom">   1903.26342058 </i>
    <i name="e_fr_energy">   -125.50998507 </i>
    <i name="e_wo_entrp">   -125.50842199 </i>
    <i name="e_0_energy">   -125.50920353 </i>
   </energy>
  </scstep>
  <scstep>
   <time name="dav">   11.67   11.73</time>
   <time name="total">   11.95   12.03</time>
   <energy>
    <i name="e_fr_energy">   -125.51002154 </i>
    <i name="e_wo_entrp">   -125.50845866 </i>
    <i name="e_0_energy">   -125.50924010 </i>
   </energy>
  </scstep>
  <scstep>
   <time name="dav">    8.85    8.90</time>
   <time name="total">    9.14    9.20</time>
   <energy>
    <i name="e_fr_energy">   -125.51001761 </i>
    <i name="e_wo_entrp">   -125.50845497 </i>
    <i name="e_0_energy">   -125.50923629 </i>
   </energy>
  </scstep>
  <scstep>
   <time name="dav">   10.76   10.82</time>
   <time name="total">   11.05   11.12</time>
   <energy>
    <i name="e_fr_energy">   -125.51001842 </i>
    <i name="e_wo_entrp">   -125.50845577 </i>
    <i name="e_0_energy">   -125.50923710 </i>
   </energy>
  </scstep>
  <scstep>
   <time name="dav">    8.90    8.94</time>
   <time name="total">    8.94    8.99</time>
   <energy>
    <i name="alphaZ">     58.57267470 </i>
    <i name="ewald">   4739.05567017 </i>
    <i name="hartreedc">  -6497.03103427 </i>
    <i name="XCdc">    180.81556148 </i>
    <i name="pawpsdc">   5815.65513249 </i>
    <i name="pawaedc">  -5820.09643268 </i>
    <i name="eentropy">     -0.00156265 </i>
    <i name="bandstr">   -505.74344867 </i>
    <i name="atom">   1903.26342058 </i>
    <i name="e_fr_energy">   -125.51001886 </i>
    <i name="e_wo_entrp">   -125.50845621 </i>
    <i name="e_0_energy">   -125.50923753 </i>
   </energy>
  </scstep>
  <structure>
   <crystal>
    <varray name="basis" >
     <v>       4.18723283       2.41750000       0.00000000 </v>
     <v>      -4.18723283       2.41750000       0.00000000 </v>
     <v>       0.00000000       0.00000000      15.00000000 </v>
    </varray>
    <i name="volume">    303.67906080 </i>
    <varray name="rec_basis" >
     <v>       0.11941060       0.20682523       0.00000000 </v>
     <v>      -0.11941060       0.20682523       0.00000000 </v>
     <v>       0.00000000       0.00000000       0.06666667 </v>
    </varray>
   </crystal>
   <varray name="positions" >
    <v>       0.00414963       0.00269870       0.11878272 </v>
    <v>       0.35684500       0.00280617       0.09792355 </v>
    <v>       0.00415772       0.35546528       0.09801213 </v>
    <v>       0.65159214       0.64998700       0.09797565 </v>
    <v>       0.32673326       0.32508435       0.10026651 </v>
    <v>       0.68194608       0.00285267       0.10031436 </v>
    <v>       0.00418236       0.68026319       0.10024931 </v>
    <v>       0.08328423       0.41665711       0.33646676 </v>
    <v>       0.24988879       0.24998715       0.33658450 </v>
    <v>       0.08321697       0.91664331       0.33645484 </v>
    <v>       0.24983836       0.75006072       0.33642617 </v>
    <v>       0.58331853       0.41667842       0.33641457 </v>
    <v>       0.74996913       0.25002925       0.33645802 </v>
    <v>       0.58339980       0.91675306       0.33656066 </v>
    <v>       0.75010531       0.75013428       0.33648961 </v>
   </varray>
  </structure>
  <varray name="forces" >
   <v>       0.00156563       0.00161771      -0.23463482 </v>
   <v>       0.05200223       0.02659253       0.04481560 </v>
   <v>      -0.03310447       0.02566319       0.05258222 </v>
   <v>       0.00576483      -0.04870306       0.05048702 </v>
   <v>       0.00097346       0.09289809       0.01771832 </v>
   <v>      -0.08003368      -0.05279835       0.02581987 </v>
   <v>       0.08276239      -0.04455492       0.02036751 </v>
   <v>      -0.02596448       0.01875312       0.00306648 </v>
   <v>       0.00707691       0.04488793       0.00230898 </v>
   <v>       0.00383348       0.04783788       0.00573711 </v>
   <v>       0.08591945       0.03642378       0.00136428 </v>
   <v>      -0.02310627      -0.00342955       0.00414698 </v>
   <v>      -0.00630082      -0.00309918       0.00067407 </v>
   <v>      -0.03794602      -0.05248850       0.00384778 </v>
   <v>      -0.03344266      -0.08960065       0.00169860 </v>
  </varray>
  <varray name="stress" >
   <v>       6.47086030       0.09584326      -0.56441987 </v>
   <v>       0.09584328       6.09844091      -0.01614071 </v>
   <v>      -0.56441986      -0.01614071      -2.09811856 </v>
  </varray>
  <energy>
   <i name="e_fr_energy">   -127.10212574 </i>
   <i name="e_wo_entrp">   -127.10056308 </i>
   <i name="e_0_energy">   -127.10134441 </i>
  </energy>
  <time name="totalsc">   51.48   51.84</time>
 </calculation>
 <calculation>
  <scstep>
   <time name="dav">    5.47    5.50</time>
   <time name="total">    5.76    5.80</time>
   <energy>
    <i name="alphaZ">     58.57267470 </i>
    <i name="ewald">   4739.64583795 </i>
    <i name="hartreedc">  -6497.08803522 </i>
    <i name="XCdc">    180.85304766 </i>
    <i name="pawpsdc">   5815.68254928 </i>
    <i name="pawaedc">  -5820.12385849 </i>
    <i name="eentropy">     -0.00156321 </i>
    <i name="bandstr">   -506.31954298 </i>
    <i name="atom">   1903.26342058 </i>
    <i name="e_fr_energy">   -125.51546973 </i>
    <i name="e_wo_entrp">   -125.51390652 </i>
    <i name="e_0_energy">   -125.51468813 </i>
   </energy>
  </scstep>
  <scstep>
   <time name="dav">   11.11   11.18</time>
   <time name="total">   11.40   11.48</time>
   <energy>
    <i name="e_fr_energy">   -125.51575896 </i>
    <i name="e_wo_entrp">   -125.51419547 </i>
    <i name="e_0_energy">   -125.51497722 </i>
   </energy>
  </scstep>
  <scstep>
   <time name="dav">    8.48    8.53</time>
   <time name="total">    8.76    8.83</time>
   <energy>
    <i name="e_fr_energy">   -125.51572887 </i>
    <i name="e_wo_entrp">   -125.51416519 </i>
    <i name="e_0_energy">   -125.51494703 </i>
   </energy>
  </scstep>
  <scstep>
   <time name="dav">   11.17   11.25</time>
   <time name="total">   11.46   11.55</time>
   <energy>
    <i name="e_fr_energy">   -125.51573374 </i>
    <i name="e_wo_entrp">   -125.51416995 </i>
    <i name="e_0_energy">   -125.51495184 </i>
   </energy>
  </scstep>
  <scstep>
   <time name="dav">    8.96    9.01</time>
   <time name="total">    9.25    9.31</time>
   <energy>
    <i name="e_fr_energy">   -125.51573636 </i>
    <i name="e_wo_entrp">   -125.51417257 </i>
    <i name="e_0_energy">   -125.51495447 </i>
   </energy>
  </scstep>
  <scstep>
   <time name="dav">    9.66    9.72</time>
   <time name="total">    9.70    9.77</time>
   <energy>
    <i name="alphaZ">     58.57267470 </i>
    <i name="ewald">   4739.64583795 </i>
    <i name="hartreedc">  -6497.06214190 </i>
    <i name="XCdc">    180.85187516 </i>
    <i name="pawpsdc">   5826.83309920 </i>
    <i name="pawaedc">  -5831.27833391 </i>
    <i name="eentropy">     -0.00156377 </i>
    <i name="bandstr">   -506.34060452 </i>
    <i name="atom">   1903.26342058 </i>
    <i name="e_fr_energy">   -125.51573652 </i>
    <i name="e_wo_entrp">   -125.51417275 </i>
    <i name="e_0_energy">   -125.51495463 </i>
   </energy>
  </scstep>
  <structure>
   <crystal>
    <varray name="basis" >
     <v>       4.18723283       2.41750000       0.00000000 </v>
     <v>      -4.18723283       2.41750000       0.00000000 </v>
     <v>       0.00000000       0.00000000      15.00000000 </v>
    </varray>
    <i name="volume">    303.67906080 </i>
    <varray name="rec_basis" >
     <v>       0.11941060       0.20682523       0.00000000 </v>
     <v>      -0.11941060       0.20682523       0.00000000 </v>
     <v>       0.00000000       0.00000000       0.06666667 </v>
    </varray>
   </crystal>
   <varray name="positions" >
    <v>       0.00415155       0.00276298       0.11629324 </v>
    <v>       0.35798582       0.00271703       0.09863383 </v>
    <v>       0.00407693       0.35652831       0.09886445 </v>
    <v>       0.65069808       0.64867021       0.09879251 </v>
    <v>       0.32706026       0.32499118       0.10017828 </v>
    <v>       0.68195193       0.00294072       0.10035313 </v>
    <v>       0.00421511       0.68006006       0.10019767 </v>
    <v>       0.08318234       0.41649965       0.33647187 </v>
    <v>       0.24940087       0.24963993       0.33676657 </v>
    <v>       0.08273419       0.91643546       0.33644519 </v>
    <v>       0.24908564       0.75026389       0.33636292 </v>
    <v>       0.58334163       0.41673365       0.33634003 </v>
    <v>       0.74997317       0.25010069       0.33644348 </v>
    <v>       0.58385210       0.91702550       0.33671075 </v>
    <v>       0.75091772       0.75073140       0.33652542 </v>
   </varray>
  </structure>
  <varray name="forces" >
   <v>       0.01115648       0.00127284      -0.19733469 </v>
   <v>      -0.01419305      -0.01125649      -0.02446395 </v>
   <v>       0.05406567      -0.00781803      -0.03463909 </v>
   <v>      -0.01083114       0.03196452      -0.03243486 </v>
   <v>      -0.02221492       0.09326326       0.09100799 </v>
   <v>      -0.07211400      -0.06783995       0.08657357 </v>
   <v>       0.08047124      -0.03898789       0.09065463 </v>
   <v>      -0.10260352       0.08288693       0.00789692 </v>
   <v>       0.03249000       0.21736257      -0.03669898 </v>
   <v>       0.04346324       0.21758670       0.01932938 </v>
   <v>       0.40974211       0.16213242       0.02074149 </v>
   <v>      -0.07801179      -0.01893309       0.03129137 </v>
   <v>      -0.01931447      -0.01751938       0.00614345 </v>
   <v>      -0.15838784      -0.22845115      -0.02492995 </v>
   <v>      -0.15371799      -0.41566324      -0.00313727 </v>
  </varray>
  <varray name="stress" >
   <v>       7.66645721       0.12940503      -0.48816112 </v>
   <v>       0.12940499       6.79800741      -0.01788715 </v>
   <v>      -0.48816110      -0.01788715      -2.01699385 </v>
  </varray>
  <energy>
   <i name="e_fr_energy">   -127.10758308 </i>
   <i name="e_wo_entrp">   -127.10601931 </i>
   <i name="e_0_energy">   -127.10680119 </i>
  </energy>
  <time name="totalsc">   61.00   61.44</time>
 </calculation>
 <calculation>
  <scstep>
   <time name="dav">    5.52    5.56</time>
   <time name="total">    5.80    5.86</time>
   <energy>
    <i name="alphaZ">     58.57267470 </i>
    <i name="ewald">   4739.70415351 </i>
    <i name="hartreedc">  -6497.06728686 </i>
    <i name="XCdc">    180.85504751 </i>
    <i name="pawpsdc">   5826.83349530 </i>
    <i name="pawaedc">  -5831.27872927 </i>
    <i name="eentropy">     -0.00156496 </i>
    <i name="bandstr">   -506.39845029 </i>
    <i name="atom">   1903.26342058 </i>
    <i name="e_fr_energy">   -125.51723978 </i>
    <i name="e_wo_entrp">   -125.51567482 </i>
    <i name="e_0_energy">   -125.51645730 </i>
   </energy>
  </scstep>
  <scstep>
   <time name="dav">   11.04   11.10</time>
   <time name="total">   11.33   11.40</time>
   <energy>
    <i name="e_fr_energy">   -125.51724265 </i>
    <i name="e_wo_entrp">   -125.51567773 </i>
    <i name="e_0_energy">   -125.51646019 </i>
   </energy>
  </scstep>
  <scstep>
   <time name="dav">    8.61    8.67</time>
   <time name="total">    8.90    8.97</time>
   <energy>
    <i name="e_fr_energy">   -125.51724154 </i>
    <i name="e_wo_entrp">   -125.51567665 </i>
    <i name="e_0_energy">   -125.51645909 </i>
   </energy>
  </scstep>
  <scstep>
   <time name="dav">   10.61   10.67</time>
   <time name="total">   10.64   10.71</time>
   <energy>
    <i name="alphaZ">     58.57267470 </i>
    <i name="ewald">   4739.70415351 </i>
    <i name="hartreedc">  -6497.05403384 </i>
    <i name="XCdc">    180.85468098 </i>
    <i name="pawpsdc">   5827.68564490 </i>
    <i name="pawaedc">  -5832.13121280 </i>
    <i name="eentropy">     -0.00156489 </i>
    <i name="bandstr">   -506.41100509 </i>
    <i name="atom">   1903.26342058 </i>
    <i name="e_fr_energy">   -125.51724195 </i>
    <i name="e_wo_entrp">   -125.51567707 </i>
    <i name="e_0_energy">   -125.51645951 </i>
   </energy>
  </scstep>
  <structure>
   <crystal>
    <varray name="basis" >
     <v>       4.18723283       2.41750000       0.00000000 </v>
     <v>      -4.18723283       2.41750000       0.00000000 </v>
     <v>       0.00000000       0.00000000      15.00000000 </v>
    </varray>
    <i name="volume">    303.67906080 </i>
    <varray name="rec_basis" >
     <v>       0.11941060       0.20682523       0.00000000 </v>
     <v>      -0.11941060       0.20682523       0.00000000 </v>
     <v>       0.00000000       0.00000000       0.06666667 </v>
    </varray>
   </crystal>
   <varray name="positions" >
    <v>       0.00415521       0.00276725       0.11600959 </v>
    <v>       0.35809399       0.00270652       0.09870307 </v>
    <v>       0.00407916       0.35661971       0.09894677 </v>
    <v>       0.65061801       0.64855244       0.09887152 </v>
    <v>       0.32712987       0.32502926       0.10018240 </v>
    <v>       0.68190338       0.00293798       0.10036963 </v>
    <v>       0.00422182       0.68000088       0.10020550 </v>
    <v>       0.08318252       0.41654732       0.33647354 </v>
    <v>       0.24945687       0.24969351       0.33677991 </v>
    <v>       0.08279366       0.91650057       0.33644700 </v>
    <v>       0.24918749       0.75025129       0.33635944 </v>
    <v>       0.58331528       0.41675103       0.33633692 </v>
    <v>       0.74996071       0.25010515       0.33644288 </v>
    <v>       0.58375484       0.91699191       0.33672253 </v>
    <v>       0.75077452       0.75064583       0.33652863 </v>
   </varray>
  </structure>
  <varray name="forces" >
   <v>       0.01224043       0.00100357      -0.19311715 </v>
   <v>      -0.02149014      -0.01549129      -0.02862605 </v>
   <v>       0.06075149      -0.01106352      -0.04041473 </v>
   <v>      -0.01213548       0.03970573      -0.03781789 </v>
   <v>      -0.02336481       0.08453475       0.09539389 </v>
   <v>      -0.06325388      -0.06361750       0.08969729 </v>
   <v>       0.07336255      -0.03447536       0.09458014 </v>
   <v>      -0.08730395       0.07119710       0.00800393 </v>
   <v>       0.02196776       0.19438939      -0.03904451 </v>
   <v>       0.04234179       0.18577610       0.01983203 </v>
   <v>       0.35620651       0.14202827       0.02225051 </v>
   <v>      -0.06270635      -0.01846644       0.03280375 </v>
   <v>      -0.02004188      -0.01665807       0.00672722 </v>
   <v>      -0.13786684      -0.19751201      -0.02705041 </v>
   <v>      -0.13870719      -0.36135072      -0.00321800 </v>
  </varray>
  <varray name="stress" >
   <v>       7.67252113       0.10633643      -0.48076592 </v>
   <v>       0.10633641       6.93232574      -0.01688600 </v>
   <v>      -0.48076590      -0.01688603      -2.00362502 </v>
  </varray>
  <energy>
   <i name="e_fr_energy">   -127.10906622 </i>
   <i name="e_wo_entrp">   -127.10750133 </i>
   <i name="e_0_energy">   -127.10828378 </i>
  </energy>
  <time name="totalsc">   41.37   42.86</time>
 </calculation>
 <calculation>
  <scstep>
   <time name="dav">    5.45    5.50</time>
   <time name="total">    5.75    5.80</time>
   <energy>
    <i name="alphaZ">     58.57267470 </i>
    <i name="ewald">   4739.85103498 </i>
    <i name="hartreedc">  -6497.06475973 </i>
    <i name="XCdc">    180.86403651 </i>
    <i name="pawpsdc">   5827.75120276 </i>
    <i name="pawaedc">  -5832.19678272 </i>
    <i name="eentropy">     -0.00156388 </i>
    <i name="bandstr">   -506.56008507 </i>
    <i name="atom">   1903.26342058 </i>
    <i name="e_fr_energy">   -125.52082188 </i>
    <i name="e_wo_entrp">   -125.51925800 </i>
    <i name="e_0_energy">   -125.52003994 </i>
   </energy>
  </scstep>
  <scstep>
   <time name="dav">   10.66   10.72</time>
   <time name="total">   10.96   11.04</time>
   <energy>
    <i name="e_fr_energy">   -125.52084440 </i>
    <i name="e_wo_entrp">   -125.51928036 </i>
    <i name="e_0_energy">   -125.52006238 </i>
   </energy>
  </scstep>
  <scstep>
   <time name="dav">    7.84    7.88</time>
   <time name="total">    8.12    8.18</time>
   <energy>
    <i name="e_fr_energy">   -125.52083352 </i>
    <i name="e_wo_entrp">   -125.51926925 </i>
    <i name="e_0_energy">   -125.52005138 </i>
   </energy>
  </scstep>
  <scstep>
   <time name="dav">   10.96   11.02</time>
   <time name="total">   11.25   11.32</time>
   <energy>
    <i name="e_fr_energy">   -125.52083411 </i>
    <i name="e_wo_entrp">   -125.51926984 </i>
    <i name="e_0_energy">   -125.52005197 </i>
   </energy>
  </scstep>
  <scstep>
   <time name="dav">    8.68    8.73</time>
   <time name="total">    8.72    8.77</time>
   <energy>
    <i name="alphaZ">     58.57267470 </i>
    <i name="ewald">   4739.85103498 </i>
    <i name="hartreedc">  -6497.06457898 </i>
    <i name="XCdc">    180.86335825 </i>
    <i name="pawpsdc">   5830.52410220 </i>
    <i name="pawaedc">  -5834.97070506 </i>
    <i name="eentropy">     -0.00156426 </i>
    <i name="bandstr">   -506.55857714 </i>
    <i name="atom">   1903.26342058 </i>
    <i name="e_fr_energy">   -125.52083474 </i>
    <i name="e_wo_entrp">   -125.51927048 </i>
    <i name="e_0_energy">   -125.52005261 </i>
   </energy>
  </scstep>
  <structure>
   <crystal>
    <varray name="basis" >
     <v>       4.18723283       2.41750000       0.00000000 </v>
     <v>      -4.18723283       2.41750000       0.00000000 </v>
     <v>       0.00000000       0.00000000      15.00000000 </v>
    </varray>
    <i name="volume">    303.67906080 </i>
    <varray name="rec_basis" >
     <v>       0.11941060       0.20682523       0.00000000 </v>
     <v>      -0.11941060       0.20682523       0.00000000 </v>
     <v>       0.00000000       0.00000000       0.06666667 </v>
    </varray>
   </crystal>
   <varray name="positions" >
    <v>       0.00416619       0.00278005       0.11515865 </v>
    <v>       0.35841849       0.00267499       0.09891079 </v>
    <v>       0.00408583       0.35689393       0.09919375 </v>
    <v>       0.65037780       0.64819912       0.09910855 </v>
    <v>       0.32733873       0.32514349       0.10019479 </v>
    <v>       0.68175774       0.00292976       0.10041913 </v>
    <v>       0.00424195       0.67982336       0.10022898 </v>
    <v>       0.08318305       0.41669033       0.33647854 </v>
    <v>       0.24962489       0.24985425       0.33681995 </v>
    <v>       0.08297209       0.91669593       0.33645243 </v>
    <v>       0.24949305       0.75021350       0.33634900 </v>
    <v>       0.58323623       0.41680317       0.33632759 </v>
    <v>       0.74992334       0.25011853       0.33644107 </v>
    <v>       0.58346305       0.91689115       0.33675784 </v>
    <v>       0.75034493       0.75038911       0.33653828 </v>
   </varray>
  </structure>
  <varray name="forces" >
   <v>       0.01539131       0.00011418      -0.18192413 </v>
   <v>      -0.04471501      -0.02864073      -0.04089379 </v>
   <v>       0.08186598      -0.02175877      -0.05755104 </v>
   <v>      -0.01597268       0.06414015      -0.05374915 </v>
   <v>      -0.02644657       0.05732601       0.10882969 </v>
   <v>      -0.03585971      -0.05010453       0.09944436 </v>
   <v>       0.05086203      -0.02063947       0.10673440 </v>
   <v>      -0.04147439       0.03634303       0.00836565 </v>
   <v>      -0.00950639       0.12568020      -0.04628135 </v>
   <v>       0.03964389       0.09202988       0.02127504 </v>
   <v>       0.19626388       0.08139443       0.02677711 </v>
   <v>      -0.01686616      -0.01708457       0.03744349 </v>
   <v>      -0.02249663      -0.01410482       0.00850663 </v>
   <v>      -0.07599436      -0.10464275      -0.03346846 </v>
   <v>      -0.09469520      -0.20005223      -0.00350845 </v>
  </varray>
  <varray name="stress" >
   <v>       7.69311297       0.04326481      -0.45799064 </v>
   <v>       0.04326479       7.33922691      -0.01363419 </v>
   <v>      -0.45799067      -0.01363414      -1.99739978 </v>
  </varray>
  <energy>
   <i name="e_fr_energy">   -127.11258604 </i>
   <i name="e_wo_entrp">   -127.11102178 </i>
   <i name="e_0_energy">   -127.11180391 </i>
  </energy>
  <time name="totalsc">   49.57   50.09</time>
 </calculation>
 <calculation>
  <scstep>
   <time name="dav">    5.46    5.50</time>
   <time name="total">    5.75    5.80</time>
   <energy>
    <i name="alphaZ">     58.57267470 </i>
    <i name="ewald">   4740.01753710 </i>
    <i name="hartreedc">  -6496.99324522 </i>
    <i name="XCdc">    180.87997310 </i>
    <i name="pawpsdc">   5830.60116556 </i>
    <i name="pawaedc">  -5835.04777013 </i>
    <i name="eentropy">     -0.00154187 </i>
    <i name="bandstr">   -506.81611955 </i>
    <i name="atom">   1903.26342058 </i>
    <i name="e_fr_energy">   -125.52390575 </i>
    <i name="e_wo_entrp">   -125.52236389 </i>
    <i name="e_0_energy">   -125.52313482 </i>
   </energy>
  </scstep>
  <scstep>
   <time name="dav">   11.06   11.12</time>
   <time name="total">   11.35   11.42</time>
   <energy>
    <i name="e_fr_energy">   -125.52399400 </i>
    <i name="e_wo_entrp">   -125.52245074 </i>
    <i name="e_0_energy">   -125.52322237 </i>
   </energy>
  </scstep>
  <scstep>
   <time name="dav">    8.16    8.21</time>
   <time name="total">    8.45    8.52</time>
   <energy>
    <i name="e_fr_energy">   -125.52394760 </i>
    <i name="e_wo_entrp">   -125.52240273 </i>
    <i name="e_0_energy">   -125.52317516 </i>
   </energy>
  </scstep>
  <scstep>
   <time name="dav">   11.10   11.16</time>
   <time name="total">   11.39   11.46</time>
   <energy>
    <i name="e_fr_energy">   -125.52394982 </i>
    <i name="e_wo_entrp">   -125.52240481 </i>
    <i name="e_0_energy">   -125.52317731 </i>
   </energy>
  </scstep>
  <scstep>
   <time name="dav">    8.88    8.94</time>
   <time name="total">    9.17    9.24</time>
   <energy>
    <i name="e_fr_energy">   -125.52395160 </i>
    <i name="e_wo_entrp">   -125.52240660 </i>
    <i name="e_0_energy">   -125.52317910 </i>
   </energy>
  </scstep>
  <scstep>
   <time name="dav">   10.26   10.32</time>
   <time name="total">   10.29   10.36</time>
   <energy>
    <i name="alphaZ">     58.57267470 </i>
    <i name="ewald">   4740.01753710 </i>
    <i name="hartreedc">  -6497.01066813 </i>
    <i name="XCdc">    180.87886993 </i>
    <i name="pawpsdc">   5835.68901348 </i>
    <i name="pawaedc">  -5840.13751029 </i>
    <i name="eentropy">     -0.00154490 </i>
    <i name="bandstr">   -506.79574382 </i>
    <i name="atom">   1903.26342058 </i>
    <i name="e_fr_energy">   -125.52395136 </i>
    <i name="e_wo_entrp">   -125.52240645 </i>
    <i name="e_0_energy">   -125.52317891 </i>
   </energy>
  </scstep>
  <structure>
   <crystal>
    <varray name="basis" >
     <v>       4.18723283       2.41750000       0.00000000 </v>
     <v>      -4.18723283       2.41750000       0.00000000 </v>
     <v>       0.00000000       0.00000000      15.00000000 </v>
    </varray>
    <i name="volume">    303.67906080 </i>
    <varray name="rec_basis" >
     <v>       0.11941060       0.20682523       0.00000000 </v>
     <v>      -0.11941060       0.20682523       0.00000000 </v>
     <v>       0.00000000       0.00000000       0.06666667 </v>
    </varray>
   </crystal>
   <varray name="positions" >
    <v>       0.00418814       0.00280566       0.11345675 </v>
    <v>       0.35906749       0.00261194       0.09932624 </v>
    <v>       0.00409919       0.35744235       0.09968769 </v>
    <v>       0.64989738       0.64749248       0.09958260 </v>
    <v>       0.32775643       0.32537196       0.10021955 </v>
    <v>       0.68146645       0.00291332       0.10051814 </v>
    <v>       0.00428221       0.67946831       0.10027594 </v>
    <v>       0.08318410       0.41697635       0.33648854 </v>
    <v>       0.24996091       0.25017572       0.33690003 </v>
    <v>       0.08332894       0.91708663       0.33646328 </v>
    <v>       0.25010418       0.75013792       0.33632813 </v>
    <v>       0.58307812       0.41690746       0.33630893 </v>
    <v>       0.74984859       0.25014530       0.33643747 </v>
    <v>       0.58287947       0.91668962       0.33682848 </v>
    <v>       0.74948574       0.74987567       0.33655757 </v>
   </varray>
  </structure>
  <varray name="forces" >
   <v>       0.02170119      -0.00175632      -0.16525631 </v>
   <v>      -0.09610336      -0.05771581      -0.06368483 </v>
   <v>       0.12856917      -0.04601289      -0.08982709 </v>
   <v>      -0.02335549       0.11847817      -0.08367081 </v>
   <v>      -0.03231278      -0.00154399       0.13567952 </v>
   <v>       0.02306541      -0.02042261       0.11916775 </v>
   <v>       0.00184102       0.00920164       0.13107178 </v>
   <v>       0.04956460      -0.03346979       0.00919798 </v>
   <v>      -0.07229079      -0.01219170      -0.06067214 </v>
   <v>       0.03482363      -0.09109976       0.02387108 </v>
   <v>      -0.12272788      -0.04257723       0.03560212 </v>
   <v>       0.07521399      -0.01423875       0.04654748 </v>
   <v>      -0.02747169      -0.00848193       0.01206833 </v>
   <v>       0.04945963       0.08348164      -0.04604321 </v>
   <v>      -0.00997662       0.11834933      -0.00405164 </v>
  </varray>
  <varray name="stress" >
   <v>       7.73709546      -0.05779175      -0.41378798 </v>
   <v>      -0.05779174       8.14888445      -0.00528857 </v>
   <v>      -0.41378798      -0.00528858      -1.99687755 </v>
  </varray>
  <energy>
   <i name="e_fr_energy">   -127.11552955 </i>
   <i name="e_wo_entrp">   -127.11398465 </i>
   <i name="e_0_energy">   -127.11475710 </i>
  </energy>
  <time name="totalsc">   61.09   61.52</time>
 </calculation>
 <calculation>
  <scstep>
   <time name="dav">    5.51    5.54</time>
   <time name="total">    5.80    5.84</time>
   <energy>
    <i name="alphaZ">     58.57267470 </i>
    <i name="ewald">   4740.27727179 </i>
    <i name="hartreedc">  -6497.19047971 </i>
    <i name="XCdc">    180.88383598 </i>
    <i name="pawpsdc">   5835.71684325 </i>
    <i name="pawaedc">  -5840.16534002 </i>
    <i name="eentropy">     -0.00155516 </i>
    <i name="bandstr">   -506.88199546 </i>
    <i name="atom">   1903.26342058 </i>
    <i name="e_fr_energy">   -125.52532406 </i>
    <i name="e_wo_entrp">   -125.52376890 </i>
    <i name="e_0_energy">   -125.52454648 </i>
   </energy>
  </scstep>
  <scstep>
   <time name="dav">    9.63    9.68</time>
   <time name="total">    9.92    9.98</time>
   <energy>
    <i name="e_fr_energy">   -125.52533038 </i>
    <i name="e_wo_entrp">   -125.52377557 </i>
    <i name="e_0_energy">   -125.52455297 </i>
   </energy>
  </scstep>
  <scstep>
   <time name="dav">    8.80    8.85</time>
   <time name="total">    9.09    9.17</time>
   <energy>
    <i name="e_fr_energy">   -125.52532833 </i>
    <i name="e_wo_entrp">   -125.52377396 </i>
    <i name="e_0_energy">   -125.52455115 </i>
   </energy>
  </scstep>
  <scstep>
   <time name="dav">   10.18   10.24</time>
   <time name="total">   10.22   10.27</time>
   <energy>
    <i name="alphaZ">     58.57267470 </i>
    <i name="ewald">   4740.27727179 </i>
    <i name="hartreedc">  -6497.23966677 </i>
    <i name="XCdc">    180.88347548 </i>
    <i name="pawpsdc">   5837.29729170 </i>
    <i name="pawaedc">  -5841.74635324 </i>
    <i name="eentropy">     -0.00155436 </i>
    <i name="bandstr">   -506.83188833 </i>
    <i name="atom">   1903.26342058 </i>
    <i name="e_fr_energy">   -125.52532844 </i>
    <i name="e_wo_entrp">   -125.52377409 </i>
    <i name="e_0_energy">   -125.52455126 </i>
   </energy>
  </scstep>
  <structure>
   <crystal>
    <varray name="basis" >
     <v>       4.18723283       2.41750000       0.00000000 </v>
     <v>      -4.18723283       2.41750000       0.00000000 </v>
     <v>       0.00000000       0.00000000      15.00000000 </v>
    </varray>
    <i name="volume">    303.67906080 </i>
    <varray name="rec_basis" >
     <v>       0.11941060       0.20682523       0.00000000 </v>
     <v>      -0.11941060       0.20682523       0.00000000 </v>
     <v>       0.00000000       0.00000000       0.06666667 </v>
    </varray>
   </crystal>
   <varray name="positions" >
    <v>       0.00420604       0.00279277       0.11305241 </v>
    <v>       0.35905385       0.00259663       0.09938279 </v>
    <v>       0.00413730       0.35739993       0.09974922 </v>
    <v>       0.64993411       0.64751827       0.09964268 </v>
    <v>       0.32781384       0.32543877       0.10027944 </v>
    <v>       0.68139977       0.00286765       0.10058605 </v>
    <v>       0.00430309       0.67940815       0.10033835 </v>
    <v>       0.08317821       0.41695501       0.33649425 </v>
    <v>       0.24995974       0.25027659       0.33689132 </v>
    <v>       0.08331045       0.91702430       0.33647510 </v>
    <v>       0.25008274       0.75015848       0.33633841 </v>
    <v>       0.58308346       0.41685565       0.33632409 </v>
    <v>       0.74980317       0.25015988       0.33644165 </v>
    <v>       0.58290461       0.91671870       0.33682383 </v>
    <v>       0.74945694       0.74992988       0.33655975 </v>
   </varray>
  </structure>
  <varray name="forces" >
   <v>       0.02147429      -0.00204077      -0.15215969 </v>
   <v>      -0.08417558      -0.05038796      -0.05739635 </v>
   <v>       0.11182854      -0.03916653      -0.08428958 </v>
   <v>      -0.02269334       0.10312199      -0.07777273 </v>
   <v>      -0.02898588      -0.00259387       0.12571824 </v>
   <v>       0.02291541      -0.01665172       0.10828935 </v>
   <v>       0.00271709       0.00790163       0.12096468 </v>
   <v>       0.02869748      -0.02774894       0.00801908 </v>
   <v>      -0.03509711      -0.03776088      -0.05697225 </v>
   <v>       0.00402594      -0.06997105       0.02196046 </v>
   <v>      -0.10812080      -0.04330443       0.03505627 </v>
   <v>       0.03937012      -0.00133352       0.04357002 </v>
   <v>      -0.00737221      -0.00195647       0.01263450 </v>
   <v>       0.03696764       0.07200899      -0.04462916 </v>
   <v>       0.01844841       0.10988354      -0.00299285 </v>
  </varray>
  <varray name="stress" >
   <v>       7.98216721      -0.02140965      -0.40645192 </v>
   <v>      -0.02140967       8.12548692      -0.00705852 </v>
   <v>      -0.40645192      -0.00705853      -1.97567319 </v>
  </varray>
  <energy>
   <i name="e_fr_energy">   -127.11683161 </i>
   <i name="e_wo_entrp">   -127.11527725 </i>
   <i name="e_0_energy">   -127.11605443 </i>
  </energy>
[...]
       <r>     2.7665     1.1854    30.8805 </r>
       <r>     2.8733     0.6523    30.9502 </r>
       <r>     2.9802     0.9077    31.0472 </r>
       <r>     3.0871     1.4023    31.1970 </r>
       <r>     3.1939     1.4561    31.3526 </r>
       <r>     3.3008     1.2291    31.4840 </r>
       <r>     3.4076     1.2989    31.6228 </r>
       <r>     3.5145     1.1178    31.7422 </r>
       <r>     3.6214     2.0726    31.9637 </r>
       <r>     3.7282     2.8255    32.2656 </r>
       <r>     3.8351     2.9151    32.5772 </r>
       <r>     3.9420     2.7597    32.8721 </r>
       <r>     4.0488     2.8081    33.1721 </r>
       <r>     4.1557     3.2697    33.5215 </r>
       <r>     4.2625     3.2670    33.8707 </r>
       <r>     4.3694     3.1365    34.2058 </r>
       <r>     4.4763     3.1440    34.5418 </r>
       <r>     4.5831     2.9538    34.8575 </r>
       <r>     4.6900     2.6222    35.1377 </r>
       <r>     4.7968     3.2159    35.4813 </r>
       <r>     4.9037     3.4903    35.8543 </r>
       <r>     5.0106     2.9284    36.1672 </r>
       <r>     5.1174     3.0864    36.4971 </r>
       <r>     5.2243     3.2922    36.8489 </r>
       <r>     5.3312     2.6482    37.1319 </r>
       <r>     5.4380     2.7902    37.4300 </r>
       <r>     5.5449     2.8851    37.7383 </r>
       <r>     5.6517     3.7242    38.1363 </r>
       <r>     5.7586     2.9898    38.4558 </r>
       <r>     5.8655     2.7629    38.7510 </r>
       <r>     5.9723     2.5756    39.0263 </r>
       <r>     6.0792     2.7258    39.3176 </r>
       <r>     6.1860     1.9656    39.5276 </r>
       <r>     6.2929     2.1290    39.7551 </r>
       <r>     6.3998     2.8911    40.0641 </r>
       <r>     6.5066     3.1985    40.4059 </r>
       <r>     6.6135     3.1378    40.7412 </r>
       <r>     6.7204     3.1093    41.0734 </r>
       <r>     6.8272     4.2269    41.5251 </r>
       <r>     6.9341     3.7265    41.9233 </r>
       <r>     7.0409     3.2417    42.2698 </r>
       <r>     7.1478     3.4485    42.6383 </r>
       <r>     7.2547     2.8596    42.9439 </r>
       <r>     7.3615     2.1815    43.1770 </r>
       <r>     7.4684     2.7556    43.4714 </r>
       <r>     7.5752     3.0755    43.8001 </r>
       <r>     7.6821     2.6988    44.0885 </r>
       <r>     7.7890     3.3013    44.4413 </r>
       <r>     7.8958     3.8955    44.8576 </r>
       <r>     8.0027     4.0770    45.2932 </r>
       <r>     8.1096     4.0781    45.7290 </r>
       <r>     8.2164     4.1261    46.1700 </r>
       <r>     8.3233     3.5635    46.5508 </r>
       <r>     8.4301     4.3991    47.0209 </r>
       <r>     8.5370     4.4606    47.4975 </r>
       <r>     8.6439     2.4334    47.7576 </r>
       <r>     8.7507     1.2621    47.8924 </r>
       <r>     8.8576     0.5618    47.9525 </r>
       <r>     8.9644     0.3657    47.9916 </r>
       <r>     9.0713     0.0762    47.9997 </r>
       <r>     9.1782     0.0027    48.0000 </r>
       <r>     9.2850     0.0000    48.0000 </r>
       <r>     9.3919     0.0000    48.0000 </r>
       <r>     9.4988     0.0000    48.0000 </r>
       <r>     9.6056     0.0000    48.0000 </r>
       <r>     9.7125     0.0000    48.0000 </r>
       <r>     9.8193     0.0000    48.0000 </r>
       <r>     9.9262     0.0000    48.0000 </r>
       <r>    10.0331     0.0000    48.0000 </r>
       <r>    10.1399     0.0000    48.0000 </r>
       <r>    10.2468     0.0000    48.0000 </r>
       <r>    10.3537     0.0000    48.0000 </r>
      </set>
      <set comment="spin 2">
       <r>   -21.7049     0.0000     0.0000 </r>
       <r>   -21.5980     0.0000     0.0000 </r>
       <r>   -21.4911     0.0000     0.0000 </r>
       <r>   -21.3843     0.0000     0.0000 </r>
       <r>   -21.2774     0.0000     0.0000 </r>
       <r>   -21.1705     0.0000     0.0000 </r>
       <r>   -21.0637     0.0000     0.0000 </r>
       <r>   -20.9568     0.0000     0.0000 </r>
       <r>   -20.8500     0.0000     0.0000 </r>
       <r>   -20.7431     0.0000     0.0000 </r>
       <r>   -20.6362     0.0000     0.0000 </r>
       <r>   -20.5294     0.0000     0.0000 </r>
       <r>   -20.4225     0.0008     0.0001 </r>
       <r>   -20.3157     0.0344     0.0038 </r>
       <r>   -20.2088     0.2513     0.0306 </r>
       <r>   -20.1019     0.5291     0.0872 </r>
       <r>   -19.9951     0.5754     0.1486 </r>
       <r>   -19.8882     0.6299     0.2159 </r>
       <r>   -19.7813     0.5283     0.2724 </r>
       <r>   -19.6745     0.6851     0.3456 </r>
       <r>   -19.5676     0.5412     0.4035 </r>
       <r>   -19.4608     0.5352     0.4607 </r>
       <r>   -19.3539     0.7673     0.5426 </r>
       <r>   -19.2470     0.4944     0.5955 </r>
       <r>   -19.1402     0.4832     0.6471 </r>
       <r>   -19.0333     0.7767     0.7301 </r>
       <r>   -18.9264     0.6728     0.8020 </r>
       <r>   -18.8196     0.3858     0.8433 </r>
       <r>   -18.7127     0.5324     0.9001 </r>
       <r>   -18.6059     0.8852     0.9947 </r>
       <r>   -18.4990     0.5955     1.0584 </r>
       <r>   -18.3921     0.4887     1.1106 </r>
       <r>   -18.2853     0.3706     1.1502 </r>
       <r>   -18.1784     0.8151     1.2373 </r>
       <r>   -18.0716     0.8652     1.3298 </r>
       <r>   -17.9647     0.4726     1.3803 </r>
       <r>   -17.8578     0.4049     1.4235 </r>
       <r>   -17.7510     0.5170     1.4788 </r>
       <r>   -17.6441     0.7627     1.5603 </r>
       <r>   -17.5372     0.8874     1.6551 </r>
       <r>   -17.4304     0.7975     1.7403 </r>
       <r>   -17.3235     0.9705     1.8440 </r>
       <r>   -17.2167     1.2988     1.9828 </r>
       <r>   -17.1098     1.8583     2.1814 </r>
       <r>   -17.0029     2.0537     2.4009 </r>
       <r>   -16.8961     2.3144     2.6482 </r>
       <r>   -16.7892     2.7050     2.9373 </r>
       <r>   -16.6824     1.8335     3.1332 </r>
       <r>   -16.5755     0.4783     3.1843 </r>
       <r>   -16.4686     0.8151     3.2714 </r>
       <r>   -16.3618     1.0977     3.3887 </r>
       <r>   -16.2549     0.6040     3.4533 </r>
       <r>   -16.1480     0.5388     3.5108 </r>
       <r>   -16.0412     0.4829     3.5624 </r>
       <r>   -15.9343     0.5077     3.6167 </r>
       <r>   -15.8275     0.4233     3.6619 </r>
       <r>   -15.7206     0.9467     3.7631 </r>
       <r>   -15.6137     1.0973     3.8804 </r>
       <r>   -15.5069     0.5461     3.9387 </r>
       <r>   -15.4000     0.4916     3.9912 </r>
       <r>   -15.2932     0.4223     4.0364 </r>
       <r>   -15.1863     0.5560     4.0958 </r>
       <r>   -15.0794     0.7784     4.1790 </r>
       <r>   -14.9726     1.4519     4.3341 </r>
       <r>   -14.8657     2.2902     4.5789 </r>
       <r>   -14.7588     2.4316     4.8387 </r>
       <r>   -14.6520     2.1097     5.0642 </r>
       <r>   -14.5451     1.4636     5.2206 </r>
       <r>   -14.4383     0.9966     5.3271 </r>
       <r>   -14.3314     1.6633     5.5048 </r>
       <r>   -14.2245     2.0540     5.7243 </r>
       <r>   -14.1177     1.6592     5.9016 </r>
       <r>   -14.0108     1.3692     6.0479 </r>
       <r>   -13.9039     1.6615     6.2255 </r>
       <r>   -13.7971     2.4615     6.4885 </r>
       <r>   -13.6902     2.3855     6.7434 </r>
       <r>   -13.5834     2.2613     6.9851 </r>
       <r>   -13.4765     1.3961     7.1343 </r>
       <r>   -13.3696     0.8174     7.2216 </r>
       <r>   -13.2628     0.4300     7.2676 </r>
       <r>   -13.1559     0.4636     7.3171 </r>
       <r>   -13.0491     0.8056     7.4032 </r>
       <r>   -12.9422     0.9299     7.5026 </r>
       <r>   -12.8353     0.6233     7.5692 </r>
       <r>   -12.7285     0.7880     7.6534 </r>
       <r>   -12.6216     0.9135     7.7510 </r>
       <r>   -12.5147     0.7427     7.8304 </r>
       <r>   -12.4079     0.7050     7.9057 </r>
       <r>   -12.3010     0.4687     7.9558 </r>
       <r>   -12.1942     0.6719     8.0276 </r>
       <r>   -12.0873     1.0697     8.1419 </r>
       <r>   -11.9804     0.5394     8.1995 </r>
       <r>   -11.8736     0.4003     8.2423 </r>
       <r>   -11.7667     0.4378     8.2891 </r>
       <r>   -11.6599     0.6359     8.3571 </r>
       <r>   -11.5530     0.9025     8.4535 </r>
       <r>   -11.4461     0.6083     8.5185 </r>
       <r>   -11.3393     0.2325     8.5433 </r>
       <r>   -11.2324     0.5132     8.5982 </r>
       <r>   -11.1255     0.7456     8.6779 </r>
       <r>   -11.0187     0.6948     8.7521 </r>
       <r>   -10.9118     0.9147     8.8499 </r>
       <r>   -10.8050     0.8989     8.9459 </r>
       <r>   -10.6981     0.3805     8.9866 </r>
       <r>   -10.5912     0.9956     9.0930 </r>
       <r>   -10.4844     1.6782     9.2723 </r>
       <r>   -10.3775     1.9374     9.4793 </r>
       <r>   -10.2707     2.0025     9.6933 </r>
       <r>   -10.1638     1.9662     9.9034 </r>
       <r>   -10.0569     2.1873    10.1372 </r>
       <r>    -9.9501     2.1595    10.3680 </r>
       <r>    -9.8432     1.3093    10.5079 </r>
       <r>    -9.7363     1.1488    10.6306 </r>
       <r>    -9.6295     1.7371    10.8163 </r>
       <r>    -9.5226     1.6010    10.9873 </r>
       <r>    -9.4158     2.0619    11.2077 </r>
       <r>    -9.3089     2.3621    11.4601 </r>
       <r>    -9.2020     1.7935    11.6518 </r>
       <r>    -9.0952     1.2380    11.7840 </r>
       <r>    -8.9883     0.8246    11.8722 </r>
       <r>    -8.8815     2.0200    12.0880 </r>
       <r>    -8.7746     2.7989    12.3871 </r>
       <r>    -8.6677     1.8134    12.5809 </r>
       <r>    -8.5609     1.0143    12.6893 </r>
       <r>    -8.4540     1.4133    12.8403 </r>
       <r>    -8.3471     2.5064    13.1082 </r>
       <r>    -8.2403     2.4058    13.3652 </r>
       <r>    -8.1334     1.5810    13.5342 </r>
       <r>    -8.0266     2.0956    13.7581 </r>
       <r>    -7.9197     3.0202    14.0809 </r>
       <r>    -7.8128     3.0823    14.4103 </r>
       <r>    -7.7060     2.6531    14.6938 </r>
       <r>    -7.5991     1.4339    14.8470 </r>
       <r>    -7.4922     0.9036    14.9436 </r>
       <r>    -7.3854     2.1650    15.1749 </r>
       <r>    -7.2785     2.3708    15.4283 </r>
       <r>    -7.1717     1.5927    15.5985 </r>
       <r>    -7.0648     1.4748    15.7561 </r>
       <r>    -6.9579     2.0754    15.9778 </r>
       <r>    -6.8511     2.2756    16.2210 </r>
       <r>    -6.7442     2.3914    16.4766 </r>
       <r>    -6.6374     2.8377    16.7798 </r>
       <r>    -6.5305     2.5787    17.0554 </r>
       <r>    -6.4236     2.7227    17.3463 </r>
       <r>    -6.3168     2.1799    17.5793 </r>
       <r>    -6.2099     2.2458    17.8193 </r>
       <r>    -6.1030     3.2454    18.1661 </r>
       <r>    -5.9962     3.1830    18.5062 </r>
       <r>    -5.8893     3.9396    18.9272 </r>
       <r>    -5.7825     3.3987    19.2904 </r>
       <r>    -5.6756     2.3241    19.5388 </r>
       <r>    -5.5687     2.6509    19.8220 </r>
       <r>    -5.4619     4.1194    20.2622 </r>
       <r>    -5.3550     4.3341    20.7254 </r>
       <r>    -5.2482     2.8774    21.0329 </r>
       <r>    -5.1413     2.1587    21.2636 </r>
       <r>    -5.0344     1.3245    21.4051 </r>
       <r>    -4.9276     1.2068    21.5341 </r>
       <r>    -4.8207     1.7810    21.7244 </r>
       <r>    -4.7138     1.5622    21.8913 </r>
       <r>    -4.6070     1.0795    22.0067 </r>
       <r>    -4.5001     1.0886    22.1230 </r>
       <r>    -4.3933     1.8423    22.3199 </r>
       <r>    -4.2864     3.0085    22.6414 </r>
       <r>    -4.1795     2.6710    22.9268 </r>
       <r>    -4.0727     2.2980    23.1724 </r>
       <r>    -3.9658     2.5990    23.4501 </r>
       <r>    -3.8590     3.2031    23.7924 </r>
       <r>    -3.7521     2.4366    24.0528 </r>
       <r>    -3.6452     2.3953    24.3088 </r>
       <r>    -3.5384     2.5288    24.5790 </r>
       <r>    -3.4315     2.0910    24.8024 </r>
       <r>    -3.3246     1.6311    24.9767 </r>
       <r>    -3.2178     1.6818    25.1565 </r>
       <r>    -3.1109     2.3052    25.4028 </r>
       <r>    -3.0041     2.2729    25.6457 </r>
       <r>    -2.8972     1.5405    25.8103 </r>
       <r>    -2.7903     1.5803    25.9792 </r>
       <r>    -2.6835     1.0209    26.0883 </r>
       <r>    -2.5766     1.2287    26.2196 </r>
       <r>    -2.4698     2.2557    26.4606 </r>
       <r>    -2.3629     2.1128    26.6864 </r>
       <r>    -2.2560     0.5915    26.7496 </r>
       <r>    -2.1492     0.6463    26.8187 </r>
       <r>    -2.0423     1.3082    26.9585 </r>
       <r>    -1.9354     1.2097    27.0877 </r>
       <r>    -1.8286     1.3730    27.2345 </r>
       <r>    -1.7217     1.4135    27.3855 </r>
       <r>    -1.6149     1.3027    27.5247 </r>
       <r>    -1.5080     1.0174    27.6334 </r>
       <r>    -1.4011     0.5024    27.6871 </r>
       <r>    -1.2943     0.5203    27.7427 </r>
       <r>    -1.1874     0.5558    27.8021 </r>
       <r>    -1.0805     0.4152    27.8465 </r>
       <r>    -0.9737     0.6764    27.9188 </r>
       <r>    -0.8668     0.5063    27.9729 </r>
       <r>    -0.7600     0.1111    27.9848 </r>
       <r>    -0.6531     0.0123    27.9861 </r>
       <r>    -0.5462     0.0004    27.9861 </r>
       <r>    -0.4394     0.0022    27.9863 </r>
       <r>    -0.3325     0.0472    27.9914 </r>
       <r>    -0.2257     0.1419    28.0066 </r>
       <r>    -0.1188     0.0645    28.0134 </r>
       <r>    -0.0119     0.0042    28.0139 </r>
       <r>     0.0949     0.0000    28.0139 </r>
       <r>     0.2018     0.0008    28.0140 </r>
       <r>     0.3087     0.0449    28.0188 </r>
       <r>     0.4155     0.3266    28.0537 </r>
       <r>     0.5224     0.3528    28.0914 </r>
       <r>     0.6292     0.1316    28.1054 </r>
       <r>     0.7361     0.4533    28.1539 </r>
       <r>     0.8430     0.7843    28.2377 </r>
       <r>     0.9498     1.2423    28.3704 </r>
       <r>     1.0567     2.8514    28.6752 </r>
       <r>     1.1635     2.6820    28.9618 </r>
       <r>     1.2704     0.7928    29.0465 </r>
       <r>     1.3773     0.3226    29.0810 </r>
       <r>     1.4841     0.7693    29.1632 </r>
       <r>     1.5910     1.6902    29.3438 </r>
       <r>     1.6979     2.4893    29.6098 </r>
       <r>     1.8047     1.9549    29.8187 </r>
       <r>     1.9116     1.0827    29.9344 </r>
       <r>     2.0184     0.8849    30.0290 </r>
       <r>     2.1253     1.3203    30.1701 </r>
       <r>     2.2322     0.9526    30.2718 </r>
       <r>     2.3390     1.0482    30.3839 </r>
       <r>     2.4459     0.9417    30.4845 </r>
       <r>     2.5527     0.8798    30.5785 </r>
       <r>     2.6596     1.6404    30.7538 </r>
       <r>     2.7665     1.1855    30.8805 </r>
       <r>     2.8733     0.6526    30.9502 </r>
       <r>     2.9802     0.9081    31.0473 </r>
       <r>     3.0871     1.4025    31.1971 </r>
       <r>     3.1939     1.4559    31.3527 </r>
       <r>     3.3008     1.2294    31.4841 </r>
       <r>     3.4076     1.2986    31.6229 </r>
       <r>     3.5145     1.1179    31.7423 </r>
       <r>     3.6214     2.0733    31.9639 </r>
       <r>     3.7282     2.8253    32.2658 </r>
       <r>     3.8351     2.9154    32.5773 </r>
       <r>     3.9420     2.7592    32.8722 </r>
       <r>     4.0488     2.8086    33.1723 </r>
       <r>     4.1557     3.2697    33.5217 </r>
       <r>     4.2625     3.2671    33.8709 </r>
       <r>     4.3694     3.1361    34.2060 </r>
       <r>     4.4763     3.1445    34.5420 </r>
       <r>     4.5831     2.9538    34.8577 </r>
       <r>     4.6900     2.6234    35.1380 </r>
       <r>     4.7968     3.2171    35.4818 </r>
       <r>     4.9037     3.4905    35.8548 </r>
       <r>     5.0106     2.9286    36.1677 </r>
       <r>     5.1174     3.0870    36.4976 </r>
       <r>     5.2243     3.2908    36.8493 </r>
       <r>     5.3312     2.6487    37.1323 </r>
       <r>     5.4380     2.7886    37.4303 </r>
       <r>     5.5449     2.8865    37.7388 </r>
       <r>     5.6517     3.7257    38.1369 </r>
       <r>     5.7586     2.9903    38.4565 </r>
       <r>     5.8655     2.7616    38.7516 </r>
       <r>     5.9723     2.5737    39.0266 </r>
       <r>     6.0792     2.7256    39.3179 </r>
       <r>     6.1860     1.9658    39.5279 </r>
       <r>     6.2929     2.1311    39.7557 </r>
       <r>     6.3998     2.8905    40.0646 </r>
       <r>     6.5066     3.1973    40.4062 </r>
       <r>     6.6135     3.1379    40.7415 </r>
       <r>     6.7204     3.1114    41.0740 </r>
       <r>     6.8272     4.2282    41.5259 </r>
       <r>     6.9341     3.7247    41.9239 </r>
       <r>     7.0409     3.2428    42.2704 </r>
       <r>     7.1478     3.4484    42.6389 </r>
       <r>     7.2547     2.8581    42.9444 </r>
       <r>     7.3615     2.1808    43.1774 </r>
       <r>     7.4684     2.7616    43.4725 </r>
       <r>     7.5752     3.0741    43.8010 </r>
       <r>     7.6821     2.6978    44.0893 </r>
       <r>     7.7890     3.3037    44.4423 </r>
       <r>     7.8958     3.8940    44.8585 </r>
       <r>     8.0027     4.0763    45.2941 </r>
       <r>     8.1096     4.0795    45.7300 </r>
       <r>     8.2164     4.1226    46.1706 </r>
       <r>     8.3233     3.5635    46.5514 </r>
       <r>     8.4301     4.4031    47.0219 </r>
       <r>     8.5370     4.4554    47.4980 </r>
       <r>     8.6439     2.4307    47.7577 </r>
       <r>     8.7507     1.2612    47.8925 </r>
       <r>     8.8576     0.5612    47.9525 </r>
       <r>     8.9644     0.3657    47.9916 </r>
       <r>     9.0713     0.0763    47.9997 </r>
       <r>     9.1782     0.0027    48.0000 </r>
       <r>     9.2850     0.0000    48.0000 </r>
       <r>     9.3919     0.0000    48.0000 </r>
       <r>     9.4988     0.0000    48.0000 </r>
       <r>     9.6056     0.0000    48.0000 </r>
       <r>     9.7125     0.0000    48.0000 </r>
       <r>     9.8193     0.0000    48.0000 </r>
       <r>     9.9262     0.0000    48.0000 </r>
       <r>    10.0331     0.0000    48.0000 </r>
       <r>    10.1399     0.0000    48.0000 </r>
       <r>    10.2468     0.0000    48.0000 </r>
       <r>    10.3537     0.0000    48.0000 </r>
      </set>
     </set>
    </array>
   </total>
  </dos>
 </calculation>
 <structure name="finalpos" >
  <crystal>
   <varray name="basis" >
    <v>       4.18723283       2.41750000       0.00000000 </v>
    <v>      -4.18723283       2.41750000       0.00000000 </v>
    <v>       0.00000000       0.00000000      15.00000000 </v>
   </varray>
   <i name="volume">    303.67906080 </i>
   <varray name="rec_basis" >
    <v>       0.11941060       0.20682523       0.00000000 </v>
    <v>      -0.11941060       0.20682523       0.00000000 </v>
    <v>       0.00000000       0.00000000       0.06666667 </v>
   </varray>
  </crystal>
  <varray name="positions" >
   <v>       0.01052634      -0.00340546       0.10001815 </v>
   <v>       0.36573313      -0.00328201       0.10145770 </v>
   <v>       0.01057898       0.35173170       0.10172574 </v>
   <v>       0.65575514       0.64152678       0.10165252 </v>
   <v>       0.33458941       0.32037520       0.10134545 </v>
   <v>       0.68700443      -0.00331345       0.10142710 </v>
   <v>       0.01049170       0.67280123       0.10139788 </v>
   <v>       0.07765030       0.42203579       0.33699832 </v>
   <v>       0.24432594       0.25540336       0.33714090 </v>
   <v>       0.07769409       0.92206739       0.33708160 </v>
   <v>       0.24437803       0.75537160       0.33701272 </v>
   <v>       0.57766410       0.42201334       0.33703919 </v>
   <v>       0.74432191       0.25535398       0.33695480 </v>
   <v>       0.57764143       0.92206600       0.33709018 </v>
   <v>       0.74427241       0.75535521       0.33703708 </v>
  </varray>
 </structure>
</modeling>
