<?xml version="1.0" encoding="ISO-8859-1"?>
<modeling>
 <generator>
  <i name="program" type="string">vasp </i>
  <i name="version" type="string">6.3.2  </i>
  <i name="subversion" type="string">27Jun22 (build Dec 22 2022 13:13:19) complex                          parallel </i>
  <i name="platform" type="string">LinuxIFC </i>
  <i name="date" type="string">2023 08 21 </i>
  <i name="time" type="string">21:10:16 </i>
 </generator>
 <incar>
  <i type="string" name="SYSTEM">Lattice</i>
  <i type="int" name="ISTART">     0</i>
  <i type="string" name="PREC">Accurate</i>
  <i type="string" name="ALGO">Normal</i>
  <i type="int" name="ISPIN">     2</i>
  <i type="int" name="ICHARG">     2</i>
  <i type="int" name="NELM">    64</i>
  <i type="int" name="IBRION">     2</i>
  <i name="EDIFF">      0.00000100</i>
  <i name="EDIFFG">     -0.00100000</i>
  <i type="int" name="NSW">   128</i>
  <i type="int" name="ISIF">     2</i>
  <i name="ENCUT">    450.00000000</i>
  <i name="POTIM">      0.50000000</i>
  <i type="int" name="ISMEAR">     0</i>
  <i name="SIGMA">      0.10000000</i>
  <i type="logical" name="LWAVE"> F  </i>
  <i type="logical" name="LCHARG"> F  </i>
  <i type="string" name="GGA">PE</i>
  <i type="int" name="IVDW">    12</i>
 </incar>
 <primitive_cell>
  <structure name="primitive_cell" >
   <crystal>
    <varray name="basis" >
     <v>       4.23486422       2.44500000       0.00000000 </v>
     <v>      -4.23486422       2.44500000       0.00000000 </v>
     <v>       0.00000000       0.00000000      15.00000000 </v>
    </varray>
    <i name="volume">    310.62729087 </i>
    <varray name="rec_basis" >
     <v>       0.11806754       0.20449898       0.00000000 </v>
     <v>      -0.11806754       0.20449898       0.00000000 </v>
     <v>       0.00000000       0.00000000       0.06666667 </v>
    </varray>
   </crystal>
   <varray name="positions" >
    <v>       0.00415361       0.00267210       0.12034134 </v>
    <v>       0.35695335       0.00285503       0.09748893 </v>
    <v>       0.00423858       0.35550699       0.09749256 </v>
    <v>       0.65142295       0.65006557       0.09747688 </v>
    <v>       0.32808646       0.32671938       0.10030508 </v>
    <v>       0.68027775       0.00278085       0.10027562 </v>
    <v>       0.00416530       0.67883808       0.10026559 </v>
    <v>       0.16666600       0.33333300       0.33720000 </v>
    <v>       0.33333300       0.16666600       0.33720000 </v>
    <v>       0.16666600       0.83333300       0.33720000 </v>
    <v>       0.33333300       0.66666600       0.33720000 </v>
    <v>       0.66666600       0.33333300       0.33720000 </v>
    <v>       0.83333300       0.16666600       0.33720000 </v>
    <v>       0.66666600       0.83333300       0.33720000 </v>
    <v>       0.83333300       0.66666600       0.33720000 </v>
   </varray>
  </structure>
  <varray name="primitive_index" >
   <v type="int" >        1 </v>
   <v type="int" >        2 </v>
   <v type="int" >        3 </v>
   <v type="int" >        4 </v>
   <v type="int" >        5 </v>
   <v type="int" >        6 </v>
   <v type="int" >        7 </v>
   <v type="int" >        8 </v>
   <v type="int" >        9 </v>
   <v type="int" >       10 </v>
   <v type="int" >       11 </v>
   <v type="int" >       12 </v>
   <v type="int" >       13 </v>
   <v type="int" >       14 </v>
   <v type="int" >       15 </v>
  </varray>
 </primitive_cell>
 <kpoints>
  <generation param="Gamma">
   <v type="int" name="divisions">      12       12        1 </v>
   <v name="usershift">      0.00000000       0.00000000       0.00000000 </v>
   <v name="genvec1">      0.08333333       0.00000000       0.00000000 </v>
   <v name="genvec2">      0.00000000       0.08333333       0.00000000 </v>
   <v name="genvec3">      0.00000000       0.00000000       1.00000000 </v>
   <v name="shift">      0.00000000       0.00000000       0.00000000 </v>
  </generation>
  <varray name="kpointlist" >
   <v>       0.00000000       0.00000000       0.00000000 </v>
   <v>       0.08333333      -0.00000000       0.00000000 </v>
   <v>       0.00000000       0.08333333       0.00000000 </v>
   <v>      -0.08333333       0.08333333       0.00000000 </v>
   <v>       0.16666667      -0.00000000       0.00000000 </v>
   <v>      -0.00000000       0.16666667       0.00000000 </v>
   <v>      -0.16666667       0.16666667       0.00000000 </v>
   <v>       0.25000000       0.00000000       0.00000000 </v>
   <v>       0.00000000       0.25000000       0.00000000 </v>
   <v>      -0.25000000       0.25000000       0.00000000 </v>
   <v>       0.33333333      -0.00000000       0.00000000 </v>
   <v>      -0.00000000       0.33333333       0.00000000 </v>
   <v>      -0.33333333       0.33333333       0.00000000 </v>
   <v>       0.41666667       0.00000000       0.00000000 </v>
   <v>      -0.00000000       0.41666667       0.00000000 </v>
   <v>      -0.41666667       0.41666667       0.00000000 </v>
   <v>       0.50000000       0.00000000       0.00000000 </v>
   <v>       0.00000000       0.50000000       0.00000000 </v>
   <v>       0.50000000       0.50000000       0.00000000 </v>
   <v>       0.08333333       0.08333333       0.00000000 </v>
   <v>      -0.08333333       0.16666667       0.00000000 </v>
   <v>      -0.16666667       0.08333333       0.00000000 </v>
   <v>       0.16666667       0.08333333       0.00000000 </v>
   <v>      -0.08333333       0.25000000       0.00000000 </v>
   <v>      -0.25000000       0.16666667       0.00000000 </v>
   <v>      -0.16666667       0.25000000       0.00000000 </v>
   <v>       0.08333333       0.16666667       0.00000000 </v>
   <v>       0.25000000      -0.08333333       0.00000000 </v>
   <v>       0.25000000       0.08333333       0.00000000 </v>
   <v>      -0.08333333       0.33333333       0.00000000 </v>
   <v>      -0.33333333       0.25000000       0.00000000 </v>
   <v>      -0.25000000       0.33333333       0.00000000 </v>
   <v>       0.08333333       0.25000000       0.00000000 </v>
   <v>       0.33333333      -0.08333333       0.00000000 </v>
   <v>       0.33333333       0.08333333       0.00000000 </v>
   <v>      -0.08333333       0.41666667       0.00000000 </v>
   <v>      -0.41666667       0.33333333       0.00000000 </v>
   <v>      -0.33333333       0.41666667       0.00000000 </v>
   <v>       0.08333333       0.33333333       0.00000000 </v>
   <v>       0.41666667      -0.08333333       0.00000000 </v>
   <v>       0.41666667       0.08333333       0.00000000 </v>
   <v>      -0.08333333       0.50000000       0.00000000 </v>
   <v>       0.50000000       0.41666667       0.00000000 </v>
   <v>      -0.41666667       0.50000000       0.00000000 </v>
   <v>       0.08333333       0.41666667       0.00000000 </v>
   <v>       0.50000000      -0.08333333       0.00000000 </v>
   <v>       0.16666667       0.16666667       0.00000000 </v>
   <v>      -0.16666667       0.33333333       0.00000000 </v>
   <v>      -0.33333333       0.16666667       0.00000000 </v>
   <v>       0.25000000       0.16666667       0.00000000 </v>
   <v>      -0.16666667       0.41666667       0.00000000 </v>
   <v>      -0.41666667       0.25000000       0.00000000 </v>
   <v>      -0.25000000       0.41666667       0.00000000 </v>
   <v>       0.16666667       0.25000000       0.00000000 </v>
   <v>       0.41666667      -0.16666667       0.00000000 </v>
   <v>       0.33333333       0.16666667       0.00000000 </v>
   <v>      -0.16666667       0.50000000       0.00000000 </v>
   <v>       0.50000000       0.33333333       0.00000000 </v>
   <v>      -0.33333333       0.50000000       0.00000000 </v>
   <v>       0.16666667       0.33333333       0.00000000 </v>
   <v>       0.50000000      -0.16666667       0.00000000 </v>
   <v>       0.41666667       0.16666667       0.00000000 </v>
   <v>      -0.16666667      -0.41666667       0.00000000 </v>
   <v>       0.41666667       0.41666667       0.00000000 </v>
   <v>       0.25000000       0.25000000       0.00000000 </v>
   <v>      -0.25000000       0.50000000       0.00000000 </v>
   <v>       0.50000000       0.25000000       0.00000000 </v>
   <v>       0.33333333       0.25000000       0.00000000 </v>
   <v>      -0.25000000      -0.41666667       0.00000000 </v>
   <v>       0.41666667       0.33333333       0.00000000 </v>
   <v>      -0.33333333      -0.41666667       0.00000000 </v>
   <v>       0.25000000       0.33333333       0.00000000 </v>
   <v>      -0.41666667      -0.25000000       0.00000000 </v>
   <v>       0.33333333       0.33333333       0.00000000 </v>
  </varray>
  <varray name="weights" >
   <v>       0.00694444 </v>
   <v>       0.01388889 </v>
   <v>       0.01388889 </v>
   <v>       0.01388889 </v>
   <v>       0.01388889 </v>
   <v>       0.01388889 </v>
   <v>       0.01388889 </v>
   <v>       0.01388889 </v>
   <v>       0.01388889 </v>
   <v>       0.01388889 </v>
   <v>       0.01388889 </v>
   <v>       0.01388889 </v>
   <v>       0.01388889 </v>
   <v>       0.01388889 </v>
   <v>       0.01388889 </v>
   <v>       0.01388889 </v>
   <v>       0.00694444 </v>
   <v>       0.00694444 </v>
   <v>       0.00694444 </v>
   <v>       0.01388889 </v>
   <v>       0.01388889 </v>
   <v>       0.01388889 </v>
   <v>       0.01388889 </v>
   <v>       0.01388889 </v>
   <v>       0.01388889 </v>
   <v>       0.01388889 </v>
   <v>       0.01388889 </v>
   <v>       0.01388889 </v>
   <v>       0.01388889 </v>
   <v>       0.01388889 </v>
   <v>       0.01388889 </v>
   <v>       0.01388889 </v>
   <v>       0.01388889 </v>
   <v>       0.01388889 </v>
   <v>       0.01388889 </v>
   <v>       0.01388889 </v>
   <v>       0.01388889 </v>
   <v>       0.01388889 </v>
   <v>       0.01388889 </v>
   <v>       0.01388889 </v>
   <v>       0.01388889 </v>
   <v>       0.01388889 </v>
   <v>       0.01388889 </v>
   <v>       0.01388889 </v>
   <v>       0.01388889 </v>
   <v>       0.01388889 </v>
   <v>       0.01388889 </v>
   <v>       0.01388889 </v>
   <v>       0.01388889 </v>
   <v>       0.01388889 </v>
   <v>       0.01388889 </v>
   <v>       0.01388889 </v>
   <v>       0.01388889 </v>
   <v>       0.01388889 </v>
   <v>       0.01388889 </v>
   <v>       0.01388889 </v>
   <v>       0.01388889 </v>
   <v>       0.01388889 </v>
   <v>       0.01388889 </v>
   <v>       0.01388889 </v>
   <v>       0.01388889 </v>
   <v>       0.01388889 </v>
   <v>       0.01388889 </v>
   <v>       0.01388889 </v>
   <v>       0.01388889 </v>
   <v>       0.01388889 </v>
   <v>       0.01388889 </v>
   <v>       0.01388889 </v>
   <v>       0.01388889 </v>
   <v>       0.01388889 </v>
   <v>       0.01388889 </v>
   <v>       0.01388889 </v>
   <v>       0.01388889 </v>
   <v>       0.01388889 </v>
  </varray>
 </kpoints>
 <parameters>
  <separator name="general" >
   <i type="string" name="SYSTEM">Lattice</i>
   <i type="logical" name="LCOMPAT"> F  </i>
  </separator>
  <separator name="electronic" >
   <i type="string" name="PREC">accura</i>
   <i name="ENMAX">    450.00000000</i>
   <i name="ENAUG">    644.87300000</i>
   <i name="EDIFF">      0.00000100</i>
   <i type="int" name="IALGO">    38</i>
   <i type="int" name="IWAVPR">    11</i>
   <i type="int" name="NBANDS">    48</i>
   <i type="int" name="NBANDSLOW">    -1</i>
   <i type="int" name="NBANDSHIGH">    -1</i>
   <i name="NELECT">     56.00000000</i>
   <i type="int" name="TURBO">     0</i>
   <i type="int" name="IRESTART">     0</i>
   <i type="int" name="NREBOOT">     0</i>
   <i type="int" name="NMIN">     0</i>
   <i name="EREF">      0.00000000</i>
   <separator name="electronic smearing" >
    <i type="int" name="ISMEAR">     0</i>
    <i name="SIGMA">      0.10000000</i>
    <i name="KSPACING">      0.50000000</i>
    <i type="logical" name="KGAMMA"> T  </i>
    <i type="logical" name="KBLOWUP"> T  </i>
   </separator>
   <separator name="electronic projectors" >
    <i type="logical" name="LREAL"> F  </i>
    <v name="ROPT">      0.00000000      0.00000000</v>
    <i type="int" name="LMAXPAW">  -100</i>
    <i type="int" name="LMAXMIX">     2</i>
    <i type="logical" name="NLSPLINE"> F  </i>
   </separator>
   <separator name="electronic startup" >
    <i type="int" name="ISTART">     0</i>
    <i type="int" name="ICHARG">     2</i>
    <i type="int" name="INIWAV">     1</i>
   </separator>
   <separator name="electronic spin" >
    <i type="int" name="ISPIN">     2</i>
    <i type="logical" name="LNONCOLLINEAR"> F  </i>
    <v name="MAGMOM">      1.00000000      1.00000000      1.00000000      1.00000000      1.00000000      1.00000000      1.00000000      1.00000000      1.00000000      1.00000000      1.00000000      1.00000000      1.00000000      1.00000000      1.00000000</v>
    <i name="NUPDOWN">     -1.00000000</i>
    <i type="logical" name="LSORBIT"> F  </i>
    <v name="SAXIS">      0.00000000      0.00000000      1.00000000</v>
    <i type="logical" name="LSPIRAL"> F  </i>
    <v name="QSPIRAL">      0.00000000      0.00000000      0.00000000</v>
    <i type="logical" name="LZEROZ"> F  </i>
   </separator>
   <separator name="electronic exchange-correlation" >
    <i type="logical" name="LASPH"> F  </i>
    <i type="logical" name="LMETAGGA"> F  </i>
   </separator>
   <separator name="electronic convergence" >
    <i type="int" name="NELM">    64</i>
    <i type="int" name="NELMDL">    -5</i>
    <i type="int" name="NELMIN">     2</i>
    <i name="ENINI">    450.00000000</i>
    <separator name="electronic convergence detail" >
     <i type="logical" name="LDIAG"> T  </i>
     <i type="logical" name="LSUBROT"> F  </i>
     <i name="WEIMIN">      0.00100000</i>
     <i name="EBREAK">      0.00000001</i>
     <i name="DEPER">      0.30000000</i>
     <i type="int" name="NRMM">     4</i>
     <i name="TIME">      0.40000000</i>
    </separator>
   </separator>
   <separator name="electronic mixer" >
    <i name="AMIX">      0.40000000</i>
    <i name="BMIX">      1.00000000</i>
    <i name="AMIN">      0.10000000</i>
    <i name="AMIX_MAG">      1.60000000</i>
    <i name="BMIX_MAG">      1.00000000</i>
    <separator name="electronic mixer details" >
     <i type="int" name="IMIX">     4</i>
     <i type="logical" name="MIXFIRST"> F  </i>
     <i type="int" name="MAXMIX">   -45</i>
     <i name="WC">    100.00000000</i>
     <i type="int" name="INIMIX">     1</i>
     <i type="int" name="MIXPRE">     1</i>
     <i type="int" name="MREMOVE">     5</i>
    </separator>
   </separator>
   <separator name="electronic dipolcorrection" >
    <i type="logical" name="LDIPOL"> F  </i>
    <i type="logical" name="LMONO"> F  </i>
    <i type="int" name="IDIPOL">     0</i>
    <i name="EPSILON">      1.00000000</i>
    <v name="DIPOL">   -100.00000000   -100.00000000   -100.00000000</v>
    <i name="EFIELD">      0.00000000</i>
   </separator>
  </separator>
  <separator name="grids" >
   <i type="int" name="NGX">    36</i>
   <i type="int" name="NGY">    36</i>
   <i type="int" name="NGZ">   108</i>
   <i type="int" name="NGXF">    72</i>
   <i type="int" name="NGYF">    72</i>
   <i type="int" name="NGZF">   216</i>
   <i type="logical" name="ADDGRID"> F  </i>
  </separator>
  <separator name="ionic" >
   <i type="int" name="NSW">   128</i>
   <i type="int" name="IBRION">     2</i>
   <i type="int" name="MDALGO">     0</i>
   <i type="int" name="ISIF">     2</i>
   <i name="PSTRESS">      0.00000000</i>
   <i name="EDIFFG">     -0.00100000</i>
   <i type="int" name="NFREE">     1</i>
   <i name="POTIM">      0.50000000</i>
   <i name="SMASS">     -3.00000000</i>
   <i name="SCALEE">      1.00000000</i>
  </separator>
  <separator name="ionic md" >
   <i name="TEBEG">      0.00010000</i>
   <i name="TEEND">      0.00010000</i>
   <i type="int" name="NBLOCK">     1</i>
   <i type="int" name="KBLOCK">   128</i>
   <i type="int" name="NPACO">   256</i>
   <i name="APACO">     10.00000000</i>
  </separator>
  <separator name="symmetry" >
   <i type="int" name="ISYM">     2</i>
   <i name="SYMPREC">      0.00001000</i>
  </separator>
  <separator name="dos" >
   <i type="int" name="LORBIT">     0</i>
   <v name="RWIGS">     -1.00000000     -1.00000000</v>
   <i type="int" name="NEDOS">   301</i>
   <i name="EMIN">     10.00000000</i>
   <i name="EMAX">    -10.00000000</i>
   <i name="EFERMI">      0.00000000</i>
  </separator>
  <separator name="writing" >
   <i type="int" name="NWRITE">     2</i>
   <i type="logical" name="LWAVE"> F  </i>
   <i type="logical" name="LDOWNSAMPLE"> F  </i>
   <i type="logical" name="LCHARG"> F  </i>
   <i type="logical" name="LPARD"> F  </i>
   <i type="logical" name="LVTOT"> F  </i>
   <i type="logical" name="LVHAR"> F  </i>
   <i type="logical" name="LELF"> F  </i>
   <i type="logical" name="LOPTICS"> F  </i>
   <v name="STM">      0.00000000      0.00000000      0.00000000      0.00000000      0.00000000      0.00000000      0.00000000</v>
  </separator>
  <separator name="performance" >
   <i type="int" name="NPAR">    48</i>
   <i type="int" name="NSIM">     4</i>
   <i type="int" name="NBLK">    -1</i>
   <i type="logical" name="LPLANE"> T  </i>
   <i type="logical" name="LSCALAPACK"> T  </i>
   <i type="logical" name="LSCAAWARE"> F  </i>
   <i type="logical" name="LSCALU"> F  </i>
   <i type="logical" name="LASYNC"> F  </i>
   <i type="logical" name="LORBITALREAL"> F  </i>
  </separator>
  <separator name="miscellaneous" >
   <i type="int" name="IDIOT">     3</i>
   <i type="int" name="PHON_NSTRUCT">    -1</i>
   <i type="logical" name="LMUSIC"> F  </i>
   <v name="POMASS">     10.81100000     12.01100000</v>
   <v name="DARWINR">      0.00000000      0.00000000</v>
   <v name="DARWINV">      1.00000000      1.00000000</v>
   <i type="logical" name="LCORR"> T  </i>
  </separator>
  <i type="logical" name="GGA_COMPAT"> T  </i>
  <i type="logical" name="LBERRY"> F  </i>
  <i type="int" name="ICORELEVEL">     0</i>
  <i type="logical" name="LDAU"> F  </i>
  <i type="int" name="I_CONSTRAINED_M">     0</i>
  <separator name="electronic exchange-correlation" >
   <i type="string" name="GGA">PE</i>
   <i type="int" name="VOSKOWN">     0</i>
   <i type="logical" name="LHFCALC"> F  </i>
   <i type="string" name="PRECFOCK"></i>
   <i type="logical" name="LSYMGRAD"> F  </i>
   <i type="logical" name="LHFONE"> F  </i>
   <i type="logical" name="LRHFCALC"> F  </i>
   <i type="logical" name="LTHOMAS"> F  </i>
   <i type="logical" name="LMODELHF"> F  </i>
   <i type="logical" name="LFOCKACE"> F  </i>
   <i name="ENCUT4O">     -1.00000000</i>
   <i type="int" name="EXXOEP">     0</i>
   <i type="int" name="FOURORBIT">     0</i>
   <i name="AEXX">      0.00000000</i>
   <i name="HFALPHA">      0.00000000</i>
   <i name="MCALPHA">      0.00000000</i>
   <i name="ALDAX">      1.00000000</i>
   <i name="AGGAX">      1.00000000</i>
   <i name="ALDAC">      1.00000000</i>
   <i name="AGGAC">      1.00000000</i>
   <i type="int" name="NKREDX">     1</i>
   <i type="int" name="NKREDY">     1</i>
   <i type="int" name="NKREDZ">     1</i>
   <i type="logical" name="SHIFTRED"> F  </i>
   <i type="logical" name="ODDONLY"> F  </i>
   <i type="logical" name="EVENONLY"> F  </i>
   <i type="int" name="LMAXFOCK">     0</i>
   <i type="int" name="NMAXFOCKAE">     0</i>
   <i type="logical" name="LFOCKAEDFT"> F  </i>
   <i name="HFSCREEN">      0.00000000</i>
   <i name="HFSCREENC">      0.00000000</i>
   <i type="int" name="NBANDSGWLOW">     0</i>
  </separator>
  <separator name="vdW DFT" >
   <i type="logical" name="LUSE_VDW"> F  </i>
   <i name="Zab_VDW">     -0.84910000</i>
   <i name="PARAM1">      0.12340000</i>
   <i name="PARAM2">      1.00000000</i>
   <i name="PARAM3">      0.00000000</i>
  </separator>
  <separator name="model GW" >
   <i type="int" name="MODEL_GW">     0</i>
   <i name="MODEL_EPS0">     12.42509163</i>
   <i name="MODEL_ALPHA">      1.00000000</i>
  </separator>
  <separator name="linear response parameters" >
   <i type="logical" name="LEPSILON"> F  </i>
   <i type="logical" name="LRPA"> F  </i>
   <i type="logical" name="LNABLA"> F  </i>
   <i type="logical" name="LVEL"> F  </i>
   <i name="CSHIFT">      0.10000000</i>
   <i name="OMEGAMAX">     -1.00000000</i>
   <i name="DEG_THRESHOLD">      0.00200000</i>
   <i name="RTIME">     -0.10000000</i>
   <i name="WPLASMAI">      0.00000000</i>
   <v name="DFIELD">      0.00000000      0.00000000      0.00000000</v>
   <v name="WPLASMA">      0.00000000      0.00000000      0.00000000      0.00000000      0.00000000      0.00000000      0.00000000      0.00000000      0.00000000</v>
  </separator>
  <separator name="orbital magnetization" >
   <i type="logical" name="NUCIND"> F  </i>
   <v name="MAGPOS">      0.00000000      0.00000000      0.00000000</v>
   <i type="logical" name="LNICSALL"> T  </i>
   <i type="logical" name="ORBITALMAG"> F  </i>
   <i type="logical" name="LMAGBLOCH"> F  </i>
   <i type="logical" name="LCHIMAG"> F  </i>
   <i type="logical" name="LGAUGE"> T  </i>
   <i type="int" name="MAGATOM">     0</i>
   <v name="MAGDIPOL">      0.00000000      0.00000000      0.00000000</v>
   <v name="AVECCONST">      0.00000000      0.00000000      0.00000000</v>
  </separator>
  <separator name="response functions" >
   <i type="logical" name="LFINITE_TEMPERATURE"> F  </i>
   <i type="logical" name="LADDER"> F  </i>
   <i type="logical" name="LRPAFORCE"> F  </i>
   <i type="logical" name="LFXC"> F  </i>
   <i type="logical" name="LHARTREE"> T  </i>
   <i type="int" name="IBSE">     0</i>
   <v type="int" name="KPOINT">    -1     0     0     0</v>
   <i type="logical" name="LTCTC"> F  </i>
   <i type="logical" name="LTCTE"> F  </i>
   <i type="logical" name="LTETE"> F  </i>
   <i type="logical" name="LTRIPLET"> F  </i>
   <i type="logical" name="LFXCEPS"> F  </i>
   <i type="logical" name="LFXHEG"> F  </i>
   <i type="int" name="NATURALO">     2</i>
   <i type="logical" name="LHOLEGF"> F  </i>
   <i type="logical" name="L2ORDER"> F  </i>
   <i type="logical" name="LDMP1"> F  </i>
   <i type="logical" name="LMP2LT"> F  </i>
   <i type="logical" name="LSMP2LT"> F  </i>
   <i type="logical" name="LGWLF"> F  </i>
   <i name="ENCUTGW">     -2.00000000</i>
   <i name="ENCUTGWSOFT">     -2.00000000</i>
   <i name="ENCUTLF">     -1.00000000</i>
   <i type="logical" name="LESF_SPLINES"> F  </i>
   <i type="int" name="LMAXMP2">    -1</i>
   <i name="SCISSOR">      0.00000000</i>
   <i type="int" name="NOMEGA">     0</i>
   <i type="int" name="NOMEGAR">     0</i>
   <i type="int" name="NBANDSGW">    -1</i>
   <i type="int" name="NBANDSO">    -1</i>
   <i type="int" name="NBANDSV">    -1</i>
   <i type="int" name="NELMGW">     1</i>
   <i type="int" name="NELMHF">     1</i>
   <i type="int" name="DIM">     3</i>
   <i type="int" name="IESPILON">     4</i>
   <i type="int" name="ANTIRES">     0</i>
   <i name="OMEGAMAX">    -30.00000000</i>
   <i name="OMEGAMIN">    -30.00000000</i>
   <i name="OMEGATL">   -200.00000000</i>
   <i type="int" name="OMEGAGRID">     0</i>
   <i name="CSHIFT">     -0.10000000</i>
   <i type="logical" name="LSELFENERGY"> F  </i>
   <i type="logical" name="LSPECTRAL"> F  </i>
   <i type="logical" name="LSPECTRALGW"> F  </i>
   <i type="logical" name="LSINGLES"> F  </i>
   <i type="logical" name="LFERMIGW"> F  </i>
   <i type="logical" name="ODDONLYGW"> F  </i>
   <i type="logical" name="EVENONLYGW"> F  </i>
   <i type="int" name="NKREDLFX">     1</i>
   <i type="int" name="NKREDLFY">     1</i>
   <i type="int" name="NKREDLFZ">     1</i>
   <i type="int" name="MAXMEM">  2800</i>
   <i type="int" name="TELESCOPE">     0</i>
   <i type="int" name="NTAUPAR">    -1</i>
   <i type="int" name="NOMEGAPAR">    -1</i>
   <i name="DAMP_NEWTON">      0.80000001</i>
   <i name="LAMBDA">      1.00000000</i>
  </separator>
  <separator name="External order field" >
   <i name="OFIELD_KAPPA">      0.00000000</i>
   <v name="OFIELD_K">      0.00000000      0.00000000      0.00000000</v>
   <i name="OFIELD_Q6_NEAR">      0.00000000</i>
   <i name="OFIELD_Q6_FAR">      0.00000000</i>
   <i name="OFIELD_A">      0.00000000</i>
  </separator>
  <separator name="optional k-points parameters" >
   <i type="int" name="KPOINTS_OPT_MODE">     1</i>
   <i type="logical" name="LKPOINTS_OPT"> F  </i>
  </separator>
  <separator name="solvation model" >
   <i type="logical" name="LSOL"> F  </i>
  </separator>
 </parameters>
 <atominfo>
  <atoms>      15 </atoms>
  <types>       2 </types>
  <array name="atoms" >
   <dimension dim="1">ion</dimension>
   <field type="string">element</field>
   <field type="int">atomtype</field>
   <set>
    <rc><c>B </c><c>   1</c></rc>
    <rc><c>B </c><c>   1</c></rc>
    <rc><c>B </c><c>   1</c></rc>
    <rc><c>B </c><c>   1</c></rc>
    <rc><c>C </c><c>   2</c></rc>
    <rc><c>C </c><c>   2</c></rc>
    <rc><c>C </c><c>   2</c></rc>
    <rc><c>C </c><c>   2</c></rc>
    <rc><c>C </c><c>   2</c></rc>
    <rc><c>C </c><c>   2</c></rc>
    <rc><c>C </c><c>   2</c></rc>
    <rc><c>C </c><c>   2</c></rc>
    <rc><c>C </c><c>   2</c></rc>
    <rc><c>C </c><c>   2</c></rc>
    <rc><c>C </c><c>   2</c></rc>
   </set>
  </array>
  <array name="atomtypes" >
   <dimension dim="1">type</dimension>
   <field type="int">atomspertype</field>
   <field type="string">element</field>
   <field>mass</field>
   <field>valence</field>
   <field type="string">pseudopotential</field>
   <set>
    <rc><c>   4</c><c>B </c><c>     10.81100000</c><c>      3.00000000</c><c>  PAW_PBE B 06Sep2000                   </c></rc>
    <rc><c>  11</c><c>C </c><c>     12.01100000</c><c>      4.00000000</c><c>  PAW_PBE C 08Apr2002                   </c></rc>
   </set>
  </array>
 </atominfo>
 <structure name="initialpos" >
  <crystal>
   <varray name="basis" >
    <v>       4.23486422       2.44500000       0.00000000 </v>
    <v>      -4.23486422       2.44500000       0.00000000 </v>
    <v>       0.00000000       0.00000000      15.00000000 </v>
   </varray>
   <i name="volume">    310.62729087 </i>
   <varray name="rec_basis" >
    <v>       0.11806754       0.20449898       0.00000000 </v>
    <v>      -0.11806754       0.20449898       0.00000000 </v>
    <v>       0.00000000       0.00000000       0.06666667 </v>
   </varray>
  </crystal>
  <varray name="positions" >
   <v>       0.00415361       0.00267210       0.12034134 </v>
   <v>       0.35695335       0.00285503       0.09748893 </v>
   <v>       0.00423858       0.35550699       0.09749256 </v>
   <v>       0.65142295       0.65006557       0.09747688 </v>
   <v>       0.32808646       0.32671938       0.10030508 </v>
   <v>       0.68027775       0.00278085       0.10027562 </v>
   <v>       0.00416530       0.67883808       0.10026559 </v>
   <v>       0.16666600       0.33333300       0.33720000 </v>
   <v>       0.33333300       0.16666600       0.33720000 </v>
   <v>       0.16666600       0.83333300       0.33720000 </v>
   <v>       0.33333300       0.66666600       0.33720000 </v>
   <v>       0.66666600       0.33333300       0.33720000 </v>
   <v>       0.83333300       0.16666600       0.33720000 </v>
   <v>       0.66666600       0.83333300       0.33720000 </v>
   <v>       0.83333300       0.66666600       0.33720000 </v>
  </varray>
 </structure>
 <calculation>
  <scstep>
   <time name="dav">    5.94    6.01</time>
   <time name="total">    5.99    6.06</time>
   <energy>
    <i name="alphaZ">     57.26249870 </i>
    <i name="ewald">   4572.54274326 </i>
    <i name="hartreedc">  -6135.46079056 </i>
    <i name="XCdc">    174.24770261 </i>
    <i name="pawpsdc">   1365.87943566 </i>
    <i name="pawaedc">  -1368.52100941 </i>
    <i name="eentropy">     -0.01848880 </i>
    <i name="bandstr">   -367.87413231 </i>
    <i name="atom">   1903.26342058 </i>
    <i name="e_fr_energy">    201.32137973 </i>
    <i name="e_wo_entrp">    201.33986853 </i>
    <i name="e_0_energy">    201.33062413 </i>
   </energy>
  </scstep>
  <scstep>
   <time name="dav">    8.59    8.66</time>
   <time name="total">    8.59    8.67</time>
   <energy>
    <i name="e_fr_energy">   -115.42726817 </i>
    <i name="e_wo_entrp">   -115.42497319 </i>
    <i name="e_0_energy">   -115.42612068 </i>
   </energy>
  </scstep>
  <scstep>
   <time name="dav">   11.95   12.03</time>
   <time name="total">   11.95   12.03</time>
   <energy>
    <i name="e_fr_energy">   -128.59652795 </i>
    <i name="e_wo_entrp">   -128.59317726 </i>
    <i name="e_0_energy">   -128.59485261 </i>
   </energy>
  </scstep>
  <scstep>
   <time name="dav">    8.54    8.61</time>
   <time name="total">    8.54    8.61</time>
   <energy>
    <i name="e_fr_energy">   -128.62177450 </i>
    <i name="e_wo_entrp">   -128.61842894 </i>
    <i name="e_0_energy">   -128.62010172 </i>
   </energy>
  </scstep>
  <scstep>
   <time name="dav">   11.71   11.79</time>
   <time name="total">   12.13   12.22</time>
   <energy>
    <i name="e_fr_energy">   -128.62184122 </i>
    <i name="e_wo_entrp">   -128.61849530 </i>
    <i name="e_0_energy">   -128.62016826 </i>
   </energy>
  </scstep>
  <scstep>
   <time name="dav">   10.92   11.00</time>
   <time name="total">   11.24   11.33</time>
   <energy>
    <i name="e_fr_energy">    -91.67337307 </i>
    <i name="e_wo_entrp">    -91.66490140 </i>
    <i name="e_0_energy">    -91.66913723 </i>
   </energy>
  </scstep>
  <scstep>
   <time name="dav">    9.35    9.41</time>
   <time name="total">    9.66    9.73</time>
   <energy>
    <i name="e_fr_energy">   -100.12460077 </i>
    <i name="e_wo_entrp">   -100.11823914 </i>
    <i name="e_0_energy">   -100.12141996 </i>
   </energy>
  </scstep>
  <scstep>
   <time name="dav">   10.55   10.63</time>
   <time name="total">   10.86   10.95</time>
   <energy>
    <i name="e_fr_energy">   -110.37527391 </i>
    <i name="e_wo_entrp">   -110.37524028 </i>
    <i name="e_0_energy">   -110.37525709 </i>
   </energy>
  </scstep>
  <scstep>
   <time name="dav">    7.15    7.21</time>
   <time name="total">    7.46    7.53</time>
   <energy>
    <i name="e_fr_energy">   -117.08143877 </i>
    <i name="e_wo_entrp">   -117.08143411 </i>
    <i name="e_0_energy">   -117.08143644 </i>
   </energy>
  </scstep>
  <scstep>
   <time name="dav">    9.92    9.97</time>
   <time name="total">   10.23   10.29</time>
   <energy>
    <i name="e_fr_energy">   -123.46555643 </i>
    <i name="e_wo_entrp">   -123.46491491 </i>
    <i name="e_0_energy">   -123.46523567 </i>
   </energy>
  </scstep>
  <scstep>
   <time name="dav">   10.25   10.31</time>
   <time name="total">   10.55   10.62</time>
   <energy>
    <i name="e_fr_energy">   -125.22435736 </i>
    <i name="e_wo_entrp">   -125.22316676 </i>
    <i name="e_0_energy">   -125.22376206 </i>
   </energy>
  </scstep>
  <scstep>
   <time name="dav">    8.15    8.20</time>
   <time name="total">    8.46    8.52</time>
   <energy>
    <i name="e_fr_energy">   -125.33858573 </i>
    <i name="e_wo_entrp">   -125.33710947 </i>
    <i name="e_0_energy">   -125.33784760 </i>
   </energy>
  </scstep>
  <scstep>
   <time name="dav">    7.79    7.84</time>
   <time name="total">    8.10    8.15</time>
   <energy>
    <i name="e_fr_energy">   -125.36549095 </i>
    <i name="e_wo_entrp">   -125.36393012 </i>
    <i name="e_0_energy">   -125.36471053 </i>
   </energy>
  </scstep>
  <scstep>
   <time name="dav">    7.18    7.23</time>
   <time name="total">    7.49    7.55</time>
   <energy>
    <i name="e_fr_energy">   -125.39008421 </i>
    <i name="e_wo_entrp">   -125.38851787 </i>
    <i name="e_0_energy">   -125.38930104 </i>
   </energy>
  </scstep>
  <scstep>
   <time name="dav">    8.36    8.40</time>
   <time name="total">    8.66    8.72</time>
   <energy>
    <i name="e_fr_energy">   -125.39796441 </i>
    <i name="e_wo_entrp">   -125.39639726 </i>
    <i name="e_0_energy">   -125.39718084 </i>
   </energy>
  </scstep>
  <scstep>
   <time name="dav">    6.66    6.71</time>
   <time name="total">    6.97    7.02</time>
   <energy>
    <i name="e_fr_energy">   -125.40004856 </i>
    <i name="e_wo_entrp">   -125.39848137 </i>
    <i name="e_0_energy">   -125.39926497 </i>
   </energy>
  </scstep>
  <scstep>
   <time name="dav">    6.07    6.11</time>
   <time name="total">    6.37    6.43</time>
   <energy>
    <i name="e_fr_energy">   -125.40130765 </i>
    <i name="e_wo_entrp">   -125.39974047 </i>
    <i name="e_0_energy">   -125.40052406 </i>
   </energy>
  </scstep>
  <scstep>
   <time name="dav">    7.32    7.37</time>
   <time name="total">    7.63    7.69</time>
   <energy>
    <i name="e_fr_energy">   -125.40199255 </i>
    <i name="e_wo_entrp">   -125.40042538 </i>
    <i name="e_0_energy">   -125.40120897 </i>
   </energy>
  </scstep>
  <scstep>
   <time name="dav">    8.15    8.19</time>
   <time name="total">    8.45    8.51</time>
   <energy>
    <i name="e_fr_energy">   -125.40244043 </i>
    <i name="e_wo_entrp">   -125.40087325 </i>
    <i name="e_0_energy">   -125.40165684 </i>
   </energy>
  </scstep>
  <scstep>
   <time name="dav">    9.63   10.62</time>
   <time name="total">    9.94   10.93</time>
   <energy>
    <i name="e_fr_energy">   -125.40250237 </i>
    <i name="e_wo_entrp">   -125.40093518 </i>
    <i name="e_0_energy">   -125.40171878 </i>
   </energy>
  </scstep>
  <scstep>
   <time name="dav">    8.65    8.70</time>
   <time name="total">    8.95    9.01</time>
   <energy>
    <i name="e_fr_energy">   -125.40252300 </i>
    <i name="e_wo_entrp">   -125.40095580 </i>
    <i name="e_0_energy">   -125.40173940 </i>
   </energy>
  </scstep>
  <scstep>
   <time name="dav">    8.92    8.97</time>
   <time name="total">    9.23    9.29</time>
   <energy>
    <i name="e_fr_energy">   -125.40254206 </i>
    <i name="e_wo_entrp">   -125.40097487 </i>
    <i name="e_0_energy">   -125.40175847 </i>
   </energy>
  </scstep>
  <scstep>
   <time name="dav">    8.91    8.97</time>
   <time name="total">    9.22    9.29</time>
   <energy>
    <i name="e_fr_energy">   -125.40255821 </i>
    <i name="e_wo_entrp">   -125.40099102 </i>
    <i name="e_0_energy">   -125.40177462 </i>
   </energy>
  </scstep>
  <scstep>
   <time name="dav">    9.33    9.38</time>
   <time name="total">    9.63    9.70</time>
   <energy>
    <i name="e_fr_energy">   -125.40256182 </i>
    <i name="e_wo_entrp">   -125.40099463 </i>
    <i name="e_0_energy">   -125.40177823 </i>
   </energy>
  </scstep>
  <scstep>
   <time name="dav">    9.72    9.78</time>
   <time name="total">    9.76    9.82</time>
   <energy>
    <i name="alphaZ">     57.26249870 </i>
    <i name="ewald">   4572.54274326 </i>
    <i name="hartreedc">  -6328.13945977 </i>
    <i name="XCdc">    179.37812609 </i>
    <i name="pawpsdc">   5496.67709447 </i>
    <i name="pawaedc">  -5500.99220610 </i>
    <i name="eentropy">     -0.00156719 </i>
    <i name="bandstr">   -505.39321286 </i>
    <i name="atom">   1903.26342058 </i>
    <i name="e_fr_energy">   -125.40256282 </i>
    <i name="e_wo_entrp">   -125.40099563 </i>
    <i name="e_0_energy">   -125.40177922 </i>
   </energy>
  </scstep>
  <structure>
   <crystal>
    <varray name="basis" >
     <v>       4.23486422       2.44500000       0.00000000 </v>
     <v>      -4.23486422       2.44500000       0.00000000 </v>
     <v>       0.00000000       0.00000000      15.00000000 </v>
    </varray>
    <i name="volume">    310.62729087 </i>
    <varray name="rec_basis" >
     <v>       0.11806754       0.20449898       0.00000000 </v>
     <v>      -0.11806754       0.20449898       0.00000000 </v>
     <v>       0.00000000       0.00000000       0.06666667 </v>
    </varray>
   </crystal>
   <varray name="positions" >
    <v>       0.00415361       0.00267210       0.12034134 </v>
    <v>       0.35695335       0.00285503       0.09748893 </v>
    <v>       0.00423858       0.35550699       0.09749256 </v>
    <v>       0.65142295       0.65006557       0.09747688 </v>
    <v>       0.32808646       0.32671938       0.10030508 </v>
    <v>       0.68027775       0.00278085       0.10027562 </v>
    <v>       0.00416530       0.67883808       0.10026559 </v>
    <v>       0.16666600       0.33333300       0.33720000 </v>
    <v>       0.33333300       0.16666600       0.33720000 </v>
    <v>       0.16666600       0.83333300       0.33720000 </v>
    <v>       0.33333300       0.66666600       0.33720000 </v>
    <v>       0.66666600       0.33333300       0.33720000 </v>
    <v>       0.83333300       0.16666600       0.33720000 </v>
    <v>       0.66666600       0.83333300       0.33720000 </v>
    <v>       0.83333300       0.66666600       0.33720000 </v>
   </varray>
  </structure>
  <varray name="forces" >
   <v>      -0.00363145       0.00495547      -0.50897549 </v>
   <v>      -0.11327907      -0.07019008       0.13510818 </v>
   <v>       0.11299190      -0.06915830       0.13483877 </v>
   <v>       0.00249311       0.13137634       0.13756565 </v>
   <v>       0.00287626      -0.42558348       0.00634254 </v>
   <v>       0.36710492       0.21392333       0.00987934 </v>
   <v>      -0.36805279       0.21610020       0.01112852 </v>
   <v>      -0.01481780       0.00023487       0.02068375 </v>
   <v>       0.01461075       0.00038454       0.02102189 </v>
   <v>       0.00806207       0.01166398       0.02155259 </v>
   <v>      -0.00036640       0.00042030      -0.02595550 </v>
   <v>       0.00059921       0.00019789      -0.02596051 </v>
   <v>      -0.00811070       0.01140800       0.02149969 </v>
   <v>       0.00646568      -0.01277259       0.02077936 </v>
   <v>      -0.00694569      -0.01296049       0.02049124 </v>
  </varray>
  <varray name="stress" >
   <v>     -50.04316412       0.01068441      -0.01474654 </v>
   <v>       0.01068440     -50.02775073      -0.01746591 </v>
   <v>      -0.01474654      -0.01746589      -1.63274174 </v>
  </varray>
  <energy>
   <i name="e_fr_energy">   -126.98126899 </i>
   <i name="e_wo_entrp">   -126.97970180 </i>
   <i name="e_0_energy">   -126.98048539 </i>
  </energy>
  <time name="totalsc">  230.91  233.57</time>
 </calculation>
 <calculation>
  <scstep>
   <time name="dav">    5.77    5.81</time>
   <time name="total">    6.16    6.21</time>
   <energy>
    <i name="alphaZ">     57.26249870 </i>
    <i name="ewald">   4576.17557570 </i>
    <i name="hartreedc">  -6330.10648339 </i>
    <i name="XCdc">    179.47587464 </i>
    <i name="pawpsdc">   5496.70767167 </i>
    <i name="pawaedc">  -5501.02278163 </i>
    <i name="eentropy">     -0.00156719 </i>
    <i name="bandstr">   -507.17505376 </i>
    <i name="atom">   1903.26342058 </i>
    <i name="e_fr_energy">   -125.42084468 </i>
    <i name="e_wo_entrp">   -125.41927749 </i>
    <i name="e_0_energy">   -125.42006109 </i>
   </energy>
  </scstep>
  <scstep>
   <time name="dav">   11.52   11.58</time>
   <time name="total">   11.90   11.97</time>
   <energy>
    <i name="e_fr_energy">   -125.40914770 </i>
    <i name="e_wo_entrp">   -125.40758051 </i>
    <i name="e_0_energy">   -125.40836411 </i>
   </energy>
  </scstep>
  <scstep>
   <time name="dav">    7.52    7.57</time>
   <time name="total">    7.90    7.97</time>
   <energy>
    <i name="e_fr_energy">   -125.40786715 </i>
    <i name="e_wo_entrp">   -125.40629996 </i>
    <i name="e_0_energy">   -125.40708355 </i>
   </energy>
  </scstep>
  <scstep>
   <time name="dav">   12.04   12.10</time>
   <time name="total">   12.42   12.49</time>
   <energy>
    <i name="e_fr_energy">   -125.40781686 </i>
    <i name="e_wo_entrp">   -125.40624967 </i>
    <i name="e_0_energy">   -125.40703326 </i>
   </energy>
  </scstep>
  <scstep>
   <time name="dav">   10.44   10.50</time>
   <time name="total">   10.81   10.88</time>
   <energy>
    <i name="e_fr_energy">   -125.40782176 </i>
    <i name="e_wo_entrp">   -125.40625457 </i>
    <i name="e_0_energy">   -125.40703817 </i>
   </energy>
  </scstep>
  <scstep>
   <time name="dav">    9.38    9.43</time>
   <time name="total">    9.41    9.47</time>
   <energy>
    <i name="alphaZ">     57.26249870 </i>
    <i name="ewald">   4576.17557570 </i>
    <i name="hartreedc">  -6330.96800171 </i>
    <i name="XCdc">    179.49539305 </i>
    <i name="pawpsdc">   5527.58352076 </i>
    <i name="pawaedc">  -5531.90893361 </i>
    <i name="eentropy">     -0.00156719 </i>
    <i name="bandstr">   -506.30972803 </i>
    <i name="atom">   1903.26342058 </i>
    <i name="e_fr_energy">   -125.40782176 </i>
    <i name="e_wo_entrp">   -125.40625456 </i>
    <i name="e_0_energy">   -125.40703816 </i>
   </energy>
  </scstep>
  <structure>
   <crystal>
    <varray name="basis" >
     <v>       4.23486422       2.44500000       0.00000000 </v>
     <v>      -4.23486422       2.44500000       0.00000000 </v>
     <v>       0.00000000       0.00000000      15.00000000 </v>
    </varray>
    <i name="volume">    310.62729087 </i>
    <varray name="rec_basis" >
     <v>       0.11806754       0.20449898       0.00000000 </v>
     <v>      -0.11806754       0.20449898       0.00000000 </v>
     <v>       0.00000000       0.00000000       0.06666667 </v>
    </varray>
   </crystal>
   <varray name="positions" >
    <v>       0.00418181       0.00274167       0.11870438 </v>
    <v>       0.35561566       0.00280779       0.09792347 </v>
    <v>       0.00419988       0.35418112       0.09792623 </v>
    <v>       0.65273326       0.65134747       0.09791931 </v>
    <v>       0.32390422       0.32250437       0.10032548 </v>
    <v>       0.68447921       0.00280034       0.10030739 </v>
    <v>       0.00420086       0.68306642       0.10030138 </v>
    <v>       0.16658392       0.33341972       0.33726652 </v>
    <v>       0.33342001       0.16658657       0.33726761 </v>
    <v>       0.16682699       0.83340215       0.33726932 </v>
    <v>       0.33333506       0.66667223       0.33711652 </v>
    <v>       0.66667137       0.33333154       0.33711651 </v>
    <v>       0.83339935       0.16682474       0.33726915 </v>
    <v>       0.66657682       0.83317016       0.33726683 </v>
    <v>       0.83316558       0.66657770       0.33726590 </v>
   </varray>
  </structure>
  <varray name="forces" >
   <v>      -0.00190493       0.00002949      -0.24390099 </v>
   <v>       0.24305848       0.13879381       0.07629155 </v>
   <v>      -0.24413099       0.14035044       0.07613298 </v>
   <v>       0.00126625      -0.27564222       0.07793249 </v>
   <v>       0.00060196       0.60726386      -0.02165922 </v>
   <v>      -0.52427375      -0.30445003      -0.01929766 </v>
   <v>       0.52593151      -0.30477908      -0.01884889 </v>
   <v>       0.05124625      -0.00073313       0.01112619 </v>
   <v>      -0.05114920      -0.00117895       0.01120435 </v>
   <v>      -0.02769444      -0.04230259       0.01126409 </v>
   <v>       0.00106042      -0.00205008       0.00324708 </v>
   <v>      -0.00230893      -0.00136487       0.00324949 </v>
   <v>       0.02732035      -0.04146610       0.01121214 </v>
   <v>      -0.02393977       0.04346754       0.01103683 </v>
   <v>       0.02491680       0.04406190       0.01100957 </v>
  </varray>
  <varray name="stress" >
   <v>     -46.95766082       0.00210227      -0.01162124 </v>
   <v>       0.00210229     -46.97447378      -0.02424983 </v>
   <v>      -0.01162126      -0.02424989      -1.16936454 </v>
  </varray>
  <energy>
   <i name="e_fr_energy">   -126.98556586 </i>
   <i name="e_wo_entrp">   -126.98399867 </i>
   <i name="e_0_energy">   -126.98478227 </i>
  </energy>
  <time name="totalsc">   63.55   63.97</time>
 </calculation>
 <calculation>
  <scstep>
   <time name="dav">    5.75    5.79</time>
   <time name="total">    6.13    6.18</time>
   <energy>
    <i name="alphaZ">     57.26249870 </i>
    <i name="ewald">   4574.50294881 </i>
    <i name="hartreedc">  -6330.05112884 </i>
    <i name="XCdc">    179.45027646 </i>
    <i name="pawpsdc">   5527.59481216 </i>
    <i name="pawaedc">  -5531.92020302 </i>
    <i name="eentropy">     -0.00156719 </i>
    <i name="bandstr">   -505.51901721 </i>
    <i name="atom">   1903.26342058 </i>
    <i name="e_fr_energy">   -125.41795956 </i>
    <i name="e_wo_entrp">   -125.41639237 </i>
    <i name="e_0_energy">   -125.41717597 </i>
   </energy>
  </scstep>
  <scstep>
   <time name="dav">   11.29   11.36</time>
   <time name="total">   11.67   11.75</time>
   <energy>
    <i name="e_fr_energy">   -125.41557031 </i>
    <i name="e_wo_entrp">   -125.41400312 </i>
    <i name="e_0_energy">   -125.41478671 </i>
   </energy>
  </scstep>
  <scstep>
   <time name="dav">    8.85    8.89</time>
   <time name="total">    9.22    9.29</time>
   <energy>
    <i name="e_fr_energy">   -125.41532419 </i>
    <i name="e_wo_entrp">   -125.41375700 </i>
    <i name="e_0_energy">   -125.41454059 </i>
   </energy>
  </scstep>
  <scstep>
   <time name="dav">   11.22   11.28</time>
   <time name="total">   11.60   11.68</time>
   <energy>
    <i name="e_fr_energy">   -125.41531453 </i>
    <i name="e_wo_entrp">   -125.41374734 </i>
    <i name="e_0_energy">   -125.41453093 </i>
   </energy>
  </scstep>
  <scstep>
   <time name="dav">    8.26    8.30</time>
   <time name="total">    8.29    8.34</time>
   <energy>
    <i name="alphaZ">     57.26249870 </i>
    <i name="ewald">   4574.50294881 </i>
    <i name="hartreedc">  -6329.69173344 </i>
    <i name="XCdc">    179.44160863 </i>
    <i name="pawpsdc">   5513.06752227 </i>
    <i name="pawaedc">  -5517.38792347 </i>
    <i name="eentropy">     -0.00156719 </i>
    <i name="bandstr">   -505.87209024 </i>
    <i name="atom">   1903.26342058 </i>
    <i name="e_fr_energy">   -125.41531536 </i>
    <i name="e_wo_entrp">   -125.41374817 </i>
    <i name="e_0_energy">   -125.41453177 </i>
   </energy>
  </scstep>
  <structure>
   <crystal>
    <varray name="basis" >
     <v>       4.23486422       2.44500000       0.00000000 </v>
     <v>      -4.23486422       2.44500000       0.00000000 </v>
     <v>       0.00000000       0.00000000      15.00000000 </v>
    </varray>
    <i name="volume">    310.62729087 </i>
    <varray name="rec_basis" >
     <v>       0.11806754       0.20449898       0.00000000 </v>
     <v>      -0.11806754       0.20449898       0.00000000 </v>
     <v>       0.00000000       0.00000000       0.06666667 </v>
    </varray>
   </crystal>
   <varray name="positions" >
    <v>       0.00416922       0.00271060       0.11943544 </v>
    <v>       0.35621307       0.00282889       0.09772941 </v>
    <v>       0.00421716       0.35477324       0.09773256 </v>
    <v>       0.65214808       0.65077498       0.09772172 </v>
    <v>       0.32577199       0.32438677       0.10031637 </v>
    <v>       0.68260286       0.00279164       0.10029320 </v>
    <v>       0.00418498       0.68117807       0.10028539 </v>
    <v>       0.16662057       0.33338099       0.33723681 </v>
    <v>       0.33338115       0.16662204       0.33723742 </v>
    <v>       0.16675509       0.83337127       0.33723836 </v>
    <v>       0.33333414       0.66666945       0.33715380 </v>
    <v>       0.66666897       0.33333219       0.33715379 </v>
    <v>       0.83336972       0.16675385       0.33723827 </v>
    <v>       0.66661665       0.83324289       0.33723698 </v>
    <v>       0.83324035       0.66661713       0.33723647 </v>
   </varray>
  </structure>
  <varray name="forces" >
   <v>      -0.00276686       0.00240041      -0.36042446 </v>
   <v>       0.08858524       0.04806887       0.10226520 </v>
   <v>      -0.08936259       0.04940079       0.10205772 </v>
   <v>       0.00183015      -0.09927482       0.10427749 </v>
   <v>       0.00165750       0.14402323      -0.00935703 </v>
   <v>      -0.12463940      -0.07190988      -0.00649934 </v>
   <v>       0.12523334      -0.07116942      -0.00570799 </v>
   <v>       0.02168285      -0.00039527       0.01537108 </v>
   <v>      -0.02172284      -0.00057585       0.01556615 </v>
   <v>      -0.01177027      -0.01810673       0.01583559 </v>
   <v>       0.00041856      -0.00094986      -0.00987287 </v>
   <v>      -0.00100736      -0.00067151      -0.00987383 </v>
   <v>       0.01153741      -0.01775689       0.01578247 </v>
   <v>      -0.01025418       0.01833447       0.01536169 </v>
   <v>       0.01057843       0.01858246       0.01521811 </v>
  </varray>
  <varray name="stress" >
   <v>     -48.50712414       0.00587222      -0.01311284 </v>
   <v>       0.00587225     -48.51135651      -0.02076432 </v>
   <v>      -0.01311283      -0.02076431      -1.35872193 </v>
  </varray>
  <energy>
   <i name="e_fr_energy">   -126.99347644 </i>
   <i name="e_wo_entrp">   -126.99190925 </i>
   <i name="e_0_energy">   -126.99269284 </i>
  </energy>
  <time name="totalsc">   51.87   52.22</time>
 </calculation>
 <calculation>
  <scstep>
   <time name="dav">    5.76    5.79</time>
   <time name="total">    6.13    6.18</time>
   <energy>
    <i name="alphaZ">     57.26249870 </i>
    <i name="ewald">   4573.85222529 </i>
    <i name="hartreedc">  -6328.75369832 </i>
    <i name="XCdc">    179.46290807 </i>
    <i name="pawpsdc">   5513.01406035 </i>
    <i name="pawaedc">  -5517.33446772 </i>
    <i name="eentropy">     -0.00156719 </i>
    <i name="bandstr">   -506.19110943 </i>
    <i name="atom">   1903.26342058 </i>
    <i name="e_fr_energy">   -125.42572968 </i>
    <i name="e_wo_entrp">   -125.42416249 </i>
    <i name="e_0_energy">   -125.42494608 </i>
   </energy>
  </scstep>
  <scstep>
   <time name="dav">   11.99   12.05</time>
   <time name="total">   12.36   12.44</time>
   <energy>
    <i name="e_fr_energy">   -125.42586244 </i>
    <i name="e_wo_entrp">   -125.42429525 </i>
    <i name="e_0_energy">   -125.42507885 </i>
   </energy>
  </scstep>
  <scstep>
   <time name="dav">    8.85    8.90</time>
   <time name="total">    9.23    9.29</time>
   <energy>
    <i name="e_fr_energy">   -125.42586180 </i>
    <i name="e_wo_entrp">   -125.42429461 </i>
    <i name="e_0_energy">   -125.42507821 </i>
   </energy>
  </scstep>
  <scstep>
   <time name="dav">   11.48   11.55</time>
   <time name="total">   11.87   11.94</time>
   <energy>
    <i name="e_fr_energy">   -125.42586406 </i>
    <i name="e_wo_entrp">   -125.42429687 </i>
    <i name="e_0_energy">   -125.42508046 </i>
   </energy>
  </scstep>
  <scstep>
   <time name="dav">    9.11    9.17</time>
   <time name="total">    9.15    9.20</time>
   <energy>
    <i name="alphaZ">     57.26249870 </i>
    <i name="ewald">   4573.85222529 </i>
    <i name="hartreedc">  -6328.72321778 </i>
    <i name="XCdc">    179.46080913 </i>
    <i name="pawpsdc">   5518.90662935 </i>
    <i name="pawaedc">  -5523.22908608 </i>
    <i name="eentropy">     -0.00156719 </i>
    <i name="bandstr">   -506.21757634 </i>
    <i name="atom">   1903.26342058 </i>
    <i name="e_fr_energy">   -125.42586435 </i>
    <i name="e_wo_entrp">   -125.42429716 </i>
    <i name="e_0_energy">   -125.42508075 </i>
   </energy>
  </scstep>
  <structure>
   <crystal>
    <varray name="basis" >
     <v>       4.23486422       2.44500000       0.00000000 </v>
     <v>      -4.23486422       2.44500000       0.00000000 </v>
     <v>       0.00000000       0.00000000      15.00000000 </v>
    </varray>
    <i name="volume">    310.62729087 </i>
    <varray name="rec_basis" >
     <v>       0.11806754       0.20449898       0.00000000 </v>
     <v>      -0.11806754       0.20449898       0.00000000 </v>
     <v>       0.00000000       0.00000000       0.06666667 </v>
    </varray>
   </crystal>
   <varray name="positions" >
    <v>       0.00418363       0.00276429       0.11796183 </v>
    <v>       0.35676290       0.00278919       0.09813988 </v>
    <v>       0.00418758       0.35534209       0.09814220 </v>
    <v>       0.65160020       0.65020086       0.09814011 </v>
    <v>       0.32600672       0.32459594       0.10029417 </v>
    <v>       0.68238300       0.00279707       0.10028228 </v>
    <v>       0.00420425       0.68096864       0.10027781 </v>
    <v>       0.16670854       0.33328711       0.33729882 </v>
    <v>       0.33328552       0.16670927       0.33730027 </v>
    <v>       0.16657247       0.83328730       0.33730244 </v>
    <v>       0.33332830       0.66666034       0.33710357 </v>
    <v>       0.66665908       0.33333101       0.33710356 </v>
    <v>       0.83328697       0.16657500       0.33730215 </v>
    <v>       0.66670541       0.83341922       0.33729904 </v>
    <v>       0.83341942       0.66670667       0.33729787 </v>
   </varray>
  </structure>
  <varray name="forces" >
   <v>      -0.00033584       0.00005654      -0.32279357 </v>
   <v>       0.06328883       0.03631076       0.05955767 </v>
   <v>      -0.06333300       0.03734505       0.05949468 </v>
   <v>       0.00080730      -0.07102700       0.06041969 </v>
   <v>      -0.00007426       0.12470488       0.02380749 </v>
   <v>      -0.10676108      -0.06307131       0.02546965 </v>
   <v>       0.10689772      -0.06289222       0.02579960 </v>
   <v>      -0.04821349      -0.00311446       0.00738703 </v>
   <v>       0.04797968      -0.00286573       0.00738932 </v>
   <v>       0.02323927       0.04192275       0.00733290 </v>
   <v>      -0.00139453       0.00119742       0.01210787 </v>
   <v>       0.00207939       0.00067321       0.01211110 </v>
   <v>      -0.02321878       0.04118753       0.00729722 </v>
   <v>       0.02602781      -0.03998388       0.00729251 </v>
   <v>      -0.02698904      -0.04044355       0.00732684 </v>
  </varray>
  <varray name="stress" >
   <v>     -48.12291716       0.00261522      -0.00874505 </v>
   <v>       0.00261519     -48.12246481      -0.02357200 </v>
   <v>      -0.00874504      -0.02357199      -1.35742804 </v>
  </varray>
  <energy>
   <i name="e_fr_energy">   -127.00368603 </i>
   <i name="e_wo_entrp">   -127.00211883 </i>
   <i name="e_0_energy">   -127.00290243 </i>
  </energy>
  <time name="totalsc">   53.68   54.03</time>
 </calculation>
 <calculation>
  <scstep>
   <time name="dav">    5.81    5.85</time>
   <time name="total">    6.18    6.24</time>
   <energy>
    <i name="alphaZ">     57.26249870 </i>
    <i name="ewald">   4571.09342490 </i>
    <i name="hartreedc">  -6325.29189363 </i>
    <i name="XCdc">    179.51143983 </i>
    <i name="pawpsdc">   5518.96745626 </i>
    <i name="pawaedc">  -5523.28993626 </i>
    <i name="eentropy">     -0.00156715 </i>
    <i name="bandstr">   -506.95767945 </i>
    <i name="atom">   1903.26342058 </i>
    <i name="e_fr_energy">   -125.44283622 </i>
    <i name="e_wo_entrp">   -125.44126907 </i>
    <i name="e_0_energy">   -125.44205265 </i>
   </energy>
  </scstep>
  <scstep>
   <time name="dav">   11.95   12.02</time>
   <time name="total">   12.33   12.41</time>
   <energy>
    <i name="e_fr_energy">   -125.44426296 </i>
    <i name="e_wo_entrp">   -125.44269581 </i>
    <i name="e_0_energy">   -125.44347938 </i>
   </energy>
  </scstep>
  <scstep>
   <time name="dav">    9.14    9.19</time>
   <time name="total">    9.52    9.58</time>
   <energy>
    <i name="e_fr_energy">   -125.44424527 </i>
    <i name="e_wo_entrp">   -125.44267811 </i>
    <i name="e_0_energy">   -125.44346169 </i>
   </energy>
  </scstep>
  <scstep>
   <time name="dav">   12.15   12.22</time>
   <time name="total">   12.53   12.62</time>
   <energy>
    <i name="e_fr_energy">   -125.44427277 </i>
    <i name="e_wo_entrp">   -125.44270562 </i>
    <i name="e_0_energy">   -125.44348920 </i>
   </energy>
  </scstep>
  <scstep>
   <time name="dav">    8.70    8.75</time>
   <time name="total">    9.09    9.14</time>
   <energy>
    <i name="e_fr_energy">   -125.44427601 </i>
    <i name="e_wo_entrp">   -125.44270885 </i>
    <i name="e_0_energy">   -125.44349243 </i>
   </energy>
  </scstep>
  <scstep>
   <time name="dav">   10.45   10.51</time>
   <time name="total">   10.49   10.55</time>
   <energy>
    <i name="alphaZ">     57.26249870 </i>
    <i name="ewald">   4571.09342490 </i>
    <i name="hartreedc">  -6325.19373151 </i>
    <i name="XCdc">    179.50492991 </i>
    <i name="pawpsdc">   5532.95137769 </i>
    <i name="pawaedc">  -5537.27889917 </i>
    <i name="eentropy">     -0.00156715 </i>
    <i name="bandstr">   -507.04573055 </i>
    <i name="atom">   1903.26342058 </i>
    <i name="e_fr_energy">   -125.44427660 </i>
    <i name="e_wo_entrp">   -125.44270945 </i>
    <i name="e_0_energy">   -125.44349302 </i>
   </energy>
  </scstep>
  <structure>
   <crystal>
    <varray name="basis" >
     <v>       4.23486422       2.44500000       0.00000000 </v>
     <v>      -4.23486422       2.44500000       0.00000000 </v>
     <v>       0.00000000       0.00000000      15.00000000 </v>
    </varray>
    <i name="volume">    310.62729087 </i>
    <varray name="rec_basis" >
     <v>       0.11806754       0.20449898       0.00000000 </v>
     <v>      -0.11806754       0.20449898       0.00000000 </v>
     <v>       0.00000000       0.00000000       0.06666667 </v>
    </varray>
   </crystal>
   <varray name="positions" >
    <v>       0.00422688       0.00292533       0.11354102 </v>
    <v>       0.35841239       0.00267010       0.09937129 </v>
    <v>       0.00409884       0.35704863       0.09937113 </v>
    <v>       0.64995656       0.64847851       0.09939526 </v>
    <v>       0.32671093       0.32522347       0.10022758 </v>
    <v>       0.68172343       0.00281336       0.10024951 </v>
    <v>       0.00426206       0.68034037       0.10025507 </v>
    <v>       0.16697243       0.33300546       0.33748484 </v>
    <v>       0.33299861       0.16697095       0.33748883 </v>
    <v>       0.16602459       0.83303540       0.33749468 </v>
    <v>       0.33331079       0.66663300       0.33695288 </v>
    <v>       0.66662942       0.33332747       0.33695284 </v>
    <v>       0.83303872       0.16603845       0.33749379 </v>
    <v>       0.66697170       0.83394824       0.33748521 </v>
    <v>       0.83395665       0.66697527       0.33748207 </v>
   </varray>
  </structure>
  <varray name="forces" >
   <v>       0.00737487      -0.00763918      -0.24942008 </v>
   <v>      -0.03974452      -0.01525657      -0.05571524 </v>
   <v>       0.04112984      -0.01493930      -0.05529725 </v>
   <v>      -0.00207450       0.04501474      -0.05814507 </v>
   <v>      -0.00466921       0.04108369       0.12305651 </v>
   <v>      -0.03007012      -0.02301722       0.12130535 </v>
   <v>       0.02846303      -0.02410898       0.12044770 </v>
   <v>      -0.26019037      -0.00947631      -0.01638984 </v>
   <v>       0.25934823      -0.00793036      -0.01695467 </v>
   <v>       0.13084568       0.22298304      -0.01800064 </v>
   <v>      -0.00680287       0.00761118       0.07799975 </v>
   <v>       0.01128514       0.00468376       0.07801774 </v>
   <v>      -0.13000465       0.21889845      -0.01799463 </v>
   <v>       0.13431332      -0.21760379      -0.01673867 </v>
   <v>      -0.13920388      -0.22030314      -0.01617095 </v>
  </varray>
  <varray name="stress" >
   <v>     -47.09806220      -0.00493843       0.00085837 </v>
   <v>      -0.00493842     -47.09897571      -0.02765818 </v>
   <v>       0.00085837      -0.02765822      -1.41425221 </v>
  </varray>
  <energy>
   <i name="e_fr_energy">   -127.02111850 </i>
   <i name="e_wo_entrp">   -127.01955135 </i>
   <i name="e_0_energy">   -127.02033493 </i>
  </energy>
  <time name="totalsc">   65.06   65.50</time>
 </calculation>
 <calculation>
  <scstep>
   <time name="dav">    5.74    5.77</time>
   <time name="total">    6.11    6.16</time>
   <energy>
    <i name="alphaZ">     57.26249870 </i>
    <i name="ewald">   4569.50273437 </i>
    <i name="hartreedc">  -6323.40314916 </i>
    <i name="XCdc">    179.51917112 </i>
    <i name="pawpsdc">   5532.95052617 </i>
    <i name="pawaedc">  -5537.27804527 </i>
    <i name="eentropy">     -0.00156712 </i>
    <i name="bandstr">   -507.26192209 </i>
    <i name="atom">   1903.26342058 </i>
    <i name="e_fr_energy">   -125.44633269 </i>
    <i name="e_wo_entrp">   -125.44476557 </i>
    <i name="e_0_energy">   -125.44554913 </i>
   </energy>
  </scstep>
  <scstep>
   <time name="dav">   11.95   12.02</time>
   <time name="total">   12.33   12.41</time>
   <energy>
    <i name="e_fr_energy">   -125.44660418 </i>
    <i name="e_wo_entrp">   -125.44503706 </i>
    <i name="e_0_energy">   -125.44582062 </i>
   </energy>
  </scstep>
  <scstep>
   <time name="dav">    9.32    9.38</time>
   <time name="total">    9.70    9.77</time>
   <energy>
    <i name="e_fr_energy">   -125.44660109 </i>
    <i name="e_wo_entrp">   -125.44503397 </i>
    <i name="e_0_energy">   -125.44581753 </i>
   </energy>
  </scstep>
  <scstep>
   <time name="dav">   11.92   11.99</time>
   <time name="total">   12.30   12.38</time>
   <energy>
    <i name="e_fr_energy">   -125.44660877 </i>
    <i name="e_wo_entrp">   -125.44504165 </i>
    <i name="e_0_energy">   -125.44582521 </i>
   </energy>
  </scstep>
  <scstep>
   <time name="dav">    8.70    8.75</time>
   <time name="total">    9.07    9.14</time>
   <energy>
    <i name="e_fr_energy">   -125.44660987 </i>
    <i name="e_wo_entrp">   -125.44504275 </i>
    <i name="e_0_energy">   -125.44582631 </i>
   </energy>
  </scstep>
  <scstep>
   <time name="dav">   10.55   10.61</time>
   <time name="total">   10.59   10.65</time>
   <energy>
    <i name="alphaZ">     57.26249870 </i>
    <i name="ewald">   4569.50273437 </i>
    <i name="hartreedc">  -6323.34466254 </i>
    <i name="XCdc">    179.51771829 </i>
    <i name="pawpsdc">   5537.11759654 </i>
    <i name="pawaedc">  -5541.44674879 </i>
    <i name="eentropy">     -0.00156712 </i>
    <i name="bandstr">   -507.31760044 </i>
    <i name="atom">   1903.26342058 </i>
    <i name="e_fr_energy">   -125.44661040 </i>
    <i name="e_wo_entrp">   -125.44504328 </i>
    <i name="e_0_energy">   -125.44582684 </i>
   </energy>
  </scstep>
  <structure>
   <crystal>
    <varray name="basis" >
     <v>       4.23486422       2.44500000       0.00000000 </v>
     <v>      -4.23486422       2.44500000       0.00000000 </v>
     <v>       0.00000000       0.00000000      15.00000000 </v>
    </varray>
    <i name="volume">    310.62729087 </i>
    <varray name="rec_basis" >
     <v>       0.11806754       0.20449898       0.00000000 </v>
     <v>      -0.11806754       0.20449898       0.00000000 </v>
     <v>       0.00000000       0.00000000       0.06666667 </v>
    </varray>
   </crystal>
   <varray name="positions" >
    <v>       0.00424576       0.00299564       0.11161089 </v>
    <v>       0.35913256       0.00261811       0.09990893 </v>
    <v>       0.00406010       0.35779370       0.09990768 </v>
    <v>       0.64923895       0.64772653       0.09994326 </v>
    <v>       0.32701839       0.32549745       0.10019850 </v>
    <v>       0.68143546       0.00282047       0.10023520 </v>
    <v>       0.00428730       0.68006606       0.10024515 </v>
    <v>       0.16708764       0.33288249       0.33756605 </v>
    <v>       0.33287335       0.16708520       0.33757116 </v>
    <v>       0.16578538       0.83292542       0.33757861 </v>
    <v>       0.33330315       0.66662106       0.33688709 </v>
    <v>       0.66661646       0.33332592       0.33688704 </v>
    <v>       0.83293034       0.16580419       0.33757746 </v>
    <v>       0.66708797       0.83417921       0.33756649 </v>
    <v>       0.83419121       0.66709255       0.33756249 </v>
   </varray>
  </structure>
  <varray name="forces" >
   <v>       0.01088949      -0.01122897      -0.23048323 </v>
   <v>      -0.09794702      -0.04568704      -0.10096628 </v>
   <v>       0.09972391      -0.04561240      -0.10031578 </v>
   <v>      -0.00326072       0.11095351      -0.10475879 </v>
   <v>      -0.00647946      -0.00797683       0.16548246 </v>
   <v>       0.01462266       0.00099691       0.16227185 </v>
   <v>      -0.01717391      -0.00042338       0.16099259 </v>
   <v>      -0.35434050      -0.01201597      -0.02675468 </v>
   <v>       0.35322948      -0.00990120      -0.02756142 </v>
   <v>       0.17879334       0.30327804      -0.02904348 </v>
   <v>      -0.00914666       0.01039681       0.10688020 </v>
   <v>       0.01527862       0.00642516       0.10690471 </v>
   <v>      -0.17756245       0.29769299      -0.02902606 </v>
   <v>       0.18214851      -0.29658622      -0.02721190 </v>
   <v>      -0.18877528      -0.30031141      -0.02641019 </v>
  </varray>
  <varray name="stress" >
   <v>     -46.71934395      -0.00748867       0.00321815 </v>
   <v>      -0.00748869     -46.72534231      -0.02726676 </v>
   <v>       0.00321817      -0.02726672      -1.46836965 </v>
  </varray>
  <energy>
   <i name="e_fr_energy">   -127.02304368 </i>
   <i name="e_wo_entrp">   -127.02147656 </i>
   <i name="e_0_energy">   -127.02226012 </i>
  </energy>
  <time name="totalsc">   65.04   65.49</time>
 </calculation>
 <calculation>
  <scstep>
   <time name="dav">    5.89    5.94</time>
   <time name="total">    6.27    6.32</time>
   <energy>
    <i name="alphaZ">     57.26249870 </i>
    <i name="ewald">   4569.11482069 </i>
    <i name="hartreedc">  -6322.88543545 </i>
    <i name="XCdc">    179.52247110 </i>
    <i name="pawpsdc">   5537.12114311 </i>
    <i name="pawaedc">  -5541.45029710 </i>
    <i name="eentropy">     -0.00156717 </i>
    <i name="bandstr">   -507.39772855 </i>
    <i name="atom">   1903.26342058 </i>
    <i name="e_fr_energy">   -125.45067411 </i>
    <i name="e_wo_entrp">   -125.44910694 </i>
    <i name="e_0_energy">   -125.44989052 </i>
   </energy>
  </scstep>
  <scstep>
   <time name="dav">   11.70   11.76</time>
   <time name="total">   12.07   12.15</time>
   <energy>
    <i name="e_fr_energy">   -125.45067842 </i>
    <i name="e_wo_entrp">   -125.44911125 </i>
    <i name="e_0_energy">   -125.44989484 </i>
   </energy>
  </scstep>
  <scstep>
   <time name="dav">    9.06    9.11</time>
   <time name="total">    9.44    9.50</time>
   <energy>
    <i name="e_fr_energy">   -125.45065949 </i>
    <i name="e_wo_entrp">   -125.44909232 </i>
    <i name="e_0_energy">   -125.44987590 </i>
   </energy>
  </scstep>
  <scstep>
   <time name="dav">    9.14    9.20</time>
   <time name="total">    9.52    9.59</time>
   <energy>
    <i name="e_fr_energy">   -125.45066110 </i>
    <i name="e_wo_entrp">   -125.44909393 </i>
    <i name="e_0_energy">   -125.44987752 </i>
   </energy>
  </scstep>
  <scstep>
   <time name="dav">   10.77   10.83</time>
   <time name="total">   10.81   10.86</time>
   <energy>
    <i name="alphaZ">     57.26249870 </i>
    <i name="ewald">   4569.11482069 </i>
    <i name="hartreedc">  -6322.90734476 </i>
    <i name="XCdc">    179.52202198 </i>
    <i name="pawpsdc">   5538.38987798 </i>
    <i name="pawaedc">  -5542.71953551 </i>
    <i name="eentropy">     -0.00156717 </i>
    <i name="bandstr">   -507.37485396 </i>
    <i name="atom">   1903.26342058 </i>
    <i name="e_fr_energy">   -125.45066147 </i>
    <i name="e_wo_entrp">   -125.44909430 </i>
    <i name="e_0_energy">   -125.44987788 </i>
   </energy>
  </scstep>
  <structure>
   <crystal>
    <varray name="basis" >
     <v>       4.23486422       2.44500000       0.00000000 </v>
     <v>      -4.23486422       2.44500000       0.00000000 </v>
     <v>       0.00000000       0.00000000      15.00000000 </v>
    </varray>
    <i name="volume">    310.62729087 </i>
    <varray name="rec_basis" >
     <v>       0.11806754       0.20449898       0.00000000 </v>
     <v>      -0.11806754       0.20449898       0.00000000 </v>
     <v>       0.00000000       0.00000000       0.06666667 </v>
    </varray>
   </crystal>
   <varray name="positions" >
    <v>       0.00424697       0.00300096       0.11095594 </v>
    <v>       0.35925767       0.00261226       0.10004207 </v>
    <v>       0.00405928       0.35792551       0.10004069 </v>
    <v>       0.64912087       0.64760146       0.10007842 </v>
    <v>       0.32710104       0.32557678       0.10023906 </v>
    <v>       0.68135665       0.00281582       0.10027929 </v>
    <v>       0.00428550       0.67999145       0.10029018 </v>
    <v>       0.16692434       0.33302144       0.33758273 </v>
    <v>       0.33301295       0.16692412       0.33758794 </v>
    <v>       0.16608490       0.83307516       0.33759543 </v>
    <v>       0.33330551       0.66663179       0.33689901 </v>
    <v>       0.66662649       0.33332326       0.33689897 </v>
    <v>       0.83307611       0.16609944       0.33759420 </v>
    <v>       0.66694803       0.83388154       0.33758305 </v>
    <v>       0.83388772       0.66695300       0.33757903 </v>
   </varray>
  </structure>
  <varray name="forces" >
   <v>       0.01091642      -0.01085957      -0.21723370 </v>
   <v>      -0.10233469      -0.04772943      -0.10365954 </v>
   <v>       0.10433820      -0.04814617      -0.10297098 </v>
   <v>      -0.00367284       0.11495892      -0.10770186 </v>
   <v>      -0.00664879      -0.01642935       0.16473664 </v>
   <v>       0.02134556       0.00549253       0.16116753 </v>
   <v>      -0.02357975       0.00370597       0.15980409 </v>
   <v>      -0.23450921      -0.00406276      -0.02742567 </v>
   <v>       0.23364146      -0.00243147      -0.02825143 </v>
   <v>       0.12132826       0.19758317      -0.02972417 </v>
   <v>      -0.00577870       0.00736060       0.10791551 </v>
   <v>       0.01011849       0.00450760       0.10793951 </v>
   <v>      -0.12052115       0.19390276      -0.02969481 </v>
   <v>       0.11617154      -0.19770261      -0.02785547 </v>
   <v>      -0.12081480      -0.20015019      -0.02704567 </v>
  </varray>
  <varray name="stress" >
   <v>     -46.62600047      -0.00915743       0.00279341 </v>
   <v>      -0.00915743     -46.65155811      -0.02566588 </v>
   <v>       0.00279340      -0.02566587      -1.47483114 </v>
  </varray>
  <energy>
   <i name="e_fr_energy">   -127.02693053 </i>
   <i name="e_wo_entrp">   -127.02536336 </i>
   <i name="e_0_energy">   -127.02614695 </i>
  </energy>
  <time name="totalsc">   53.05   53.40</time>
 </calculation>
 <calculation>
  <scstep>
   <time name="dav">    5.74    5.78</time>
   <time name="total">    6.13    6.18</time>
   <energy>
    <i name="alphaZ">     57.26249870 </i>
    <i name="ewald">   4567.82259272 </i>
    <i name="hartreedc">  -6321.43411360 </i>
    <i name="XCdc">    179.53429007 </i>
    <i name="pawpsdc">   5538.49330097 </i>
    <i name="pawaedc">  -5542.82296372 </i>
    <i name="eentropy">     -0.00156715 </i>
    <i name="bandstr">   -507.57400205 </i>
    <i name="atom">   1903.26342058 </i>
    <i name="e_fr_energy">   -125.45654348 </i>
    <i name="e_wo_entrp">   -125.45497633 </i>
    <i name="e_0_energy">   -125.45575991 </i>
   </energy>
  </scstep>
  <scstep>
   <time name="dav">   11.80   11.86</time>
   <time name="total">   12.18   12.26</time>
   <energy>
    <i name="e_fr_energy">   -125.45661170 </i>
    <i name="e_wo_entrp">   -125.45504454 </i>
    <i name="e_0_energy">   -125.45582812 </i>
   </energy>
  </scstep>
  <scstep>
   <time name="dav">    8.29    8.34</time>
   <time name="total">    8.67    8.73</time>
   <energy>
    <i name="e_fr_energy">   -125.45643860 </i>
    <i name="e_wo_entrp">   -125.45487143 </i>
    <i name="e_0_energy">   -125.45565501 </i>
   </energy>
  </scstep>
  <scstep>
   <time name="dav">   11.38   11.44</time>
   <time name="total">   11.75   11.82</time>
   <energy>
    <i name="e_fr_energy">   -125.45645090 </i>
    <i name="e_wo_entrp">   -125.45488374 </i>
    <i name="e_0_energy">   -125.45566732 </i>
   </energy>
  </scstep>
  <scstep>
   <time name="dav">    7.89    7.93</time>
   <time name="total">    8.26    8.32</time>
   <energy>
    <i name="e_fr_energy">   -125.45645232 </i>
    <i name="e_wo_entrp">   -125.45488516 </i>
    <i name="e_0_energy">   -125.45566874 </i>
   </energy>
  </scstep>
  <scstep>
   <time name="dav">    9.99   10.05</time>
   <time name="total">   10.03   10.08</time>
   <energy>
    <i name="alphaZ">     57.26249870 </i>
    <i name="ewald">   4567.82259272 </i>
    <i name="hartreedc">  -6321.55710171 </i>
    <i name="XCdc">    179.53363153 </i>
    <i name="pawpsdc">   5542.34882631 </i>
    <i name="pawaedc">  -5546.67995087 </i>
    <i name="eentropy">     -0.00156716 </i>
    <i name="bandstr">   -507.44880188 </i>
    <i name="atom">   1903.26342058 </i>
    <i name="e_fr_energy">   -125.45645179 </i>
    <i name="e_wo_entrp">   -125.45488462 </i>
    <i name="e_0_energy">   -125.45566821 </i>
   </energy>
  </scstep>
  <structure>
   <crystal>
    <varray name="basis" >
     <v>       4.23486422       2.44500000       0.00000000 </v>
     <v>      -4.23486422       2.44500000       0.00000000 </v>
     <v>       0.00000000       0.00000000      15.00000000 </v>
    </varray>
    <i name="volume">    310.62729087 </i>
    <varray name="rec_basis" >
     <v>       0.11806754       0.20449898       0.00000000 </v>
     <v>      -0.11806754       0.20449898       0.00000000 </v>
     <v>       0.00000000       0.00000000       0.06666667 </v>
    </varray>
   </crystal>
   <varray name="positions" >
    <v>       0.00425060       0.00301691       0.10899106 </v>
    <v>       0.35963301       0.00259473       0.10044150 </v>
    <v>       0.00405684       0.35832092       0.10043971 </v>
    <v>       0.64876663       0.64722625       0.10048389 </v>
    <v>       0.32734898       0.32581476       0.10036074 </v>
    <v>       0.68112021       0.00280185       0.10041155 </v>
    <v>       0.00428010       0.67976760       0.10042528 </v>
    <v>       0.16643442       0.33343829       0.33763277 </v>
    <v>       0.33343175       0.16644090       0.33763826 </v>
    <v>       0.16698344       0.83352441       0.33764589 </v>
    <v>       0.33331259       0.66666397       0.33693476 </v>
    <v>       0.66665656       0.33331527       0.33693474 </v>
    <v>       0.83351343       0.16698520       0.33764445 </v>
    <v>       0.66652820       0.83298855       0.33763274 </v>
    <v>       0.83297726       0.66653438       0.33762865 </v>
   </varray>
  </structure>
  <varray name="forces" >
   <v>       0.01095473      -0.00969185      -0.18156894 </v>
   <v>      -0.12114323      -0.05711225      -0.11070312 </v>
   <v>       0.12382892      -0.05901803      -0.10991843 </v>
   <v>      -0.00489159       0.13346556      -0.11546994 </v>
   <v>      -0.00712593      -0.04728976       0.16274457 </v>
   <v>       0.04630212       0.02172885       0.15813875 </v>
   <v>      -0.04758633       0.01882678       0.15653644 </v>
   <v>       0.11635760       0.02044102      -0.02941128 </v>
   <v>      -0.11651899       0.02061647      -0.03029483 </v>
   <v>      -0.04639730      -0.11235055      -0.03173200 </v>
   <v>       0.00445467      -0.00183605       0.11099123 </v>
   <v>      -0.00552113      -0.00129340       0.11101323 </v>
   <v>       0.04609840      -0.11054090      -0.03166138 </v>
   <v>      -0.07825244       0.09147197      -0.02974674 </v>
   <v>       0.07944049       0.09258215      -0.02891756 </v>
  </varray>
  <varray name="stress" >
   <v>     -46.30631905      -0.01344130       0.00143165 </v>
   <v>      -0.01344132     -46.39355293      -0.02103692 </v>
   <v>       0.00143164      -0.02103689      -1.51297611 </v>
  </varray>
  <energy>
   <i name="e_fr_energy">   -127.03221745 </i>
   <i name="e_wo_entrp">   -127.03065028 </i>
   <i name="e_0_energy">   -127.03143386 </i>
  </energy>
  <time name="totalsc">   62.00   62.41</time>
 </calculation>
 <calculation>
  <scstep>
   <time name="dav">    5.89    5.92</time>
   <time name="total">    6.27    6.32</time>
   <energy>
    <i name="alphaZ">     57.26249870 </i>
    <i name="ewald">   4567.85040307 </i>
    <i name="hartreedc">  -6321.50545842 </i>
    <i name="XCdc">    179.53872979 </i>
    <i name="pawpsdc">   5542.38272412 </i>
    <i name="pawaedc">  -5546.71384458 </i>
    <i name="eentropy">     -0.00156718 </i>
    <i name="bandstr">   -507.53582282 </i>
    <i name="atom">   1903.26342058 </i>
    <i name="e_fr_energy">   -125.45891675 </i>
    <i name="e_wo_entrp">   -125.45734957 </i>
    <i name="e_0_energy">   -125.45813316 </i>
   </energy>
  </scstep>
  <scstep>
   <time name="dav">   10.14   10.19</time>
   <time name="total">   10.51   10.58</time>
   <energy>
    <i name="e_fr_energy">   -125.45891743 </i>
    <i name="e_wo_entrp">   -125.45735025 </i>
    <i name="e_0_energy">   -125.45813384 </i>
   </energy>
  </scstep>
  <scstep>
   <time name="dav">    9.73    9.78</time>
   <time name="total">   10.10   10.17</time>
   <energy>
    <i name="e_fr_energy">   -125.45891241 </i>
    <i name="e_wo_entrp">   -125.45734523 </i>
    <i name="e_0_energy">   -125.45812882 </i>
   </energy>
  </scstep>
  <scstep>
   <time name="dav">    9.95   10.00</time>
   <time name="total">    9.98   10.03</time>
   <energy>
    <i name="alphaZ">     57.26249870 </i>
    <i name="ewald">   4567.85040307 </i>
    <i name="hartreedc">  -6321.60755712 </i>
    <i name="XCdc">    179.53869971 </i>
    <i name="pawpsdc">   5544.02296543 </i>
    <i name="pawaedc">  -5548.35463359 </i>
    <i name="eentropy">     -0.00156718 </i>
    <i name="bandstr">   -507.43314197 </i>
    <i name="atom">   1903.26342058 </i>
    <i name="e_fr_energy">   -125.45891238 </i>
    <i name="e_wo_entrp">   -125.45734520 </i>
    <i name="e_0_energy">   -125.45812879 </i>
   </energy>
  </scstep>
  <structure>
   <crystal>
    <varray name="basis" >
     <v>       4.23486422       2.44500000       0.00000000 </v>
     <v>      -4.23486422       2.44500000       0.00000000 </v>
     <v>       0.00000000       0.00000000      15.00000000 </v>
    </varray>
    <i name="volume">    310.62729087 </i>
    <varray name="rec_basis" >
     <v>       0.11806754       0.20449898       0.00000000 </v>
     <v>      -0.11806754       0.20449898       0.00000000 </v>
     <v>       0.00000000       0.00000000       0.06666667 </v>
    </varray>
   </crystal>
   <varray name="positions" >
    <v>       0.00424636       0.00299649       0.10852959 </v>
    <v>       0.35951848       0.00261018       0.10046482 </v>
    <v>       0.00407465       0.35820517       0.10046333 </v>
    <v>       0.64889043       0.64735433       0.10050609 </v>
    <v>       0.32732097       0.32579691       0.10046166 </v>
    <v>       0.68114610       0.00279186       0.10051229 </v>
    <v>       0.00426640       0.67979273       0.10052580 </v>
    <v>       0.16646932       0.33344933       0.33762827 </v>
    <v>       0.33344328       0.16647747       0.33763340 </v>
    <v>       0.16695101       0.83348476       0.33764037 </v>
    <v>       0.33331502       0.66666365       0.33699458 </v>
    <v>       0.66665573       0.33331652       0.33699457 </v>
    <v>       0.83347390       0.16695324       0.33763891 </v>
    <v>       0.66651594       0.83301840       0.33762802 </v>
    <v>       0.83300640       0.66652296       0.33762431 </v>
   </varray>
  </structure>
  <varray name="forces" >
   <v>       0.00952672      -0.00791008      -0.16242611 </v>
   <v>      -0.09549094      -0.04305519      -0.09483284 </v>
   <v>       0.09828995      -0.04557088      -0.09411276 </v>
   <v>      -0.00499105       0.10333572      -0.09942599 </v>
   <v>      -0.00652459      -0.02711829       0.14048970 </v>
   <v>       0.02696760       0.01223390       0.13587041 </v>
   <v>      -0.02743407       0.00898884       0.13430699 </v>
   <v>       0.10687378       0.00951533      -0.02557248 </v>
   <v>      -0.10683977       0.00917853      -0.02636442 </v>
   <v>      -0.04921438      -0.09617735      -0.02764555 </v>
   <v>       0.00305604      -0.00259174       0.09910279 </v>
   <v>      -0.00457207      -0.00162069       0.09912086 </v>
[...]
   <v>       0.00047517      -0.00051569      -0.00166098 </v>
   <v>       0.00059683       0.00039472      -0.00078582 </v>
   <v>       0.00286032       0.00052207      -0.00051404 </v>
   <v>      -0.00394993       0.00185553      -0.00043556 </v>
   <v>       0.00714461       0.00167569       0.00099774 </v>
   <v>      -0.00561359      -0.00018541       0.00101622 </v>
   <v>       0.00165620       0.00167396       0.00101119 </v>
   <v>      -0.00351818      -0.00367777       0.00040815 </v>
   <v>       0.00102637      -0.00327924       0.00039066 </v>
   <v>      -0.00241501       0.00112894       0.00103085 </v>
   <v>      -0.00005014       0.00065850       0.00107378 </v>
   <v>       0.00150962       0.00159386       0.00107081 </v>
  </varray>
  <varray name="stress" >
   <v>     -45.57392278       0.00060336      -0.00424896 </v>
   <v>       0.00060337     -45.56714717      -0.01213707 </v>
   <v>      -0.00424898      -0.01213708      -2.01718650 </v>
  </varray>
  <energy>
   <i name="e_fr_energy">   -127.04557497 </i>
   <i name="e_wo_entrp">   -127.04400779 </i>
   <i name="e_0_energy">   -127.04479138 </i>
  </energy>
  <time name="totalsc">   16.93   17.05</time>
 </calculation>
 <calculation>
  <scstep>
   <time name="dav">    6.00    6.03</time>
   <time name="total">    6.37    6.42</time>
   <energy>
    <i name="alphaZ">     57.26249870 </i>
    <i name="ewald">   4519.25922485 </i>
    <i name="hartreedc">  -6273.92788489 </i>
    <i name="XCdc">    179.55366773 </i>
    <i name="pawpsdc">   5552.84892029 </i>
    <i name="pawaedc">  -5557.18350193 </i>
    <i name="eentropy">     -0.00156718 </i>
    <i name="bandstr">   -506.55448838 </i>
    <i name="atom">   1903.26342058 </i>
    <i name="e_fr_energy">   -125.47971024 </i>
    <i name="e_wo_entrp">   -125.47814306 </i>
    <i name="e_0_energy">   -125.47892665 </i>
   </energy>
  </scstep>
  <scstep>
   <time name="dav">    5.75    5.78</time>
   <time name="total">    5.78    5.82</time>
   <energy>
    <i name="alphaZ">     57.26249870 </i>
    <i name="ewald">   4519.25922485 </i>
    <i name="hartreedc">  -6273.93090592 </i>
    <i name="XCdc">    179.55366398 </i>
    <i name="pawpsdc">   5552.84531804 </i>
    <i name="pawaedc">  -5557.17990308 </i>
    <i name="eentropy">     -0.00156718 </i>
    <i name="bandstr">   -506.55145998 </i>
    <i name="atom">   1903.26342058 </i>
    <i name="e_fr_energy">   -125.47971001 </i>
    <i name="e_wo_entrp">   -125.47814283 </i>
    <i name="e_0_energy">   -125.47892642 </i>
   </energy>
  </scstep>
  <structure>
   <crystal>
    <varray name="basis" >
     <v>       4.23486422       2.44500000       0.00000000 </v>
     <v>      -4.23486422       2.44500000       0.00000000 </v>
     <v>       0.00000000       0.00000000      15.00000000 </v>
    </varray>
    <i name="volume">    310.62729087 </i>
    <varray name="rec_basis" >
     <v>       0.11806754       0.20449898       0.00000000 </v>
     <v>      -0.11806754       0.20449898       0.00000000 </v>
     <v>       0.00000000       0.00000000       0.06666667 </v>
    </varray>
   </crystal>
   <varray name="positions" >
    <v>       0.00435881       0.00290270       0.09982801 </v>
    <v>       0.35946262       0.00289708       0.10075329 </v>
    <v>       0.00436249       0.35799119       0.10075519 </v>
    <v>       0.64924752       0.64778132       0.10075962 </v>
    <v>       0.32761752       0.32615186       0.10058297 </v>
    <v>       0.68109213       0.00289843       0.10057977 </v>
    <v>       0.00436280       0.67961792       0.10057894 </v>
    <v>       0.16648169       0.33323474       0.33845045 </v>
    <v>       0.33318583       0.16653663       0.33845202 </v>
    <v>       0.16653311       0.83325417       0.33845398 </v>
    <v>       0.33319158       0.66656993       0.33835010 </v>
    <v>       0.66652068       0.33323813       0.33835013 </v>
    <v>       0.83320447       0.16658301       0.33845329 </v>
    <v>       0.66651596       0.83321054       0.33844959 </v>
    <v>       0.83315679       0.66656633       0.33844862 </v>
   </varray>
  </structure>
  <varray name="forces" >
   <v>       0.00157598      -0.00249663      -0.00020289 </v>
   <v>       0.00150714       0.00002677      -0.00167850 </v>
   <v>      -0.00266709       0.00117374      -0.00164666 </v>
   <v>       0.00037113      -0.00057787      -0.00171689 </v>
   <v>       0.00049387       0.00052708      -0.00045204 </v>
   <v>       0.00240938       0.00052275      -0.00013476 </v>
   <v>      -0.00341581       0.00170425      -0.00003287 </v>
   <v>       0.00547373       0.00113002       0.00082635 </v>
   <v>      -0.00444431      -0.00018894       0.00086542 </v>
   <v>       0.00135017       0.00082645       0.00088542 </v>
   <v>      -0.00272416      -0.00256386       0.00026213 </v>
   <v>       0.00101613      -0.00222410       0.00024786 </v>
   <v>      -0.00187923       0.00039606       0.00090343 </v>
   <v>       0.00019212       0.00059919       0.00094061 </v>
   <v>       0.00074095       0.00114508       0.00093340 </v>
  </varray>
  <varray name="stress" >
   <v>     -45.57768574       0.00205280      -0.00439276 </v>
   <v>       0.00205280     -45.56107969      -0.01208354 </v>
   <v>      -0.00439276      -0.01208356      -2.01486878 </v>
  </varray>
  <energy>
   <i name="e_fr_energy">   -127.04557531 </i>
   <i name="e_wo_entrp">   -127.04400812 </i>
   <i name="e_0_energy">   -127.04479172 </i>
  </energy>
  <time name="totalsc">   17.10   17.21</time>
 </calculation>
 <calculation>
  <scstep>
   <time name="dav">    6.72    6.76</time>
   <time name="total">    7.09    7.15</time>
   <energy>
    <i name="alphaZ">     57.26249870 </i>
    <i name="ewald">   4518.80617156 </i>
    <i name="hartreedc">  -6273.47965544 </i>
    <i name="XCdc">    179.55349275 </i>
    <i name="pawpsdc">   5552.84373161 </i>
    <i name="pawaedc">  -5557.17831766 </i>
    <i name="eentropy">     -0.00156719 </i>
    <i name="bandstr">   -506.54956389 </i>
    <i name="atom">   1903.26342058 </i>
    <i name="e_fr_energy">   -125.47978899 </i>
    <i name="e_wo_entrp">   -125.47822179 </i>
    <i name="e_0_energy">   -125.47900539 </i>
   </energy>
  </scstep>
  <scstep>
   <time name="dav">    8.44    8.49</time>
   <time name="total">    8.47    8.52</time>
   <energy>
    <i name="alphaZ">     57.26249870 </i>
    <i name="ewald">   4518.80617156 </i>
    <i name="hartreedc">  -6273.47749662 </i>
    <i name="XCdc">    179.55355117 </i>
    <i name="pawpsdc">   5552.86236606 </i>
    <i name="pawaedc">  -5557.19695150 </i>
    <i name="eentropy">     -0.00156719 </i>
    <i name="bandstr">   -506.55178170 </i>
    <i name="atom">   1903.26342058 </i>
    <i name="e_fr_energy">   -125.47978894 </i>
    <i name="e_wo_entrp">   -125.47822175 </i>
    <i name="e_0_energy">   -125.47900534 </i>
   </energy>
  </scstep>
  <structure>
   <crystal>
    <varray name="basis" >
     <v>       4.23486422       2.44500000       0.00000000 </v>
     <v>      -4.23486422       2.44500000       0.00000000 </v>
     <v>       0.00000000       0.00000000      15.00000000 </v>
    </varray>
    <i name="volume">    310.62729087 </i>
    <varray name="rec_basis" >
     <v>       0.11806754       0.20449898       0.00000000 </v>
     <v>      -0.11806754       0.20449898       0.00000000 </v>
     <v>       0.00000000       0.00000000       0.06666667 </v>
    </varray>
   </crystal>
   <varray name="positions" >
    <v>       0.00436644       0.00291286       0.09983179 </v>
    <v>       0.35946559       0.00290340       0.10073882 </v>
    <v>       0.00436851       0.35798851       0.10074077 </v>
    <v>       0.64924829       0.64778265       0.10074512 </v>
    <v>       0.32761705       0.32615174       0.10057452 </v>
    <v>       0.68109387       0.00290210       0.10057150 </v>
    <v>       0.00436656       0.67961370       0.10057073 </v>
    <v>       0.16647883       0.33323127       0.33845861 </v>
    <v>       0.33318126       0.16653603       0.33846018 </v>
    <v>       0.16652861       0.83324824       0.33846224 </v>
    <v>       0.33319024       0.66657156       0.33835772 </v>
    <v>       0.66652302       0.33323731       0.33835772 </v>
    <v>       0.83319754       0.16657878       0.33846158 </v>
    <v>       0.66651711       0.83320823       0.33845784 </v>
    <v>       0.83315108       0.66656762       0.33845688 </v>
   </varray>
  </structure>
  <varray name="forces" >
   <v>       0.00226327      -0.00391184      -0.00030703 </v>
   <v>       0.00202470      -0.00036158      -0.00114874 </v>
   <v>      -0.00378262       0.00137956      -0.00112148 </v>
   <v>       0.00059993      -0.00008315      -0.00119086 </v>
   <v>       0.00071019       0.00106842      -0.00126288 </v>
   <v>       0.00291982       0.00038057      -0.00097527 </v>
   <v>      -0.00451177       0.00211804      -0.00089224 </v>
   <v>       0.00460800       0.00149653       0.00093522 </v>
   <v>      -0.00306169      -0.00000726       0.00096850 </v>
   <v>       0.00021392       0.00198769       0.00096275 </v>
   <v>      -0.00172690      -0.00349640       0.00050569 </v>
   <v>      -0.00072831      -0.00344658       0.00049999 </v>
   <v>      -0.00098058       0.00178936       0.00097243 </v>
   <v>      -0.00168593      -0.00008591       0.00103244 </v>
   <v>       0.00313797       0.00117256       0.00102147 </v>
  </varray>
  <varray name="stress" >
   <v>     -45.57576247       0.00171528      -0.00435608 </v>
   <v>       0.00171528     -45.56373359      -0.01200520 </v>
   <v>      -0.00435607      -0.01200518      -2.01987764 </v>
  </varray>
  <energy>
   <i name="e_fr_energy">   -127.04557639 </i>
   <i name="e_wo_entrp">   -127.04400919 </i>
   <i name="e_0_energy">   -127.04479279 </i>
  </energy>
  <time name="totalsc">   20.50   20.63</time>
 </calculation>
 <calculation>
  <scstep>
   <time name="dav">    5.76    5.79</time>
   <time name="total">    6.13    6.17</time>
   <energy>
    <i name="alphaZ">     57.26249870 </i>
    <i name="ewald">   4517.44711649 </i>
    <i name="hartreedc">  -6272.11954176 </i>
    <i name="XCdc">    179.55304930 </i>
    <i name="pawpsdc">   5552.85455872 </i>
    <i name="pawaedc">  -5557.18914360 </i>
    <i name="eentropy">     -0.00156715 </i>
    <i name="bandstr">   -506.55041402 </i>
    <i name="atom">   1903.26342058 </i>
    <i name="e_fr_energy">   -125.48002275 </i>
    <i name="e_wo_entrp">   -125.47845560 </i>
    <i name="e_0_energy">   -125.47923917 </i>
   </energy>
  </scstep>
  <scstep>
   <time name="dav">    6.76    6.80</time>
   <time name="total">    7.14    7.20</time>
   <energy>
    <i name="e_fr_energy">   -125.48002235 </i>
    <i name="e_wo_entrp">   -125.47845519 </i>
    <i name="e_0_energy">   -125.47923877 </i>
   </energy>
  </scstep>
  <scstep>
   <time name="dav">    7.08    7.12</time>
   <time name="total">    7.11    7.15</time>
   <energy>
    <i name="alphaZ">     57.26249870 </i>
    <i name="ewald">   4517.44711649 </i>
    <i name="hartreedc">  -6272.11078575 </i>
    <i name="XCdc">    179.55322739 </i>
    <i name="pawpsdc">   5552.86553248 </i>
    <i name="pawaedc">  -5557.20011416 </i>
    <i name="eentropy">     -0.00156716 </i>
    <i name="bandstr">   -506.55935101 </i>
    <i name="atom">   1903.26342058 </i>
    <i name="e_fr_energy">   -125.48002245 </i>
    <i name="e_wo_entrp">   -125.47845530 </i>
    <i name="e_0_energy">   -125.47923887 </i>
   </energy>
  </scstep>
  <structure>
   <crystal>
    <varray name="basis" >
     <v>       4.23486422       2.44500000       0.00000000 </v>
     <v>      -4.23486422       2.44500000       0.00000000 </v>
     <v>       0.00000000       0.00000000      15.00000000 </v>
    </varray>
    <i name="volume">    310.62729087 </i>
    <varray name="rec_basis" >
     <v>       0.11806754       0.20449898       0.00000000 </v>
     <v>      -0.11806754       0.20449898       0.00000000 </v>
     <v>       0.00000000       0.00000000       0.06666667 </v>
    </varray>
   </crystal>
   <varray name="positions" >
    <v>       0.00438935       0.00294333       0.09984310 </v>
    <v>       0.35947448       0.00292237       0.10069540 </v>
    <v>       0.00438657       0.35798045       0.10069748 </v>
    <v>       0.64925058       0.64778665       0.10070160 </v>
    <v>       0.32761564       0.32615138       0.10054915 </v>
    <v>       0.68109908       0.00291311       0.10054667 </v>
    <v>       0.00437785       0.67960103       0.10054612 </v>
    <v>       0.16647027       0.33322084       0.33848307 </v>
    <v>       0.33316754       0.16653425       0.33848468 </v>
    <v>       0.16651512       0.83323045       0.33848703 </v>
    <v>       0.33318622       0.66657645       0.33838055 </v>
    <v>       0.66653004       0.33323484       0.33838050 </v>
    <v>       0.83317673       0.16656609       0.33848644 </v>
    <v>       0.66652057       0.83320128       0.33848259 </v>
    <v>       0.83313396       0.66657147       0.33848163 </v>
   </varray>
  </structure>
  <varray name="forces" >
   <v>       0.00478731      -0.00874963       0.00026096 </v>
   <v>       0.00374617      -0.00163334       0.00102357 </v>
   <v>      -0.00737221       0.00207012       0.00103519 </v>
   <v>       0.00141647       0.00177730       0.00098400 </v>
   <v>       0.00158598       0.00352177      -0.00201992 </v>
   <v>       0.00481559      -0.00022025      -0.00179157 </v>
   <v>      -0.00872427       0.00373032      -0.00171311 </v>
   <v>       0.00175774       0.00254927       0.00027595 </v>
   <v>       0.00134830       0.00050544       0.00028492 </v>
   <v>      -0.00333908       0.00549687       0.00023863 </v>
   <v>       0.00142685      -0.00643114       0.00029984 </v>
   <v>      -0.00622373      -0.00729306       0.00031146 </v>
   <v>       0.00179547       0.00602415       0.00020901 </v>
   <v>      -0.00760294      -0.00240071       0.00030719 </v>
   <v>       0.01058234       0.00105288       0.00029389 </v>
  </varray>
  <varray name="stress" >
   <v>     -45.55535300       0.00045863      -0.00458352 </v>
   <v>       0.00045861     -45.57998258      -0.01177307 </v>
   <v>      -0.00458352      -0.01177306      -2.02978976 </v>
  </varray>
  <energy>
   <i name="e_fr_energy">   -127.04557645 </i>
   <i name="e_wo_entrp">   -127.04400929 </i>
   <i name="e_0_energy">   -127.04479287 </i>
  </energy>
  <time name="totalsc">   25.33   25.50</time>
 </calculation>
 <calculation>
  <scstep>
   <time name="dav">    5.76    5.79</time>
   <time name="total">    6.13    6.18</time>
   <energy>
    <i name="alphaZ">     57.26249870 </i>
    <i name="ewald">   4518.24563018 </i>
    <i name="hartreedc">  -6272.91396119 </i>
    <i name="XCdc">    179.55348893 </i>
    <i name="pawpsdc">   5552.85620609 </i>
    <i name="pawaedc">  -5557.19079018 </i>
    <i name="eentropy">     -0.00156719 </i>
    <i name="bandstr">   -506.55481216 </i>
    <i name="atom">   1903.26342058 </i>
    <i name="e_fr_energy">   -125.47988624 </i>
    <i name="e_wo_entrp">   -125.47831905 </i>
    <i name="e_0_energy">   -125.47910265 </i>
   </energy>
  </scstep>
  <scstep>
   <time name="dav">    7.92    7.97</time>
   <time name="total">    8.30    8.36</time>
   <energy>
    <i name="e_fr_energy">   -125.47988617 </i>
    <i name="e_wo_entrp">   -125.47831898 </i>
    <i name="e_0_energy">   -125.47910257 </i>
   </energy>
  </scstep>
  <scstep>
   <time name="dav">    8.14    8.18</time>
   <time name="total">    8.18    8.23</time>
   <energy>
    <i name="alphaZ">     57.26249870 </i>
    <i name="ewald">   4518.24563018 </i>
    <i name="hartreedc">  -6272.92701416 </i>
    <i name="XCdc">    179.55339095 </i>
    <i name="pawpsdc">   5552.82254958 </i>
    <i name="pawaedc">  -5557.15713732 </i>
    <i name="eentropy">     -0.00156719 </i>
    <i name="bandstr">   -506.54165747 </i>
    <i name="atom">   1903.26342058 </i>
    <i name="e_fr_energy">   -125.47988615 </i>
    <i name="e_wo_entrp">   -125.47831896 </i>
    <i name="e_0_energy">   -125.47910256 </i>
   </energy>
  </scstep>
  <structure>
   <crystal>
    <varray name="basis" >
     <v>       4.23486422       2.44500000       0.00000000 </v>
     <v>      -4.23486422       2.44500000       0.00000000 </v>
     <v>       0.00000000       0.00000000      15.00000000 </v>
    </varray>
    <i name="volume">    310.62729087 </i>
    <varray name="rec_basis" >
     <v>       0.11806754       0.20449898       0.00000000 </v>
     <v>      -0.11806754       0.20449898       0.00000000 </v>
     <v>       0.00000000       0.00000000       0.06666667 </v>
    </varray>
   </crystal>
   <varray name="positions" >
    <v>       0.00437589       0.00292543       0.09983645 </v>
    <v>       0.35946926       0.00291123       0.10072091 </v>
    <v>       0.00437596       0.35798518       0.10072291 </v>
    <v>       0.64924923       0.64778430       0.10072717 </v>
    <v>       0.32761647       0.32615159       0.10056405 </v>
    <v>       0.68109602       0.00290664       0.10056126 </v>
    <v>       0.00437122       0.67960847       0.10056058 </v>
    <v>       0.16647530       0.33322697       0.33846869 </v>
    <v>       0.33317560       0.16653530       0.33847029 </v>
    <v>       0.16652304       0.83324090       0.33847247 </v>
    <v>       0.33318858       0.66657358       0.33836714 </v>
    <v>       0.66652591       0.33323629       0.33836711 </v>
    <v>       0.83318896       0.16657355       0.33847183 </v>
    <v>       0.66651854       0.83320536       0.33846805 </v>
    <v>       0.83314402       0.66656921       0.33846709 </v>
   </varray>
  </structure>
  <varray name="forces" >
   <v>       0.00334791      -0.00588181      -0.00010883 </v>
   <v>       0.00268665      -0.00080405      -0.00041570 </v>
   <v>      -0.00513671       0.00168050      -0.00039505 </v>
   <v>       0.00091399       0.00062090      -0.00046586 </v>
   <v>       0.00102236       0.00217663      -0.00204358 </v>
   <v>       0.00362888       0.00026955      -0.00176296 </v>
   <v>      -0.00618100       0.00287187      -0.00172392 </v>
   <v>       0.00332097       0.00182961       0.00090243 </v>
   <v>      -0.00117946       0.00014479       0.00092733 </v>
   <v>      -0.00133273       0.00330477       0.00090416 </v>
   <v>      -0.00035850      -0.00466589       0.00065529 </v>
   <v>      -0.00302032      -0.00499617       0.00066254 </v>
   <v>       0.00025083       0.00342213       0.00089524 </v>
   <v>      -0.00412111      -0.00105756       0.00099796 </v>
   <v>       0.00615823       0.00108473       0.00097096 </v>
  </varray>
  <varray name="stress" >
   <v>     -45.56154723       0.00094941      -0.00445369 </v>
   <v>       0.00094939     -45.57609373      -0.01182228 </v>
   <v>      -0.00445368      -0.01182226      -2.02403164 </v>
  </varray>
  <energy>
   <i name="e_fr_energy">   -127.04557729 </i>
   <i name="e_wo_entrp">   -127.04401010 </i>
   <i name="e_0_energy">   -127.04479370 </i>
  </energy>
  <time name="totalsc">   27.54   27.73</time>
 </calculation>
 <calculation>
  <scstep>
   <time name="dav">    5.87    5.91</time>
   <time name="total">    6.24    6.29</time>
   <energy>
    <i name="alphaZ">     57.26249870 </i>
    <i name="ewald">   4517.85526914 </i>
    <i name="hartreedc">  -6272.53599782 </i>
    <i name="XCdc">    179.55329928 </i>
    <i name="pawpsdc">   5552.82702101 </i>
    <i name="pawaedc">  -5557.16160741 </i>
    <i name="eentropy">     -0.00156719 </i>
    <i name="bandstr">   -506.54229182 </i>
    <i name="atom">   1903.26342058 </i>
    <i name="e_fr_energy">   -125.47995553 </i>
    <i name="e_wo_entrp">   -125.47838834 </i>
    <i name="e_0_energy">   -125.47917194 </i>
   </energy>
  </scstep>
  <scstep>
