  15  15   0  16
  0.2053944E+02  0.4870000E-09  0.4870000E-09  0.1500000E-08  0.5000000E-15
  1.000000000000000E-004
  CAR 
 Lattice                                 
     10.25465435    -21.63733084  301     -0.38897319      1.00000000
    -21.637  0.0000E+00  0.0000E+00  0.0000E+00  0.0000E+00
    -21.531  0.0000E+00  0.0000E+00  0.0000E+00  0.0000E+00
    -21.425  0.0000E+00  0.0000E+00  0.0000E+00  0.0000E+00
    -21.318  0.0000E+00  0.0000E+00  0.0000E+00  0.0000E+00
    -21.212  0.0000E+00  0.0000E+00  0.0000E+00  0.0000E+00
    -21.106  0.0000E+00  0.0000E+00  0.0000E+00  0.0000E+00
    -20.999  0.0000E+00  0.0000E+00  0.0000E+00  0.0000E+00
    -20.893  0.0000E+00  0.0000E+00  0.0000E+00  0.0000E+00
    -20.787  0.0000E+00  0.0000E+00  0.0000E+00  0.0000E+00
    -20.681  0.8668E-15  0.8668E-15  0.9215E-16  0.9215E-16
    -20.574  0.1376E-10  0.1376E-10  0.1463E-11  0.1463E-11
    -20.468  0.2678E-07  0.2678E-07  0.2849E-08  0.2849E-08
    -20.362  0.7014E-05  0.7014E-05  0.7485E-06  0.7484E-06
    -20.255  0.2756E-03  0.2756E-03  0.3004E-04  0.3004E-04
    -20.149  0.1990E-02  0.1990E-02  0.2416E-03  0.2416E-03
    -20.043  0.4178E-02  0.4178E-02  0.6857E-03  0.6857E-03
    -19.936  0.4562E-02  0.4562E-02  0.1171E-02  0.1171E-02
    -19.830  0.4963E-02  0.4963E-02  0.1698E-02  0.1698E-02
    -19.724  0.4204E-02  0.4204E-02  0.2145E-02  0.2145E-02
    -19.618  0.5423E-02  0.5423E-02  0.2722E-02  0.2722E-02
    -19.511  0.4214E-02  0.4214E-02  0.3170E-02  0.3170E-02
    -19.405  0.4356E-02  0.4356E-02  0.3633E-02  0.3633E-02
    -19.299  0.6025E-02  0.6025E-02  0.4273E-02  0.4273E-02
    -19.192  0.3769E-02  0.3769E-02  0.4674E-02  0.4674E-02
    -19.086  0.4024E-02  0.4024E-02  0.5102E-02  0.5102E-02
    -18.980  0.6172E-02  0.6172E-02  0.5758E-02  0.5758E-02
    -18.873  0.5152E-02  0.5152E-02  0.6305E-02  0.6305E-02
    -18.767  0.2919E-02  0.2919E-02  0.6616E-02  0.6616E-02
    -18.661  0.4651E-02  0.4651E-02  0.7110E-02  0.7110E-02
    -18.554  0.6895E-02  0.6895E-02  0.7843E-02  0.7843E-02
    -18.448  0.4484E-02  0.4484E-02  0.8320E-02  0.8320E-02
    -18.342  0.3757E-02  0.3757E-02  0.8719E-02  0.8719E-02
    -18.236  0.3138E-02  0.3138E-02  0.9053E-02  0.9053E-02
    -18.129  0.6921E-02  0.6921E-02  0.9789E-02  0.9789E-02
    -18.023  0.6410E-02  0.6410E-02  0.1047E-01  0.1047E-01
    -17.917  0.3374E-02  0.3374E-02  0.1083E-01  0.1083E-01
    -17.810  0.3450E-02  0.3450E-02  0.1120E-01  0.1120E-01
    -17.704  0.4220E-02  0.4220E-02  0.1164E-01  0.1164E-01
    -17.598  0.6527E-02  0.6527E-02  0.1234E-01  0.1234E-01
    -17.491  0.6614E-02  0.6614E-02  0.1304E-01  0.1304E-01
    -17.385  0.5496E-02  0.5496E-02  0.1363E-01  0.1363E-01
    -17.279  0.6576E-02  0.6576E-02  0.1432E-01  0.1432E-01
    -17.172  0.1088E-01  0.1088E-01  0.1548E-01  0.1548E-01
    -17.066  0.1503E-01  0.1503E-01  0.1708E-01  0.1708E-01
    -16.960  0.1583E-01  0.1583E-01  0.1876E-01  0.1876E-01
    -16.854  0.1773E-01  0.1773E-01  0.2065E-01  0.2065E-01
    -16.747  0.2133E-01  0.2133E-01  0.2291E-01  0.2291E-01
    -16.641  0.1479E-01  0.1479E-01  0.2449E-01  0.2449E-01
    -16.535  0.4706E-02  0.4706E-02  0.2499E-01  0.2499E-01
    -16.428  0.8115E-02  0.8115E-02  0.2585E-01  0.2585E-01
    -16.322  0.7485E-02  0.7485E-02  0.2665E-01  0.2665E-01
    -16.216  0.4488E-02  0.4488E-02  0.2712E-01  0.2712E-01
    -16.109  0.4063E-02  0.4063E-02  0.2755E-01  0.2755E-01
    -16.003  0.4031E-02  0.4031E-02  0.2798E-01  0.2798E-01
    -15.897  0.3550E-02  0.3550E-02  0.2836E-01  0.2836E-01
    -15.790  0.4394E-02  0.4394E-02  0.2883E-01  0.2883E-01
    -15.684  0.8810E-02  0.8810E-02  0.2976E-01  0.2976E-01
    -15.578  0.7177E-02  0.7177E-02  0.3053E-01  0.3053E-01
    -15.472  0.3782E-02  0.3782E-02  0.3093E-01  0.3093E-01
    -15.365  0.3824E-02  0.3824E-02  0.3134E-01  0.3134E-01
    -15.259  0.3632E-02  0.3632E-02  0.3172E-01  0.3172E-01
    -15.153  0.4924E-02  0.4924E-02  0.3225E-01  0.3225E-01
    -15.046  0.6727E-02  0.6727E-02  0.3296E-01  0.3296E-01
    -14.940  0.1134E-01  0.1134E-01  0.3417E-01  0.3417E-01
    -14.834  0.1645E-01  0.1645E-01  0.3591E-01  0.3591E-01
    -14.727  0.1848E-01  0.1848E-01  0.3788E-01  0.3788E-01
    -14.621  0.1703E-01  0.1703E-01  0.3969E-01  0.3969E-01
    -14.515  0.9901E-02  0.9901E-02  0.4074E-01  0.4074E-01
    -14.408  0.8908E-02  0.8908E-02  0.4169E-01  0.4169E-01
    -14.302  0.1699E-01  0.1699E-01  0.4349E-01  0.4349E-01
    -14.196  0.1359E-01  0.1359E-01  0.4494E-01  0.4494E-01
    -14.090  0.1022E-01  0.1022E-01  0.4603E-01  0.4603E-01
    -13.983  0.1083E-01  0.1083E-01  0.4718E-01  0.4718E-01
    -13.877  0.1349E-01  0.1349E-01  0.4861E-01  0.4861E-01
    -13.771  0.2058E-01  0.2058E-01  0.5080E-01  0.5080E-01
    -13.664  0.2013E-01  0.2013E-01  0.5294E-01  0.5294E-01
    -13.558  0.1730E-01  0.1730E-01  0.5478E-01  0.5478E-01
    -13.452  0.9801E-02  0.9801E-02  0.5582E-01  0.5582E-01
    -13.345  0.6373E-02  0.6373E-02  0.5650E-01  0.5650E-01
    -13.239  0.3360E-02  0.3360E-02  0.5686E-01  0.5686E-01
    -13.133  0.4676E-02  0.4676E-02  0.5735E-01  0.5735E-01
    -13.026  0.7380E-02  0.7380E-02  0.5814E-01  0.5814E-01
    -12.920  0.6294E-02  0.6294E-02  0.5881E-01  0.5881E-01
    -12.814  0.5114E-02  0.5114E-02  0.5935E-01  0.5935E-01
    -12.708  0.7645E-02  0.7645E-02  0.6016E-01  0.6016E-01
    -12.601  0.6536E-02  0.6536E-02  0.6086E-01  0.6086E-01
    -12.495  0.5589E-02  0.5589E-02  0.6145E-01  0.6145E-01
    -12.389  0.5029E-02  0.5029E-02  0.6199E-01  0.6199E-01
    -12.282  0.3318E-02  0.3318E-02  0.6234E-01  0.6234E-01
    -12.176  0.7711E-02  0.7711E-02  0.6316E-01  0.6316E-01
    -12.070  0.7113E-02  0.7113E-02  0.6392E-01  0.6392E-01
    -11.963  0.2714E-02  0.2714E-02  0.6420E-01  0.6420E-01
    -11.857  0.3546E-02  0.3546E-02  0.6458E-01  0.6458E-01
    -11.751  0.3804E-02  0.3804E-02  0.6499E-01  0.6499E-01
    -11.645  0.6998E-02  0.6998E-02  0.6573E-01  0.6573E-01
    -11.538  0.5889E-02  0.5889E-02  0.6636E-01  0.6636E-01
    -11.432  0.2893E-02  0.2893E-02  0.6666E-01  0.6666E-01
    -11.326  0.2465E-02  0.2465E-02  0.6692E-01  0.6692E-01
    -11.219  0.5055E-02  0.5055E-02  0.6746E-01  0.6746E-01
    -11.113  0.5781E-02  0.5781E-02  0.6808E-01  0.6808E-01
    -11.007  0.5014E-02  0.5014E-02  0.6861E-01  0.6861E-01
    -10.900  0.7740E-02  0.7740E-02  0.6943E-01  0.6943E-01
    -10.794  0.5208E-02  0.5208E-02  0.6999E-01  0.6999E-01
    -10.688  0.2662E-02  0.2661E-02  0.7027E-01  0.7027E-01
    -10.581  0.8248E-02  0.8248E-02  0.7115E-01  0.7115E-01
    -10.475  0.1301E-01  0.1301E-01  0.7253E-01  0.7253E-01
    -10.369  0.1487E-01  0.1487E-01  0.7411E-01  0.7411E-01
    -10.263  0.1360E-01  0.1360E-01  0.7556E-01  0.7556E-01
    -10.156  0.1478E-01  0.1478E-01  0.7713E-01  0.7713E-01
    -10.050  0.1927E-01  0.1927E-01  0.7917E-01  0.7917E-01
     -9.944  0.1948E-01  0.1948E-01  0.8125E-01  0.8125E-01
     -9.837  0.9059E-02  0.9059E-02  0.8221E-01  0.8221E-01
     -9.731  0.6045E-02  0.6045E-02  0.8285E-01  0.8285E-01
     -9.625  0.1494E-01  0.1494E-01  0.8444E-01  0.8444E-01
     -9.518  0.1751E-01  0.1751E-01  0.8630E-01  0.8630E-01
     -9.412  0.1609E-01  0.1609E-01  0.8801E-01  0.8801E-01
     -9.306  0.1336E-01  0.1336E-01  0.8943E-01  0.8943E-01
     -9.199  0.1421E-01  0.1421E-01  0.9094E-01  0.9094E-01
     -9.093  0.1160E-01  0.1160E-01  0.9217E-01  0.9217E-01
     -8.987  0.9670E-02  0.9670E-02  0.9320E-01  0.9320E-01
     -8.881  0.1421E-01  0.1421E-01  0.9471E-01  0.9471E-01
     -8.774  0.1926E-01  0.1926E-01  0.9676E-01  0.9676E-01
     -8.668  0.1578E-01  0.1578E-01  0.9844E-01  0.9844E-01
     -8.562  0.7750E-02  0.7750E-02  0.9926E-01  0.9926E-01
     -8.455  0.1208E-01  0.1208E-01  0.1005E+00  0.1005E+00
     -8.349  0.2020E-01  0.2020E-01  0.1027E+00  0.1027E+00
     -8.243  0.1701E-01  0.1701E-01  0.1045E+00  0.1045E+00
     -8.136  0.1178E-01  0.1178E-01  0.1058E+00  0.1058E+00
     -8.030  0.1644E-01  0.1644E-01  0.1075E+00  0.1075E+00
     -7.924  0.2668E-01  0.2668E-01  0.1103E+00  0.1103E+00
     -7.817  0.2489E-01  0.2489E-01  0.1130E+00  0.1130E+00
     -7.711  0.1804E-01  0.1804E-01  0.1149E+00  0.1149E+00
     -7.605  0.1033E-01  0.1033E-01  0.1160E+00  0.1160E+00
     -7.499  0.1050E-01  0.1050E-01  0.1171E+00  0.1171E+00
     -7.392  0.1862E-01  0.1862E-01  0.1191E+00  0.1191E+00
     -7.286  0.1800E-01  0.1800E-01  0.1210E+00  0.1210E+00
     -7.180  0.1159E-01  0.1159E-01  0.1222E+00  0.1222E+00
     -7.073  0.1053E-01  0.1053E-01  0.1234E+00  0.1234E+00
     -6.967  0.1697E-01  0.1697E-01  0.1252E+00  0.1252E+00
     -6.861  0.1956E-01  0.1956E-01  0.1272E+00  0.1272E+00
     -6.754  0.2186E-01  0.2186E-01  0.1296E+00  0.1296E+00
     -6.648  0.1890E-01  0.1890E-01  0.1316E+00  0.1316E+00
     -6.542  0.1618E-01  0.1618E-01  0.1333E+00  0.1333E+00
     -6.435  0.2013E-01  0.2013E-01  0.1354E+00  0.1354E+00
     -6.329  0.1816E-01  0.1816E-01  0.1374E+00  0.1374E+00
     -6.223  0.2113E-01  0.2113E-01  0.1396E+00  0.1396E+00
     -6.117  0.2570E-01  0.2570E-01  0.1423E+00  0.1423E+00
     -6.010  0.2148E-01  0.2148E-01  0.1446E+00  0.1446E+00
     -5.904  0.3255E-01  0.3255E-01  0.1481E+00  0.1481E+00
     -5.798  0.2914E-01  0.2914E-01  0.1512E+00  0.1512E+00
     -5.691  0.1568E-01  0.1568E-01  0.1529E+00  0.1529E+00
     -5.585  0.1753E-01  0.1753E-01  0.1547E+00  0.1547E+00
     -5.479  0.3338E-01  0.3338E-01  0.1583E+00  0.1583E+00
     -5.372  0.3715E-01  0.3715E-01  0.1622E+00  0.1622E+00
     -5.266  0.2323E-01  0.2323E-01  0.1647E+00  0.1647E+00
     -5.160  0.1559E-01  0.1559E-01  0.1663E+00  0.1663E+00
     -5.053  0.1146E-01  0.1146E-01  0.1676E+00  0.1676E+00
     -4.947  0.1269E-01  0.1269E-01  0.1689E+00  0.1689E+00
     -4.841  0.1346E-01  0.1346E-01  0.1703E+00  0.1703E+00
     -4.735  0.9191E-02  0.9191E-02  0.1713E+00  0.1713E+00
     -4.628  0.7328E-02  0.7328E-02  0.1721E+00  0.1721E+00
     -4.522  0.1133E-01  0.1133E-01  0.1733E+00  0.1733E+00
     -4.416  0.1952E-01  0.1952E-01  0.1754E+00  0.1754E+00
     -4.309  0.2044E-01  0.2044E-01  0.1775E+00  0.1775E+00
     -4.203  0.1898E-01  0.1898E-01  0.1796E+00  0.1796E+00
     -4.097  0.1917E-01  0.1917E-01  0.1816E+00  0.1816E+00
     -3.990  0.2232E-01  0.2232E-01  0.1840E+00  0.1840E+00
     -3.884  0.2137E-01  0.2137E-01  0.1862E+00  0.1862E+00
     -3.778  0.1787E-01  0.1787E-01  0.1881E+00  0.1881E+00
     -3.672  0.1869E-01  0.1869E-01  0.1901E+00  0.1901E+00
     -3.565  0.2071E-01  0.2071E-01  0.1923E+00  0.1923E+00
     -3.459  0.1539E-01  0.1539E-01  0.1940E+00  0.1940E+00
     -3.353  0.1369E-01  0.1369E-01  0.1954E+00  0.1954E+00
     -3.246  0.1286E-01  0.1286E-01  0.1968E+00  0.1968E+00
     -3.140  0.1699E-01  0.1699E-01  0.1986E+00  0.1986E+00
     -3.034  0.1845E-01  0.1845E-01  0.2006E+00  0.2006E+00
     -2.927  0.1198E-01  0.1198E-01  0.2018E+00  0.2018E+00
     -2.821  0.1151E-01  0.1151E-01  0.2031E+00  0.2031E+00
     -2.715  0.7484E-02  0.7484E-02  0.2039E+00  0.2039E+00
     -2.608  0.1055E-01  0.1055E-01  0.2050E+00  0.2050E+00
     -2.502  0.2014E-01  0.2014E-01  0.2071E+00  0.2071E+00
     -2.396  0.1345E-01  0.1345E-01  0.2085E+00  0.2085E+00
     -2.290  0.4107E-02  0.4107E-02  0.2090E+00  0.2090E+00
     -2.183  0.5057E-02  0.5056E-02  0.2095E+00  0.2095E+00
     -2.077  0.1050E-01  0.1050E-01  0.2106E+00  0.2106E+00
     -1.971  0.1069E-01  0.1069E-01  0.2118E+00  0.2118E+00
     -1.864  0.1148E-01  0.1148E-01  0.2130E+00  0.2130E+00
     -1.758  0.1169E-01  0.1169E-01  0.2142E+00  0.2142E+00
     -1.652  0.8942E-02  0.8942E-02  0.2152E+00  0.2152E+00
     -1.545  0.6977E-02  0.6977E-02  0.2159E+00  0.2159E+00
     -1.439  0.4588E-02  0.4589E-02  0.2164E+00  0.2164E+00
     -1.333  0.3865E-02  0.3865E-02  0.2168E+00  0.2168E+00
     -1.226  0.3973E-02  0.3973E-02  0.2172E+00  0.2172E+00
     -1.120  0.4600E-02  0.4600E-02  0.2177E+00  0.2177E+00
     -1.014  0.5704E-02  0.5704E-02  0.2183E+00  0.2183E+00
     -0.908  0.2255E-02  0.2255E-02  0.2186E+00  0.2186E+00
     -0.801  0.4892E-03  0.4892E-03  0.2186E+00  0.2186E+00
     -0.695  0.4816E-04  0.4817E-04  0.2186E+00  0.2186E+00
     -0.589  0.6262E-05  0.6262E-05  0.2186E+00  0.2186E+00
     -0.482  0.1921E-03  0.1921E-03  0.2187E+00  0.2187E+00
     -0.376  0.9693E-03  0.9693E-03  0.2188E+00  0.2188E+00
     -0.270  0.7758E-03  0.7758E-03  0.2188E+00  0.2188E+00
     -0.163  0.9696E-04  0.9696E-04  0.2189E+00  0.2189E+00
     -0.057  0.1703E-05  0.1703E-05  0.2189E+00  0.2189E+00
      0.049  0.2271E-05  0.2271E-05  0.2189E+00  0.2189E+00
      0.156  0.1820E-03  0.1820E-03  0.2189E+00  0.2189E+00
      0.262  0.1959E-02  0.1959E-02  0.2191E+00  0.2191E+00
      0.368  0.3168E-02  0.3168E-02  0.2194E+00  0.2194E+00
      0.474  0.1041E-02  0.1041E-02  0.2195E+00  0.2195E+00
      0.581  0.1590E-02  0.1590E-02  0.2197E+00  0.2197E+00
      0.687  0.3138E-02  0.3138E-02  0.2200E+00  0.2200E+00
      0.793  0.5425E-02  0.5425E-02  0.2206E+00  0.2206E+00
      0.900  0.1256E-01  0.1256E-01  0.2219E+00  0.2219E+00
      1.006  0.2679E-01  0.2679E-01  0.2248E+00  0.2248E+00
      1.112  0.1735E-01  0.1735E-01  0.2266E+00  0.2266E+00
      1.219  0.4508E-02  0.4508E-02  0.2271E+00  0.2271E+00
      1.325  0.5172E-02  0.5172E-02  0.2277E+00  0.2277E+00
      1.431  0.9690E-02  0.9690E-02  0.2287E+00  0.2287E+00
      1.538  0.1419E-01  0.1419E-01  0.2302E+00  0.2302E+00
      1.644  0.2057E-01  0.2057E-01  0.2324E+00  0.2324E+00
      1.750  0.1276E-01  0.1276E-01  0.2338E+00  0.2338E+00
      1.856  0.5481E-02  0.5481E-02  0.2343E+00  0.2343E+00
      1.963  0.8398E-02  0.8398E-02  0.2352E+00  0.2352E+00
      2.069  0.9150E-02  0.9150E-02  0.2362E+00  0.2362E+00
      2.175  0.7096E-02  0.7096E-02  0.2370E+00  0.2370E+00
      2.282  0.8421E-02  0.8421E-02  0.2378E+00  0.2378E+00
      2.388  0.8812E-02  0.8812E-02  0.2388E+00  0.2388E+00
      2.494  0.1220E-01  0.1220E-01  0.2401E+00  0.2401E+00
      2.601  0.8515E-02  0.8515E-02  0.2410E+00  0.2410E+00
      2.707  0.5129E-02  0.5129E-02  0.2415E+00  0.2415E+00
      2.813  0.5232E-02  0.5231E-02  0.2421E+00  0.2421E+00
      2.919  0.1086E-01  0.1085E-01  0.2432E+00  0.2432E+00
      3.026  0.1070E-01  0.1070E-01  0.2444E+00  0.2444E+00
      3.132  0.8818E-02  0.8818E-02  0.2453E+00  0.2453E+00
      3.238  0.9798E-02  0.9797E-02  0.2464E+00  0.2464E+00
      3.345  0.1181E-01  0.1181E-01  0.2476E+00  0.2476E+00
      3.451  0.1285E-01  0.1285E-01  0.2490E+00  0.2490E+00
      3.557  0.1964E-01  0.1964E-01  0.2511E+00  0.2511E+00
      3.664  0.2657E-01  0.2657E-01  0.2539E+00  0.2539E+00
      3.770  0.2435E-01  0.2435E-01  0.2565E+00  0.2565E+00
      3.876  0.2215E-01  0.2215E-01  0.2588E+00  0.2588E+00
      3.983  0.2509E-01  0.2509E-01  0.2615E+00  0.2615E+00
      4.089  0.2379E-01  0.2379E-01  0.2640E+00  0.2640E+00
      4.195  0.2371E-01  0.2371E-01  0.2666E+00  0.2666E+00
      4.301  0.2278E-01  0.2279E-01  0.2690E+00  0.2690E+00
      4.408  0.2105E-01  0.2105E-01  0.2712E+00  0.2712E+00
      4.514  0.2179E-01  0.2179E-01  0.2735E+00  0.2735E+00
      4.620  0.2233E-01  0.2232E-01  0.2759E+00  0.2759E+00
      4.727  0.2568E-01  0.2568E-01  0.2786E+00  0.2786E+00
      4.833  0.2244E-01  0.2244E-01  0.2810E+00  0.2810E+00
      4.939  0.2148E-01  0.2148E-01  0.2833E+00  0.2833E+00
      5.046  0.2549E-01  0.2548E-01  0.2860E+00  0.2860E+00
      5.152  0.3075E-01  0.3075E-01  0.2893E+00  0.2893E+00
      5.258  0.2616E-01  0.2616E-01  0.2921E+00  0.2921E+00
      5.365  0.1861E-01  0.1861E-01  0.2940E+00  0.2940E+00
      5.471  0.2263E-01  0.2263E-01  0.2964E+00  0.2964E+00
      5.577  0.2409E-01  0.2410E-01  0.2990E+00  0.2990E+00
      5.683  0.1978E-01  0.1977E-01  0.3011E+00  0.3011E+00
      5.790  0.2395E-01  0.2395E-01  0.3037E+00  0.3037E+00
      5.896  0.2044E-01  0.2045E-01  0.3058E+00  0.3058E+00
      6.002  0.2087E-01  0.2087E-01  0.3081E+00  0.3080E+00
      6.109  0.1662E-01  0.1662E-01  0.3098E+00  0.3098E+00
      6.215  0.1894E-01  0.1893E-01  0.3118E+00  0.3118E+00
      6.321  0.2131E-01  0.2131E-01  0.3141E+00  0.3141E+00
      6.428  0.2362E-01  0.2362E-01  0.3166E+00  0.3166E+00
      6.534  0.2864E-01  0.2864E-01  0.3197E+00  0.3196E+00
      6.640  0.2738E-01  0.2736E-01  0.3226E+00  0.3226E+00
      6.747  0.2961E-01  0.2959E-01  0.3257E+00  0.3257E+00
      6.853  0.2554E-01  0.2555E-01  0.3284E+00  0.3284E+00
      6.959  0.2772E-01  0.2773E-01  0.3314E+00  0.3314E+00
      7.065  0.2422E-01  0.2422E-01  0.3339E+00  0.3339E+00
      7.172  0.2256E-01  0.2255E-01  0.3363E+00  0.3363E+00
      7.278  0.1967E-01  0.1967E-01  0.3384E+00  0.3384E+00
      7.384  0.1839E-01  0.1838E-01  0.3404E+00  0.3404E+00
      7.491  0.2716E-01  0.2715E-01  0.3433E+00  0.3433E+00
      7.597  0.2951E-01  0.2950E-01  0.3464E+00  0.3464E+00
      7.703  0.3374E-01  0.3372E-01  0.3500E+00  0.3500E+00
      7.810  0.2723E-01  0.2722E-01  0.3529E+00  0.3529E+00
      7.916  0.2562E-01  0.2564E-01  0.3556E+00  0.3556E+00
      8.022  0.3454E-01  0.3453E-01  0.3593E+00  0.3593E+00
      8.129  0.4329E-01  0.4330E-01  0.3639E+00  0.3639E+00
      8.235  0.3837E-01  0.3840E-01  0.3680E+00  0.3680E+00
      8.341  0.3037E-01  0.3037E-01  0.3712E+00  0.3712E+00
      8.447  0.1854E-01  0.1855E-01  0.3732E+00  0.3732E+00
      8.554  0.8592E-02  0.8594E-02  0.3741E+00  0.3741E+00
      8.660  0.3186E-02  0.3182E-02  0.3744E+00  0.3744E+00
      8.766  0.2776E-02  0.2777E-02  0.3747E+00  0.3747E+00
      8.873  0.2123E-02  0.2123E-02  0.3749E+00  0.3749E+00
      8.979  0.5105E-03  0.5099E-03  0.3750E+00  0.3750E+00
      9.085  0.2081E-04  0.2077E-04  0.3750E+00  0.3750E+00
      9.192  0.1096E-06  0.1092E-06  0.3750E+00  0.3750E+00
      9.298  0.6722E-10  0.6692E-10  0.3750E+00  0.3750E+00
      9.404  0.4592E-14  0.4566E-14  0.3750E+00  0.3750E+00
      9.511  0.0000E+00  0.0000E+00  0.3750E+00  0.3750E+00
      9.617  0.0000E+00  0.0000E+00  0.3750E+00  0.3750E+00
      9.723  0.0000E+00  0.0000E+00  0.3750E+00  0.3750E+00
      9.829  0.0000E+00  0.0000E+00  0.3750E+00  0.3750E+00
      9.936  0.0000E+00  0.0000E+00  0.3750E+00  0.3750E+00
     10.042  0.0000E+00  0.0000E+00  0.3750E+00  0.3750E+00
     10.148  0.0000E+00  0.0000E+00  0.3750E+00  0.3750E+00
     10.255  0.0000E+00  0.0000E+00  0.3750E+00  0.3750E+00
