Lattice                                 
           1
     4.217544    2.435000    0.000000
    -4.217544    2.435000    0.000000
     0.000000    0.000000   15.000000
   B    C 
     4    11
Direct configuration=     1
   0.00415361  0.00267210  0.12034134
   0.35695335  0.00285503  0.09748893
   0.00423858  0.35550699  0.09749256
   0.65142295  0.65006557  0.09747688
   0.32808646  0.32671938  0.10030508
   0.68027775  0.00278085  0.10027562
   0.00416530  0.67883808  0.10026559
   0.08333267  0.41666633  0.33646667
   0.24999967  0.24999933  0.33646667
   0.08333267  0.91666633  0.33646667
   0.24999967  0.74999933  0.33646667
   0.58333267  0.41666633  0.33646667
   0.74999967  0.24999933  0.33646667
   0.58333267  0.91666633  0.33646667
   0.74999967  0.74999933  0.33646667
Direct configuration=     2
   0.00414033  0.00266490  0.11897048
   0.35553652  0.00283333  0.09785578
   0.00414022  0.35429716  0.09791785
   0.65275869  0.65124121  0.09788841
   0.32433169  0.32273005  0.10030295
   0.68441524  0.00285681  0.10032911
   0.00417031  0.68263790  0.10028048
   0.08331658  0.41677741  0.33646462
   0.25016969  0.25025536  0.33656372
   0.08349606  0.91680115  0.33645478
   0.25030018  0.74995861  0.33643818
   0.58328810  0.41664689  0.33642301
   0.74993458  0.25000630  0.33646270
   0.58308867  0.91661239  0.33653887
   0.74954046  0.74978121  0.33648837
Direct configuration=     3
   0.00414685  0.00266844  0.11964420
   0.35623284  0.00284399  0.09767549
   0.00418856  0.35489174  0.09770884
   0.65210223  0.65066343  0.09768616
   0.32617702  0.32469065  0.10030400
   0.68238183  0.00281948  0.10030282
   0.00416785  0.68077044  0.10027316
   0.08332449  0.41672282  0.33646562
   0.25008613  0.25012953  0.33651602
   0.08341576  0.91673489  0.33646062
   0.25015249  0.74997863  0.33645218
   0.58331000  0.41665644  0.33644447
   0.74996657  0.25000288  0.33646465
   0.58320858  0.91663890  0.33650338
   0.74976614  0.74988841  0.33647770
Direct configuration=     4
   0.00414435  0.00269283  0.11847289
   0.35671914  0.00281463  0.09800888
   0.00415672  0.35534209  0.09809962
   0.65171853  0.65010761  0.09806249
   0.32637107  0.32471290  0.10026772
   0.68232499  0.00285708  0.10031795
   0.00417958  0.68062424  0.10025246
   0.08329049  0.41665886  0.33647090
   0.24988781  0.24998440  0.33659028
   0.08321664  0.91664332  0.33646383
   0.24983230  0.75006662  0.33643116
   0.58331188  0.41668145  0.33641979
   0.74996636  0.25002954  0.33646126
   0.58339844  0.91674858  0.33656428
   0.75010903  0.75013651  0.33649582
Direct configuration=     5
   0.00413705  0.00276406  0.11505235
   0.35813927  0.00272887  0.09898248
   0.00406372  0.35665724  0.09924079
   0.65059801  0.64848449  0.09916148
   0.32693775  0.32477790  0.10016177
   0.68215903  0.00296690  0.10036213
   0.00421383  0.68019731  0.10019199
   0.08319122  0.41647206  0.33648629
   0.24930865  0.24956057  0.33680713
   0.08263518  0.91637590  0.33647319
   0.24889725  0.75032358  0.33636978
   0.58331737  0.41675449  0.33634773
   0.74996575  0.25010742  0.33645138
   0.58395288  0.91706886  0.33674213
   0.75111038  0.75086103  0.33654872
Direct configuration=     6
   0.00414053  0.00276812  0.11469109
   0.35826507  0.00271912  0.09906779
   0.00406656  0.35676251  0.09933971
   0.65050410  0.64834916  0.09925692
   0.32702420  0.32483028  0.10017137
   0.68209541  0.00296362  0.10038465
   0.00422081  0.68012224  0.10020573
   0.08318721  0.41653292  0.33648922
   0.24938551  0.24963476  0.33682063
   0.08271779  0.91646370  0.33647757
   0.24904273  0.75030011  0.33636840
   0.58328919  0.41677282  0.33634703
   0.74995140  0.25011218  0.33645196
   0.58382382  0.91702640  0.33675399
   0.75091302  0.75074272  0.33655327
Direct configuration=     7
   0.00415098  0.00278029  0.11360730
   0.35864245  0.00268988  0.09932372
   0.00407508  0.35707831  0.09963649
   0.65022235  0.64794317  0.09954326
   0.32728353  0.32498742  0.10020017
   0.68190457  0.00295378  0.10045222
   0.00424176  0.67989704  0.10024693
   0.08317516  0.41671549  0.33649801
   0.24961608  0.24985733  0.33686111
   0.08296564  0.91672713  0.33649073
   0.24947915  0.75022969  0.33636424
   0.58320467  0.41682781  0.33634493
   0.74990835  0.25012649  0.33645372
   0.58343665  0.91689902  0.33678958
   0.75032092  0.75038782  0.33656691
Direct configuration=     8
   0.00417187  0.00280463  0.11143974
   0.35939722  0.00263141  0.09983559
   0.00409212  0.35770993  0.10023004
   0.64965885  0.64713118  0.10011595
   0.32780220  0.32530170  0.10025778
   0.68152289  0.00293410  0.10058734
   0.00428365  0.67944662  0.10032933
   0.08315107  0.41708063  0.33651560
   0.25007722  0.25030247  0.33694207
   0.08346133  0.91725397  0.33651704
   0.25035199  0.75008885  0.33635593
   0.58303563  0.41693780  0.33634074
   0.74982224  0.25015509  0.33645722
   0.58266232  0.91664425  0.33686077
   0.74913673  0.74967801  0.33659421
Direct configuration=     9
   0.00416830  0.00280048  0.11181010
   0.35926826  0.00264140  0.09974813
   0.00408921  0.35760201  0.10012862
   0.64975513  0.64726992  0.10001810
   0.32771358  0.32524800  0.10024793
   0.68158810  0.00293746  0.10056425
   0.00427649  0.67952358  0.10031525
   0.08315519  0.41701824  0.33651259
   0.24999842  0.25022642  0.33692823
   0.08337663  0.91716395  0.33651254
   0.25020285  0.75011292  0.33635735
   0.58306451  0.41691901  0.33634145
   0.74983695  0.25015020  0.33645663
   0.58279463  0.91668778  0.33684861
   0.74933907  0.74979929  0.33658955
Direct configuration=    10
   0.00418758  0.00278755  0.11127169
   0.35928544  0.00262485  0.09982262
   0.00412730  0.35758415  0.10020811
   0.64976888  0.64726425  0.10009612
   0.32776419  0.32530298  0.10032814
   0.68153134  0.00288987  0.10065230
   0.00429846  0.67947346  0.10039836
   0.08315430  0.41699437  0.33652041
   0.24999691  0.25033733  0.33691879
   0.08335949  0.91709502  0.33652775
   0.25018042  0.75014368  0.33637260
   0.58306662  0.41686391  0.33636150
   0.74978526  0.25017114  0.33646378
   0.58281548  0.91670822  0.33684322
   0.74930567  0.74985988  0.33659394
Direct configuration=    11
   0.00424541  0.00274877  0.10965649
   0.35933700  0.00257517  0.10004609
   0.00424158  0.35753060  0.10044659
   0.64981011  0.64724721  0.10033018
   0.32791601  0.32546791  0.10056877
   0.68136106  0.00274709  0.10091644
   0.00436436  0.67932311  0.10064769
   0.08315163  0.41692276  0.33654385
   0.24999237  0.25067008  0.33689044
   0.08330807  0.91688821  0.33657339
   0.25011310  0.75023598  0.33641834
   0.58307294  0.41669863  0.33642164
   0.74963017  0.25023396  0.33648523
   0.58287805  0.91676953  0.33682705
   0.74920547  0.75004165  0.33660713
Direct configuration=    12
   0.00436108  0.00267122  0.10642607
   0.35944010  0.00247583  0.10049303
   0.00447014  0.35742349  0.10092355
   0.64989258  0.64721315  0.10079830
   0.32821967  0.32579776  0.10105002
   0.68102050  0.00246152  0.10144471
   0.00449616  0.67902240  0.10114635
   0.08314628  0.41677953  0.33659074
   0.24998329  0.25133558  0.33683375
   0.08320523  0.91647461  0.33666467
   0.24997847  0.75042059  0.33650982
   0.58308557  0.41636806  0.33654193
   0.74931999  0.25035959  0.33652814
   0.58300319  0.91689215  0.33679472
   0.74900507  0.75040519  0.33663352
Direct configuration=    13
   0.00439097  0.00264322  0.10574540
   0.35944191  0.00245466  0.10058823
   0.00451946  0.35739938  0.10101589
   0.64991317  0.64722872  0.10089139
   0.32824739  0.32583353  0.10115757
   0.68099822  0.00240360  0.10155462
   0.00452669  0.67897535  0.10125581
   0.08307953  0.41684194  0.33659992
   0.24989295  0.25110396  0.33681790
   0.08312074  0.91659651  0.33668318
   0.24988215  0.75039140  0.33653552
   0.58305322  0.41652345  0.33656972
   0.74938478  0.25033172  0.33654158
   0.58300889  0.91697134  0.33678175
   0.74916727  0.75040187  0.33664085
Direct configuration=    14
   0.00445265  0.00258544  0.10434079
   0.35944564  0.00241097  0.10078469
   0.00462123  0.35734963  0.10120645
   0.64995565  0.64726086  0.10108348
   0.32830458  0.32590733  0.10137952
   0.68095224  0.00228408  0.10178143
   0.00458967  0.67887828  0.10148169
   0.08294179  0.41697074  0.33661885
   0.24970654  0.25062599  0.33678519
   0.08294641  0.91684807  0.33672136
   0.24968338  0.75033118  0.33658855
   0.58298645  0.41684411  0.33662705
   0.74951848  0.25027419  0.33656932
   0.58302064  0.91713477  0.33675498
   0.74950198  0.75039503  0.33665600
Direct configuration=    15
   0.00447621  0.00256338  0.10380441
   0.35944707  0.00239429  0.10085970
   0.00466010  0.35733064  0.10127922
   0.64997187  0.64727313  0.10115683
   0.32832642  0.32593551  0.10146428
   0.68093468  0.00223844  0.10186804
   0.00461373  0.67884121  0.10156794
   0.08288919  0.41701993  0.33662608
   0.24963536  0.25044347  0.33677270
   0.08287984  0.91694413  0.33673594
   0.24960747  0.75030818  0.33660880
   0.58296095  0.41696656  0.33664894
   0.74956954  0.25025222  0.33657991
   0.58302513  0.91719717  0.33674475
   0.74962980  0.75039241  0.33666178
Direct configuration=    16
   0.00448303  0.00254708  0.10376619
   0.35945908  0.00239276  0.10088852
   0.00465293  0.35735514  0.10129410
   0.64994480  0.64726638  0.10117579
   0.32828148  0.32587544  0.10145722
   0.68101345  0.00225694  0.10184882
   0.00461531  0.67886441  0.10155851
   0.08291047  0.41702257  0.33662517
   0.24961655  0.25038783  0.33677494
   0.08292767  0.91701490  0.33673219
   0.24963464  0.75034419  0.33661550
   0.58294464  0.41700041  0.33664777
   0.74958695  0.25030698  0.33658659
   0.58296127  0.91710109  0.33674173
   0.74959506  0.75036456  0.33666631
Direct configuration=    17
   0.00449893  0.00250910  0.10367708
   0.35948706  0.00238919  0.10095570
   0.00463621  0.35741225  0.10132880
   0.64988170  0.64725066  0.10121999
   0.32817673  0.32573539  0.10144076
   0.68119706  0.00230009  0.10180401
   0.00461900  0.67891848  0.10153651
   0.08296009  0.41702871  0.33662305
   0.24957271  0.25025812  0.33678014
   0.08303918  0.91717988  0.33672344
   0.24969797  0.75042814  0.33663112
   0.58290663  0.41707933  0.33664502
   0.74962755  0.25043464  0.33660215
   0.58281242  0.91687708  0.33673470
   0.74951408  0.75029961  0.33667686
Direct configuration=    18
   0.00451009  0.00248223  0.10364257
   0.35953157  0.00238625  0.10100377
   0.00462309  0.35744328  0.10134957
   0.64982604  0.64722578  0.10124865
   0.32814048  0.32567322  0.10142349
   0.68127957  0.00233376  0.10176158
   0.00461986  0.67893928  0.10151428
   0.08296424  0.41703375  0.33662327
   0.24958503  0.25030767  0.33678389
   0.08301324  0.91714255  0.33671749
   0.24967754  0.75042188  0.33663984
   0.58289833  0.41705888  0.33664321
   0.74960229  0.25041405  0.33661195
   0.58283479  0.91691750  0.33673293
   0.74952117  0.75032057  0.33668283
Direct configuration=    19
   0.00453769  0.00241580  0.10355727
   0.35964159  0.00237897  0.10112263
   0.00459063  0.35752000  0.10140093
   0.64968844  0.64716426  0.10131950
   0.32805086  0.32551950  0.10138081
   0.68148358  0.00241703  0.10165668
   0.00462197  0.67899072  0.10145932
   0.08297452  0.41704621  0.33662381
   0.24961551  0.25043018  0.33679315
   0.08294909  0.91705028  0.33670278
   0.24962701  0.75040640  0.33666141
   0.58287779  0.41700834  0.33663872
   0.74953985  0.25036317  0.33663618
   0.58289011  0.91701743  0.33672856
   0.74953869  0.75037239  0.33669759
Direct configuration=    20
   0.00455031  0.00239675  0.10352472
   0.35969903  0.00237637  0.10115858
   0.00458864  0.35749968  0.10140875
   0.64965778  0.64714065  0.10133531
   0.32810860  0.32556351  0.10137534
   0.68143316  0.00243022  0.10162193
   0.00462214  0.67895749  0.10144818
   0.08291287  0.41705313  0.33663083
   0.24959166  0.25039371  0.33679293
   0.08293568  0.91708100  0.33670391
   0.24963136  0.75039129  0.33666311
   0.58290230  0.41703545  0.33664294
   0.74956559  0.25035926  0.33663994
   0.58289104  0.91705887  0.33673558
   0.74953720  0.75036327  0.33669729
Direct configuration=    21
   0.00455767  0.00238564  0.10350574
   0.35973253  0.00237485  0.10117955
   0.00458747  0.35748783  0.10141332
   0.64963990  0.64712688  0.10134452
   0.32814227  0.32558918  0.10137216
   0.68140375  0.00243791  0.10160167
   0.00462224  0.67893812  0.10144169
   0.08287691  0.41705716  0.33663491
   0.24957775  0.25037244  0.33679280
   0.08292785  0.91709893  0.33670457
   0.24963390  0.75038248  0.33666410
   0.58291659  0.41705127  0.33664540
   0.74958060  0.25035699  0.33664214
   0.58289158  0.91708304  0.33673967
   0.74953633  0.75035795  0.33669711
Direct configuration=    22
   0.00457178  0.00237114  0.10346972
   0.35975056  0.00237497  0.10120150
   0.00459276  0.35744555  0.10141021
   0.64965249  0.64713109  0.10134847
   0.32819375  0.32563459  0.10137842
   0.68135430  0.00243336  0.10157831
   0.00462383  0.67890028  0.10144231
   0.08289272  0.41705224  0.33664439
   0.24956785  0.25038563  0.33679208
   0.08293745  0.91710376  0.33670926
   0.24962787  0.75041291  0.33666345
   0.58290315  0.41704857  0.33665213
   0.74956758  0.25038804  0.33664390
   0.58287273  0.91704646  0.33675018
   0.74951852  0.75037208  0.33669502
Direct configuration=    23
   0.00458201  0.00236063  0.10344362
   0.35976364  0.00237506  0.10121740
   0.00459659  0.35741492  0.10140795
   0.64966161  0.64713414  0.10135134
   0.32823106  0.32566750  0.10138295
   0.68131846  0.00243006  0.10156138
   0.00462498  0.67887286  0.10144276
   0.08290417  0.41704867  0.33665126
   0.24956068  0.25039519  0.33679155
   0.08294441  0.91710725  0.33671265
   0.24962349  0.75043495  0.33666298
   0.58289341  0.41704662  0.33665700
   0.74955815  0.25041055  0.33664518
   0.58285907  0.91701995  0.33675779
   0.74950562  0.75038232  0.33669350
Direct configuration=    24
   0.00460022  0.00234447  0.10339137
   0.35974247  0.00237629  0.10123456
   0.00460696  0.35736992  0.10139801
   0.64970805  0.64716317  0.10134898
   0.32823733  0.32566631  0.10139851
   0.68133047  0.00241277  0.10154083
   0.00463078  0.67885015  0.10145148
   0.08291554  0.41707317  0.33666143
   0.24956734  0.25041658  0.33679397
   0.08292645  0.91711060  0.33671815
   0.24960837  0.75043391  0.33666480
   0.58286459  0.41705639  0.33666430
   0.74953522  0.25040108  0.33664983
   0.58284920  0.91703933  0.33676936
   0.74950434  0.75038652  0.33669374
Direct configuration=    25
   0.00464221  0.00230718  0.10327087
   0.35969366  0.00237913  0.10127412
   0.00463087  0.35726617  0.10137508
   0.64981514  0.64723010  0.10134355
   0.32825178  0.32566357  0.10143440
   0.68135817  0.00237292  0.10149346
   0.00464415  0.67879776  0.10147158
   0.08294176  0.41712966  0.33668488
   0.24958269  0.25046590  0.33679955
   0.08288505  0.91711831  0.33673083
   0.24957350  0.75043152  0.33666900
   0.58279814  0.41707893  0.33668111
   0.74948236  0.25037925  0.33666056
   0.58282646  0.91708402  0.33679606
   0.74950138  0.75039622  0.33669430
Direct configuration=    26
   0.00465449  0.00229683  0.10322829
   0.35969168  0.00237621  0.10128371
   0.00463937  0.35725058  0.10136850
   0.64983547  0.64723421  0.10134147
   0.32825078  0.32565122  0.10144577
   0.68137753  0.00235958  0.10148089
   0.00465209  0.67878746  0.10147845
   0.08290916  0.41712555  0.33669014
   0.24956044  0.25046124  0.33680414
   0.08287973  0.91713067  0.33673363
   0.24956883  0.75044214  0.33667340
   0.58280878  0.41708741  0.33668490
   0.74948767  0.25039753  0.33666649
   0.58282207  0.91709327  0.33680189
   0.74948924  0.75040676  0.33669766
Direct configuration=    27
   0.00469133  0.00226578  0.10310054
   0.35968572  0.00236744  0.10131249
   0.00466487  0.35720380  0.10134877
   0.64989649  0.64724654  0.10133523
   0.32824779  0.32561417  0.10147989
   0.68143560  0.00231955  0.10144319
   0.00467588  0.67875656  0.10149907
   0.08281136  0.41711322  0.33670591
   0.24949368  0.25044726  0.33681793
   0.08286376  0.91716776  0.33674203
   0.24955483  0.75047398  0.33668659
   0.58284072  0.41711283  0.33669628
   0.74950362  0.25045237  0.33668429
   0.58280887  0.91712103  0.33681939
   0.74945281  0.75043839  0.33670774
Direct configuration=    28
   0.00470020  0.00225868  0.10305389
   0.35972757  0.00235400  0.10131686
   0.00467485  0.35721998  0.10134767
   0.64987801  0.64720499  0.10133557
   0.32826088  0.32560263  0.10148617
   0.68144331  0.00230953  0.10143516
   0.00468997  0.67875215  0.10150283
   0.08280885  0.41712141  0.33670776
   0.24948563  0.25046072  0.33682623
   0.08285799  0.91717525  0.33674373
   0.24954706  0.75048775  0.33669549
   0.58282834  0.41711939  0.33669824
   0.74949009  0.25046465  0.33669314
   0.58279595  0.91712085  0.33682057
   0.74943863  0.75044869  0.33671602
Direct configuration=    29
   0.00472680  0.00223736  0.10291397
   0.35985313  0.00231371  0.10132995
   0.00470479  0.35726850  0.10134438
   0.64982259  0.64708035  0.10133660
   0.32830016  0.32556801  0.10150500
   0.68146643  0.00227947  0.10141109
   0.00473225  0.67873894  0.10151411
   0.08280130  0.41714595  0.33671332
   0.24946148  0.25050111  0.33685112
   0.08284069  0.91719772  0.33674884
   0.24952375  0.75052906  0.33672218
   0.58279119  0.41713907  0.33670409
   0.74944953  0.25050150  0.33671971
   0.58275717  0.91712032  0.33682411
   0.74939609  0.75047959  0.33674085
Direct configuration=    30
   0.00477999  0.00219473  0.10263411
   0.36010425  0.00223311  0.10135614
   0.00476466  0.35736554  0.10133779
   0.64971173  0.64683107  0.10133866
   0.32837871  0.32549878  0.10154267
   0.68151267  0.00221935  0.10136294
   0.00481682  0.67871252  0.10153667
   0.08278620  0.41719504  0.33672443
   0.24941318  0.25058189  0.33690091
   0.08280608  0.91724266  0.33675905
   0.24947712  0.75061169  0.33677558
   0.58271691  0.41717843  0.33671581
   0.74936839  0.25057521  0.33677285
   0.58267962  0.91711927  0.33683120
   0.74931100  0.75054138  0.33679053
Direct configuration=    31
   0.00474799  0.00222038  0.10280249
   0.35995316  0.00228160  0.10134038
   0.00472864  0.35730715  0.10134175
   0.64977843  0.64698105  0.10133742
   0.32833145  0.32554043  0.10152001
   0.68148485  0.00225552  0.10139191
   0.00476594  0.67872842  0.10152310
   0.08279528  0.41716550  0.33671775
   0.24944224  0.25053329  0.33687095
   0.08282690  0.91721562  0.33675291
   0.24950517  0.75056198  0.33674345
   0.58276160  0.41715475  0.33670876
   0.74941721  0.25053086  0.33674088
   0.58272628  0.91711990  0.33682693
   0.74936219  0.75050420  0.33676064
Direct configuration=    32
   0.00475894  0.00221070  0.10274544
   0.35998355  0.00226177  0.10134326
   0.00474267  0.35731490  0.10134626
   0.64977414  0.64694602  0.10134129
   0.32834166  0.32551517  0.10152082
   0.68150539  0.00224429  0.10138458
   0.00478393  0.67872850  0.10152263
   0.08278064  0.41718865  0.33672292
   0.24943514  0.25053808  0.33687847
   0.08280315  0.91723090  0.33675921
   0.24948733  0.75055835  0.33675178
   0.58274247  0.41717507  0.33671491
   0.74940651  0.25052627  0.33674827
   0.58271765  0.91715347  0.33683084
   0.74936416  0.75050852  0.33676865
Direct configuration=    33
   0.00478461  0.00218801  0.10261170
   0.36005480  0.00221528  0.10134999
   0.00477559  0.35733308  0.10135682
   0.64976410  0.64686388  0.10135037
   0.32836560  0.32545593  0.10152272
   0.68155355  0.00221795  0.10136739
   0.00482610  0.67872871  0.10152155
   0.08274632  0.41724291  0.33673504
   0.24941851  0.25054933  0.33689609
   0.08274746  0.91726672  0.33677399
   0.24944551  0.75054985  0.33677129
   0.58269760  0.41722271  0.33672934
   0.74938141  0.25051551  0.33676561
   0.58269741  0.91723218  0.33683999
   0.74936877  0.75051863  0.33678744
Direct configuration=    34
   0.00479996  0.00217378  0.10253749
   0.36006054  0.00218874  0.10135169
   0.00479642  0.35731768  0.10136883
   0.64979108  0.64684890  0.10135922
   0.32837628  0.32541893  0.10151615
   0.68158862  0.00220296  0.10136123
   0.00484794  0.67872403  0.10151543
   0.08272138  0.41725243  0.33674574
   0.24939603  0.25056458  0.33690222
   0.08272878  0.91727925  0.33678719
   0.24942427  0.75056662  0.33677816
   0.58268703  0.41723562  0.33674193
   0.74936793  0.25053556  0.33677057
   0.58268640  0.91725234  0.33684901
   0.74935468  0.75053926  0.33679446
Direct configuration=    35
   0.00484602  0.00213110  0.10231485
   0.36007777  0.00210912  0.10135679
   0.00485891  0.35727146  0.10140487
   0.64987202  0.64680394  0.10138578
   0.32840833  0.32530791  0.10149644
   0.68169386  0.00215800  0.10134276
   0.00491347  0.67870999  0.10149710
   0.08264657  0.41728096  0.33677783
   0.24932858  0.25061035  0.33692061
   0.08267272  0.91731687  0.33682679
   0.24936055  0.75061693  0.33679877
   0.58265532  0.41727437  0.33677970
   0.74932748  0.25059571  0.33678546
   0.58265335  0.91731281  0.33687605
   0.74931239  0.75060114  0.33681555
Direct configuration=    36
   0.00493813  0.00204575  0.10186956
   0.36011222  0.00194988  0.10136698
   0.00498389  0.35717902  0.10147694
   0.65003390  0.64671404  0.10143890
   0.32847244  0.32508588  0.10145703
   0.68190433  0.00206808  0.10130580
   0.00504452  0.67868191  0.10146042
   0.08249694  0.41733803  0.33684202
   0.24919368  0.25070188  0.33695738
   0.08256060  0.91739210  0.33690597
   0.24923312  0.75071754  0.33683997
   0.58259190  0.41735186  0.33685524
   0.74924659  0.25071603  0.33681524
   0.58258725  0.91743376  0.33693015
   0.74922782  0.75072490  0.33685772
Direct configuration=    37
   0.00496234  0.00202535  0.10176933
   0.36012675  0.00191944  0.10136824
   0.00501439  0.35714619  0.10149288
   0.65007344  0.64669592  0.10145049
   0.32851846  0.32507505  0.10144555
   0.68191361  0.00204335  0.10130143
   0.00507126  0.67864055  0.10145070
   0.08249378  0.41736989  0.33685499
   0.24917996  0.25072893  0.33696819
   0.08254869  0.91742231  0.33692170
   0.24922518  0.75074704  0.33685067
   0.58255580  0.41737750  0.33687011
   0.74921276  0.25073808  0.33682395
   0.58254461  0.91743198  0.33694201
   0.74918629  0.75073909  0.33686908
Direct configuration=    38
   0.00503496  0.00196415  0.10146865
   0.36017035  0.00182811  0.10137202
   0.00510589  0.35704770  0.10154070
   0.65019206  0.64664158  0.10148526
   0.32865650  0.32504255  0.10141111
   0.68194146  0.00196913  0.10128833
   0.00515149  0.67851648  0.10142157
   0.08248431  0.41746547  0.33689392
   0.24913880  0.25081008  0.33700061
   0.08251296  0.91751294  0.33696889
   0.24920135  0.75083552  0.33688278
   0.58244752  0.41745441  0.33691472
   0.74911127  0.25080423  0.33685006
   0.58241671  0.91742666  0.33697759
   0.74906170  0.75078165  0.33690314
Direct configuration=    39
   0.00518020  0.00184175  0.10086729
   0.36025754  0.00164546  0.10137958
   0.00528889  0.35685074  0.10163633
   0.65042929  0.64653289  0.10155479
   0.32893260  0.32497755  0.10134223
   0.68199716  0.00182071  0.10126211
   0.00531194  0.67826834  0.10136329
   0.08246536  0.41765663  0.33697176
   0.24905648  0.25097238  0.33706544
   0.08244151  0.91769420  0.33706326
   0.24915370  0.75101247  0.33694698
   0.58223094  0.41760824  0.33700394
   0.74890828  0.25093653  0.33690230
   0.58216090  0.91741601  0.33704876
   0.74881253  0.75086677  0.33697128
Direct configuration=    40
   0.00507759  0.00192822  0.10129212
   0.36019595  0.00177449  0.10137424
   0.00515961  0.35698988  0.10156877
   0.65026170  0.64660967  0.10150567
   0.32873755  0.32502347  0.10139089
   0.68195781  0.00192556  0.10128063
   0.00519859  0.67844364  0.10140446
   0.08247875  0.41752159  0.33691677
   0.24911464  0.25085772  0.33701964
   0.08249199  0.91756615  0.33699659
   0.24918737  0.75088746  0.33690162
   0.58238394  0.41749957  0.33694091
   0.74905168  0.25084307  0.33686540
   0.58234162  0.91742353  0.33699848
   0.74898856  0.75080664  0.33692315
Direct configuration=    41
   0.00512028  0.00189239  0.10115461
   0.36023718  0.00174626  0.10137493
   0.00520366  0.35693024  0.10158427
   0.65031310  0.64658237  0.10151706
   0.32881883  0.32504267  0.10137397
   0.68194172  0.00188013  0.10128349
   0.00523197  0.67836049  0.10139150
   0.08242843  0.41755535  0.33692895
   0.24907618  0.25088179  0.33704259
   0.08243705  0.91759186  0.33700983
   0.24913259  0.75090487  0.33692209
   0.58235258  0.41753579  0.33695345
   0.74902466  0.25086227  0.33688528
   0.58232667  0.91749136  0.33701228
   0.74898244  0.75084283  0.33694502
Direct configuration=    42
   0.00517324  0.00184794  0.10098399
   0.36028835  0.00171122  0.10137579
   0.00525831  0.35685624  0.10160349
   0.65037688  0.64654848  0.10153119
   0.32891969  0.32506650  0.10135298
   0.68192175  0.00182376  0.10128705
   0.00527340  0.67825731  0.10137542
   0.08236599  0.41759725  0.33694407
   0.24902845  0.25091166  0.33707106
   0.08236887  0.91762377  0.33702626
   0.24906462  0.75092647  0.33694749
   0.58231366  0.41758072  0.33696901
   0.74899114  0.25088610  0.33690996
   0.58230812  0.91757552  0.33702940
   0.74897486  0.75088773  0.33697216
Direct configuration=    43
   0.00520175  0.00181958  0.10093136
   0.36031352  0.00171250  0.10137620
   0.00527491  0.35682501  0.10159974
   0.65039770  0.64654099  0.10152912
   0.32891402  0.32504673  0.10134674
   0.68195260  0.00179633  0.10129744
   0.00528652  0.67824902  0.10137196
   0.08232929  0.41758905  0.33694586
   0.24899498  0.25092985  0.33708524
   0.08235378  0.91762897  0.33702490
   0.24903852  0.75094930  0.33695907
   0.58231867  0.41758188  0.33696831
   0.74898456  0.25092082  0.33692405
   0.58230657  0.91759271  0.33703502
   0.74895995  0.75091793  0.33698431
Direct configuration=    44
   0.00523056  0.00179093  0.10087817
   0.36033895  0.00171379  0.10137660
   0.00529168  0.35679343  0.10159595
   0.65041874  0.64653341  0.10152703
   0.32890828  0.32502675  0.10134043
   0.68198379  0.00176860  0.10130795
   0.00529978  0.67824064  0.10136847
   0.08229219  0.41758076  0.33694767
   0.24896115  0.25094824  0.33709957
   0.08233852  0.91763422  0.33702351
   0.24901215  0.75097238  0.33697079
   0.58232374  0.41758305  0.33696760
   0.74897790  0.25095592  0.33693830
   0.58230500  0.91761008  0.33704070
   0.74894487  0.75094846  0.33699659
Direct configuration=    45
   0.00527153  0.00174701  0.10082240
   0.36038285  0.00172080  0.10137869
   0.00530848  0.35676177  0.10158298
   0.65043292  0.64651796  0.10151936
   0.32888688  0.32498967  0.10133268
   0.68203981  0.00173465  0.10132587
   0.00531760  0.67823791  0.10136476
   0.08228482  0.41761847  0.33695188
   0.24895372  0.25096564  0.33711452
   0.08232284  0.91766872  0.33702112
   0.24900699  0.75098688  0.33698279
   0.58228855  0.41761363  0.33696705
   0.74895133  0.25096338  0.33695528
   0.58226628  0.91762237  0.33705123
   0.74891272  0.75095180  0.33700872
Direct configuration=    46
   0.00529578  0.00172102  0.10078939
   0.36040884  0.00172495  0.10137993
   0.00531843  0.35674303  0.10157530
   0.65044132  0.64650881  0.10151482
   0.32887421  0.32496772  0.10132809
   0.68207297  0.00171455  0.10133649
   0.00532814  0.67823629  0.10136256
   0.08228045  0.41764079  0.33695437
   0.24894932  0.25097595  0.33712337
   0.08231356  0.91768913  0.33701970
   0.24900394  0.75099546  0.33698990
   0.58226773  0.41763173  0.33696672
   0.74893560  0.25096779  0.33696533
   0.58224336  0.91762965  0.33705745
   0.74889369  0.75095378  0.33701591
Direct configuration=    47
   0.00531779  0.00169553  0.10076793
   0.36045047  0.00172227  0.10138402
   0.00532562  0.35673612  0.10156449
   0.65043285  0.64648448  0.10150902
   0.32889359  0.32496628  0.10132131
   0.68208271  0.00170334  0.10134535
   0.00534252  0.67820904  0.10135808
   0.08228113  0.41765993  0.33696336
   0.24894248  0.25099191  0.33712353
   0.08229527  0.91769541  0.33702396
   0.24898555  0.75100904  0.33699077
   0.58224440  0.41764617  0.33697299
   0.74891429  0.25097204  0.33696947
   0.58223071  0.91764082  0.33706927
   0.74888795  0.75096828  0.33701578
Direct configuration=    48
   0.00535813  0.00164880  0.10072859
   0.36052678  0.00171736  0.10139152
   0.00533881  0.35672345  0.10154467
   0.65041733  0.64643989  0.10149840
   0.32892909  0.32496365  0.10130889
   0.68210058  0.00168279  0.10136160
   0.00536886  0.67815908  0.10134987
   0.08228237  0.41769499  0.33697984
   0.24892995  0.25102118  0.33712381
   0.08226175  0.91770690  0.33703175
   0.24895184  0.75103393  0.33699237
   0.58220166  0.41767265  0.33698449
   0.74887522  0.25097983  0.33697706
   0.58220753  0.91766131  0.33709092
   0.74887743  0.75099486  0.33701555
Direct configuration=    49
   0.00537620  0.00162791  0.10071334
   0.36055335  0.00170754  0.10139610
   0.00534770  0.35670669  0.10153563
   0.65042171  0.64642479  0.10149392
   0.32894556  0.32495190  0.10130093
   0.68211707  0.00167487  0.10136634
   0.00538411  0.67814154  0.10134373
   0.08225055  0.41769527  0.33698799
   0.24890514  0.25102842  0.33712322
   0.08225352  0.91772381  0.33703619
   0.24894076  0.75104794  0.33699388
   0.58220368  0.41768109  0.33699096
   0.74887271  0.25100572  0.33698090
   0.58219680  0.91767408  0.33710051
   0.74885848  0.75100909  0.33701567
Direct configuration=    50
   0.00539995  0.00160046  0.10069330
   0.36058826  0.00169463  0.10140213
   0.00535938  0.35668468  0.10152375
   0.65042746  0.64640495  0.10148803
   0.32896721  0.32493647  0.10129047
   0.68213874  0.00166446  0.10137258
   0.00540415  0.67811850  0.10133566
   0.08220874  0.41769563  0.33699871
   0.24887252  0.25103794  0.33712245
   0.08224270  0.91774603  0.33704203
   0.24892620  0.75106634  0.33699586
   0.58220633  0.41769219  0.33699947