 ----------------------------------------------------
    OOO  PPPP  EEEEE N   N M   M PPPP
   O   O P   P E     NN  N MM MM P   P
   O   O PPPP  EEEEE N N N M M M PPPP   -- VERSION
   O   O P     E     N  NN M   M P
    OOO  P     EEEEE N   N M   M P
 ----------------------------------------------------
 running   48 mpi-ranks, with    1 threads/rank
 distrk:  each k-point on   48 cores,    1 groups
 distr:  one band on    1 cores,   48 groups
 vasp.6.3.2 27Jun22 (build Dec 22 2022 13:13:19) complex                        
  
 POSCAR found type information on POSCAR B C 
 POSCAR found :  2 types and      15 ions
 Reading from existing POTCAR
 -----------------------------------------------------------------------------
|                                                                             |
|           W    W    AA    RRRRR   N    N  II  N    N   GGGG   !!!           |
|           W    W   A  A   R    R  NN   N  II  NN   N  G    G  !!!           |
|           W    W  A    A  R    R  N N  N  II  N N  N  G       !!!           |
|           W WW W  AAAAAA  RRRRR   N  N N  II  N  N N  G  GGG   !            |
|           WW  WW  A    A  R   R   N   NN  II  N   NN  G    G                |
|           W    W  A    A  R    R  N    N  II  N    N   GGGG   !!!           |
|                                                                             |
|     You use a magnetic or noncollinear calculation, but did not specify     |
|     the initial magnetic moment with the MAGMOM tag. Note that a            |
|     default of 1 will be used for all atoms. This ferromagnetic setup       |
|     may break the symmetry of the crystal, in particular it may rule        |
|     out finding an antiferromagnetic solution. Thence, we recommend         |
|     setting the initial magnetic moment manually or verifying carefully     |
|     that this magnetic setup is desired.                                    |
|                                                                             |
 -----------------------------------------------------------------------------

 scaLAPACK will be used
 Reading from existing POTCAR
 LDA part: xc-table for Pade appr. of Perdew
 POSCAR found type information on POSCAR B C 
 POSCAR found :  2 types and      15 ions
 POSCAR, INCAR and KPOINTS ok, starting setup
 FFT: planning ... GRIDC
 FFT: planning ... GRID_SOFT
 FFT: planning ... GRID
 WAVECAR not read
 entering main loop
       N       E                     dE             d eps       ncg     rms          rms(c)
DAV:   1     0.202457123724E+03    0.20246E+03   -0.25617E+04 14208   0.858E+02
DAV:   2    -0.115969632133E+03   -0.31843E+03   -0.31712E+03 20400   0.162E+02
DAV:   3    -0.128965967072E+03   -0.12996E+02   -0.12970E+02 26688   0.429E+01
DAV:   4    -0.128987021253E+03   -0.21054E-01   -0.21054E-01 20304   0.174E+00
DAV:   5    -0.128987081302E+03   -0.60049E-04   -0.60049E-04 25632   0.886E-02    0.242E+01
DAV:   6    -0.918617657058E+02    0.37125E+02   -0.72864E+01 25536   0.255E+01    0.137E+01
DAV:   7    -0.100295045184E+03   -0.84333E+01   -0.95595E+00 21648   0.994E+00    0.804E+00
DAV:   8    -0.110455961219E+03   -0.10161E+02   -0.89676E+00 23424   0.901E+00    0.431E+00
DAV:   9    -0.117122880596E+03   -0.66669E+01   -0.38296E+00 19584   0.605E+00    0.276E+00
DAV:  10    -0.123488190123E+03   -0.63653E+01   -0.83797E+00 23376   0.704E+00    0.160E+00
DAV:  11    -0.125280487156E+03   -0.17923E+01   -0.30730E+00 25056   0.388E+00    0.101E+00
DAV:  12    -0.125396713626E+03   -0.11623E+00   -0.21287E-01 20160   0.126E+00    0.489E-01
DAV:  13    -0.125423001978E+03   -0.26288E-01   -0.21240E-02 17376   0.520E-01    0.200E-01
DAV:  14    -0.125447344707E+03   -0.24343E-01   -0.60022E-03 19296   0.268E-01    0.860E-02
DAV:  15    -0.125455405732E+03   -0.80610E-02   -0.32302E-03 19440   0.154E-01    0.455E-02
DAV:  16    -0.125457453230E+03   -0.20475E-02   -0.65177E-04 15456   0.796E-02    0.225E-02
DAV:  17    -0.125458723069E+03   -0.12698E-02   -0.17005E-04 15072   0.499E-02    0.176E-02
DAV:  18    -0.125459403985E+03   -0.68092E-03   -0.84036E-05 16656   0.364E-02    0.125E-02
DAV:  19    -0.125459862920E+03   -0.45894E-03   -0.40933E-05 19152   0.239E-02    0.754E-03
DAV:  20    -0.125459921430E+03   -0.58509E-04   -0.22961E-05 23328   0.177E-02    0.471E-03
DAV:  21    -0.125459944565E+03   -0.23136E-04   -0.65847E-06 19968   0.948E-03    0.230E-03
DAV:  22    -0.125459963878E+03   -0.19313E-04   -0.21844E-06 20448   0.560E-03    0.146E-03
DAV:  23    -0.125459980771E+03   -0.16893E-04   -0.19123E-06 22368   0.427E-03    0.785E-04
DAV:  24    -0.125459984415E+03   -0.36441E-05   -0.43110E-07 20976   0.245E-03    0.396E-04
DAV:  25    -0.125459985419E+03   -0.10035E-05   -0.12799E-07 23424   0.125E-03    0.196E-04
DAV:  26    -0.125459985969E+03   -0.55043E-06   -0.32111E-08 20928   0.598E-04
   1 F= -.12704333E+03 E0= -.12704254E+03  d E =-.127043E+03  mag=    -0.0000
 curvature:   0.00 expect dE= 0.000E+00 dE for cont linesearch  0.000E+00
 trial: gam= 0.00000 g(F)=  0.371E-01 g(S)=  0.000E+00 ort = 0.000E+00 (trialstep = 0.100E+01)
 search vector abs. value=  0.371E-01
 bond charge predicted
       N       E                     dE             d eps       ncg     rms          rms(c)
DAV:   1    -0.125474674787E+03   -0.14689E-01   -0.39085E+00 14208   0.600E+00    0.531E-01
DAV:   2    -0.125464658456E+03    0.10016E-01   -0.78150E-02 26592   0.768E-01    0.234E-01
DAV:   3    -0.125463560786E+03    0.10977E-02   -0.60477E-03 18384   0.211E-01    0.925E-02
DAV:   4    -0.125463518709E+03    0.42076E-04   -0.75500E-04 27744   0.752E-02    0.232E-02
DAV:   5    -0.125463522962E+03   -0.42533E-05   -0.19360E-05 23232   0.135E-02    0.833E-03
DAV:   6    -0.125463523032E+03   -0.69097E-07   -0.30957E-06 23616   0.513E-03
   2 F= -.12704603E+03 E0= -.12704525E+03  d E =-.270429E-02  mag=    -0.0000
 trial-energy change:   -0.002704  1 .order   -0.002766   -0.037127    0.031596
 step:   0.5402(harm=  0.5402)  dis= 0.00871  next Energy=  -127.053354 (dE=-0.100E-01)
 bond charge predicted
       N       E                     dE             d eps       ncg     rms          rms(c)
DAV:   1    -0.125472824705E+03   -0.93017E-02   -0.82613E-01 14208   0.277E+00    0.244E-01
DAV:   2    -0.125470659709E+03    0.21650E-02   -0.16483E-02 25728   0.349E-01    0.107E-01
DAV:   3    -0.125470436270E+03    0.22344E-03   -0.12764E-03 22800   0.975E-02    0.432E-02
DAV:   4    -0.125470427505E+03    0.87649E-05   -0.14988E-04 23136   0.335E-02    0.105E-02
DAV:   5    -0.125470428300E+03   -0.79541E-06   -0.48640E-06 20976   0.667E-03
   3 F= -.12705331E+03 E0= -.12705253E+03  d E =-.998441E-02  mag=    -0.0000
 curvature:  -0.27 expect dE=-0.304E-02 dE for cont linesearch -0.831E-09
 trial: gam= 0.30298 g(F)=  0.112E-01 g(S)=  0.000E+00 ort =-0.107E-04 (trialstep = 0.908E+00)
 search vector abs. value=  0.146E-01
 bond charge predicted
       N       E                     dE             d eps       ncg     rms          rms(c)
DAV:   1    -0.125479731446E+03   -0.93039E-02   -0.45194E-01 14208   0.227E+00    0.137E-01
DAV:   2    -0.125479841654E+03   -0.11021E-03   -0.26580E-03 27360   0.197E-01    0.806E-02
DAV:   3    -0.125479839280E+03    0.23735E-05   -0.25397E-04 20640   0.542E-02    0.154E-02
DAV:   4    -0.125479841296E+03   -0.20156E-05   -0.24672E-05 26400   0.184E-02    0.613E-03
DAV:   5    -0.125479841576E+03   -0.28028E-06   -0.11710E-06 21120   0.450E-03
   4 F= -.12706241E+03 E0= -.12706162E+03  d E =-.909806E-02  mag=    -0.0000
 ZBRENT: can't locate minimum, use default step
 trial-energy change:   -0.009098  1 .order   -0.009109   -0.010202   -0.008016
 step:   3.6322(harm=  4.2383)  dis= 0.02392  next Energy=  -127.077118 (dE=-0.238E-01)
 bond charge predicted
       N       E                     dE             d eps       ncg     rms          rms(c)
DAV:   1    -0.125494545831E+03   -0.14705E-01   -0.40971E+00 14208   0.680E+00    0.408E-01
DAV:   2    -0.125495764314E+03   -0.12185E-02   -0.25328E-02 27072   0.605E-01    0.241E-01
DAV:   3    -0.125495731693E+03    0.32621E-04   -0.23464E-03 22032   0.163E-01    0.474E-02
DAV:   4    -0.125495754014E+03   -0.22322E-04   -0.22132E-04 27072   0.545E-02    0.186E-02
DAV:   5    -0.125495757284E+03   -0.32699E-05   -0.10220E-05 21696   0.132E-02    0.838E-03
DAV:   6    -0.125495757689E+03   -0.40427E-06   -0.71024E-06 24480   0.983E-03
   5 F= -.12707740E+03 E0= -.12707662E+03  d E =-.240930E-01  mag=    -0.0000
 curvature:  -2.67 expect dE=-0.711E-01 dE for cont linesearch -0.101E-02
 trial: gam= 2.25409 g(F)=  0.266E-01 g(S)=  0.000E+00 ort = 0.235E-02 (trialstep = 0.191E+00)
 search vector abs. value=  0.112E+00
 bond charge predicted
       N       E                     dE             d eps       ncg     rms          rms(c)
DAV:   1    -0.125500740324E+03   -0.49830E-02   -0.22388E-01 14208   0.188E+00    0.112E-01
DAV:   2    -0.125500709293E+03    0.31030E-04   -0.20786E-03 27216   0.201E-01    0.624E-02
DAV:   3    -0.125500653059E+03    0.56234E-04   -0.24411E-04 20064   0.592E-02    0.184E-02
DAV:   4    -0.125500654571E+03   -0.15118E-05   -0.37175E-05 27168   0.227E-02    0.758E-03
DAV:   5    -0.125500655089E+03   -0.51823E-06   -0.14795E-06 20640   0.502E-03
   6 F= -.12708209E+03 E0= -.12708131E+03  d E =-.469168E-02  mag=    -0.0000
 trial-energy change:   -0.004692  1 .order   -0.004694   -0.006086   -0.003303
 step:   0.4168(harm=  0.4168)  dis= 0.00507  next Energy=  -127.084058 (dE=-0.666E-02)
 bond charge predicted
       N       E                     dE             d eps       ncg     rms          rms(c)
DAV:   1    -0.125503029291E+03   -0.23747E-02   -0.31598E-01 14208   0.223E+00    0.133E-01
DAV:   2    -0.125502989038E+03    0.40253E-04   -0.29320E-03 26976   0.239E-01    0.740E-02
DAV:   3    -0.125502910951E+03    0.78087E-04   -0.34734E-04 21984   0.702E-02    0.216E-02
DAV:   4    -0.125502913259E+03   -0.23088E-05   -0.49315E-05 23424   0.263E-02    0.889E-03
DAV:   5    -0.125502913753E+03   -0.49393E-06   -0.21313E-06 21696   0.595E-03
   7 F= -.12708410E+03 E0= -.12708331E+03  d E =-.669497E-02  mag=    -0.0000
 curvature:  -0.73 expect dE=-0.101E-01 dE for cont linesearch -0.970E-06
 trial: gam= 0.78120 g(F)=  0.138E-01 g(S)=  0.000E+00 ort = 0.385E-03 (trialstep = 0.236E+00)
 search vector abs. value=  0.825E-01
 bond charge predicted
       N       E                     dE             d eps       ncg     rms          rms(c)
DAV:   1    -0.125506200434E+03   -0.32872E-02   -0.19229E-01 14208   0.144E+00    0.813E-02
DAV:   2    -0.125506241778E+03   -0.41343E-04   -0.98280E-04 24960   0.112E-01    0.487E-02
DAV:   3    -0.125506237045E+03    0.47325E-05   -0.12231E-04 21168   0.323E-02    0.781E-03
DAV:   4    -0.125506236931E+03    0.11374E-06   -0.74681E-06 25440   0.107E-02
   8 F= -.12708712E+03 E0= -.12708634E+03  d E =-.302600E-02  mag=    -0.0000
 ZBRENT: can't locate minimum, use default step
 trial-energy change:   -0.003026  1 .order   -0.003035   -0.003328   -0.002741
 step:   0.9432(harm=  1.3361)  dis= 0.00868  next Energy=  -127.093528 (dE=-0.943E-02)
 bond charge predicted
       N       E                     dE             d eps       ncg     rms          rms(c)
DAV:   1    -0.125512545585E+03   -0.63085E-02   -0.17334E+00 14208   0.432E+00    0.242E-01
DAV:   2    -0.125512932691E+03   -0.38711E-03   -0.84745E-03 27936   0.332E-01    0.145E-01
DAV:   3    -0.125512887768E+03    0.44922E-04   -0.11119E-03 22848   0.959E-02    0.217E-02
DAV:   4    -0.125512884692E+03    0.30759E-05   -0.62055E-05 22896   0.310E-02    0.116E-02
DAV:   5    -0.125512880795E+03    0.38973E-05   -0.86821E-06 21936   0.112E-02    0.441E-03
DAV:   6    -0.125512879680E+03    0.11150E-05   -0.29144E-06 23856   0.600E-03    0.256E-03
DAV:   7    -0.125512880155E+03   -0.47459E-06   -0.10815E-06 23568   0.325E-03
   9 F= -.12709289E+03 E0= -.12709211E+03  d E =-.879131E-02  mag=     0.0000
 curvature:  -3.41 expect dE=-0.442E-01 dE for cont linesearch -0.998E-03
 ZBRENT: increasing intervall
 opt :   2.3579  next Energy=  -127.090353 (dE=-0.626E-02)
 bond charge predicted
       N       E                     dE             d eps       ncg     rms          rms(c)
DAV:   1    -0.125511731376E+03    0.11483E-02   -0.69322E+00 14208   0.861E+00    0.478E-01
DAV:   2    -0.125513355876E+03   -0.16245E-02   -0.34524E-02 22752   0.669E-01    0.287E-01
DAV:   3    -0.125513177293E+03    0.17858E-03   -0.44650E-03 24864   0.193E-01    0.427E-02
DAV:   4    -0.125513170545E+03    0.67475E-05   -0.26551E-04 21792   0.633E-02    0.226E-02
DAV:   5    -0.125513162705E+03    0.78398E-05   -0.28866E-05 25248   0.208E-02    0.805E-03
DAV:   6    -0.125513160156E+03    0.25494E-05   -0.10909E-05 23616   0.119E-02    0.313E-03
DAV:   7    -0.125513164704E+03   -0.45478E-05   -0.62785E-06 22560   0.810E-03    0.231E-03
DAV:   8    -0.125513171536E+03   -0.68319E-05   -0.24625E-06 19920   0.502E-03    0.154E-03
DAV:   9    -0.125513179085E+03   -0.75492E-05   -0.10219E-06 23328   0.314E-03    0.795E-04
DAV:  10    -0.125513185398E+03   -0.63133E-05   -0.38694E-07 18768   0.169E-03    0.433E-04
DAV:  11    -0.125513189117E+03   -0.37189E-05   -0.11654E-07 23808   0.726E-04    0.256E-04
DAV:  12    -0.125513191417E+03   -0.23004E-05   -0.65181E-08 19008   0.442E-04    0.142E-04
DAV:  13    -0.125513192340E+03   -0.92249E-06   -0.21391E-08 23328   0.271E-04
  10 F= -.12709151E+03 E0= -.12709073E+03  d E =-.741119E-02  mag=     0.0000
 curvature:   8.66 expect dE= 0.314E+00 dE for cont linesearch  0.466E-02
 ZBRENT: bracketing found
 ZBRENT: interpolating
 opt :   1.5436  next Energy=  -127.094365 (dE=-0.103E-01)
 bond charge predicted
       N       E                     dE             d eps       ncg     rms          rms(c)
DAV:   1    -0.125514538296E+03   -0.13469E-02   -0.23071E+00 14208   0.497E+00    0.275E-01
DAV:   2    -0.125515071212E+03   -0.53292E-03   -0.11760E-02 25728   0.388E-01    0.166E-01
DAV:   3    -0.125515005589E+03    0.65622E-04   -0.15676E-03 25632   0.113E-01    0.259E-02
DAV:   4    -0.125514999641E+03    0.59482E-05   -0.10563E-04 22176   0.376E-02    0.131E-02
DAV:   5    -0.125514999598E+03    0.43042E-07   -0.91585E-06 24192   0.116E-02
  11 F= -.12709428E+03 E0= -.12709350E+03  d E =-.101818E-01  mag=     0.0000
 curvature:  -2.74 expect dE=-0.529E-01 dE for cont linesearch -0.172E-05
 trial: gam= 0.78205 g(F)=  0.193E-01 g(S)=  0.000E+00 ort =-0.228E-03 (trialstep = 0.497E+00)
 search vector abs. value=  0.694E-01
 bond charge predicted
       N       E                     dE             d eps       ncg     rms          rms(c)
DAV:   1    -0.125517160503E+03   -0.21609E-02   -0.11102E+00 14208   0.423E+00    0.259E-01
DAV:   2    -0.125516832915E+03    0.32759E-03   -0.13427E-02 26400   0.501E-01    0.141E-01
DAV:   3    -0.125516583202E+03    0.24971E-03   -0.15277E-03 18288   0.143E-01    0.532E-02
DAV:   4    -0.125516585139E+03   -0.19361E-05   -0.27449E-04 24672   0.564E-02    0.241E-02
DAV:   5    -0.125516591105E+03   -0.59665E-05   -0.12626E-05 20304   0.143E-02    0.808E-03
DAV:   6    -0.125516592045E+03   -0.94035E-06   -0.25317E-06 26256   0.613E-03
  12 F= -.12709536E+03 E0= -.12709457E+03  d E =-.107920E-02  mag=    -0.0000
 trial-energy change:   -0.001079  1 .order   -0.001021   -0.009516    0.007475
 step:   0.2811(harm=  0.2786)  dis= 0.00304  next Energy=  -127.096979 (dE=-0.270E-02)
 bond charge predicted
       N       E                     dE             d eps       ncg     rms          rms(c)
DAV:   1    -0.125518091440E+03   -0.15003E-02   -0.21015E-01 14208   0.184E+00    0.113E-01
DAV:   2    -0.125518028099E+03    0.63341E-04   -0.25531E-03 25920   0.218E-01    0.614E-02
DAV:   3    -0.125517980837E+03    0.47263E-04   -0.29561E-04 20064   0.627E-02    0.231E-02
DAV:   4    -0.125517980714E+03    0.12275E-06   -0.51935E-05 24864   0.244E-02    0.105E-02
DAV:   5    -0.125517981639E+03   -0.92516E-06   -0.24588E-06 20784   0.639E-03
  13 F= -.12709699E+03 E0= -.12709620E+03  d E =-.270626E-02  mag=    -0.0000
 curvature:  -0.51 expect dE=-0.158E-02 dE for cont linesearch -0.476E-09
 trial: gam= 0.16925 g(F)=  0.313E-02 g(S)=  0.000E+00 ort =-0.809E-05 (trialstep = 0.454E+00)
 search vector abs. value=  0.511E-02
 bond charge predicted
       N       E                     dE             d eps       ncg     rms          rms(c)
DAV:   1    -0.125519154446E+03   -0.11737E-02   -0.60168E-02 14208   0.918E-01    0.508E-02
DAV:   2    -0.125519118096E+03    0.36351E-04   -0.62297E-04 22560   0.878E-02    0.255E-02
DAV:   3    -0.125519114029E+03    0.40663E-05   -0.47518E-05 20736   0.235E-02    0.103E-02
DAV:   4    -0.125519114569E+03   -0.54019E-06   -0.58236E-06 21600   0.861E-03
  14 F= -.12709800E+03 E0= -.12709722E+03  d E =-.101941E-02  mag=     0.0000
 trial-energy change:   -0.001019  1 .order   -0.001020   -0.001420   -0.000620
 step:   0.8057(harm=  0.8057)  dis= 0.00383  next Energy=  -127.098245 (dE=-0.126E-02)
 bond charge predicted
       N       E                     dE             d eps       ncg     rms          rms(c)
DAV:   1    -0.125519462061E+03   -0.34803E-03   -0.36037E-02 14592   0.710E-01    0.394E-02
DAV:   2    -0.125519441600E+03    0.20461E-04   -0.37320E-04 21120   0.677E-02    0.199E-02
DAV:   3    -0.125519439651E+03    0.19490E-05   -0.29399E-05 23376   0.184E-02    0.812E-03
DAV:   4    -0.125519440000E+03   -0.34945E-06   -0.34779E-06 21312   0.661E-03
  15 F= -.12709824E+03 E0= -.12709746E+03  d E =-.125706E-02  mag=     0.0000
 curvature:  -0.66 expect dE=-0.122E-02 dE for cont linesearch -0.464E-08
 trial: gam= 0.60427 g(F)=  0.186E-02 g(S)=  0.000E+00 ort =-0.600E-05 (trialstep = 0.524E+00)
 search vector abs. value=  0.372E-02
 bond charge predicted
       N       E                     dE             d eps       ncg     rms          rms(c)
DAV:   1    -0.125519944883E+03   -0.50523E-03   -0.70766E-02 14592   0.109E+00    0.616E-02
DAV:   2    -0.125519915209E+03    0.29674E-04   -0.99801E-04 20448   0.134E-01    0.338E-02
DAV:   3    -0.125519903458E+03    0.11751E-04   -0.12476E-04 24000   0.424E-02    0.136E-02
DAV:   4    -0.125519902807E+03    0.65089E-06   -0.20730E-05 21744   0.159E-02    0.681E-03
DAV:   5    -0.125519903098E+03   -0.29113E-06   -0.12528E-06 22944   0.489E-03
  16 F= -.12709862E+03 E0= -.12709783E+03  d E =-.374295E-03  mag=    -0.0000
 trial-energy change:   -0.000374  1 .order   -0.000374   -0.000972    0.000223
 step:   0.4264(harm=  0.4264)  dis= 0.00176  next Energy=  -127.098638 (dE=-0.395E-03)
 bond charge predicted
       N       E                     dE             d eps       ncg     rms          rms(c)
DAV:   1    -0.125519908332E+03   -0.55256E-05   -0.24569E-03 14784   0.203E-01    0.116E-02
DAV:   2    -0.125519907494E+03    0.83781E-06   -0.35609E-05 21984   0.252E-02    0.632E-03
DAV:   3    -0.125519907404E+03    0.90840E-07   -0.41631E-06 19392   0.788E-03
  17 F= -.12709864E+03 E0= -.12709785E+03  d E =-.395711E-03  mag=     0.0000
 curvature:  -0.43 expect dE=-0.274E-03 dE for cont linesearch -0.170E-07
 trial: gam= 0.33447 g(F)=  0.640E-03 g(S)=  0.000E+00 ort = 0.122E-04 (trialstep = 0.505E+00)
 search vector abs. value=  0.106E-02
 bond charge predicted
       N       E                     dE             d eps       ncg     rms          rms(c)
DAV:   1    -0.125520180305E+03   -0.27281E-03   -0.21371E-02 14208   0.572E-01    0.340E-02
DAV:   2    -0.125520156415E+03    0.23890E-04   -0.34538E-04 22224   0.701E-02    0.167E-02
DAV:   3    -0.125520153487E+03    0.29277E-05   -0.32532E-05 20064   0.209E-02    0.705E-03
DAV:   4    -0.125520153711E+03   -0.22369E-06   -0.43735E-06 21456   0.756E-03
  18 F= -.12709881E+03 E0= -.12709803E+03  d E =-.170524E-03  mag=    -0.0000
 trial-energy change:   -0.000171  1 .order   -0.000170   -0.000325   -0.000016
 step:   0.5305(harm=  0.5305)  dis= 0.00131  next Energy=  -127.098809 (dE=-0.171E-03)
 bond charge predicted
       N       E                     dE             d eps       ncg     rms          rms(c)
DAV:   1    -0.125520158162E+03   -0.46743E-05   -0.52456E-05 17136   0.285E-02    0.217E-03
DAV:   2    -0.125520158216E+03   -0.54263E-07   -0.82522E-07 22368   0.349E-03
  19 F= -.12709881E+03 E0= -.12709803E+03  d E =-.171154E-03  mag=     0.0000
 curvature:  -0.44 expect dE=-0.133E-03 dE for cont linesearch -0.587E-09
 trial: gam= 0.48156 g(F)=  0.303E-03 g(S)=  0.000E+00 ort =-0.119E-05 (trialstep = 0.510E+00)
 search vector abs. value=  0.548E-03
 bond charge predicted
       N       E                     dE             d eps       ncg     rms          rms(c)
DAV:   1    -0.125520407380E+03   -0.24922E-03   -0.64357E-03 14208   0.294E-01    0.180E-02
DAV:   2    -0.125520407372E+03    0.82500E-08   -0.69102E-05 21120   0.323E-02    0.995E-03
DAV:   3    -0.125520407111E+03    0.26090E-06   -0.49366E-06 20112   0.825E-03
  20 F= -.12709893E+03 E0= -.12709815E+03  d E =-.124956E-03  mag=    -0.0000
 trial-energy change:   -0.000125  1 .order   -0.000124   -0.000154   -0.000095
 step:   1.3278(harm=  1.3278)  dis= 0.00171  next Energy=  -127.099010 (dE=-0.201E-03)
 bond charge predicted
       N       E                     dE             d eps       ncg     rms          rms(c)
DAV:   1    -0.125520683664E+03   -0.27629E-03   -0.16530E-02 14208   0.471E-01    0.291E-02
DAV:   2    -0.125520683397E+03    0.26725E-06   -0.17459E-04 21600   0.515E-02    0.161E-02
DAV:   3    -0.125520682387E+03    0.10100E-05   -0.12667E-05 26736   0.131E-02    0.532E-03
DAV:   4    -0.125520682693E+03   -0.30584E-06   -0.16599E-06 21168   0.481E-03
  21 F= -.12709901E+03 E0= -.12709823E+03  d E =-.202011E-03  mag=    -0.0000
 curvature:  -1.20 expect dE=-0.662E-03 dE for cont linesearch -0.267E-08
 trial: gam= 1.79739 g(F)=  0.550E-03 g(S)=  0.000E+00 ort = 0.110E-05 (trialstep = 0.159E+00)
 search vector abs. value=  0.232E-02
 bond charge predicted
       N       E                     dE             d eps       ncg     rms          rms(c)
DAV:   1    -0.125520843325E+03   -0.16094E-03   -0.30139E-03 14208   0.209E-01    0.118E-02
DAV:   2    -0.125520843706E+03   -0.38139E-06   -0.31246E-05 21888   0.238E-02    0.699E-03
DAV:   3    -0.125520843393E+03    0.31289E-06   -0.34432E-06 23184   0.716E-03
  22 F= -.12709909E+03 E0= -.12709830E+03  d E =-.753164E-04  mag=     0.0000
 trial-energy change:   -0.000075  1 .order   -0.000075   -0.000088   -0.000063
 step:   0.5654(harm=  0.5654)  dis= 0.00063  next Energy=  -127.099167 (dE=-0.156E-03)
 bond charge predicted
       N       E                     dE             d eps       ncg     rms          rms(c)
DAV:   1    -0.125521146232E+03   -0.30253E-03   -0.19759E-02 14208   0.535E-01    0.302E-02
DAV:   2    -0.125521148000E+03   -0.17681E-05   -0.19369E-04 24528   0.592E-02    0.178E-02
DAV:   3    -0.125521145552E+03    0.24482E-05   -0.21301E-05 24000   0.173E-02    0.453E-03
DAV:   4    -0.125521145676E+03   -0.12374E-06   -0.25923E-06 22416   0.623E-03
  23 F= -.12709917E+03 E0= -.12709839E+03  d E =-.158843E-03  mag=     0.0000
 curvature:  -1.19 expect dE=-0.736E-03 dE for cont linesearch -0.998E-07
 trial: gam= 1.11635 g(F)=  0.618E-03 g(S)=  0.000E+00 ort = 0.140E-04 (trialstep = 0.157E+00)
 search vector abs. value=  0.355E-02
 bond charge predicted
       N       E                     dE             d eps       ncg     rms          rms(c)
DAV:   1    -0.125521343236E+03   -0.19768E-03   -0.37876E-03 14208   0.212E-01    0.119E-02
DAV:   2    -0.125521344514E+03   -0.12780E-05   -0.28839E-05 18960   0.215E-02    0.717E-03
DAV:   3    -0.125521344692E+03   -0.17756E-06   -0.21707E-06 20544   0.539E-03
  24 F= -.12709927E+03 E0= -.12709848E+03  d E =-.957087E-04  mag=    -0.0000
 ZBRENT: can't locate minimum, use default step
 trial-energy change:   -0.000096  1 .order   -0.000096   -0.000100   -0.000092
 step:   0.6297(harm=  2.0829)  dis= 0.00075  next Energy=  -127.099830 (dE=-0.659E-03)
 bond charge predicted
       N       E                     dE             d eps       ncg     rms          rms(c)
DAV:   1    -0.125521886905E+03   -0.54239E-03   -0.34105E-02 14208   0.637E-01    0.352E-02
DAV:   2    -0.125521897551E+03   -0.10646E-04   -0.24568E-04 22368   0.627E-02    0.211E-02
DAV:   3    -0.125521897666E+03   -0.11413E-06   -0.18526E-05 24576   0.147E-02    0.459E-03
DAV:   4    -0.125521897971E+03   -0.30494E-06   -0.19783E-06 18336   0.574E-03
  25 F= -.12709951E+03 E0= -.12709873E+03  d E =-.339485E-03  mag=    -0.0000
 curvature:  -2.51 expect dE=-0.813E-03 dE for cont linesearch -0.142E-03
 ZBRENT: increasing intervall
 opt :   1.5743  next Energy=  -127.099804 (dE=-0.633E-03)
 bond charge predicted
       N       E                     dE             d eps       ncg     rms          rms(c)
DAV:   1    -0.125522761028E+03   -0.86336E-03   -0.13652E-01 14208   0.127E+00    0.702E-02
DAV:   2    -0.125522804251E+03   -0.43222E-04   -0.97165E-04 22032   0.125E-01    0.419E-02
DAV:   3    -0.125522802093E+03    0.21575E-05   -0.74543E-05 25536   0.294E-02    0.910E-03
DAV:   4    -0.125522802984E+03   -0.89102E-06   -0.75135E-06 24480   0.107E-02
  26 F= -.12709980E+03 E0= -.12709901E+03  d E =-.627158E-03  mag=    -0.0000
 curvature:  -5.19 expect dE=-0.161E-02 dE for cont linesearch -0.394E-04
 ZBRENT: increasing intervall
 opt :   3.4634  next Energy=  -127.099571 (dE=-0.401E-03)
 bond charge predicted
       N       E                     dE             d eps       ncg     rms          rms(c)
DAV:   1    -0.125523597491E+03   -0.79540E-03   -0.54622E-01 14208   0.255E+00    0.140E-01
DAV:   2    -0.125523775255E+03   -0.17776E-03   -0.38761E-03 22032   0.248E-01    0.834E-02
DAV:   3    -0.125523762144E+03    0.13111E-04   -0.30125E-04 26016   0.590E-02    0.181E-02
DAV:   4    -0.125523765094E+03   -0.29505E-05   -0.29537E-05 25440   0.211E-02    0.661E-03
DAV:   5    -0.125523765201E+03   -0.10723E-06   -0.43914E-06 18000   0.900E-03
  27 F= -.12709953E+03 E0= -.12709875E+03  d E =-.362140E-03  mag=     0.0000
 curvature:  29.80 expect dE= 0.592E-01 dE for cont linesearch  0.167E-02
 ZBRENT: bracketing found
 ZBRENT: interpolating
 opt :   2.0827  next Energy=  -127.099839 (dE=-0.669E-03)
 bond charge predicted
       N       E                     dE             d eps       ncg     rms          rms(c)
DAV:   1    -0.125523079976E+03    0.68512E-03   -0.29127E-01 14208   0.186E+00    0.102E-01
DAV:   2    -0.125523177589E+03   -0.97612E-04   -0.21239E-03 25104   0.182E-01    0.609E-02
DAV:   3    -0.125523174560E+03    0.30283E-05   -0.15375E-04 23376   0.419E-02    0.134E-02
DAV:   4    -0.125523177768E+03   -0.32075E-05   -0.15843E-05 17568   0.163E-02    0.479E-03
DAV:   5    -0.125523178675E+03   -0.90673E-06   -0.30961E-06 22944   0.832E-03
  28 F= -.12709984E+03 E0= -.12709906E+03  d E =-.671559E-03  mag=     0.0000
 curvature:  -0.74 expect dE=-0.395E-03 dE for cont linesearch -0.102E-08
 trial: gam= 0.97136 g(F)=  0.531E-03 g(S)=  0.000E+00 ort = 0.221E-05 (trialstep = 0.496E+00)
 search vector abs. value=  0.388E-02
 bond charge predicted
       N       E                     dE             d eps       ncg     rms          rms(c)
DAV:   1    -0.125523655134E+03   -0.47737E-03   -0.47046E-02 14208   0.817E-01    0.414E-02
DAV:   2    -0.125523671398E+03   -0.16264E-04   -0.45248E-04 26928   0.876E-02    0.256E-02
DAV:   3    -0.125523668260E+03    0.31382E-05   -0.41691E-05 14448   0.244E-02    0.539E-03
DAV:   4    -0.125523668862E+03   -0.60276E-06   -0.57206E-06 22752   0.981E-03
  29 F= -.12709998E+03 E0= -.12709919E+03  d E =-.135511E-03  mag=     0.0000
 trial-energy change:   -0.000136  1 .order   -0.000135   -0.000264   -0.000005
 step:   0.5055(harm=  0.5055)  dis= 0.00100  next Energy=  -127.099977 (dE=-0.135E-03)
 bond charge predicted
       N       E                     dE             d eps       ncg     rms          rms(c)
DAV:   1    -0.125523676157E+03   -0.78972E-05   -0.20387E-05 19680   0.174E-02    0.176E-03
DAV:   2    -0.125523676176E+03   -0.18728E-07   -0.44468E-07 16320   0.341E-03
  30 F= -.12709998E+03 E0= -.12709919E+03  d E =-.135732E-03  mag=     0.0000
 curvature:  -1.84 expect dE=-0.100E-02 dE for cont linesearch -0.503E-08
 trial: gam= 1.01951 g(F)=  0.546E-03 g(S)=  0.000E+00 ort = 0.326E-05 (trialstep = 0.421E+00)
 search vector abs. value=  0.459E-02
 bond charge predicted
       N       E                     dE             d eps       ncg     rms          rms(c)
DAV:   1    -0.125524166107E+03   -0.48995E-03   -0.39140E-02 14208   0.715E-01    0.359E-02
DAV:   2    -0.125524178623E+03   -0.12516E-04   -0.34808E-04 19488   0.723E-02    0.220E-02
DAV:   3    -0.125524178989E+03   -0.36564E-06   -0.30080E-05 25248   0.196E-02    0.529E-03
DAV:   4    -0.125524179575E+03   -0.58599E-06   -0.36805E-06 14688   0.772E-03
  31 F= -.12710014E+03 E0= -.12709936E+03  d E =-.166346E-03  mag=     0.0000
 trial-energy change:   -0.000166  1 .order   -0.000166   -0.000231   -0.000102
 step:   0.7515(harm=  0.7515)  dis= 0.00224  next Energy=  -127.100184 (dE=-0.206E-03)
 bond charge predicted
       N       E                     dE             d eps       ncg     rms          rms(c)
DAV:   1    -0.125524474912E+03   -0.29592E-03   -0.24134E-02 14208   0.561E-01    0.280E-02
DAV:   2    -0.125524483667E+03   -0.87552E-05   -0.21955E-04 18288   0.576E-02    0.172E-02
DAV:   3    -0.125524484454E+03   -0.78643E-06   -0.18403E-05 20064   0.160E-02    0.432E-03
DAV:   4    -0.125524484893E+03   -0.43972E-06   -0.31329E-06 14496   0.786E-03
  32 F= -.12710019E+03 E0= -.12709940E+03  d E =-.207693E-03  mag=     0.0000
 curvature:  -3.14 expect dE=-0.672E-03 dE for cont linesearch -0.115E-07
 trial: gam= 0.40048 g(F)=  0.214E-03 g(S)=  0.000E+00 ort = 0.410E-05 (trialstep = 0.487E+00)
 search vector abs. value=  0.953E-03
 bond charge predicted
       N       E                     dE             d eps       ncg     rms          rms(c)
DAV:   1    -0.125524700627E+03   -0.21617E-03   -0.13379E-02 14208   0.457E-01    0.232E-02
DAV:   2    -0.125524701319E+03   -0.69168E-06   -0.16455E-04 19392   0.529E-02    0.136E-02
DAV:   3    -0.125524700666E+03    0.65269E-06   -0.16601E-05 17040   0.162E-02    0.491E-03
DAV:   4    -0.125524700993E+03   -0.32693E-06   -0.33340E-06 14208   0.840E-03
  33 F= -.12710022E+03 E0= -.12709944E+03  d E =-.396944E-04  mag=     0.0000
 trial-energy change:   -0.000040  1 .order   -0.000039   -0.000105    0.000026
 step:   0.3902(harm=  0.3902)  dis= 0.00049  next Energy=  -127.100227 (dE=-0.421E-04)
 bond charge predicted
       N       E                     dE             d eps       ncg     rms          rms(c)
DAV:   1    -0.125524668555E+03    0.32112E-04   -0.52940E-04 14208   0.911E-02    0.438E-03
DAV:   2    -0.125524668502E+03    0.53011E-07   -0.74163E-06 15168   0.117E-02
  34 F= -.12710023E+03 E0= -.12709944E+03  d E =-.423440E-04  mag=     0.0000
 curvature:  -0.86 expect dE=-0.480E-04 dE for cont linesearch -0.578E-08
 trial: gam= 0.28571 g(F)=  0.557E-04 g(S)=  0.000E+00 ort =-0.253E-05 (trialstep = 0.468E+00)
 search vector abs. value=  0.132E-03
 bond charge predicted
       N       E                     dE             d eps       ncg     rms          rms(c)
DAV:   1    -0.125524757273E+03   -0.88719E-04   -0.22053E-03 14208   0.187E-01    0.106E-02
DAV:   2    -0.125524756259E+03    0.10145E-05   -0.33924E-05 14352   0.244E-02    0.598E-03
DAV:   3    -0.125524755840E+03    0.41930E-06   -0.45150E-06 15936   0.890E-03
  35 F= -.12710024E+03 E0= -.12709945E+03  d E =-.107251E-04  mag=     0.0000
 trial-energy change:   -0.000011  1 .order   -0.000010   -0.000026    0.000005
 step:   0.3870(harm=  0.3870)  dis= 0.00023  next Energy=  -127.100238 (dE=-0.106E-04)
 bond charge predicted
       N       E                     dE             d eps       ncg     rms          rms(c)
DAV:   1    -0.125524742995E+03    0.13264E-04   -0.64364E-05 14880   0.325E-02    0.160E-03
DAV:   2    -0.125524742953E+03    0.42202E-07   -0.15843E-06 14208   0.586E-03
  36 F= -.12710024E+03 E0= -.12709946E+03  d E =-.110690E-04  mag=     0.0000
 curvature:  -0.46 expect dE=-0.941E-05 dE for cont linesearch -0.970E-09
 trial: gam= 0.35181 g(F)=  0.202E-04 g(S)=  0.000E+00 ort = 0.525E-06 (trialstep = 0.452E+00)
 search vector abs. value=  0.369E-04
 bond charge predicted
       N       E                     dE             d eps       ncg     rms          rms(c)
DAV:   1    -0.125524807467E+03   -0.64473E-04   -0.51838E-04 14208   0.922E-02    0.422E-03
DAV:   2    -0.125524807494E+03   -0.26856E-07   -0.57495E-06 14400   0.105E-02
  37 F= -.12710025E+03 E0= -.12709946E+03  d E =-.679639E-05  mag=     0.0000
 trial-energy change:   -0.000007  1 .order   -0.000007   -0.000009   -0.000005
 step:   0.9327(harm=  0.9327)  dis= 0.00023  next Energy=  -127.100248 (dE=-0.952E-05)
 bond charge predicted
       N       E                     dE             d eps       ncg     rms          rms(c)
DAV:   1    -0.125524871175E+03   -0.63707E-04   -0.57217E-04 14208   0.975E-02    0.508E-03
DAV:   2    -0.125524871171E+03    0.36698E-08   -0.61192E-06 14208   0.109E-02
  38 F= -.12710025E+03 E0= -.12709946E+03  d E =-.894616E-05  mag=     0.0000
 curvature:  -0.84 expect dE=-0.282E-04 dE for cont linesearch -0.277E-08
 trial: gam= 1.69900 g(F)=  0.334E-04 g(S)=  0.000E+00 ort =-0.349E-06 (trialstep = 0.146E+00)
 search vector abs. value=  0.139E-03
 bond charge predicted
       N       E                     dE             d eps       ncg     rms          rms(c)
DAV:   1    -0.125524916650E+03   -0.45475E-04   -0.20335E-04 15024   0.570E-02    0.321E-03
DAV:   2    -0.125524916569E+03    0.81191E-07   -0.26638E-06 14784   0.771E-03
  39 F= -.12710025E+03 E0= -.12709947E+03  d E =-.404815E-05  mag=     0.0000
 trial-energy change:   -0.000004  1 .order   -0.000004   -0.000005   -0.000004
 step:   0.5614(harm=  0.5614)  dis= 0.00029  next Energy=  -127.100257 (dE=-0.922E-05)
 bond charge predicted
       N       E                     dE             d eps       ncg     rms          rms(c)
DAV:   1    -0.125525039275E+03   -0.12262E-03   -0.16950E-03 14208   0.163E-01    0.807E-03
DAV:   2    -0.125525039290E+03   -0.14992E-07   -0.18950E-05 14208   0.189E-02    0.507E-03
DAV:   3    -0.125525039499E+03   -0.20915E-06   -0.26873E-06 14784   0.762E-03
  40 F= -.12710026E+03 E0= -.12709947E+03  d E =-.899883E-05  mag=    -0.0000
 curvature:  -1.19 expect dE=-0.161E-04 dE for cont linesearch -0.253E-07
 trial: gam= 0.34339 g(F)=  0.136E-04 g(S)=  0.000E+00 ort =-0.172E-05 (trialstep = 0.229E+00)
 search vector abs. value=  0.288E-04
 bond charge predicted
       N       E                     dE             d eps       ncg     rms          rms(c)
DAV:   1    -0.125525075868E+03   -0.36579E-04   -0.15466E-04 14208   0.494E-02    0.260E-03
DAV:   2    -0.125525075732E+03    0.13590E-06   -0.22844E-06 16272   0.734E-03
  41 F= -.12710026E+03 E0= -.12709948E+03  d E =-.261878E-05  mag=    -0.0000
 ZBRENT: can't locate minimum, use default step
 trial-energy change:   -0.000003  1 .order   -0.000003   -0.000003   -0.000003
 step:   0.9154(harm=  1.6744)  dis= 0.00026  next Energy=  -127.100268 (dE=-0.109E-04)
 bond charge predicted
       N       E                     dE             d eps       ncg     rms          rms(c)
DAV:   1    -0.125525181720E+03   -0.10585E-03   -0.13390E-03 14208   0.145E-01    0.710E-03
DAV:   2    -0.125525181267E+03    0.45317E-06   -0.15342E-05 14208   0.170E-02    0.440E-03
DAV:   3    -0.125525181455E+03   -0.18737E-06   -0.25064E-06 14208   0.741E-03
  42 F= -.12710026E+03 E0= -.12709948E+03  d E =-.750552E-05  mag=    -0.0000
 curvature:  -1.34 expect dE=-0.370E-04 dE for cont linesearch -0.179E-06
 trial: gam= 1.86846 g(F)=  0.275E-04 g(S)=  0.000E+00 ort = 0.196E-05 (trialstep = 0.779E-01)
 search vector abs. value=  0.135E-03
 bond charge predicted
       N       E                     dE             d eps       ncg     rms          rms(c)
DAV:   1    -0.125525209370E+03   -0.28103E-04   -0.88884E-05 14208   0.374E-02    0.188E-03
DAV:   2    -0.125525209239E+03    0.13059E-06   -0.15056E-06 14208   0.624E-03
  43 F= -.12710027E+03 E0= -.12709948E+03  d E =-.229117E-05  mag=    -0.0000
 ZBRENT: can't locate minimum, use default step
 trial-energy change:   -0.000002  1 .order   -0.000002   -0.000002   -0.000002
 step:   0.3115(harm=  2.2536)  dis= 0.00022  next Energy=  -127.100299 (dE=-0.351E-04)
 bond charge predicted
       N       E                     dE             d eps       ncg     rms          rms(c)
DAV:   1    -0.125525291832E+03   -0.82462E-04   -0.76032E-04 14208   0.109E-01    0.517E-03
DAV:   2    -0.125525291543E+03    0.28834E-06   -0.82927E-06 14208   0.126E-02
  44 F= -.12710027E+03 E0= -.12709949E+03  d E =-.815188E-05  mag=    -0.0000
 curvature:  -0.99 expect dE=-0.899E-05 dE for cont linesearch -0.350E-05
 ZBRENT: increasing intervall
 opt :   0.7788  next Energy=  -127.100279 (dE=-0.145E-04)
 bond charge predicted
       N       E                     dE             d eps       ncg     rms          rms(c)
DAV:   1    -0.125525450458E+03   -0.15863E-03   -0.30060E-03 14208   0.217E-01    0.101E-02
DAV:   2    -0.125525449764E+03    0.69433E-06   -0.30459E-05 14208   0.236E-02    0.627E-03
DAV:   3    -0.125525449989E+03   -0.22463E-06   -0.46767E-06 14208   0.940E-03
  45 F= -.12710028E+03 E0= -.12709949E+03  d E =-.136750E-04  mag=    -0.0000
 curvature:  -1.80 expect dE=-0.410E-04 dE for cont linesearch -0.102E-07
 trial: gam= 1.26529 g(F)=  0.228E-04 g(S)=  0.000E+00 ort =-0.878E-06 (trialstep = 0.124E+00)
 search vector abs. value=  0.237E-03
 bond charge predicted
       N       E                     dE             d eps       ncg     rms          rms(c)
DAV:   1    -0.125525510841E+03   -0.61077E-04   -0.39837E-04 14736   0.775E-02    0.375E-03
DAV:   2    -0.125525510624E+03    0.21725E-06   -0.46563E-06 14496   0.102E-02
  46 F= -.12710028E+03 E0= -.12709950E+03  d E =-.282781E-05  mag=    -0.0000
 ZBRENT: can't locate minimum, use default step
 trial-energy change:   -0.000003  1 .order   -0.000003   -0.000003   -0.000003
 step:   0.4977(harm=  0.4977)  dis= 0.00047  next Energy=  -127.100290 (dE=-0.124E-04)
 bond charge predicted
       N       E                     dE             d eps       ncg     rms          rms(c)
DAV:   1    -0.125525691502E+03   -0.18066E-03   -0.34377E-03 14208   0.228E-01    0.105E-02
DAV:   2    -0.125525690574E+03    0.92799E-06   -0.34287E-05 14352   0.252E-02    0.650E-03
DAV:   3    -0.125525690956E+03   -0.38234E-06   -0.55986E-06 14208   0.104E-02
  47 F= -.12710029E+03 E0= -.12709950E+03  d E =-.978329E-05  mag=     0.0000
 curvature:  -4.20 expect dE=-0.687E-04 dE for cont linesearch -0.142E-05
 ZBRENT: increasing intervall
 opt :   1.2442  next Energy=  -127.100284 (dE=-0.576E-05)
 bond charge predicted
       N       E                     dE             d eps       ncg     rms          rms(c)
DAV:   1    -0.125526042858E+03   -0.35228E-03   -0.13975E-02 14208   0.458E-01    0.204E-02
DAV:   2    -0.125526040431E+03    0.24261E-05   -0.13461E-04 17088   0.488E-02    0.126E-02
DAV:   3    -0.125526040095E+03    0.33660E-06   -0.18945E-05 15360   0.174E-02    0.311E-03
DAV:   4    -0.125526040503E+03   -0.40832E-06   -0.52673E-06 15600   0.111E-02
  48 F= -.12710029E+03 E0= -.12709951E+03  d E =-.127742E-04  mag=    -0.0000
 curvature:  11.87 expect dE= 0.631E-03 dE for cont linesearch  0.192E-05
 ZBRENT: bracketing found
 ZBRENT: interpolating
 opt :   0.9389  next Energy=  -127.100292 (dE=-0.137E-04)
 bond charge predicted
       N       E                     dE             d eps       ncg     rms          rms(c)
DAV:   1    -0.125525899497E+03    0.14060E-03   -0.23177E-03 15552   0.187E-01    0.777E-03
DAV:   2    -0.125525898931E+03    0.56653E-06   -0.23255E-05 17376   0.201E-02    0.478E-03
DAV:   3    -0.125525898918E+03    0.12541E-07   -0.33802E-06 20400   0.760E-03
  49 F= -.12710029E+03 E0= -.12709951E+03  d E =-.129052E-04  mag=    -0.0000
 curvature:  -5.84 expect dE=-0.185E-03 dE for cont linesearch -0.484E-06
 trial: gam= 1.12853 g(F)=  0.317E-04 g(S)=  0.000E+00 ort = 0.443E-05 (trialstep = 0.198E+00)
 search vector abs. value=  0.344E-03
 bond charge predicted
       N       E                     dE             d eps       ncg     rms          rms(c)
DAV:   1    -0.125526019320E+03   -0.12039E-03   -0.13693E-03 14208   0.143E-01    0.607E-03
DAV:   2    -0.125526019138E+03    0.18195E-06   -0.15976E-05 18768   0.170E-02    0.384E-03
DAV:   3    -0.125526019190E+03   -0.52308E-07   -0.21614E-06 14688   0.666E-03
  50 F= -.12710030E+03 E0= -.12709951E+03  d E =-.597381E-05  mag=     0.0000
 trial-energy change:   -0.000006  1 .order   -0.000006   -0.000007   -0.000005
 step:   0.5576(harm=  0.5576)  dis= 0.00054  next Energy=  -127.100301 (dE=-0.102E-04)
 bond charge predicted
       N       E                     dE             d eps       ncg     rms          rms(c)
DAV:   1    -0.125526233264E+03   -0.21413E-03   -0.45585E-03 14208   0.261E-01    0.119E-02
DAV:   2    -0.125526232590E+03    0.67334E-06   -0.46482E-05 14784   0.289E-02    0.750E-03
DAV:   3    -0.125526232716E+03   -0.12549E-06   -0.65393E-06 14496   0.106E-02
  51 F= -.12710030E+03 E0= -.12709952E+03  d E =-.124330E-04  mag=     0.0000
 curvature:  -2.61 expect dE=-0.928E-04 dE for cont linesearch -0.197E-06
 trial: gam= 0.85142 g(F)=  0.355E-04 g(S)=  0.000E+00 ort = 0.510E-05 (trialstep = 0.270E+00)
 search vector abs. value=  0.293E-03
 bond charge predicted
       N       E                     dE             d eps       ncg     rms          rms(c)
DAV:   1    -0.125526384618E+03   -0.15203E-03   -0.20372E-03 14208   0.173E-01    0.857E-03
DAV:   2    -0.125526384373E+03    0.24462E-06   -0.23363E-05 14208   0.210E-02    0.543E-03
DAV:   3    -0.125526384771E+03   -0.39764E-06   -0.34930E-06 14208   0.862E-03
  52 F= -.12710031E+03 E0= -.12709953E+03  d E =-.107147E-04  mag=     0.0000
 trial-energy change:   -0.000011  1 .order   -0.000009   -0.000011   -0.000008
 step:   0.9379(harm=  0.9379)  dis= 0.00081  next Energy=  -127.100322 (dE=-0.187E-04)
 bond charge predicted
       N       E                     dE             d eps       ncg     rms          rms(c)
DAV:   1    -0.125526744875E+03   -0.36050E-03   -0.12291E-02 14208   0.426E-01    0.204E-02
DAV:   2    -0.125526744286E+03    0.58831E-06   -0.13560E-04 17568   0.485E-02    0.127E-02
DAV:   3    -0.125526743833E+03    0.45379E-06   -0.16396E-05 16800   0.162E-02    0.319E-03
DAV:   4    -0.125526744161E+03   -0.32843E-06   -0.40802E-06 14544   0.953E-03
  53 F= -.12710032E+03 E0= -.12709954E+03  d E =-.208433E-04  mag=    -0.0000
 curvature:  -3.45 expect dE=-0.125E-03 dE for cont linesearch -0.231E-07
 trial: gam= 1.58058 g(F)=  0.362E-04 g(S)=  0.000E+00 ort =-0.140E-05 (trialstep = 0.155E+00)
 search vector abs. value=  0.765E-03
 bond charge predicted
       N       E                     dE             d eps       ncg     rms          rms(c)
DAV:   1    -0.125526883862E+03   -0.14003E-03   -0.17276E-03 14496   0.159E-01    0.768E-03
DAV:   2    -0.125526883835E+03    0.27621E-07   -0.19938E-05 16992   0.189E-02    0.492E-03
DAV:   3    -0.125526884117E+03   -0.28191E-06   -0.26208E-06 15360   0.718E-03
  54 F= -.12710033E+03 E0= -.12709954E+03  d E =-.432021E-05  mag=    -0.0000
 trial-energy change:   -0.000004  1 .order   -0.000004   -0.000005   -0.000003
 step:   0.3995(harm=  0.3995)  dis= 0.00058  next Energy=  -127.100331 (dE=-0.680E-05)
 bond charge predicted
       N       E                     dE             d eps       ncg     rms          rms(c)
DAV:   1    -0.125527102448E+03   -0.21861E-03   -0.43181E-03 14208   0.251E-01    0.119E-02
DAV:   2    -0.125527102179E+03    0.26868E-06   -0.45081E-05 14304   0.285E-02    0.754E-03
DAV:   3    -0.125527102462E+03   -0.28297E-06   -0.61060E-06 15936   0.103E-02
  55 F= -.12710033E+03 E0= -.12709955E+03  d E =-.849448E-05  mag=    -0.0000
 curvature:  -4.49 expect dE=-0.113E-03 dE for cont linesearch -0.219E-07
 trial: gam= 0.10449 g(F)=  0.252E-04 g(S)=  0.000E+00 ort = 0.193E-05 (trialstep = 0.204E+00)
 search vector abs. value=  0.340E-04
 bond charge predicted
       N       E                     dE             d eps       ncg     rms          rms(c)
DAV:   1    -0.125527133208E+03   -0.31029E-04   -0.13323E-04 14208   0.456E-02    0.307E-03
DAV:   2    -0.125527132924E+03    0.28412E-06   -0.29613E-06 14688   0.798E-03
  56 F= -.12710034E+03 E0= -.12709955E+03  d E =-.435916E-05  mag=    -0.0000
 trial-energy change:   -0.000004  1 .order   -0.000004   -0.000005   -0.000004
 step:   0.6803(harm=  0.6803)  dis= 0.00032  next Energy=  -127.100341 (dE=-0.864E-05)
 bond charge predicted
       N       E                     dE             d eps       ncg     rms          rms(c)
DAV:   1    -0.125527197984E+03   -0.64776E-04   -0.68073E-04 14304   0.103E-01    0.699E-03
DAV:   2    -0.125527197034E+03    0.95027E-06   -0.11928E-05 14784   0.143E-02    0.387E-03
DAV:   3    -0.125527197052E+03   -0.17734E-07   -0.19415E-06 14208   0.618E-03
  57 F= -.12710034E+03 E0= -.12709956E+03  d E =-.745861E-05  mag=    -0.0000
 curvature:  -0.45 expect dE=-0.895E-05 dE for cont linesearch -0.393E-06
 ZBRENT: interpolating
 opt :   0.5690  next Energy=  -127.100340 (dE=-0.776E-05)
 bond charge predicted
       N       E                     dE             d eps       ncg     rms          rms(c)
DAV:   1    -0.125527183156E+03    0.13878E-04   -0.37537E-05 16272   0.246E-02    0.137E-03
DAV:   2    -0.125527183012E+03    0.14446E-06   -0.12388E-06 14208   0.529E-03
  58 F= -.12710034E+03 E0= -.12709956E+03  d E =-.766478E-05  mag=    -0.0000
 curvature:  -0.35 expect dE=-0.456E-05 dE for cont linesearch -0.368E-09
 trial: gam= 0.57161 g(F)=  0.131E-04 g(S)=  0.000E+00 ort =-0.189E-06 (trialstep = 0.277E+00)
 search vector abs. value=  0.240E-04
 bond charge predicted
       N       E                     dE             d eps       ncg     rms          rms(c)
DAV:   1    -0.125527214318E+03   -0.31162E-04   -0.17857E-04 17664   0.549E-02    0.292E-03
DAV:   2    -0.125527214191E+03    0.12673E-06   -0.23440E-06 14304   0.667E-03
  59 F= -.12710034E+03 E0= -.12709956E+03  d E =-.241010E-05  mag=    -0.0000
 trial-energy change:   -0.000002  1 .order   -0.000002   -0.000004   -0.000001
 step:   0.4429(harm=  0.4429)  dis= 0.00016  next Energy=  -127.100343 (dE=-0.287E-05)
 bond charge predicted
       N       E                     dE             d eps       ncg     rms          rms(c)
DAV:   1    -0.125527231858E+03   -0.17540E-04   -0.60636E-05 22464   0.324E-02    0.220E-03
DAV:   2    -0.125527231767E+03    0.90800E-07   -0.71281E-07 14592   0.398E-03
  60 F= -.12710034E+03 E0= -.12709956E+03  d E =-.272646E-05  mag=    -0.0000
 curvature:  -0.41 expect dE=-0.212E-05 dE for cont linesearch -0.352E-08
 trial: gam= 0.40960 g(F)=  0.517E-05 g(S)=  0.000E+00 ort =-0.454E-06 (trialstep = 0.310E+00)
 search vector abs. value=  0.882E-05
 bond charge predicted
       N       E                     dE             d eps       ncg     rms          rms(c)
DAV:   1    -0.125527255771E+03   -0.23913E-04   -0.10292E-04 21792   0.400E-02    0.211E-03
DAV:   2    -0.125527255627E+03    0.14383E-06   -0.12019E-06 14208   0.480E-03
  61 F= -.12710034E+03 E0= -.12709956E+03  d E =-.123895E-05  mag=    -0.0000
 trial-energy change:   -0.000001  1 .order   -0.000001   -0.000002   -0.000001
 step:   0.7940(harm=  0.7940)  dis= 0.00016  next Energy=  -127.100345 (dE=-0.198E-05)
 bond charge predicted
       N       E                     dE             d eps       ncg     rms          rms(c)
DAV:   1    -0.125527291735E+03   -0.35964E-04   -0.24759E-04 19296   0.621E-02    0.335E-03
DAV:   2    -0.125527291446E+03    0.28926E-06   -0.27078E-06 14208   0.687E-03
  62 F= -.12710034E+03 E0= -.12709956E+03  d E =-.175164E-05  mag=    -0.0000
 curvature:  -0.70 expect dE=-0.468E-05 dE for cont linesearch -0.448E-08
 trial: gam= 1.25222 g(F)=  0.667E-05 g(S)=  0.000E+00 ort =-0.237E-06 (trialstep = 0.180E+00)
 search vector abs. value=  0.199E-04
 bond charge predicted
       N       E                     dE             d eps       ncg     rms          rms(c)
DAV:   1    -0.125527315820E+03   -0.24085E-04   -0.72221E-05 17808   0.337E-02    0.188E-03
DAV:   2    -0.125527315739E+03    0.80845E-07   -0.81914E-07 14208   0.437E-03
  63 F= -.12710035E+03 E0= -.12709956E+03  d E =-.963402E-06  mag=     0.0000
 ZBRENT: can't locate minimum, use default step
 trial-energy change:   -0.000001  1 .order   -0.000001   -0.000001   -0.000001
 step:   0.7211(harm=  0.7830)  dis= 0.00017  next Energy=  -127.100347 (dE=-0.249E-05)
 bond charge predicted
       N       E                     dE             d eps       ncg     rms          rms(c)
DAV:   1    -0.125527387672E+03   -0.71852E-04   -0.68055E-04 19536   0.102E-01    0.483E-03
DAV:   2    -0.125527387260E+03    0.41137E-06   -0.61453E-06 14592   0.106E-02
  64 F= -.12710035E+03 E0= -.12709956E+03  d E =-.252875E-05  mag=     0.0000
 curvature:  -1.21 expect dE=-0.129E-04 dE for cont linesearch -0.190E-06
 ZBRENT: increasing intervall
 opt :   1.8028  next Energy=  -127.100346 (dE=-0.105E-05)
 bond charge predicted
       N       E                     dE             d eps       ncg     rms          rms(c)
DAV:   1    -0.125527525210E+03   -0.13754E-03   -0.26930E-03 14208   0.203E-01    0.946E-03
DAV:   2    -0.125527524353E+03    0.85672E-06   -0.26602E-05 14256   0.219E-02    0.591E-03
DAV:   3    -0.125527524392E+03   -0.38452E-07   -0.44316E-06 14208   0.876E-03
  65 F= -.12710034E+03 E0= -.12709956E+03  d E =0.301686E-06  mag=    -0.0000
 curvature:   9.43 expect dE= 0.630E-03 dE for cont linesearch  0.271E-04
 ZBRENT: bracketing found
 ZBRENT: interpolating
 opt :   0.9260  next Energy=  -127.100347 (dE=-0.271E-05)
 bond charge predicted
       N       E                     dE             d eps       ncg     rms          rms(c)
DAV:   1    -0.125527414526E+03    0.10983E-03   -0.17832E-03 14544   0.165E-01    0.696E-03
DAV:   2    -0.125527414059E+03    0.46729E-06   -0.20256E-05 20592   0.188E-02    0.436E-03
DAV:   3    -0.125527413889E+03    0.17049E-06   -0.29961E-06 20496   0.740E-03
  66 F= -.12710035E+03 E0= -.12709956E+03  d E =-.264795E-05  mag=    -0.0000
 curvature:  -0.06 expect dE=-0.109E-05 dE for cont linesearch -0.157E-09
 trial: gam= 2.39914 g(F)=  0.173E-04 g(S)=  0.000E+00 ort = 0.223E-06 (trialstep = 0.493E-01)
 search vector abs. value=  0.133E-03
 bond charge predicted
       N       E                     dE             d eps       ncg     rms          rms(c)
DAV:   1    -0.125527432257E+03   -0.18198E-04   -0.36184E-05 14880   0.238E-02    0.102E-03
DAV:   2    -0.125527432223E+03    0.34715E-07   -0.10166E-06 18720   0.511E-03
  67 F= -.12710035E+03 E0= -.12709956E+03  d E =-.821061E-06  mag=    -0.0000
 ZBRENT: can't locate minimum, use default step
 trial-energy change:   -0.000001  1 .order   -0.000001   -0.000001   -0.000001
 step:   0.1973(harm=  0.4470)  dis= 0.00012  next Energy=  -127.100351 (dE=-0.398E-05)
 bond charge predicted
       N       E                     dE             d eps       ncg     rms          rms(c)
DAV:   1    -0.125527486987E+03   -0.54730E-04   -0.32829E-04 17040   0.703E-02    0.331E-03
DAV:   2    -0.125527486795E+03    0.19149E-06   -0.33625E-06 22032   0.760E-03
  68 F= -.12710035E+03 E0= -.12709957E+03  d E =-.285901E-05  mag=    -0.0000
 curvature:  -1.01 expect dE=-0.121E-04 dE for cont linesearch -0.157E-05
 ZBRENT: increasing intervall
 opt :   0.4934  next Energy=  -127.100354 (dE=-0.667E-05)
 bond charge predicted
       N       E                     dE             d eps       ncg     rms          rms(c)
DAV:   1    -0.125527595382E+03   -0.10840E-03   -0.12949E-03 14208   0.140E-01    0.653E-03
DAV:   2    -0.125527594937E+03    0.44460E-06   -0.12413E-05 16368   0.148E-02    0.402E-03
DAV:   3    -0.125527594983E+03   -0.45881E-07   -0.18637E-06 14304   0.547E-03
  69 F= -.12710035E+03 E0= -.12709957E+03  d E =-.602553E-05  mag=    -0.0000
 curvature:  -2.46 expect dE=-0.203E-04 dE for cont linesearch -0.727E-06
 ZBRENT: increasing intervall
 opt :   1.0854  next Energy=  -127.100352 (dE=-0.495E-05)
 bond charge predicted
       N       E                     dE             d eps       ncg     rms          rms(c)
DAV:   1    -0.125527808541E+03   -0.21360E-03   -0.53216E-03 14208   0.282E-01    0.127E-02
DAV:   2    -0.125527807098E+03    0.14421E-05   -0.51672E-05 16848   0.298E-02    0.779E-03
DAV:   3    -0.125527806911E+03    0.18742E-06   -0.72450E-06 16608   0.102E-02
  70 F= -.12710036E+03 E0= -.12709957E+03  d E =-.791069E-05  mag=    -0.0000
 curvature:   3.62 expect dE= 0.756E-04 dE for cont linesearch  0.664E-06
 ZBRENT: bracketing found
 ZBRENT: interpolating
 opt :   0.8247  next Energy=  -127.100356 (dE=-0.855E-05)
 bond charge predicted
       N       E                     dE             d eps       ncg     rms          rms(c)
DAV:   1    -0.125527714781E+03    0.92318E-04   -0.10047E-03 16368   0.123E-01    0.496E-03
DAV:   2    -0.125527714494E+03    0.28695E-06   -0.10845E-05 19248   0.137E-02    0.300E-03
DAV:   3    -0.125527714430E+03    0.63423E-07   -0.15884E-06 19296   0.553E-03
  71 F= -.12710036E+03 E0= -.12709957E+03  d E =-.792400E-05  mag=     0.0000
 curvature:  -3.51 expect dE=-0.429E-04 dE for cont linesearch -0.391E-06
 ZBRENT: interpolating
 opt :   0.9389  next Energy=  -127.100355 (dE=-0.814E-05)
 bond charge predicted
       N       E                     dE             d eps       ncg     rms          rms(c)
DAV:   1    -0.125527755263E+03   -0.40769E-04   -0.19583E-04 14208   0.542E-02    0.221E-03
DAV:   2    -0.125527755195E+03    0.68283E-07   -0.25919E-06 18192   0.730E-03
  72 F= -.12710036E+03 E0= -.12709957E+03  d E =-.815749E-05  mag=     0.0000
 curvature:  -1.97 expect dE=-0.299E-04 dE for cont linesearch -0.470E-07
 trial: gam= 0.83214 g(F)=  0.152E-04 g(S)=  0.000E+00 ort = 0.178E-05 (trialstep = 0.227E+00)
 search vector abs. value=  0.110E-03
 bond charge predicted
       N       E                     dE             d eps       ncg     rms          rms(c)
DAV:   1    -0.125527833547E+03   -0.78284E-04   -0.58173E-04 14208   0.939E-02    0.455E-03
DAV:   2    -0.125527833360E+03    0.18733E-06   -0.65369E-06 14400   0.113E-02
  73 F= -.12710036E+03 E0= -.12709957E+03  d E =-.298280E-05  mag=     0.0000
 trial-energy change:   -0.000003  1 .order   -0.000003   -0.000004   -0.000003
 step:   0.8268(harm=  0.8268)  dis= 0.00043  next Energy=  -127.100362 (dE=-0.688E-05)
 bond charge predicted
       N       E                     dE             d eps       ncg     rms          rms(c)
DAV:   1    -0.125528034911E+03   -0.20136E-03   -0.40655E-03 14208   0.248E-01    0.116E-02
DAV:   2    -0.125528034353E+03    0.55789E-06   -0.42360E-05 16704   0.277E-02    0.741E-03
DAV:   3    -0.125528034500E+03   -0.14634E-06   -0.64139E-06 14208   0.104E-02
  74 F= -.12710036E+03 E0= -.12709958E+03  d E =-.578841E-05  mag=    -0.0000
 curvature:  -2.74 expect dE=-0.858E-04 dE for cont linesearch -0.750E-06
 ZBRENT: interpolating
 opt :   0.6392  next Energy=  -127.100362 (dE=-0.630E-05)
 bond charge predicted
       N       E                     dE             d eps       ncg     rms          rms(c)
DAV:   1    -0.125527972608E+03    0.61745E-04   -0.38925E-04 15072   0.768E-02    0.310E-03
DAV:   2    -0.125527972508E+03    0.10064E-06   -0.54428E-06 14208   0.106E-02
  75 F= -.12710036E+03 E0= -.12709958E+03  d E =-.585424E-05  mag=     0.0000
 curvature:  -1.88 expect dE=-0.331E-04 dE for cont linesearch -0.259E-07
 trial: gam= 1.13988 g(F)=  0.176E-04 g(S)=  0.000E+00 ort = 0.123E-05 (trialstep = 0.209E+00)
 search vector abs. value=  0.164E-03
 bond charge predicted
       N       E                     dE             d eps       ncg     rms          rms(c)
DAV:   1    -0.125528060068E+03   -0.87460E-04   -0.70397E-04 19536   0.101E-01    0.433E-03
DAV:   2    -0.125528059861E+03    0.20731E-06   -0.72991E-06 17376   0.119E-02
  76 F= -.12710037E+03 E0= -.12709958E+03  d E =-.369851E-05  mag=     0.0000
 ZBRENT: can't locate minimum, use default step
 trial-energy change:   -0.000004  1 .order   -0.000004   -0.000004   -0.000004
 step:   0.8343(harm=  2.5487)  dis= 0.00054  next Energy=  -127.100386 (dE=-0.242E-04)
 bond charge predicted
       N       E                     dE             d eps       ncg     rms          rms(c)
DAV:   1    -0.125528318101E+03   -0.25803E-03   -0.60705E-03 14208   0.300E-01    0.145E-02
DAV:   2    -0.125528317198E+03    0.90280E-06   -0.62764E-05 16512   0.334E-02    0.905E-03
DAV:   3    -0.125528317398E+03   -0.19966E-06   -0.88231E-06 14208   0.121E-02
  77 F= -.12710037E+03 E0= -.12709959E+03  d E =-.103210E-04  mag=     0.0000
 curvature:  -5.08 expect dE=-0.366E-04 dE for cont linesearch -0.995E-08
 trial: gam= 0.39355 g(F)=  0.721E-05 g(S)=  0.000E+00 ort = 0.566E-06 (trialstep = 0.334E+00)
 search vector abs. value=  0.330E-04
 bond charge predicted
       N       E                     dE             d eps       ncg     rms          rms(c)
DAV:   1    -0.125528375360E+03   -0.58162E-04   -0.40339E-04 14928   0.792E-02    0.423E-03
DAV:   2    -0.125528375153E+03    0.20722E-06   -0.56587E-06 14880   0.116E-02
  78 F= -.12710037E+03 E0= -.12709959E+03  d E =-.166745E-05  mag=     0.0000
 trial-energy change:   -0.000002  1 .order   -0.000002   -0.000002   -0.000001
 step:   0.4442(harm=  0.4442)  dis= 0.00012  next Energy=  -127.100373 (dE=-0.165E-05)
 bond charge predicted
       N       E                     dE             d eps       ncg     rms          rms(c)
DAV:   1    -0.125528394157E+03   -0.18797E-04   -0.39413E-05 15072   0.261E-02    0.202E-03
DAV:   2    -0.125528393826E+03    0.33099E-06   -0.17976E-06 14496   0.715E-03
  79 F= -.12710037E+03 E0= -.12709959E+03  d E =-.179227E-05  mag=     0.0000
 curvature:  -0.99 expect dE=-0.795E-05 dE for cont linesearch -0.363E-07
 ZBRENT: interpolating
 opt :   0.4029  next Energy=  -127.100373 (dE=-0.182E-05)
 bond charge predicted
       N       E                     dE             d eps       ncg     rms          rms(c)
DAV:   1    -0.125528386860E+03    0.72963E-05   -0.68968E-06 14400   0.113E-02    0.556E-04
DAV:   2    -0.125528386785E+03    0.75835E-07   -0.53048E-07 20208   0.379E-03
  80 F= -.12710037E+03 E0= -.12709959E+03  d E =-.168146E-05  mag=    -0.0000
 curvature:  -0.62 expect dE=-0.388E-05 dE for cont linesearch -0.242E-08
 trial: gam= 1.22432 g(F)=  0.628E-05 g(S)=  0.000E+00 ort =-0.360E-06 (trialstep = 0.209E+00)
 search vector abs. value=  0.548E-04
 bond charge predicted
       N       E                     dE             d eps       ncg     rms          rms(c)
DAV:   1    -0.125528435135E+03   -0.48274E-04   -0.25429E-04 16608   0.613E-02    0.280E-03
DAV:   2    -0.125528435075E+03    0.59921E-07   -0.25035E-06 20160   0.656E-03
  81 F= -.12710037E+03 E0= -.12709959E+03  d E =-.974836E-06  mag=     0.0000
 ZBRENT: can't locate minimum, use default step
 trial-energy change:   -0.000001  1 .order   -0.000001   -0.000001   -0.000001
 step:   0.8361(harm=  1.8506)  dis= 0.00032  next Energy=  -127.100379 (dE=-0.540E-05)
 bond charge predicted
       N       E                     dE             d eps       ncg     rms          rms(c)
DAV:   1    -0.125528579080E+03   -0.14395E-03   -0.22508E-03 14208   0.183E-01    0.861E-03
DAV:   2    -0.125528578509E+03    0.57141E-06   -0.21134E-05 14304   0.192E-02    0.531E-03
DAV:   3    -0.125528578490E+03    0.18592E-07   -0.32263E-06 20208   0.657E-03
  82 F= -.12710038E+03 E0= -.12709959E+03  d E =-.247441E-05  mag=     0.0000
 curvature:  -5.37 expect dE=-0.112E-03 dE for cont linesearch -0.103E-06
 trial: gam= 1.91986 g(F)=  0.208E-04 g(S)=  0.000E+00 ort =-0.103E-05 (trialstep = 0.837E-01)
 search vector abs. value=  0.219E-03
 bond charge predicted
       N       E                     dE             d eps       ncg     rms          rms(c)
DAV:   1    -0.125528617372E+03   -0.38863E-04   -0.17743E-04 17712   0.515E-02    0.267E-03
DAV:   2    -0.125528617321E+03    0.50506E-07   -0.15947E-06 18816   0.537E-03
  83 F= -.12710038E+03 E0= -.12709959E+03  d E =-.167158E-05  mag=     0.0000
 ZBRENT: can't locate minimum, use default step
 trial-energy change:   -0.000002  1 .order   -0.000002   -0.000002   -0.000002
 step:   0.3350(harm=  1.8506)  dis= 0.00025  next Energy=  -127.100393 (dE=-0.174E-04)
 bond charge predicted
       N       E                     dE             d eps       ncg     rms          rms(c)
DAV:   1    -0.125528731536E+03   -0.11416E-03   -0.15090E-03 14208   0.151E-01    0.697E-03
DAV:   2    -0.125528731173E+03    0.36281E-06   -0.14295E-05 14976   0.159E-02    0.436E-03
DAV:   3    -0.125528731177E+03   -0.36598E-08   -0.21116E-06 14688   0.570E-03
  84 F= -.12710038E+03 E0= -.12709960E+03  d E =-.402995E-05  mag=    -0.0000
 curvature:  -2.84 expect dE=-0.208E-04 dE for cont linesearch -0.840E-08
 trial: gam= 0.37915 g(F)=  0.731E-05 g(S)=  0.000E+00 ort =-0.805E-06 (trialstep = 0.134E+00)
 search vector abs. value=  0.382E-04
 bond charge predicted
       N       E                     dE             d eps       ncg     rms          rms(c)
DAV:   1    -0.125528755909E+03   -0.24736E-04   -0.81904E-05 16176   0.351E-02    0.185E-03
DAV:   2    -0.125528755865E+03    0.43838E-07   -0.96473E-07 14208   0.451E-03
  85 F= -.12710038E+03 E0= -.12709960E+03  d E =-.100414E-05  mag=    -0.0000
 ZBRENT: can't locate minimum, use default step
 trial-energy change:   -0.000001  1 .order   -0.000001   -0.000001   -0.000001
 step:   0.5360(harm=  2.9256)  dis= 0.00016  next Energy=  -127.100390 (dE=-0.102E-04)
 bond charge predicted
       N       E                     dE             d eps       ncg     rms          rms(c)
DAV:   1    -0.125528828719E+03   -0.72810E-04   -0.68964E-04 14208   0.102E-01    0.492E-03
DAV:   2    -0.125528828438E+03    0.28074E-06   -0.75718E-06 14208   0.117E-02
  86 F= -.12710038E+03 E0= -.12709960E+03  d E =-.256251E-05  mag=    -0.0000
 curvature:  -2.13 expect dE=-0.681E-05 dE for cont linesearch -0.238E-06
 ZBRENT: extrapolating
 opt :   0.7158  next Energy=  -127.100383 (dE=-0.275E-05)
 bond charge predicted
       N       E                     dE             d eps       ncg     rms          rms(c)
DAV:   1    -0.125528860298E+03   -0.31579E-04   -0.12774E-04 14208   0.449E-02    0.264E-03
DAV:   2    -0.125528860202E+03    0.96129E-07   -0.14490E-06 14592   0.563E-03
  87 F= -.12710038E+03 E0= -.12709960E+03  d E =-.255108E-05  mag=    -0.0000
 curvature:  -1.66 expect dE=-0.103E-04 dE for cont linesearch -0.306E-07
 trial: gam= 1.14605 g(F)=  0.623E-05 g(S)=  0.000E+00 ort =-0.839E-06 (trialstep = 0.176E+00)
 search vector abs. value=  0.545E-04
 bond charge predicted
       N       E                     dE             d eps       ncg     rms          rms(c)
DAV:   1    -0.125528900055E+03   -0.39758E-04   -0.19076E-04 20640   0.539E-02    0.271E-03
DAV:   2    -0.125528899888E+03    0.16772E-06   -0.18207E-06 14736   0.630E-03
  88 F= -.12710038E+03 E0= -.12709960E+03  d E =-.750784E-06  mag=    -0.0000
 trial-energy change:   -0.000001  1 .order   -0.000001   -0.000001   -0.000001
 step:   0.5771(harm=  0.5771)  dis= 0.00023  next Energy=  -127.100384 (dE=-0.152E-05)
 bond charge predicted
       N       E                     dE             d eps       ncg     rms          rms(c)
DAV:   1    -0.125528989670E+03   -0.89614E-04   -0.10061E-03 14688   0.123E-01    0.576E-03
DAV:   2    -0.125528989295E+03    0.37457E-06   -0.10157E-05 14592   0.138E-02    0.363E-03
DAV:   3    -0.125528989436E+03   -0.14058E-06   -0.18713E-06 14880   0.609E-03
  89 F= -.12710038E+03 E0= -.12709960E+03  d E =-.124313E-05  mag=     0.0000
 curvature:  -2.98 expect dE=-0.263E-04 dE for cont linesearch -0.325E-06
 ZBRENT: interpolating
 opt :   0.4167  next Energy=  -127.100384 (dE=-0.144E-05)
 bond charge predicted
       N       E                     dE             d eps       ncg     rms          rms(c)
DAV:   1    -0.125528953950E+03    0.35345E-04   -0.16003E-04 14208   0.493E-02    0.203E-03
DAV:   2    -0.125528953892E+03    0.58207E-07   -0.22081E-06 15792   0.673E-03
  90 F= -.12710038E+03 E0= -.12709960E+03  d E =-.126333E-05  mag=     0.0000
 curvature:  -1.79 expect dE=-0.109E-04 dE for cont linesearch -0.228E-10
 trial: gam= 0.44787 g(F)=  0.610E-05 g(S)=  0.000E+00 ort =-0.263E-07 (trialstep = 0.224E+00)
 search vector abs. value=  0.170E-04
 bond charge predicted
       N       E                     dE             d eps       ncg     rms          rms(c)
DAV:   1    -0.125528981064E+03   -0.27114E-04   -0.99949E-05 21264   0.389E-02    0.183E-03
DAV:   2    -0.125528980989E+03    0.74705E-07   -0.14310E-06 16944   0.540E-03
  91 F= -.12710038E+03 E0= -.12709960E+03  d E =-.109260E-05  mag=     0.0000
 trial-energy change:   -0.000001  1 .order   -0.000001   -0.000001   -0.000001
 step:   0.6415(harm=  0.6415)  dis= 0.00014  next Energy=  -127.100386 (dE=-0.195E-05)
 bond charge predicted
       N       E                     dE             d eps       ncg     rms          rms(c)
DAV:   1    -0.125529030212E+03   -0.49148E-04   -0.32609E-04 14208   0.714E-02    0.386E-03
DAV:   2    -0.125529029980E+03    0.23142E-06   -0.45273E-06 14448   0.902E-03
  92 F= -.12710039E+03 E0= -.12709960E+03  d E =-.154207E-05  mag=     0.0000
 curvature:  -0.90 expect dE=-0.413E-05 dE for cont linesearch -0.256E-07
 trial: gam= 0.99902 g(F)=  0.462E-05 g(S)=  0.000E+00 ort =-0.696E-06 (trialstep = 0.259E+00)
 search vector abs. value=  0.202E-04
 bond charge predicted
       N       E                     dE             d eps       ncg     rms          rms(c)
DAV:   1    -0.125529065029E+03   -0.34817E-04   -0.14230E-04 14352   0.478E-02    0.269E-03
DAV:   2    -0.125529064943E+03    0.85426E-07   -0.18986E-06 14208   0.632E-03
  93 F= -.12710039E+03 E0= -.12709960E+03  d E =-.421049E-06  mag=    -0.0000
 trial-energy change:   -0.000000  1 .order   -0.000001   -0.000001   -0.000000
 step:   0.2948(harm=  0.2948)  dis= 0.00007  next Energy=  -127.100386 (dE=-0.578E-06)
 bond charge predicted
       N       E                     dE             d eps       ncg     rms          rms(c)
DAV:   1    -0.125529069833E+03   -0.48048E-05   -0.25724E-06 15024   0.720E-03    0.819E-04
DAV:   2    -0.125529069799E+03    0.34708E-07   -0.29100E-07 14256   0.276E-03
  94 F= -.12710039E+03 E0= -.12709960E+03  d E =-.469066E-06  mag=    -0.0000
 curvature:  -0.76 expect dE=-0.245E-05 dE for cont linesearch -0.211E-08
 trial: gam= 0.32416 g(F)=  0.323E-05 g(S)=  0.000E+00 ort =-0.237E-06 (trialstep = 0.266E+00)
 search vector abs. value=  0.520E-05
 bond charge predicted
       N       E                     dE             d eps       ncg     rms          rms(c)
DAV:   1    -0.125529085508E+03   -0.15674E-04   -0.38558E-05 14736   0.249E-02    0.136E-03
DAV:   2    -0.125529085476E+03    0.31906E-07   -0.63293E-07 16464   0.351E-03
  95 F= -.12710039E+03 E0= -.12709960E+03  d E =-.614832E-06  mag=    -0.0000
 trial-energy change:   -0.000001  1 .order   -0.000001   -0.000001   -0.000000
 step:   0.6389(harm=  0.6389)  dis= 0.00010  next Energy=  -127.100387 (dE=-0.101E-05)
 bond charge predicted
       N       E                     dE             d eps       ncg     rms          rms(c)
DAV:   1    -0.125529106912E+03   -0.21404E-04   -0.73455E-05 14640   0.345E-02    0.198E-03
DAV:   2    -0.125529106852E+03    0.59948E-07   -0.10629E-06 14208   0.448E-03
  96 F= -.12710039E+03 E0= -.12709960E+03  d E =-.869861E-06  mag=    -0.0000
 curvature:  -0.53 expect dE=-0.182E-05 dE for cont linesearch -0.208E-08
 trial: gam= 1.09251 g(F)=  0.346E-05 g(S)=  0.000E+00 ort =-0.143E-06 (trialstep = 0.189E+00)
 search vector abs. value=  0.935E-05
 bond charge predicted
       N       E                     dE             d eps       ncg     rms          rms(c)
DAV:   1    -0.125529122053E+03   -0.15141E-04   -0.34156E-05 14208   0.237E-02    0.137E-03
DAV:   2    -0.125529122028E+03    0.24826E-07   -0.50466E-07 14208   0.329E-03
  97 F= -.12710039E+03 E0= -.12709960E+03  d E =-.420131E-06  mag=    -0.0000
 trial-energy change:   -0.000000  1 .order   -0.000000   -0.000001   -0.000000
 step:   0.3394(harm=  0.3394)  dis= 0.00006  next Energy=  -127.100387 (dE=-0.560E-06)
 bond charge predicted
       N       E                     dE             d eps       ncg     rms          rms(c)
DAV:   1    -0.125529133846E+03   -0.11793E-04   -0.21504E-05 15792   0.188E-02    0.112E-03
DAV:   2    -0.125529133821E+03    0.24507E-07   -0.33711E-07 14208   0.283E-03
  98 F= -.12710039E+03 E0= -.12709960E+03  d E =-.519854E-06  mag=    -0.0000
 curvature:  -0.48 expect dE=-0.769E-06 dE for cont linesearch -0.268E-10
 trial: gam= 0.32862 g(F)=  0.160E-05 g(S)=  0.000E+00 ort = 0.228E-07 (trialstep = 0.219E+00)
 search vector abs. value=  0.262E-05
 bond charge predicted
       N       E                     dE             d eps       ncg     rms          rms(c)
DAV:   1    -0.125529143311E+03   -0.94652E-05   -0.13307E-05 14304   0.149E-02    0.819E-04
DAV:   2    -0.125529143296E+03    0.15176E-07   -0.28046E-07 14208   0.262E-03
  99 F= -.12710039E+03 E0= -.12709960E+03  d E =-.295932E-06  mag=    -0.0000
 trial-energy change:   -0.000000  1 .order   -0.000000   -0.000000   -0.000000
 step:   0.6688(harm=  0.6688)  dis= 0.00005  next Energy=  -127.100388 (dE=-0.537E-06)
 bond charge predicted
       N       E                     dE             d eps       ncg     rms          rms(c)
DAV:   1    -0.125529162331E+03   -0.19021E-04   -0.55652E-05 14208   0.302E-02    0.161E-03
DAV:   2    -0.125529162295E+03    0.36202E-07   -0.79322E-07 14304   0.401E-03
 100 F= -.12710039E+03 E0= -.12709960E+03  d E =-.489998E-06  mag=    -0.0000
 curvature:  -0.55 expect dE=-0.956E-06 dE for cont linesearch -0.470E-09
 trial: gam= 1.11796 g(F)=  0.175E-05 g(S)=  0.000E+00 ort =-0.475E-07 (trialstep = 0.165E+00)
 search vector abs. value=  0.493E-05
 bond charge predicted
       N       E                     dE             d eps       ncg     rms          rms(c)
DAV:   1    -0.125529172572E+03   -0.10241E-04   -0.14056E-05 14208   0.152E-02    0.948E-04
DAV:   2    -0.125529172557E+03    0.15249E-07   -0.24389E-07 14208   0.247E-03
 101 F= -.12710039E+03 E0= -.12709960E+03  d E =-.205907E-06  mag=    -0.0000
 trial-energy change:   -0.000000  1 .order   -0.000000   -0.000000   -0.000000
 step:   0.3950(harm=  0.3950)  dis= 0.00004  next Energy=  -127.100388 (dE=-0.335E-06)
 bond charge predicted
       N       E                     dE             d eps       ncg     rms          rms(c)
DAV:   1    -0.125529186739E+03   -0.14167E-04   -0.28448E-05 15120   0.214E-02    0.116E-03
DAV:   2    -0.125529186718E+03    0.21319E-07   -0.41495E-07 14688   0.308E-03
 102 F= -.12710039E+03 E0= -.12709960E+03  d E =-.320196E-06  mag=    -0.0000
 curvature:  -0.57 expect dE=-0.608E-06 dE for cont linesearch -0.159E-08
 trial: gam= 0.40835 g(F)=  0.106E-05 g(S)=  0.000E+00 ort = 0.117E-06 (trialstep = 0.211E+00)
 search vector abs. value=  0.198E-05
 bond charge predicted
       N       E                     dE             d eps       ncg     rms          rms(c)
DAV:   1    -0.125529194769E+03   -0.80303E-05   -0.99716E-06 14880   0.130E-02    0.715E-04
DAV:   2    -0.125529194754E+03    0.14715E-07   -0.22458E-07 14208   0.242E-03
 103 F= -.12710039E+03 E0= -.12709960E+03  d E =-.190322E-06  mag=    -0.0000
 trial-energy change:   -0.000000  1 .order   -0.000000   -0.000000   -0.000000
 step:   0.6145(harm=  0.6145)  dis= 0.00004  next Energy=  -127.100388 (dE=-0.341E-06)
 bond charge predicted
       N       E                     dE             d eps       ncg     rms          rms(c)
DAV:   1    -0.125529209923E+03   -0.15154E-04   -0.36885E-05 14208   0.247E-02    0.126E-03
DAV:   2    -0.125529209895E+03    0.28059E-07   -0.52436E-07 14208   0.334E-03
 104 F= -.12710039E+03 E0= -.12709960E+03  d E =-.306525E-06  mag=    -0.0000
 curvature:  -0.55 expect dE=-0.717E-06 dE for cont linesearch -0.101E-09
 trial: gam= 1.30937 g(F)=  0.131E-05 g(S)=  0.000E+00 ort =-0.191E-07 (trialstep = 0.124E+00)
 search vector abs. value=  0.465E-05
 bond charge predicted
       N       E                     dE             d eps       ncg     rms          rms(c)
DAV:   1    -0.125529217817E+03   -0.78947E-05   -0.77629E-06 14208   0.112E-02    0.714E-04
DAV:   2    -0.125529217805E+03    0.11973E-07   -0.15633E-07 14208   0.203E-03
 105 F= -.12710039E+03 E0= -.12709960E+03  d E =-.137991E-06  mag=    -0.0000
 ZBRENT: can't locate minimum, use default step
 trial-energy change:   -0.000000  1 .order   -0.000000   -0.000000   -0.000000
 step:   0.4963(harm=  0.5442)  dis= 0.00005  next Energy=  -127.100389 (dE=-0.349E-06)
 bond charge predicted
       N       E                     dE             d eps       ncg     rms          rms(c)
DAV:   1    -0.125529241381E+03   -0.23564E-04   -0.73829E-05 14544   0.337E-02    0.168E-03
DAV:   2    -0.125529241331E+03    0.49600E-07   -0.92721E-07 14352   0.426E-03
 106 F= -.12710039E+03 E0= -.12709960E+03  d E =-.376702E-06  mag=    -0.0000
 curvature:  -0.97 expect dE=-0.911E-06 dE for cont linesearch -0.231E-07
 ZBRENT: increasing intervall
 opt :   1.2406  next Energy=  -127.100388 (dE=-0.134E-06)
 bond charge predicted
       N       E                     dE             d eps       ncg     rms          rms(c)
DAV:   1    -0.125529287710E+03   -0.46329E-04   -0.29229E-04 14208   0.671E-02    0.334E-03
DAV:   2    -0.125529287548E+03    0.16171E-06   -0.34067E-06 14208   0.789E-03
 107 F= -.12710039E+03 E0= -.12709960E+03  d E =0.398150E-07  mag=    -0.0000
 curvature:  10.25 expect dE= 0.493E-04 dE for cont linesearch  0.233E-05
 ZBRENT: bracketing found
 ZBRENT: interpolating
 opt :   0.6779  next Energy=  -127.100389 (dE=-0.407E-06)
 bond charge predicted
       N       E                     dE             d eps       ncg     rms          rms(c)
DAV:   1    -0.125529252795E+03    0.34915E-04   -0.18051E-04 14208   0.520E-02    0.216E-03
DAV:   2    -0.125529252764E+03    0.30987E-07   -0.25691E-06 15360   0.679E-03
 108 F= -.12710039E+03 E0= -.12709960E+03  d E =-.430846E-06  mag=    -0.0000
 curvature:  -0.13 expect dE=-0.239E-06 dE for cont linesearch -0.308E-08
 ZBRENT: interpolating
 opt :   0.5875  next Energy=  -127.100389 (dE=-0.446E-06)
 bond charge predicted
       N       E                     dE             d eps       ncg     rms          rms(c)
DAV:   1    -0.125529247086E+03    0.57087E-05   -0.36398E-06 20016   0.818E-03    0.744E-04
DAV:   2    -0.125529247076E+03    0.98080E-08   -0.11380E-07 14928   0.173E-03
 109 F= -.12710039E+03 E0= -.12709960E+03  d E =-.402556E-06  mag=    -0.0000
 curvature:  -0.64 expect dE=-0.820E-06 dE for cont linesearch -0.120E-10
 trial: gam= 0.72563 g(F)=  0.128E-05 g(S)=  0.000E+00 ort =-0.933E-08 (trialstep = 0.217E+00)
 search vector abs. value=  0.372E-05
 bond charge predicted
       N       E                     dE             d eps       ncg     rms          rms(c)
DAV:   1    -0.125529260340E+03   -0.13254E-04   -0.20476E-05 14208   0.179E-02    0.741E-04
DAV:   2    -0.125529260341E+03   -0.13015E-08   -0.33608E-07 15360   0.277E-03
 110 F= -.12710039E+03 E0= -.12709961E+03  d E =-.241871E-06  mag=    -0.0000
 trial-energy change:   -0.000000  1 .order   -0.000000   -0.000000   -0.000000
 step:   0.7319(harm=  0.7319)  dis= 0.00007  next Energy=  -127.100389 (dE=-0.467E-06)
 bond charge predicted
       N       E                     dE             d eps       ncg     rms          rms(c)
DAV:   1    -0.125529291500E+03   -0.31160E-04   -0.11254E-04 14208   0.422E-02    0.203E-03
DAV:   2    -0.125529291446E+03    0.54442E-07   -0.14123E-06 17280   0.510E-03
 111 F= -.12710039E+03 E0= -.12709961E+03  d E =-.394918E-06  mag=    -0.0000
 curvature:  -1.07 expect dE=-0.249E-05 dE for cont linesearch -0.942E-09
 trial: gam= 1.95330 g(F)=  0.233E-05 g(S)=  0.000E+00 ort =-0.573E-07 (trialstep = 0.730E-01)
 search vector abs. value=  0.163E-04
 bond charge predicted
       N       E                     dE             d eps       ncg     rms          rms(c)
DAV:   1    -0.125529301183E+03   -0.96832E-05   -0.88125E-06 14400   0.120E-02    0.837E-04
DAV:   2    -0.125529301173E+03    0.10393E-07   -0.15061E-07 14208   0.199E-03
 112 F= -.12710039E+03 E0= -.12709961E+03  d E =-.136614E-06  mag=    -0.0000
 ZBRENT: can't locate minimum, use default step
 trial-energy change:   -0.000000  1 .order   -0.000000   -0.000000   -0.000000
 step:   0.2919(harm=  0.3447)  dis= 0.00006  next Energy=  -127.100389 (dE=-0.382E-06)
 bond charge predicted
       N       E                     dE             d eps       ncg     rms          rms(c)
DAV:   1    -0.125529330264E+03   -0.29081E-04   -0.88779E-05 14928   0.367E-02    0.180E-03
DAV:   2    -0.125529330218E+03    0.46129E-07   -0.10778E-06 15216   0.460E-03
 113 F= -.12710039E+03 E0= -.12709961E+03  d E =-.413695E-06  mag=    -0.0000
 curvature:  -1.22 expect dE=-0.203E-05 dE for cont linesearch -0.841E-07
 ZBRENT: increasing intervall
 opt :   0.7298  next Energy=  -127.100390 (dE=-0.577E-06)
 bond charge predicted
       N       E                     dE             d eps       ncg     rms          rms(c)
DAV:   1    -0.125529387900E+03   -0.57636E-04   -0.35143E-04 14208   0.731E-02    0.359E-03
DAV:   2    -0.125529387743E+03    0.15710E-06   -0.40538E-06 14880   0.858E-03
 114 F= -.12710039E+03 E0= -.12709961E+03  d E =-.407059E-06  mag=     0.0000
 curvature:  -2.36 expect dE=-0.878E-05 dE for cont linesearch -0.224E-07
 trial: gam= 1.41673 g(F)=  0.372E-05 g(S)=  0.000E+00 ort =-0.393E-06 (trialstep = 0.943E-01)
 search vector abs. value=  0.353E-04
 bond charge predicted
       N       E                     dE             d eps       ncg     rms          rms(c)
DAV:   1    -0.125529406412E+03   -0.18512E-04   -0.31962E-05 14208   0.227E-02    0.143E-03
DAV:   2    -0.125529406379E+03    0.32596E-07   -0.46281E-07 14400   0.339E-03
 115 F= -.12710039E+03 E0= -.12709961E+03  d E =-.262982E-06  mag=    -0.0000
 ZBRENT: can't locate minimum, use default step
 trial-energy change:   -0.000000  1 .order   -0.000000   -0.000000   -0.000000
 step:   0.3772(harm=  0.5198)  dis= 0.00012  next Energy=  -127.100390 (dE=-0.821E-06)
 bond charge predicted
       N       E                     dE             d eps       ncg     rms          rms(c)
DAV:   1    -0.125529462139E+03   -0.55727E-04   -0.31599E-04 15216   0.690E-02    0.322E-03
DAV:   2    -0.125529462036E+03    0.10291E-06   -0.34918E-06 15024   0.828E-03
 116 F= -.12710039E+03 E0= -.12709961E+03  d E =-.805059E-06  mag=    -0.0000
 curvature:  -2.58 expect dE=-0.101E-04 dE for cont linesearch -0.233E-06
 ZBRENT: increasing intervall
 opt :   0.9430  next Energy=  -127.100391 (dE=-0.136E-05)
 bond charge predicted
       N       E                     dE             d eps       ncg     rms          rms(c)
DAV:   1    -0.125529572660E+03   -0.11052E-03   -0.12508E-03 14208   0.138E-01    0.642E-03
DAV:   2    -0.125529572423E+03    0.23645E-06   -0.13410E-05 15648   0.157E-02    0.411E-03
DAV:   3    -0.125529572560E+03   -0.13652E-06   -0.20698E-06 14304   0.628E-03
 117 F= -.12710039E+03 E0= -.12709961E+03  d E =-.110875E-05  mag=    -0.0000
 curvature:  -6.17 expect dE=-0.641E-04 dE for cont linesearch -0.527E-06
 ZBRENT: bracketing found
 ZBRENT: interpolating
 opt :   0.6641  next Energy=  -127.100391 (dE=-0.135E-05)
 bond charge predicted
       N       E                     dE             d eps       ncg     rms          rms(c)
DAV:   1    -0.125529518337E+03    0.54087E-04   -0.30323E-04 14544   0.677E-02    0.276E-03
DAV:   2    -0.125529518277E+03    0.59799E-07   -0.40419E-06 15456   0.898E-03
 118 F= -.12710039E+03 E0= -.12709961E+03  d E =-.115994E-05  mag=     0.0000
 curvature:  -2.84 expect dE=-0.169E-04 dE for cont linesearch -0.235E-09
 trial: gam= 1.06478 g(F)=  0.594E-05 g(S)=  0.000E+00 ort = 0.541E-07 (trialstep = 0.160E+00)
 search vector abs. value=  0.461E-04
 bond charge predicted
       N       E                     dE             d eps       ncg     rms          rms(c)
DAV:   1    -0.125529553004E+03   -0.34668E-04   -0.13929E-04 19104   0.454E-02    0.181E-03
DAV:   2    -0.125529552949E+03    0.55806E-07   -0.19349E-06 17280   0.644E-03
 119 F= -.12710039E+03 E0= -.12709961E+03  d E =-.849059E-06  mag=     0.0000
 ZBRENT: can't locate minimum, use default step
 trial-energy change:   -0.000001  1 .order   -0.000001   -0.000001   -0.000001
 step:   0.6381(harm=  0.7567)  dis= 0.00022  next Energy=  -127.100393 (dE=-0.227E-05)
 bond charge predicted
       N       E                     dE             d eps       ncg     rms          rms(c)
DAV:   1    -0.125529655378E+03   -0.10237E-03   -0.11663E-03 14208   0.133E-01    0.647E-03
DAV:   2    -0.125529654933E+03    0.44478E-06   -0.13860E-05 16080   0.157E-02    0.402E-03
DAV:   3    -0.125529654970E+03   -0.37018E-07   -0.20563E-06 14352   0.609E-03
 120 F= -.12710039E+03 E0= -.12709961E+03  d E =-.141283E-05  mag=     0.0000
 curvature:  -2.79 expect dE=-0.125E-04 dE for cont linesearch -0.524E-06
 ZBRENT: interpolating
 opt :   0.4548  next Energy=  -127.100392 (dE=-0.168E-05)
 bond charge predicted
       N       E                     dE             d eps       ncg     rms          rms(c)
DAV:   1    -0.125529616310E+03    0.38623E-04   -0.16878E-04 14592   0.509E-02    0.211E-03
DAV:   2    -0.125529616275E+03    0.35277E-07   -0.26243E-06 14208   0.727E-03
 121 F= -.12710039E+03 E0= -.12709961E+03  d E =-.157732E-05  mag=     0.0000
 curvature:  -1.44 expect dE=-0.198E-05 dE for cont linesearch -0.116E-08
 trial: gam= 0.36983 g(F)=  0.138E-05 g(S)=  0.000E+00 ort = 0.193E-06 (trialstep = 0.219E+00)
 search vector abs. value=  0.783E-05
 bond charge predicted
       N       E                     dE             d eps       ncg     rms          rms(c)
DAV:   1    -0.125529635710E+03   -0.19400E-04   -0.43567E-05 17952   0.257E-02    0.969E-04
DAV:   2    -0.125529635700E+03    0.10497E-07   -0.75363E-07 16032   0.428E-03
 122 F= -.12710039E+03 E0= -.12709961E+03  d E =-.228016E-06  mag=    -0.0000
 trial-energy change:   -0.000000  1 .order   -0.000000   -0.000000   -0.000000
 step:   0.5194(harm=  0.5194)  dis= 0.00007  next Energy=  -127.100392 (dE=-0.377E-06)
 bond charge predicted
       N       E                     dE             d eps       ncg     rms          rms(c)
DAV:   1    -0.125529662204E+03   -0.26494E-04   -0.75530E-05 14208   0.344E-02    0.177E-03
DAV:   2    -0.125529662159E+03    0.44984E-07   -0.10119E-06 18000   0.451E-03
 123 F= -.12710039E+03 E0= -.12709961E+03  d E =-.265529E-06  mag=    -0.0000
 curvature:  -1.40 expect dE=-0.243E-05 dE for cont linesearch -0.288E-08
 trial: gam= 1.56048 g(F)=  0.173E-05 g(S)=  0.000E+00 ort =-0.127E-06 (trialstep = 0.107E+00)
 search vector abs. value=  0.204E-04
 bond charge predicted
       N       E                     dE             d eps       ncg     rms          rms(c)
DAV:   1    -0.125529678138E+03   -0.15933E-04   -0.23671E-05 15696   0.192E-02    0.110E-03
DAV:   2    -0.125529678112E+03    0.25359E-07   -0.34095E-07 14208   0.291E-03
 124 F= -.12710039E+03 E0= -.12709961E+03  d E =-.137636E-06  mag=    -0.0000
 ZBRENT: can't locate minimum, use default step
 trial-energy change:   -0.000000  1 .order   -0.000000   -0.000000   -0.000000
 step:   0.4278(harm=  0.4822)  dis= 0.00010  next Energy=  -127.100393 (dE=-0.370E-06)
 bond charge predicted
       N       E                     dE             d eps       ncg     rms          rms(c)
DAV:   1    -0.125529725868E+03   -0.47731E-04   -0.22542E-04 14256   0.583E-02    0.280E-03
DAV:   2    -0.125529725783E+03    0.85801E-07   -0.26150E-06 14208   0.709E-03
 125 F= -.12710039E+03 E0= -.12709961E+03  d E =-.364565E-06  mag=    -0.0000
 curvature:  -3.13 expect dE=-0.767E-05 dE for cont linesearch -0.654E-07
 ZBRENT: increasing intervall
 opt :   1.0696  next Energy=  -127.100393 (dE=-0.435E-06)
 bond charge predicted
       N       E                     dE             d eps       ncg     rms          rms(c)
DAV:   1    -0.125529820701E+03   -0.94832E-04   -0.89333E-04 14208   0.116E-01    0.559E-03
DAV:   2    -0.125529820479E+03    0.22144E-06   -0.98480E-06 14976   0.133E-02
 126 F= -.12710039E+03 E0= -.12709961E+03  d E =-.187860E-06  mag=    -0.0000
 curvature:  -3.36 expect dE=-0.213E-04 dE for cont linesearch -0.344E-07
 trial: gam= 2.73979 g(F)=  0.633E-05 g(S)=  0.000E+00 ort =-0.457E-06 (trialstep = 0.389E-01)
 search vector abs. value=  0.157E-03
 bond charge predicted
       N       E                     dE             d eps       ncg     rms          rms(c)
DAV:   1    -0.125529836665E+03   -0.15964E-04   -0.21969E-05 14208   0.194E-02    0.157E-03
DAV:   2    -0.125529836618E+03    0.46912E-07   -0.41646E-07 14496   0.341E-03
 127 F= -.12710039E+03 E0= -.12709961E+03  d E =-.198889E-06  mag=    -0.0000
 trial-energy change:   -0.000000  1 .order   -0.000000   -0.000000   -0.000000
 step:   0.1516(harm=  0.1516)  dis= 0.00010  next Energy=  -127.100393 (dE=-0.385E-06)
 bond charge predicted
       N       E                     dE             d eps       ncg     rms          rms(c)
DAV:   1    -0.125529883208E+03   -0.46544E-04   -0.21864E-04 16656   0.573E-02    0.278E-03
DAV:   2    -0.125529883097E+03    0.11157E-06   -0.25338E-06 15024   0.738E-03
 128 F= -.12710039E+03 E0= -.12709961E+03  d E =-.538872E-06  mag=    -0.0000
 curvature:  -2.34 expect dE=-0.108E-04 dE for cont linesearch -0.105E-06
 ZBRENT: increasing intervall
 opt :   0.3770  next Energy=  -127.100393 (dE=-0.882E-06)
