 vasp.6.3.2 27Jun22 (build Dec 22 2022 13:13:19) complex                        
  
 executed on             LinuxIFC date 2023.10.19  05:08:39
 running   48 mpi-ranks, with    1 threads/rank
 distrk:  each k-point on   48 cores,    1 groups
 distr:  one band on NCORE=   1 cores,   48 groups


--------------------------------------------------------------------------------------------------------


 INCAR:
   SYSTEM = Graphene
   ISTART = 0
   ICHARG = 2
   PREC = Accurate
   ENCUT = 450
   LCHARG = .FALSE.
   LWAVE = .FALSE.
   ALGO = Normal
   EDIFF = 1E-6
   EDIFFG = -1E-2
   SIGMA = 0.1
   ISMEAR = 0
   ISPIN = 1
   NSW = 100
   IBRION = 2
   ISIF = 2
   GGA = PE
   IVDW = 12

 POTCAR:    PAW_PBE C 08Apr2002                   
 POTCAR:    PAW_PBE C 08Apr2002                   
   SHA256 =  253f7b50bb8d59471dbedb8285d89021f4a42ed1a2c5d38a03a736e69125dd95 C/POTCAR              
   COPYR  = (c) Copyright 08Apr2002 Georg Kresse                                                    
   COPYR  = This file is part of the software VASP. Any use, copying, and all other rights are regul
   COPYR  = If you do not have a valid VASP license, you may not use, copy or distribute this file. 
   VRHFIN =C: s2p2                                                                                  
   LEXCH  = PE                                                                                      
   EATOM  =   147.1560 eV,   10.8157 Ry                                                             
                                                                                                    
   TITEL  = PAW_PBE C 08Apr2002                                                                     
   LULTRA =        F    use ultrasoft PP ?                                                          
   IUNSCR =        1    unscreen: 0-lin 1-nonlin 2-no                                               
   RPACOR =    1.200    partial core radius                                                         
   POMASS =   12.011; ZVAL   =    4.000    mass and valenz                                          
   RCORE  =    1.500    outmost cutoff radius                                                       
   RWIGS  =    1.630; RWIGS  =    0.863    wigner-seitz radius (au A)                               
   ENMAX  =  400.000; ENMIN  =  300.000 eV                                                          
   ICORE  =        2    local potential                                                             
   LCOR   =        T    correct aug charges                                                         
   LPAW   =        T    paw PP                                                                      
   EAUG   =  644.873                                                                                
   DEXC   =    0.000                                                                                
   RMAX   =    1.529    core radius for proj-oper                                                   
   RAUG   =    1.300    factor for augmentation sphere                                              
   RDEP   =    1.501    radius for radial grids                                                     
   RDEPT  =    1.300    core radius for aug-charge                                                  
                                                                                                    
   Atomic configuration                                                                             
    4 entries                                                                                       
     n  l   j            E        occ.                                                              
     1  0  0.50      -273.3789   2.0000                                                             
     2  0  0.50       -13.7508   2.0000                                                             
     2  1  0.50        -5.2854   2.0000                                                             
     3  2  1.50        -5.4423   0.0000                                                             
   Description                                                                                      
     l       E           TYP  RCUT    TYP  RCUT                                                     
     0    -13.7508458     23  1.200                                                                 
     0     -8.2022199     23  1.200                                                                 
     1     -5.2854383     23  1.500                                                                 
     1     34.0145650     23  1.500                                                                 
     2     -5.4423304      7  1.500                                                                 
  local pseudopotential read in
  partial core-charges read in
  partial kinetic energy density read in
  atomic valenz-charges read in
  non local Contribution for L=           0  read in
    real space projection operators read in
  non local Contribution for L=           0  read in
    real space projection operators read in
  non local Contribution for L=           1  read in
    real space projection operators read in
  non local Contribution for L=           1  read in
    real space projection operators read in
    PAW grid and wavefunctions read in
 
   number of l-projection  operators is LMAX  =           4
   number of lm-projection operators is LMMAX =           8
 
  PAW_PBE C 08Apr2002                   :
 energy of atom  1       EATOM= -147.1560
 kinetic energy error for atom=    0.0116 (will be added to EATOM!!)
 
 
 POSCAR: Graphene with lattice parameter 2.430
  positions in direct lattice
  No initial velocities read in
 exchange correlation table for  LEXCH =        8
   RHO(1)=    0.500       N(1)  =     2000
   RHO(2)=  100.500       N(2)  =     4000

 VTST: version 4.2, (08/11/21)

 CHAIN: initializing optimizer
 
 OPT: Using VASP Conjugate-Gradient optimizer
 CHAIN: Read ICHAIN            0
 
 POSCAR: Graphene with lattice parameter 2.430
  positions in direct lattice
  No initial velocities read in
 


--------------------------------------------------------------------------------------------------------


 ion  position               nearest neighbor table
   1  0.333  0.667  0.100-   2 1.40   2 1.40   2 1.40
   2  0.667  0.333  0.100-   1 1.40   1 1.40   1 1.40
 
  LATTYP: Found a hexagonal cell.
 ALAT       =     2.4300002328
 C/A-ratio  =     6.1728389148
  
  Lattice vectors:
  
 A1 = (   2.1044420000,   1.2150000000,   0.0000000000)
 A2 = (  -2.1044420000,   1.2150000000,   0.0000000000)
 A3 = (   0.0000000000,   0.0000000000,  15.0000000000)


Analysis of symmetry for initial positions (statically):
=====================================================================
 Subroutine PRICEL returns:
 Original cell was already a primitive cell.
 

 Routine SETGRP: Setting up the symmetry group for a 
 hexagonal supercell.


 Subroutine GETGRP returns: Found 24 space group operations
 (whereof 12 operations were pure point group operations)
 out of a pool of 24 trial point group operations.


The static configuration has the point symmetry C_6v.
 The point group associated with its full space group is D_6h.


Analysis of symmetry for dynamics (positions and initial velocities):
=====================================================================
 Subroutine PRICEL returns:
 Original cell was already a primitive cell.
 

 Routine SETGRP: Setting up the symmetry group for a 
 hexagonal supercell.


 Subroutine GETGRP returns: Found 24 space group operations
 (whereof 12 operations were pure point group operations)
 out of a pool of 24 trial point group operations.


The dynamic configuration has the point symmetry C_6v.
 The point group associated with its full space group is D_6h.


 Subroutine INISYM returns: Found 24 space group operations
 (whereof 12 operations are pure point group operations),
 and found     1 'primitive' translations


----------------------------------------------------------------------------------------

                                     Primitive cell                                     

  volume of cell :      76.7069

  direct lattice vectors                    reciprocal lattice vectors
     2.104442000  1.215000000  0.000000000     0.237592673  0.411522634  0.000000000
    -2.104442000  1.215000000  0.000000000    -0.237592673  0.411522634  0.000000000
     0.000000000  0.000000000 15.000000000     0.000000000  0.000000000  0.066666667

  length of vectors
     2.430000233  2.430000233 15.000000000     0.475185392  0.475185392  0.066666667

  position of ions in fractional coordinates (direct lattice)
     0.333333000  0.666666000  0.100000000
     0.666666000  0.333333000  0.100000000

  ion indices of the primitive-cell ions
   primitive index   ion index
                 1           1
                 2           2

----------------------------------------------------------------------------------------

 
 
 KPOINTS: k-points                                

Automatic generation of k-mesh.
 Grid dimensions read from file:
 generate k-points for:   12   12    1

 Generating k-lattice:

  Cartesian coordinates                     Fractional coordinates (reciprocal lattice)
     0.019799389  0.034293553  0.000000000     0.083333333 -0.000000000  0.000000000
    -0.019799389  0.034293553  0.000000000    -0.000000000  0.083333333  0.000000000
     0.000000000  0.000000000  0.066666667     0.000000000  0.000000000  1.000000000

  Length of vectors
     0.039598783  0.039598783  0.066666667

  Shift w.r.t. Gamma in fractional coordinates (k-lattice)
     0.000000000  0.000000000  0.000000000

 
 Subroutine IBZKPT returns following result:
 ===========================================
 
 Found     19 irreducible k-points:
 
 Following reciprocal coordinates:
            Coordinates               Weight
  0.000000  0.000000  0.000000      1.000000
  0.083333  0.000000  0.000000      6.000000
  0.166667  0.000000  0.000000      6.000000
  0.250000  0.000000  0.000000      6.000000
  0.333333 -0.000000  0.000000      6.000000
  0.416667  0.000000  0.000000      6.000000
  0.500000  0.000000  0.000000      3.000000
  0.083333  0.083333  0.000000      6.000000
  0.166667  0.083333  0.000000     12.000000
  0.250000  0.083333  0.000000     12.000000
  0.333333  0.083333  0.000000     12.000000
  0.416667  0.083333  0.000000     12.000000
  0.166667  0.166667  0.000000      6.000000
  0.250000  0.166667  0.000000     12.000000
  0.333333  0.166667  0.000000     12.000000
  0.416667  0.166667  0.000000      6.000000
  0.250000  0.250000  0.000000      6.000000
  0.333333  0.250000  0.000000     12.000000
  0.333333  0.333333  0.000000      2.000000
 
 Following cartesian coordinates:
            Coordinates               Weight
  0.000000  0.000000  0.000000      1.000000
  0.019799  0.034294  0.000000      6.000000
  0.039599  0.068587  0.000000      6.000000
  0.059398  0.102881  0.000000      6.000000
  0.079198  0.137174  0.000000      6.000000
  0.098997  0.171468  0.000000      6.000000
  0.118796  0.205761  0.000000      3.000000
 -0.000000  0.068587  0.000000      6.000000
  0.019799  0.102881  0.000000     12.000000
  0.039599  0.137174  0.000000     12.000000
  0.059398  0.171468  0.000000     12.000000
  0.079198  0.205761  0.000000     12.000000
 -0.000000  0.137174  0.000000      6.000000
  0.019799  0.171468  0.000000     12.000000
  0.039599  0.205761  0.000000     12.000000
  0.059398  0.240055  0.000000      6.000000
  0.000000  0.205761  0.000000      6.000000
  0.019799  0.240055  0.000000     12.000000
  0.000000  0.274348  0.000000      2.000000
 


--------------------------------------------------------------------------------------------------------




 Dimension of arrays:
   k-points           NKPTS =     19   k-points in BZ     NKDIM =     19   number of bands    NBANDS=     48
   number of dos      NEDOS =    301   number of ions     NIONS =      2
   non local maximal  LDIM  =      4   non local SUM 2l+1 LMDIM =      8
   total plane-waves  NPLWV =  34992
   max r-space proj   IRMAX =      1   max aug-charges    IRDMAX=   5582
   dimension x,y,z NGX =    18 NGY =   18 NGZ =  108
   dimension x,y,z NGXF=    36 NGYF=   36 NGZF=  216
   support grid    NGXF=    36 NGYF=   36 NGZF=  216
   ions per type =               2
   NGX,Y,Z   is equivalent  to a cutoff of  12.31, 12.31, 11.97 a.u.
   NGXF,Y,Z  is equivalent  to a cutoff of  24.63, 24.63, 23.94 a.u.

 SYSTEM =  Graphene                                
 POSCAR =  Graphene with lattice parameter 2.430   

 Startparameter for this run:
   NWRITE =      2    write-flag & timer
   PREC   = accura    normal or accurate (medium, high low for compatibility)
   ISTART =      0    job   : 0-new  1-cont  2-samecut
   ICHARG =      2    charge: 1-file 2-atom 10-const
   ISPIN  =      1    spin polarized calculation?
   LNONCOLLINEAR =      F non collinear calculations
   LSORBIT =      F    spin-orbit coupling
   INIWAV =      1    electr: 0-lowe 1-rand  2-diag
   LASPH  =      F    aspherical Exc in radial PAW
 Electronic Relaxation 1
   ENCUT  =  450.0 eV  33.07 Ry    5.75 a.u.   4.20  4.20 25.95*2*pi/ulx,y,z
   ENINI  =  450.0     initial cutoff
   ENAUG  =  644.9 eV  augmentation charge cutoff
   NELM   =     60;   NELMIN=  2; NELMDL= -5     # of ELM steps 
   EDIFF  = 0.1E-05   stopping-criterion for ELM
   LREAL  =      F    real-space projection
   NLSPLINE    = F    spline interpolate recip. space projectors
   LCOMPAT=      F    compatible to vasp.4.4
   GGA_COMPAT  = T    GGA compatible to vasp.4.4-vasp.4.6
   LMAXPAW     = -100 max onsite density
   LMAXMIX     =    2 max onsite mixed and CHGCAR
   VOSKOWN=      0    Vosko Wilk Nusair interpolation
   ROPT   =    0.00000
 Ionic relaxation
   EDIFFG = -.1E-01   stopping-criterion for IOM
   NSW    =    100    number of steps for IOM
   NBLOCK =      1;   KBLOCK =    100    inner block; outer block 
   IBRION =      2    ionic relax: 0-MD 1-quasi-New 2-CG
   NFREE  =      1    steps in history (QN), initial steepest desc. (CG)
   ISIF   =      2    stress and relaxation
   IWAVPR =     11    prediction:  0-non 1-charg 2-wave 3-comb
   ISYM   =      2    0-nonsym 1-usesym 2-fastsym
   LCORR  =      T    Harris-Foulkes like correction to forces

   POTIM  = 0.5000    time-step for ionic-motion
   TEIN   =    0.0    initial temperature
   TEBEG  =    0.0;   TEEND  =   0.0 temperature during run
   SMASS  =  -3.00    Nose mass-parameter (am)
   estimated Nose-frequenzy (Omega)   =  0.10E-29 period in steps = 0.13E+47 mass=  -0.135E-27a.u.
   SCALEE = 1.0000    scale energy and forces
   NPACO  =    256;   APACO  = 10.0  distance and # of slots for P.C.
   PSTRESS=    0.0 pullay stress

  Mass of Ions in am
   POMASS =  12.01
  Ionic Valenz
   ZVAL   =   4.00
  Atomic Wigner-Seitz radii
   RWIGS  =  -1.00
  virtual crystal weights 
   VCA    =   1.00
   NELECT =       8.0000    total number of electrons
   NUPDOWN=      -1.0000    fix difference up-down

 DOS related values:
   EMIN   =  10.00;   EMAX   =-10.00  energy-range for DOS
   EFERMI =   0.00
   ISMEAR =     0;   SIGMA  =   0.10  broadening in eV -4-tet -1-fermi 0-gaus

 Electronic relaxation 2 (details)
   IALGO  =     38    algorithm
   LDIAG  =      T    sub-space diagonalisation (order eigenvalues)
   LSUBROT=      F    optimize rotation matrix (better conditioning)
   TURBO    =      0    0=normal 1=particle mesh
   IRESTART =      0    0=no restart 2=restart with 2 vectors
   NREBOOT  =      0    no. of reboots
   NMIN     =      0    reboot dimension
   EREF     =   0.00    reference energy to select bands
   IMIX   =      4    mixing-type and parameters
     AMIX     =   0.40;   BMIX     =  1.00
     AMIX_MAG =   1.60;   BMIX_MAG =  1.00
     AMIN     =   0.10
     WC   =   100.;   INIMIX=   1;  MIXPRE=   1;  MAXMIX= -45

 Intra band minimization:
   WEIMIN = 0.0010     energy-eigenvalue tresh-hold
   EBREAK =  0.52E-08  absolut break condition
   DEPER  =   0.30     relativ break condition  

   TIME   =   0.40     timestep for ELM

  volume/ion in A,a.u.               =      38.35       258.82
  Fermi-wavevector in a.u.,A,eV,Ry     =   0.770596  1.456215  8.079384  0.593818
  Thomas-Fermi vector in A             =   1.871834
 
 Write flags
   LWAVE        =      F    write WAVECAR
   LDOWNSAMPLE  =      F    k-point downsampling of WAVECAR
   LCHARG       =      F    write CHGCAR
   LVTOT        =      F    write LOCPOT, total local potential
   LVHAR        =      F    write LOCPOT, Hartree potential only
   LELF         =      F    write electronic localiz. function (ELF)
   LORBIT       =      0    0 simple, 1 ext, 2 COOP (PROOUT), +10 PAW based schemes


 Dipole corrections
   LMONO  =      F    monopole corrections only (constant potential shift)
   LDIPOL =      F    correct potential (dipole corrections)
   IDIPOL =      0    1-x, 2-y, 3-z, 4-all directions 
   EPSILON=  1.0000000 bulk dielectric constant

 Exchange correlation treatment:
   GGA     =    PE    GGA type
   LEXCH   =     8    internal setting for exchange type
   LIBXC   =     F    Libxc                    
   VOSKOWN =     0    Vosko Wilk Nusair interpolation
   LHFCALC =     F    Hartree Fock is set to
   LHFONE  =     F    Hartree Fock one center treatment
   AEXX    =    0.0000 exact exchange contribution

 Linear response parameters
   LEPSILON=     F    determine dielectric tensor
   LRPA    =     F    only Hartree local field effects (RPA)
   LNABLA  =     F    use nabla operator in PAW spheres
   LVEL    =     F    velocity operator in full k-point grid
   CSHIFT  =0.1000    complex shift for real part using Kramers Kronig
   OMEGAMAX=  -1.0    maximum frequency
   DEG_THRESHOLD= 0.2000000E-02 threshold for treating states as degnerate
   RTIME   =   -0.100 relaxation time in fs
  (WPLASMAI=    0.000 imaginary part of plasma frequency in eV, 0.658/RTIME)
   DFIELD  = 0.0000000 0.0000000 0.0000000 field for delta impulse in time
 
  Optional k-point grid parameters
   LKPOINTS_OPT  =     F    use optional k-point grid
   KPOINTS_OPT_MODE=     1    mode for optional k-point grid
 
 Orbital magnetization related:
   ORBITALMAG=     F  switch on orbital magnetization
   LCHIMAG   =     F  perturbation theory with respect to B field
   DQ        =  0.001000  dq finite difference perturbation B field
   LLRAUG    =     F  two centre corrections for induced B field



--------------------------------------------------------------------------------------------------------


 conjugate gradient relaxation of ions
 charge density and potential will be updated during run
 non-spin polarized calculation
 Variant of blocked Davidson
 Davidson routine will perform the subspace rotation
 perform sub-space diagonalisation
    after iterative eigenvector-optimisation
 modified Broyden-mixing scheme, WC =      100.0
 initial mixing is a Kerker type mixing with AMIX =  0.4000 and BMIX =      1.0000
 Hartree-type preconditioning will be used
 using additional bands           44
 reciprocal scheme for non local part
 use partial core corrections
 calculate Harris-corrections to forces 
   (improved forces if not selfconsistent)
 use gradient corrections 
 use of overlap-Matrix (Vanderbilt PP)
 Gauss-broadening in eV      SIGMA  =   0.10


--------------------------------------------------------------------------------------------------------


  energy-cutoff  :      450.00
  volume of cell :       76.71
      direct lattice vectors                 reciprocal lattice vectors
     2.104442000  1.215000000  0.000000000     0.237592673  0.411522634  0.000000000
    -2.104442000  1.215000000  0.000000000    -0.237592673  0.411522634  0.000000000
     0.000000000  0.000000000 15.000000000     0.000000000  0.000000000  0.066666667

  length of vectors
     2.430000233  2.430000233 15.000000000     0.475185392  0.475185392  0.066666667


 
 k-points in units of 2pi/SCALE and weight: k-points                                
   0.00000000  0.00000000  0.00000000       0.007
   0.01979939  0.03429355  0.00000000       0.042
   0.03959878  0.06858711  0.00000000       0.042
   0.05939817  0.10288066  0.00000000       0.042
   0.07919756  0.13717421  0.00000000       0.042
   0.09899695  0.17146776  0.00000000       0.042
   0.11879634  0.20576132  0.00000000       0.021
  -0.00000000  0.06858711  0.00000000       0.042
   0.01979939  0.10288066  0.00000000       0.083
   0.03959878  0.13717421  0.00000000       0.083
   0.05939817  0.17146776  0.00000000       0.083
   0.07919756  0.20576132  0.00000000       0.083
  -0.00000000  0.13717421  0.00000000       0.042
   0.01979939  0.17146776  0.00000000       0.083
   0.03959878  0.20576132  0.00000000       0.083
   0.05939817  0.24005487  0.00000000       0.042
   0.00000000  0.20576132  0.00000000       0.042
   0.01979939  0.24005487  0.00000000       0.083
   0.00000000  0.27434842  0.00000000       0.014
 
 k-points in reciprocal lattice and weights: k-points                                
   0.00000000  0.00000000  0.00000000       0.007
   0.08333333  0.00000000  0.00000000       0.042
   0.16666667  0.00000000  0.00000000       0.042
   0.25000000  0.00000000  0.00000000       0.042
   0.33333333 -0.00000000  0.00000000       0.042
   0.41666667  0.00000000  0.00000000       0.042
   0.50000000  0.00000000  0.00000000       0.021
   0.08333333  0.08333333  0.00000000       0.042
   0.16666667  0.08333333  0.00000000       0.083
   0.25000000  0.08333333  0.00000000       0.083
   0.33333333  0.08333333  0.00000000       0.083
   0.41666667  0.08333333  0.00000000       0.083
   0.16666667  0.16666667  0.00000000       0.042
   0.25000000  0.16666667  0.00000000       0.083
   0.33333333  0.16666667  0.00000000       0.083
   0.41666667  0.16666667  0.00000000       0.042
   0.25000000  0.25000000  0.00000000       0.042
   0.33333333  0.25000000  0.00000000       0.083
   0.33333333  0.33333333  0.00000000       0.014
 
 position of ions in fractional coordinates (direct lattice) 
   0.33333300  0.66666600  0.10000000
   0.66666600  0.33333300  0.10000000
 
 position of ions in cartesian coordinates  (Angst):
  -0.70147997  1.21499879  1.50000000
   0.70147997  1.21499879  1.50000000
 


--------------------------------------------------------------------------------------------------------


 k-point   1 :   0.0000 0.0000 0.0000  plane waves:    1641
 k-point   2 :   0.0833 0.0000 0.0000  plane waves:    1657
 k-point   3 :   0.1667 0.0000 0.0000  plane waves:    1657
 k-point   4 :   0.2500 0.0000 0.0000  plane waves:    1653
 k-point   5 :   0.3333-0.0000 0.0000  plane waves:    1665
 k-point   6 :   0.4167 0.0000 0.0000  plane waves:    1670
 k-point   7 :   0.5000 0.0000 0.0000  plane waves:    1688
 k-point   8 :   0.0833 0.0833 0.0000  plane waves:    1659
 k-point   9 :   0.1667 0.0833 0.0000  plane waves:    1657
 k-point  10 :   0.2500 0.0833 0.0000  plane waves:    1654
 k-point  11 :   0.3333 0.0833 0.0000  plane waves:    1666
 k-point  12 :   0.4167 0.0833 0.0000  plane waves:    1674
 k-point  13 :   0.1667 0.1667 0.0000  plane waves:    1654
 k-point  14 :   0.2500 0.1667 0.0000  plane waves:    1659
 k-point  15 :   0.3333 0.1667 0.0000  plane waves:    1666
 k-point  16 :   0.4167 0.1667 0.0000  plane waves:    1656
 k-point  17 :   0.2500 0.2500 0.0000  plane waves:    1654
 k-point  18 :   0.3333 0.2500 0.0000  plane waves:    1670
 k-point  19 :   0.3333 0.3333 0.0000  plane waves:    1680

 maximum and minimum number of plane-waves per node :      1688     1641

 maximum number of plane-waves:      1688
 maximum index in each direction: 
   IXMAX=    4   IYMAX=    4   IZMAX=   25
   IXMIN=   -4   IYMIN=   -4   IZMIN=  -25


 serial   3D FFT for wavefunctions
 parallel 3D FFT for charge:
    minimum data exchange during FFTs selected (reduces bandwidth)


 total amount of memory used by VASP MPI-rank0    34885. kBytes
=======================================================================

   base      :      30000. kBytes
   nonl-proj :       2156. kBytes
   fftplans  :        404. kBytes
   grid      :       1780. kBytes
   one-center:          6. kBytes
   wavefun   :        539. kBytes
 
     INWAV:  cpu time      0.0000: real time      0.0000
 Broyden mixing: mesh for mixing (old mesh)
   NGX =  9   NGY =  9   NGZ = 51
  (NGX  = 36   NGY  = 36   NGZ  =216)
  gives a total of   4131 points

 initial charge density was supplied:
 charge density of overlapping atoms calculated
 number of electron       8.0000000 magnetization 
 keeping initial charge density in first step


--------------------------------------------------------------------------------------------------------


 Maximum index for augmentation-charges            0 (set IRDMAX)


--------------------------------------------------------------------------------------------------------


 First call to EWALD:  gamma=   0.417
 Maximum number of real-space cells 5x 5x 1
 Maximum number of reciprocal cells 2x 2x 8

    FEWALD:  cpu time      0.0013: real time      0.0013


--------------------------------------- Iteration      1(   1)  ---------------------------------------


    POTLOK:  cpu time      0.0076: real time      0.0085
    SETDIJ:  cpu time      0.0016: real time      0.0019
     EDDAV:  cpu time      0.2933: real time      0.3081
       DOS:  cpu time      0.0008: real time      0.0012
    --------------------------------------------
      LOOP:  cpu time      0.3033: real time      0.3196

 eigenvalue-minimisations  :  1824
 total energy-change (2. order) :-0.1068862E+02  (-0.3963267E+03)
 number of electron       8.0000000 magnetization 
 augmentation part        8.0000000 magnetization 

 Free energy of the ion-electron system (eV)
  ---------------------------------------------------
  alpha Z        PSCENC =         4.28366701
  Ewald energy   TEWEN  =       869.69934554
  -Hartree energ DENC   =     -1086.19327662
  -exchange      EXHF   =         0.00000000
  -V(xc)+E(xc)   XCENC  =        26.55982443
  PAW double counting   =       217.04409276     -218.18290438
  entropy T*S    EENTRO =        -0.00000000
  eigenvalues    EBANDS =      -118.18812154
  atomic energy  EATOM  =       294.28875697
  Solvation  Ediel_sol  =         0.00000000
  ---------------------------------------------------
  free energy    TOTEN  =       -10.68861583 eV

  energy without entropy =      -10.68861583  energy(sigma->0) =      -10.68861583


--------------------------------------------------------------------------------------------------------




--------------------------------------- Iteration      1(   2)  ---------------------------------------


     EDDAV:  cpu time      0.5003: real time      0.5227
       DOS:  cpu time      0.0004: real time      0.0004
    --------------------------------------------
      LOOP:  cpu time      0.5007: real time      0.5231

 eigenvalue-minimisations  :  2688
 total energy-change (2. order) :-0.9171000E+01  (-0.9169464E+01)
 number of electron       8.0000000 magnetization 
 augmentation part        8.0000000 magnetization 

 Free energy of the ion-electron system (eV)
  ---------------------------------------------------
  alpha Z        PSCENC =         4.28366701
  Ewald energy   TEWEN  =       869.69934554
  -Hartree energ DENC   =     -1086.19327662
  -exchange      EXHF   =         0.00000000
  -V(xc)+E(xc)   XCENC  =        26.55982443
  PAW double counting   =       217.04409276     -218.18290438
  entropy T*S    EENTRO =        -0.00156699
  eigenvalues    EBANDS =      -127.35755484
  atomic energy  EATOM  =       294.28875697
  Solvation  Ediel_sol  =         0.00000000
  ---------------------------------------------------
  free energy    TOTEN  =       -19.85961613 eV

  energy without entropy =      -19.85804913  energy(sigma->0) =      -19.85883263


--------------------------------------------------------------------------------------------------------




--------------------------------------- Iteration      1(   3)  ---------------------------------------


     EDDAV:  cpu time      0.2843: real time      0.2917
       DOS:  cpu time      0.0003: real time      0.0003
    --------------------------------------------
      LOOP:  cpu time      0.2847: real time      0.2920

 eigenvalue-minimisations  :  1824
 total energy-change (2. order) :-0.8212486E-02  (-0.8212289E-02)
 number of electron       8.0000000 magnetization 
 augmentation part        8.0000000 magnetization 

 Free energy of the ion-electron system (eV)
  ---------------------------------------------------
  alpha Z        PSCENC =         4.28366701
  Ewald energy   TEWEN  =       869.69934554
  -Hartree energ DENC   =     -1086.19327662
  -exchange      EXHF   =         0.00000000
  -V(xc)+E(xc)   XCENC  =        26.55982443
  PAW double counting   =       217.04409276     -218.18290438
  entropy T*S    EENTRO =        -0.00156719
  eigenvalues    EBANDS =      -127.36576713
  atomic energy  EATOM  =       294.28875697
  Solvation  Ediel_sol  =         0.00000000
  ---------------------------------------------------
  free energy    TOTEN  =       -19.86782861 eV

  energy without entropy =      -19.86626142  energy(sigma->0) =      -19.86704502


--------------------------------------------------------------------------------------------------------




--------------------------------------- Iteration      1(   4)  ---------------------------------------


     EDDAV:  cpu time      0.8326: real time      0.8464
       DOS:  cpu time      0.0006: real time      0.0006
    --------------------------------------------
      LOOP:  cpu time      0.8332: real time      0.8469

 eigenvalue-minimisations  :  3552
 total energy-change (2. order) :-0.1477196E-04  (-0.1477131E-04)
 number of electron       8.0000000 magnetization 
 augmentation part        8.0000000 magnetization 

 Free energy of the ion-electron system (eV)
  ---------------------------------------------------
  alpha Z        PSCENC =         4.28366701
  Ewald energy   TEWEN  =       869.69934554
  -Hartree energ DENC   =     -1086.19327662
  -exchange      EXHF   =         0.00000000
  -V(xc)+E(xc)   XCENC  =        26.55982443
  PAW double counting   =       217.04409276     -218.18290438
  entropy T*S    EENTRO =        -0.00156719
  eigenvalues    EBANDS =      -127.36578190
  atomic energy  EATOM  =       294.28875697
  Solvation  Ediel_sol  =         0.00000000
  ---------------------------------------------------
  free energy    TOTEN  =       -19.86784339 eV

  energy without entropy =      -19.86627619  energy(sigma->0) =      -19.86705979


--------------------------------------------------------------------------------------------------------




--------------------------------------- Iteration      1(   5)  ---------------------------------------


     EDDAV:  cpu time      0.2835: real time      0.2880
       DOS:  cpu time      0.0004: real time      0.0004
    CHARGE:  cpu time      0.0116: real time      0.0129
    MIXING:  cpu time      0.0014: real time      0.0019
    --------------------------------------------
      LOOP:  cpu time      0.2968: real time      0.3032

 eigenvalue-minimisations  :  1824
 total energy-change (2. order) : 0.6639311E-09  (-0.1792227E-09)
 number of electron       7.9999999 magnetization 
 augmentation part        0.2216801 magnetization 

 Broyden mixing:
  rms(total) = 0.67094E+00    rms(broyden)= 0.67086E+00
  rms(prec ) = 0.75136E+00
  weight for this iteration     100.00

 Free energy of the ion-electron system (eV)
  ---------------------------------------------------
  alpha Z        PSCENC =         4.28366701
  Ewald energy   TEWEN  =       869.69934554
  -Hartree energ DENC   =     -1086.19327662
  -exchange      EXHF   =         0.00000000
  -V(xc)+E(xc)   XCENC  =        26.55982443
  PAW double counting   =       217.04409276     -218.18290438
  entropy T*S    EENTRO =        -0.00156719
  eigenvalues    EBANDS =      -127.36578190
  atomic energy  EATOM  =       294.28875697
  Solvation  Ediel_sol  =         0.00000000
  ---------------------------------------------------
  free energy    TOTEN  =       -19.86784338 eV

  energy without entropy =      -19.86627619  energy(sigma->0) =      -19.86705979


--------------------------------------------------------------------------------------------------------




--------------------------------------- Iteration      1(   6)  ---------------------------------------


    POTLOK:  cpu time      0.0048: real time      0.0050
    SETDIJ:  cpu time      0.0010: real time      0.0011
     EDDAV:  cpu time      0.5354: real time      0.5423
       DOS:  cpu time      0.0004: real time      0.0004
    CHARGE:  cpu time      0.0103: real time      0.0111
    MIXING:  cpu time      0.0007: real time      0.0007
    --------------------------------------------
      LOOP:  cpu time      0.5526: real time      0.5607

 eigenvalue-minimisations  :  2736
 total energy-change (2. order) : 0.1041927E+01  (-0.1016311E+00)
 number of electron       7.9999999 magnetization 
 augmentation part        0.2107945 magnetization 

 Broyden mixing:
  rms(total) = 0.39873E+00    rms(broyden)= 0.39872E+00
  rms(prec ) = 0.43853E+00
  weight for this iteration     100.00

 eigenvalues of (default mixing * dielectric matrix)
  average eigenvalue GAMMA=   2.1913
  2.1913

 Free energy of the ion-electron system (eV)
  ---------------------------------------------------
  alpha Z        PSCENC =         4.28366701
  Ewald energy   TEWEN  =       869.69934554
  -Hartree energ DENC   =     -1098.07495245
  -exchange      EXHF   =         0.00000000
  -V(xc)+E(xc)   XCENC  =        27.06666580
  PAW double counting   =       415.15918216     -416.46141721
  entropy T*S    EENTRO =        -0.00156719
  eigenvalues    EBANDS =      -114.78559652
  atomic energy  EATOM  =       294.28875697
  Solvation  Ediel_sol  =         0.00000000
  ---------------------------------------------------
  free energy    TOTEN  =       -18.82591589 eV

  energy without entropy =      -18.82434870  energy(sigma->0) =      -18.82513229


--------------------------------------------------------------------------------------------------------




--------------------------------------- Iteration      1(   7)  ---------------------------------------


    POTLOK:  cpu time      0.0047: real time      0.0047
    SETDIJ:  cpu time      0.0008: real time      0.0008
     EDDAV:  cpu time      0.5409: real time      0.5484
       DOS:  cpu time      0.0004: real time      0.0004
    CHARGE:  cpu time      0.0102: real time      0.0120
    MIXING:  cpu time      0.0005: real time      0.0007
    --------------------------------------------
      LOOP:  cpu time      0.5575: real time      0.5670

 eigenvalue-minimisations  :  2736
 total energy-change (2. order) : 0.4011627E+00  (-0.1311264E+00)
 number of electron       7.9999999 magnetization 
 augmentation part        0.1986808 magnetization 

 Broyden mixing:
  rms(total) = 0.10274E+00    rms(broyden)= 0.10266E+00
  rms(prec ) = 0.10935E+00
  weight for this iteration     100.00

 eigenvalues of (default mixing * dielectric matrix)
  average eigenvalue GAMMA=   2.1218
  2.1218  2.1218

 Free energy of the ion-electron system (eV)
  ---------------------------------------------------
  alpha Z        PSCENC =         4.28366701
  Ewald energy   TEWEN  =       869.69934554
  -Hartree energ DENC   =     -1113.91162347
  -exchange      EXHF   =         0.00000000
  -V(xc)+E(xc)   XCENC  =        27.73938029
  PAW double counting   =       811.09712961     -812.54302783
  entropy T*S    EENTRO =        -0.00156719
  eigenvalues    EBANDS =       -99.07681411
  atomic energy  EATOM  =       294.28875697
  Solvation  Ediel_sol  =         0.00000000
  ---------------------------------------------------
  free energy    TOTEN  =       -18.42475319 eV

  energy without entropy =      -18.42318599  energy(sigma->0) =      -18.42396959


--------------------------------------------------------------------------------------------------------




--------------------------------------- Iteration      1(   8)  ---------------------------------------


    POTLOK:  cpu time      0.0047: real time      0.0050
    SETDIJ:  cpu time      0.0009: real time      0.0009
     EDDAV:  cpu time      0.6278: real time      0.6342
       DOS:  cpu time      0.0004: real time      0.0003
    CHARGE:  cpu time      0.0099: real time      0.0114
    MIXING:  cpu time      0.0004: real time      0.0004
    --------------------------------------------
      LOOP:  cpu time      0.6440: real time      0.6522

 eigenvalue-minimisations  :  3024
 total energy-change (2. order) : 0.8424506E-02  (-0.6579734E-03)
 number of electron       7.9999999 magnetization 
 augmentation part        0.1991982 magnetization 

 Broyden mixing:
  rms(total) = 0.11798E-01    rms(broyden)= 0.11777E-01
  rms(prec ) = 0.25069E-01
  weight for this iteration     100.00

 eigenvalues of (default mixing * dielectric matrix)
  average eigenvalue GAMMA=   2.0369
  1.5079  2.5894  2.0135

 Free energy of the ion-electron system (eV)
  ---------------------------------------------------
  alpha Z        PSCENC =         4.28366701
  Ewald energy   TEWEN  =       869.69934554
  -Hartree energ DENC   =     -1115.93550267
  -exchange      EXHF   =         0.00000000
  -V(xc)+E(xc)   XCENC  =        27.75037088
  PAW double counting   =       902.17497156     -903.56895653
  entropy T*S    EENTRO =        -0.00156719
  eigenvalues    EBANDS =       -97.10741425
  atomic energy  EATOM  =       294.28875697
  Solvation  Ediel_sol  =         0.00000000
  ---------------------------------------------------
  free energy    TOTEN  =       -18.41632868 eV

  energy without entropy =      -18.41476149  energy(sigma->0) =      -18.41554508


--------------------------------------------------------------------------------------------------------




--------------------------------------- Iteration      1(   9)  ---------------------------------------


    POTLOK:  cpu time      0.0088: real time      0.0089
    SETDIJ:  cpu time      0.0009: real time      0.0009
     EDDAV:  cpu time      0.5926: real time      0.6032
       DOS:  cpu time      0.0005: real time      0.0005
    CHARGE:  cpu time      0.0101: real time      0.0106
    MIXING:  cpu time      0.0004: real time      0.0004
    --------------------------------------------
      LOOP:  cpu time      0.6134: real time      0.6245

 eigenvalue-minimisations  :  2976
 total energy-change (2. order) : 0.3060718E-02  (-0.2289325E-03)
 number of electron       7.9999999 magnetization 
 augmentation part        0.1988516 magnetization 

 Broyden mixing:
  rms(total) = 0.91756E-02    rms(broyden)= 0.91716E-02
  rms(prec ) = 0.17549E-01
  weight for this iteration     100.00

 eigenvalues of (default mixing * dielectric matrix)
  average eigenvalue GAMMA=   2.1908
  3.4388  0.9590  2.3915  1.9739

 Free energy of the ion-electron system (eV)
  ---------------------------------------------------
  alpha Z        PSCENC =         4.28366701
  Ewald energy   TEWEN  =       869.69934554
  -Hartree energ DENC   =     -1117.82768664
  -exchange      EXHF   =         0.00000000
  -V(xc)+E(xc)   XCENC  =        27.78418959
  PAW double counting   =       918.58390135     -919.97348580
  entropy T*S    EENTRO =        -0.00156719
  eigenvalues    EBANDS =       -95.25038879
  atomic energy  EATOM  =       294.28875697
  Solvation  Ediel_sol  =         0.00000000
  ---------------------------------------------------
  free energy    TOTEN  =       -18.41326796 eV

  energy without entropy =      -18.41170077  energy(sigma->0) =      -18.41248437


--------------------------------------------------------------------------------------------------------




--------------------------------------- Iteration      1(  10)  ---------------------------------------


    POTLOK:  cpu time      0.0047: real time      0.0048
    SETDIJ:  cpu time      0.0009: real time      0.0009
     EDDAV:  cpu time      0.4840: real time      0.4867
       DOS:  cpu time      0.0004: real time      0.0004
    CHARGE:  cpu time      0.0099: real time      0.0102
    MIXING:  cpu time      0.0004: real time      0.0004
    --------------------------------------------
      LOOP:  cpu time      0.5002: real time      0.5034

 eigenvalue-minimisations  :  2640
 total energy-change (2. order) : 0.1484982E-02  (-0.1880480E-03)
 number of electron       7.9999999 magnetization 
 augmentation part        0.1986224 magnetization 

 Broyden mixing:
  rms(total) = 0.33197E-02    rms(broyden)= 0.33156E-02
  rms(prec ) = 0.73774E-02
  weight for this iteration     100.00

 eigenvalues of (default mixing * dielectric matrix)
  average eigenvalue GAMMA=   2.6183
  4.8365  0.9896  2.8592  1.9929  2.4130

 Free energy of the ion-electron system (eV)
  ---------------------------------------------------
  alpha Z        PSCENC =         4.28366701
  Ewald energy   TEWEN  =       869.69934554
  -Hartree energ DENC   =     -1120.37511742
  -exchange      EXHF   =         0.00000000
  -V(xc)+E(xc)   XCENC  =        27.81163892
  PAW double counting   =       905.16482942     -906.55249278
  entropy T*S    EENTRO =        -0.00156719
  eigenvalues    EBANDS =       -92.73084345
  atomic energy  EATOM  =       294.28875697
  Solvation  Ediel_sol  =         0.00000000
  ---------------------------------------------------
  free energy    TOTEN  =       -18.41178298 eV

  energy without entropy =      -18.41021579  energy(sigma->0) =      -18.41099938


--------------------------------------------------------------------------------------------------------




--------------------------------------- Iteration      1(  11)  ---------------------------------------


    POTLOK:  cpu time      0.0086: real time      0.0087
    SETDIJ:  cpu time      0.0008: real time      0.0008
     EDDAV:  cpu time      0.4255: real time      0.4288
       DOS:  cpu time      0.0004: real time      0.0004
    CHARGE:  cpu time      0.0102: real time      0.0103
    MIXING:  cpu time      0.0004: real time      0.0004
    --------------------------------------------
      LOOP:  cpu time      0.4459: real time      0.4494

 eigenvalue-minimisations  :  2352
 total energy-change (2. order) :-0.1296564E-03  (-0.3223933E-04)
 number of electron       7.9999999 magnetization 
 augmentation part        0.1985666 magnetization 

 Broyden mixing:
  rms(total) = 0.11835E-02    rms(broyden)= 0.11822E-02
  rms(prec ) = 0.30748E-02
  weight for this iteration     100.00

 eigenvalues of (default mixing * dielectric matrix)
  average eigenvalue GAMMA=   2.5116
  5.5520  2.9291  2.4465  1.9766  0.9872  1.1782

 Free energy of the ion-electron system (eV)
  ---------------------------------------------------
  alpha Z        PSCENC =         4.28366701
  Ewald energy   TEWEN  =       869.69934554
  -Hartree energ DENC   =     -1121.53570910
  -exchange      EXHF   =         0.00000000
  -V(xc)+E(xc)   XCENC  =        27.81404932
  PAW double counting   =       906.41357777     -907.80184240
  entropy T*S    EENTRO =        -0.00156719
  eigenvalues    EBANDS =       -91.57219056
  atomic energy  EATOM  =       294.28875697
  Solvation  Ediel_sol  =         0.00000000
  ---------------------------------------------------
  free energy    TOTEN  =       -18.41191264 eV

  energy without entropy =      -18.41034544  energy(sigma->0) =      -18.41112904


--------------------------------------------------------------------------------------------------------




--------------------------------------- Iteration      1(  12)  ---------------------------------------


    POTLOK:  cpu time      0.0044: real time      0.0045
    SETDIJ:  cpu time      0.0009: real time      0.0009
     EDDAV:  cpu time      0.4319: real time      0.4342
       DOS:  cpu time      0.0004: real time      0.0004
    CHARGE:  cpu time      0.0100: real time      0.0104
    MIXING:  cpu time      0.0004: real time      0.0003
    --------------------------------------------
      LOOP:  cpu time      0.4480: real time      0.4507

 eigenvalue-minimisations  :  2400
 total energy-change (2. order) :-0.4474088E-03  (-0.4208184E-05)
 number of electron       7.9999999 magnetization 
 augmentation part        0.1985653 magnetization 

 Broyden mixing:
  rms(total) = 0.95523E-03    rms(broyden)= 0.95515E-03
  rms(prec ) = 0.22345E-02
  weight for this iteration     100.00

 eigenvalues of (default mixing * dielectric matrix)
  average eigenvalue GAMMA=   2.8382
  6.5850  4.0945  2.7318  2.4357  1.9731  0.9956  1.0515

 Free energy of the ion-electron system (eV)
  ---------------------------------------------------
  alpha Z        PSCENC =         4.28366701
  Ewald energy   TEWEN  =       869.69934554
  -Hartree energ DENC   =     -1121.67000614
  -exchange      EXHF   =         0.00000000
  -V(xc)+E(xc)   XCENC  =        27.81276516
  PAW double counting   =       906.00165524     -907.39022775
  entropy T*S    EENTRO =        -0.00156719
  eigenvalues    EBANDS =       -91.43674889
  atomic energy  EATOM  =       294.28875697
  Solvation  Ediel_sol  =         0.00000000
  ---------------------------------------------------
  free energy    TOTEN  =       -18.41236005 eV

  energy without entropy =      -18.41079285  energy(sigma->0) =      -18.41157645


--------------------------------------------------------------------------------------------------------




--------------------------------------- Iteration      1(  13)  ---------------------------------------


    POTLOK:  cpu time      0.0038: real time      0.0039
    SETDIJ:  cpu time      0.0009: real time      0.0009
     EDDAV:  cpu time      0.5644: real time      0.5701
       DOS:  cpu time      0.0004: real time      0.0004
    CHARGE:  cpu time      0.0095: real time      0.0099
    MIXING:  cpu time      0.0004: real time      0.0004
    --------------------------------------------
      LOOP:  cpu time      0.5794: real time      0.5855

 eigenvalue-minimisations  :  2832
 total energy-change (2. order) :-0.6704282E-03  (-0.1789738E-04)
 number of electron       7.9999999 magnetization 
 augmentation part        0.1985636 magnetization 

 Broyden mixing:
  rms(total) = 0.43506E-03    rms(broyden)= 0.43503E-03
  rms(prec ) = 0.73175E-03
  weight for this iteration     100.00

 eigenvalues of (default mixing * dielectric matrix)
  average eigenvalue GAMMA=   3.0559
  7.5310  4.7225  3.2194  2.5825  2.4161  1.9672  0.9927  1.0161

 Free energy of the ion-electron system (eV)
  ---------------------------------------------------
  alpha Z        PSCENC =         4.28366701
  Ewald energy   TEWEN  =       869.69934554
  -Hartree energ DENC   =     -1121.91210973
  -exchange      EXHF   =         0.00000000
  -V(xc)+E(xc)   XCENC  =        27.81247402
  PAW double counting   =       906.54050056     -907.92856913
  entropy T*S    EENTRO =        -0.00156719
  eigenvalues    EBANDS =       -91.19552853
  atomic energy  EATOM  =       294.28875697
  Solvation  Ediel_sol  =         0.00000000
  ---------------------------------------------------
  free energy    TOTEN  =       -18.41303047 eV

  energy without entropy =      -18.41146328  energy(sigma->0) =      -18.41224688


--------------------------------------------------------------------------------------------------------




--------------------------------------- Iteration      1(  14)  ---------------------------------------


    POTLOK:  cpu time      0.0041: real time      0.0042
    SETDIJ:  cpu time      0.0009: real time      0.0009
     EDDAV:  cpu time      0.5590: real time      0.5617
       DOS:  cpu time      0.0004: real time      0.0004
    CHARGE:  cpu time      0.0098: real time      0.0099
    MIXING:  cpu time      0.0005: real time      0.0005
    --------------------------------------------
      LOOP:  cpu time      0.5747: real time      0.5775

 eigenvalue-minimisations  :  2832
 total energy-change (2. order) :-0.1277702E-03  (-0.6023579E-06)
 number of electron       7.9999999 magnetization 
 augmentation part        0.1985528 magnetization 

 Broyden mixing:
  rms(total) = 0.30045E-03    rms(broyden)= 0.30041E-03
  rms(prec ) = 0.35846E-03
  weight for this iteration     100.00

 eigenvalues of (default mixing * dielectric matrix)
  average eigenvalue GAMMA=   3.0875
  8.7702  5.5175  3.2471  2.6647  2.4668  1.9822  0.9961  0.9961  1.1469

 Free energy of the ion-electron system (eV)
  ---------------------------------------------------
  alpha Z        PSCENC =         4.28366701
  Ewald energy   TEWEN  =       869.69934554
  -Hartree energ DENC   =     -1121.99543524
  -exchange      EXHF   =         0.00000000
  -V(xc)+E(xc)   XCENC  =        27.81309361
  PAW double counting   =       905.88710777     -907.27541184
  entropy T*S    EENTRO =        -0.00156719
  eigenvalues    EBANDS =       -91.11271488
  atomic energy  EATOM  =       294.28875697
  Solvation  Ediel_sol  =         0.00000000
  ---------------------------------------------------
  free energy    TOTEN  =       -18.41315824 eV

  energy without entropy =      -18.41159105  energy(sigma->0) =      -18.41237465


--------------------------------------------------------------------------------------------------------




--------------------------------------- Iteration      1(  15)  ---------------------------------------


    POTLOK:  cpu time      0.0041: real time      0.0042
    SETDIJ:  cpu time      0.0009: real time      0.0009
     EDDAV:  cpu time      0.4853: real time      0.4895
       DOS:  cpu time      0.0004: real time      0.0004
    CHARGE:  cpu time      0.0099: real time      0.0101
    MIXING:  cpu time      0.0005: real time      0.0005
    --------------------------------------------
      LOOP:  cpu time      0.5011: real time      0.5055

 eigenvalue-minimisations  :  2640
 total energy-change (2. order) :-0.2665647E-04  (-0.2936589E-06)
 number of electron       7.9999999 magnetization 
 augmentation part        0.1985601 magnetization 

 Broyden mixing:
  rms(total) = 0.72273E-04    rms(broyden)= 0.72254E-04
  rms(prec ) = 0.97057E-04
  weight for this iteration     100.00

 eigenvalues of (default mixing * dielectric matrix)
  average eigenvalue GAMMA=   3.2037
  9.5369  5.9052  3.7701  2.8783  2.4780  2.4780  1.9799  0.9921  0.9921  1.0263

 Free energy of the ion-electron system (eV)
  ---------------------------------------------------
  alpha Z        PSCENC =         4.28366701
  Ewald energy   TEWEN  =       869.69934554
  -Hartree energ DENC   =     -1121.96540486
  -exchange      EXHF   =         0.00000000
  -V(xc)+E(xc)   XCENC  =        27.81243501
  PAW double counting   =       906.19902279     -907.58723255
  entropy T*S    EENTRO =        -0.00156719
  eigenvalues    EBANDS =       -91.14220761
  atomic energy  EATOM  =       294.28875697
  Solvation  Ediel_sol  =         0.00000000
  ---------------------------------------------------
  free energy    TOTEN  =       -18.41318490 eV

  energy without entropy =      -18.41161771  energy(sigma->0) =      -18.41240130


--------------------------------------------------------------------------------------------------------




--------------------------------------- Iteration      1(  16)  ---------------------------------------


    POTLOK:  cpu time      0.0041: real time      0.0042
    SETDIJ:  cpu time      0.0010: real time      0.0010
     EDDAV:  cpu time      0.5021: real time      0.5054
       DOS:  cpu time      0.0003: real time      0.0003
    CHARGE:  cpu time      0.0096: real time      0.0097
    MIXING:  cpu time      0.0004: real time      0.0004
    --------------------------------------------
      LOOP:  cpu time      0.5176: real time      0.5210

 eigenvalue-minimisations  :  2688
 total energy-change (2. order) :-0.7580404E-05  (-0.2258790E-07)
 number of electron       7.9999999 magnetization 
 augmentation part        0.1985591 magnetization 

 Broyden mixing:
  rms(total) = 0.83267E-05    rms(broyden)= 0.83262E-05
  rms(prec ) = 0.11806E-04
  weight for this iteration     100.00

 eigenvalues of (default mixing * dielectric matrix)
  average eigenvalue GAMMA=   3.1440
  9.6672  5.7770  4.0461  2.9285  2.7279  2.4756  2.0024  1.9551  0.9930  0.9930
  1.0179

 Free energy of the ion-electron system (eV)
  ---------------------------------------------------
  alpha Z        PSCENC =         4.28366701
  Ewald energy   TEWEN  =       869.69934554
  -Hartree energ DENC   =     -1121.97302623
  -exchange      EXHF   =         0.00000000
  -V(xc)+E(xc)   XCENC  =        27.81252817
  PAW double counting   =       906.20446528     -907.59268424
  entropy T*S    EENTRO =        -0.00156719
  eigenvalues    EBANDS =       -91.13467778
  atomic energy  EATOM  =       294.28875697
  Solvation  Ediel_sol  =         0.00000000
  ---------------------------------------------------
  free energy    TOTEN  =       -18.41319248 eV

  energy without entropy =      -18.41162529  energy(sigma->0) =      -18.41240888


--------------------------------------------------------------------------------------------------------




--------------------------------------- Iteration      1(  17)  ---------------------------------------


    POTLOK:  cpu time      0.0038: real time      0.0039
    SETDIJ:  cpu time      0.0009: real time      0.0009
     EDDAV:  cpu time      0.4649: real time      0.4693
       DOS:  cpu time      0.0004: real time      0.0004
    --------------------------------------------
      LOOP:  cpu time      0.4700: real time      0.4745

 eigenvalue-minimisations  :  2448
 total energy-change (2. order) :-0.3820007E-06  (-0.6248332E-08)
 number of electron       7.9999999 magnetization 
 augmentation part        0.1985591 magnetization 

 Free energy of the ion-electron system (eV)
  ---------------------------------------------------
  alpha Z        PSCENC =         4.28366701
  Ewald energy   TEWEN  =       869.69934554
  -Hartree energ DENC   =     -1121.97503706
  -exchange      EXHF   =         0.00000000
  -V(xc)+E(xc)   XCENC  =        27.81254806
  PAW double counting   =       906.19787794     -907.58609532
  entropy T*S    EENTRO =        -0.00156719
  eigenvalues    EBANDS =       -91.13268881
  atomic energy  EATOM  =       294.28875697
  Solvation  Ediel_sol  =         0.00000000
  ---------------------------------------------------
  free energy    TOTEN  =       -18.41319286 eV

  energy without entropy =      -18.41162567  energy(sigma->0) =      -18.41240927


--------------------------------------------------------------------------------------------------------




 average (electrostatic) potential at core
  the test charge radii are     0.6991
  (the norm of the test charge is              1.0000)
       1 -57.4570       2 -57.4570
 
 
 
 E-fermi :  -2.0887     XC(G=0):  -2.8862     alpha+bet : -2.6131

 Fermi energy:        -2.0887005562

 k-point     1 :       0.0000    0.0000    0.0000
  band No.  band energies     occupation 
      1     -21.9585      2.00000
      2     -10.0060      2.00000
      3      -5.0954      2.00000
      4      -5.0954      2.00000
      5       1.0317      0.00000
      6       1.9448      0.00000
      7       2.4754      0.00000
      8       4.3692      0.00000
      9       5.1232      0.00000
     10       6.5324      0.00000
     11       6.5324      0.00000
     12       8.2676      0.00000
     13       9.3723      0.00000
     14       9.8890      0.00000
     15      11.4255      0.00000
     16      13.6030      0.00000
     17      15.0886      0.00000
     18      20.1978      0.00000
     19      20.9778      0.00000
     20      22.2442      0.00000
     21      26.7318      0.00000
     22      26.7318      0.00000
     23      27.3786      0.00000
     24      30.2158      0.00000
     25      30.2158      0.00000
     26      30.7407      0.00000
     27      31.9826      0.00000
     28      33.9497      0.00000
     29      33.9497      0.00000
     30      34.4907      0.00000
     31      34.4907      0.00000
     32      35.0098      0.00000
     33      35.2363      0.00000
     34      35.5141      0.00000
     35      36.1624      0.00000
     36      36.1624      0.00000
     37      36.2253      0.00000
     38      36.2578      0.00000
     39      36.2579      0.00000
     40      36.3155      0.00000
     41      36.3155      0.00000
     42      36.4488      0.00000
     43      36.4488      0.00000
     44      36.4507      0.00000
     45      36.6695      0.00000
     46      37.7821      0.00000
     47      38.0668      0.00000
     48      38.4831      0.00000

 k-point     2 :       0.0833    0.0000    0.0000
  band No.  band energies     occupation 
      1     -21.7901      2.00000
      2      -9.8033      2.00000
      3      -5.7590      2.00000
      4      -5.4501      2.00000
      5       1.2611      0.00000
      6       2.1764      0.00000
      7       2.7091      0.00000
      8       4.5993      0.00000
      9       5.3482      0.00000
     10       6.6125      0.00000
     11       7.2586      0.00000
     12       8.4910      0.00000
     13       9.2862      0.00000
     14       9.6057      0.00000
     15      11.7117      0.00000
     16      13.8105      0.00000
     17      15.3177      0.00000
     18      20.3223      0.00000
     19      21.5203      0.00000
     20      22.4619      0.00000
     21      24.9048      0.00000
     22      25.4125      0.00000
     23      27.5011      0.00000
     24      29.4197      0.00000
     25      30.0257      0.00000
     26      30.9282      0.00000
     27      30.9504      0.00000
     28      30.9591      0.00000
     29      31.6715      0.00000
     30      31.9032      0.00000
     31      32.5444      0.00000
     32      33.1651      0.00000
     33      33.4653      0.00000
     34      33.6957      0.00000
     35      33.7947      0.00000
     36      33.8170      0.00000
     37      33.9116      0.00000
     38      34.9146      0.00000
     39      35.9279      0.00000
     40      35.9809      0.00000
     41      36.2890      0.00000
     42      36.5315      0.00000
     43      37.2111      0.00000
     44      37.2254      0.00000
     45      37.2399      0.00000
     46      38.3323      0.00000
     47      38.8218      0.00000
     48      39.1985      0.00000

 k-point     3 :       0.1667    0.0000    0.0000
  band No.  band energies     occupation 
      1     -21.2867      2.00000
      2      -9.1999      2.00000
      3      -7.4322      2.00000
      4      -6.2786      2.00000
      5       1.9492      0.00000
      6       2.8697      0.00000
      7       3.4104      0.00000
      8       5.2872      0.00000
      9       6.0104      0.00000
     10       6.6296      0.00000
     11       7.6827      0.00000
     12       9.1626      0.00000
     13       9.1839      0.00000
     14      10.2947      0.00000
     15      12.6209      0.00000
     16      14.4122      0.00000
     17      15.9950      0.00000
     18      20.2280      0.00000
     19      22.5083      0.00000
     20      22.5242      0.00000
     21      23.1937      0.00000
     22      23.5390      0.00000
     23      24.9788      0.00000
     24      25.9999      0.00000
     25      26.1317      0.00000
     26      27.8342      0.00000
     27      28.7319      0.00000
     28      29.2192      0.00000
     29      29.5818      0.00000
     30      30.0897      0.00000
     31      30.5834      0.00000
     32      31.5225      0.00000
     33      31.5785      0.00000
     34      31.5872      0.00000
     35      31.8268      0.00000
     36      32.1851      0.00000
     37      32.7936      0.00000
     38      32.9015      0.00000
     39      33.8882      0.00000
     40      33.9443      0.00000
     41      34.3771      0.00000
     42      34.6145      0.00000
     43      35.4981      0.00000
     44      37.3607      0.00000
     45      37.9130      0.00000
     46      37.9337      0.00000
     47      38.2984      0.00000
     48      38.4275      0.00000

 k-point     4 :       0.2500    0.0000    0.0000
  band No.  band energies     occupation 
      1     -20.4539      2.00000
      2      -9.5805      2.00000
      3      -8.2153      2.00000
      4      -7.1950      2.00000
      5       3.0941      0.00000
      6       4.0081      0.00000
      7       4.5783      0.00000
      8       5.4588      0.00000
      9       6.3284      0.00000
     10       6.4606      0.00000
     11       7.2291      0.00000
     12      10.2627      0.00000
     13      11.4260      0.00000
     14      11.8473      0.00000
     15      13.8767      0.00000
     16      15.2887      0.00000
     17      17.0991      0.00000
     18      18.5800      0.00000
     19      20.2543      0.00000
     20      21.3848      0.00000
     21      21.5720      0.00000
     22      21.9805      0.00000
     23      22.7472      0.00000
     24      23.6087      0.00000
     25      24.2782      0.00000
     26      24.4871      0.00000
     27      25.6084      0.00000
     28      27.5569      0.00000
     29      27.9365      0.00000
     30      28.5648      0.00000
     31      29.2342      0.00000
     32      29.3010      0.00000
     33      29.9042      0.00000
     34      29.9280      0.00000
     35      30.2387      0.00000
     36      30.5918      0.00000
     37      31.3003      0.00000
     38      32.2371      0.00000
     39      32.4352      0.00000
     40      32.6269      0.00000
     41      33.0952      0.00000
     42      33.6834      0.00000
     43      34.3317      0.00000
     44      34.7080      0.00000
     45      36.2477      0.00000
     46      36.5641      0.00000
     47      36.9757      0.00000
     48      37.3044      0.00000

 k-point     5 :       0.3333   -0.0000    0.0000
  band No.  band energies     occupation 
      1     -19.3035      2.00000
      2     -11.8400      2.00000
      3      -7.9571      2.00000
      4      -6.9001      2.00000
      5       2.9961      0.00000
      6       4.6863      0.00000
      7       5.6622      0.00000
      8       6.0175      0.00000
      9       6.2526      0.00000
     10       8.0425      0.00000
     11       8.8110      0.00000
     12      11.7467      0.00000
     13      12.9909      0.00000
     14      14.2066      0.00000
     15      14.8177      0.00000
     16      15.4209      0.00000
     17      17.0300      0.00000
     18      17.0558      0.00000
     19      18.0695      0.00000
     20      18.4932      0.00000
     21      18.6158      0.00000
     22      20.5243      0.00000
     23      20.6505      0.00000
     24      20.8454      0.00000
     25      23.4332      0.00000
     26      24.1426      0.00000
     27      25.2716      0.00000
     28      25.3342      0.00000
     29      26.7335      0.00000
     30      26.8727      0.00000
     31      27.8511      0.00000
     32      28.1255      0.00000
     33      28.7334      0.00000
     34      28.7441      0.00000
     35      29.0454      0.00000
     36      29.3431      0.00000
     37      30.6610      0.00000
     38      30.7289      0.00000
     39      31.0320      0.00000
     40      31.2738      0.00000
     41      31.8193      0.00000
     42      32.7062      0.00000
     43      33.8209      0.00000
     44      34.4925      0.00000
     45      34.9736      0.00000
     46      35.4649      0.00000
     47      36.0775      0.00000
     48      36.6915      0.00000

 k-point     6 :       0.4167    0.0000    0.0000
  band No.  band energies     occupation 
      1     -17.8630      2.00000
      2     -14.0013      2.00000
      3      -8.4478      2.00000
      4      -5.4203      2.00000
      5       0.7616      0.00000
      6       5.7939      0.00000
      7       6.7618      0.00000
      8       7.7076      0.00000
      9       8.3231      0.00000
     10      10.0569      0.00000
     11      10.8511      0.00000
     12      11.9658      0.00000
     13      12.7843      0.00000
     14      13.7137      0.00000
     15      13.8758      0.00000
     16      14.9671      0.00000
     17      15.2597      0.00000
     18      15.9774      0.00000
     19      17.2891      0.00000
     20      17.5018      0.00000
     21      18.9227      0.00000
     22      19.4279      0.00000
     23      20.1590      0.00000
     24      20.3364      0.00000
     25      21.5375      0.00000
     26      21.9514      0.00000
     27      25.1347      0.00000
     28      25.3004      0.00000
     29      25.9584      0.00000
     30      26.7751      0.00000
     31      26.8436      0.00000
     32      27.3565      0.00000
     33      28.0246      0.00000
     34      28.0292      0.00000
     35      28.0913      0.00000
     36      28.1873      0.00000
     37      29.3741      0.00000
     38      29.9081      0.00000
     39      30.2588      0.00000
     40      30.5724      0.00000
     41      31.0115      0.00000
     42      32.2170      0.00000
     43      33.6313      0.00000
     44      33.9679      0.00000
     45      34.1843      0.00000
     46      34.7729      0.00000
     47      35.1795      0.00000
     48      35.6486      0.00000

 k-point     7 :       0.5000    0.0000    0.0000
  band No.  band energies     occupation 
      1     -16.5120      2.00000
      2     -15.6006      2.00000
      3      -8.6163      2.00000
      4      -4.5365      2.00000
      5      -0.3906      0.00000
      6       5.7259      0.00000
      7       9.1324      0.00000
      8       9.2809      0.00000
      9      10.0563      0.00000
     10      10.2653      0.00000
     11      10.8716      0.00000
     12      10.8942      0.00000
     13      12.2468      0.00000
     14      12.6967      0.00000
     15      13.2739      0.00000
     16      13.3367      0.00000
     17      15.0786      0.00000
     18      16.5279      0.00000
     19      17.1379      0.00000
     20      17.2950      0.00000
     21      18.7152      0.00000
     22      18.8357      0.00000
     23      19.9295      0.00000
     24      20.8403      0.00000
     25      21.8498      0.00000
     26      22.1654      0.00000
     27      23.8239      0.00000
     28      24.3034      0.00000
     29      25.6600      0.00000
     30      26.2668      0.00000
     31      26.7959      0.00000
     32      27.1950      0.00000
     33      27.7785      0.00000
     34      27.7943      0.00000
     35      27.9895      0.00000
     36      28.5517      0.00000
     37      29.2803      0.00000
     38      29.9638      0.00000
     39      30.3382      0.00000
     40      30.6316      0.00000
     41      30.8680      0.00000
     42      31.0291      0.00000
     43      31.9507      0.00000
     44      33.4084      0.00000
     45      33.6041      0.00000
     46      34.5407      0.00000
     47      34.9542      0.00000
     48      35.6983      0.00000

 k-point     8 :       0.0833    0.0833    0.0000
  band No.  band energies     occupation 
      1     -21.4542      2.00000
      2      -9.4001      2.00000
      3      -6.8110      2.00000
      4      -6.1596      2.00000
      5       1.7201      0.00000
      6       2.6390      0.00000
      7       3.1768      0.00000
      8       5.0589      0.00000
      9       5.7997      0.00000
     10       6.9299      0.00000
     11       8.2003      0.00000
     12       8.2257      0.00000
     13       8.9358      0.00000
     14      10.0681      0.00000
     15      12.4032      0.00000
     16      14.2112      0.00000
     17      15.7704      0.00000
     18      20.2734      0.00000
     19      22.3348      0.00000
     20      22.5882      0.00000
     21      22.9441      0.00000
     22      24.7738      0.00000
     23      26.9865      0.00000
     24      27.4712      0.00000
     25      27.8370      0.00000
     26      28.4383      0.00000
     27      28.5953      0.00000
     28      28.6149      0.00000
     29      28.7103      0.00000
     30      30.2524      0.00000
     31      30.9473      0.00000
     32      31.0955      0.00000
     33      31.2936      0.00000
     34      31.3879      0.00000
     35      31.6800      0.00000
     36      33.8214      0.00000
     37      34.8337      0.00000
     38      34.9827      0.00000
     39      35.2310      0.00000
     40      35.3718      0.00000
     41      35.5952      0.00000
     42      36.0377      0.00000
     43      36.8867      0.00000
     44      37.0603      0.00000
     45      37.1086      0.00000
     46      37.2112      0.00000
     47      37.8748      0.00000
     48      39.2640      0.00000

 k-point     9 :       0.1667    0.0833    0.0000
  band No.  band energies     occupation 
      1     -20.7862      2.00000
      2      -8.6049      2.00000
      3      -8.5577      2.00000
      4      -7.1984      2.00000
      5       2.6376      0.00000
      6       3.5602      0.00000
      7       4.1121      0.00000
      8       5.9627      0.00000
      9       6.3653      0.00000
     10       6.6760      0.00000
     11       7.1696      0.00000
     12       9.8128      0.00000
     13       9.8660      0.00000
     14      10.9812      0.00000
     15      13.8932      0.00000
     16      14.9142      0.00000
     17      16.6604      0.00000
     18      18.7234      0.00000
     19      22.0999      0.00000
     20      22.2027      0.00000
     21      22.8822      0.00000
     22      23.4561      0.00000
     23      23.8674      0.00000
     24      24.3933      0.00000
     25      24.4847      0.00000
     26      25.6936      0.00000
     27      26.5964      0.00000
     28      26.6810      0.00000
     29      26.7485      0.00000
     30      27.0828      0.00000
     31      28.6036      0.00000
     32      29.2714      0.00000
     33      29.3836      0.00000
     34      30.9075      0.00000
     35      30.9549      0.00000
     36      31.5373      0.00000
     37      32.2506      0.00000
     38      33.0437      0.00000
     39      33.7759      0.00000
     40      34.0739      0.00000
     41      34.7881      0.00000
     42      35.2176      0.00000
     43      35.8455      0.00000
     44      36.3737      0.00000
     45      37.1138      0.00000
     46      37.5718      0.00000
     47      38.3912      0.00000
     48      38.8799      0.00000

 k-point    10 :       0.2500    0.0833    0.0000
  band No.  band energies     occupation 
      1     -19.7945      2.00000
      2     -10.6837      2.00000
      3      -8.1155      2.00000
      4      -7.4484      2.00000
      5       4.0094      0.00000
      6       4.0578      0.00000
      7       4.9735      0.00000
      8       5.5131      0.00000
      9       6.8980      0.00000
     10       7.3467      0.00000
     11       8.1362      0.00000
     12      11.0802      0.00000
     13      12.0429      0.00000
     14      12.3591      0.00000
     15      15.2760      0.00000
     16      15.5165      0.00000
     17      17.4672      0.00000
     18      17.9499      0.00000
     19      18.7337      0.00000
     20      19.5238      0.00000
     21      19.8171      0.00000
     22      21.3923      0.00000
     23      22.3284      0.00000
     24      22.7976      0.00000
     25      23.5695      0.00000
     26      24.0469      0.00000
     27      24.6064      0.00000
     28      25.2533      0.00000
     29      25.2859      0.00000
     30      26.0845      0.00000
     31      26.7180      0.00000
     32      27.3696      0.00000
     33      27.5653      0.00000
     34      28.2458      0.00000
     35      30.2258      0.00000
     36      31.2896      0.00000
     37      31.6072      0.00000
     38      32.3224      0.00000
     39      32.7232      0.00000
     40      32.7766      0.00000
     41      33.4485      0.00000
     42      33.6614      0.00000
     43      34.0005      0.00000
     44      34.6021      0.00000
     45      36.1269      0.00000
     46      36.2788      0.00000
     47      37.6819      0.00000
     48      37.8080      0.00000

 k-point    11 :       0.3333    0.0833    0.0000
  band No.  band energies     occupation 
      1     -18.4969      2.00000
      2     -12.8649      2.00000
      3      -8.7715      2.00000
      4      -6.0161      2.00000
      5       1.7593      0.00000
      6       5.8180      0.00000
      7       6.6550      0.00000
      8       6.7793      0.00000
      9       7.3945      0.00000
     10       9.1355      0.00000
     11       9.9458      0.00000
     12      12.4870      0.00000
     13      13.0633      0.00000
     14      14.0985      0.00000
     15      14.2781      0.00000
     16      15.3489      0.00000
     17      16.0630      0.00000
     18      16.0871      0.00000
     19      17.7926      0.00000
     20      17.8704      0.00000
     21      19.1905      0.00000
     22      19.5061      0.00000
     23      19.9132      0.00000
     24      21.1878      0.00000
     25      22.6475      0.00000
     26      23.1896      0.00000
     27      23.2468      0.00000
     28      24.3236      0.00000
     29      24.3331      0.00000
     30      25.2563      0.00000
     31      25.6946      0.00000
     32      26.5745      0.00000
     33      26.8743      0.00000
     34      27.9567      0.00000
     35      28.2494      0.00000
     36      29.3236      0.00000
     37      30.4713      0.00000
     38      30.6120      0.00000
     39      31.6153      0.00000
     40      32.4513      0.00000
     41      32.8233      0.00000
     42      33.0182      0.00000
     43      34.2100      0.00000
     44      35.0311      0.00000
     45      35.5998      0.00000
     46      35.6330      0.00000
     47      35.9230      0.00000
     48      36.4454      0.00000

 k-point    12 :       0.4167    0.0833    0.0000
  band No.  band energies     occupation 
      1     -16.9585      2.00000
      2     -14.8768      2.00000
      3      -9.1107      2.00000
      4      -4.6506      2.00000
      5      -0.0939      0.00000
      6       6.4775      0.00000
      7       8.0943      0.00000
      8       9.0004      0.00000
      9       9.7182      0.00000
     10      10.7003      0.00000
     11      11.0990      0.00000
     12      11.7353      0.00000
     13      12.1914      0.00000
     14      12.4956      0.00000
     15      13.4925      0.00000
     16      14.7301      0.00000
     17      14.7959      0.00000
     18      16.1762      0.00000
     19      16.4764      0.00000
     20      17.5156      0.00000
     21      18.7238      0.00000
     22      19.0566      0.00000
     23      20.6730      0.00000
     24      21.0558      0.00000
     25      21.9384      0.00000
     26      22.3011      0.00000
     27      22.3063      0.00000
     28      23.8461      0.00000
     29      23.8591      0.00000
     30      24.6007      0.00000
     31      24.9110      0.00000
     32      26.1625      0.00000
     33      26.1899      0.00000
     34      26.6495      0.00000
     35      28.2347      0.00000
     36      29.7876      0.00000
     37      29.9552      0.00000
     38      30.1857      0.00000
     39      31.0755      0.00000
     40      31.4347      0.00000
     41      32.2567      0.00000
     42      32.3355      0.00000
     43      32.7629      0.00000
     44      34.2765      0.00000
     45      34.4316      0.00000
     46      35.4801      0.00000
     47      35.9386      0.00000
     48      36.2882      0.00000

 k-point    13 :       0.1667    0.1667    0.0000
  band No.  band energies     occupation 
      1     -19.9593      2.00000
      2      -9.9034      2.00000
      3      -8.6185      2.00000
      4      -7.6339      2.00000
      5       3.7830      0.00000
      6       4.5531      0.00000
      7       4.7047      0.00000
      8       5.2817      0.00000
      9       7.1012      0.00000
     10       7.8198      0.00000
     11       8.3700      0.00000
     12      10.0927      0.00000
     13      10.8299      0.00000
     14      12.1096      0.00000
     15      14.9384      0.00000
     16      16.0090      0.00000
     17      17.3665      0.00000
     18      17.7425      0.00000
     19      20.6221      0.00000
     20      21.0565      0.00000
     21      21.0754      0.00000
     22      22.0828      0.00000
     23      22.1889      0.00000
     24      22.3387      0.00000
     25      23.2681      0.00000
     26      23.4317      0.00000
     27      24.0334      0.00000
     28      24.9017      0.00000
     29      24.9674      0.00000
     30      24.9746      0.00000
     31      26.2842      0.00000
     32      26.7242      0.00000
     33      28.9121      0.00000
     34      29.1090      0.00000
     35      29.6499      0.00000
     36      29.6682      0.00000
     37      29.8739      0.00000
     38      32.7334      0.00000
     39      33.4430      0.00000
     40      34.0754      0.00000
     41      34.6092      0.00000
     42      34.8933      0.00000
     43      35.0819      0.00000
     44      37.3283      0.00000
     45      37.5210      0.00000
     46      38.2557      0.00000
     47      38.9910      0.00000
     48      39.1220      0.00000

 k-point    14 :       0.2500    0.1667    0.0000
  band No.  band energies     occupation 
      1     -18.8197      2.00000
      2     -11.6770      2.00000
      3      -9.7046      2.00000
      4      -6.3342      2.00000
      5       2.5150      0.00000
      6       5.3777      0.00000
      7       6.2839      0.00000
      8       6.9163      0.00000
      9       8.5788      0.00000
     10       8.6318      0.00000
     11       9.5085      0.00000
     12      11.4983      0.00000
     13      11.8578      0.00000
     14      13.6650      0.00000
     15      14.0849      0.00000
     16      16.5681      0.00000
     17      17.6343      0.00000
     18      18.0462      0.00000
     19      18.4899      0.00000
     20      18.8392      0.00000
     21      19.2097      0.00000
     22      19.8625      0.00000
     23      19.9513      0.00000
     24      21.0111      0.00000
     25      21.0308      0.00000
     26      21.3923      0.00000
     27      22.7018      0.00000
     28      23.5285      0.00000
     29      24.0084      0.00000
     30      24.5591      0.00000
     31      24.9212      0.00000
     32      25.6423      0.00000
     33      26.7426      0.00000
     34      27.4045      0.00000
     35      28.3153      0.00000
     36      28.3920      0.00000
     37      30.4235      0.00000
     38      31.0824      0.00000
     39      32.3920      0.00000
     40      32.8845      0.00000
     41      33.5090      0.00000
     42      35.2082      0.00000
     43      35.4720      0.00000
     44      36.2380      0.00000
     45      37.1495      0.00000
     46      37.8510      0.00000
     47      37.9487      0.00000
     48      37.9634      0.00000

 k-point    15 :       0.3333    0.1667    0.0000
  band No.  band energies     occupation 
      1     -17.3995      2.00000
      2     -13.6519      2.00000
      3     -10.2899      2.00000
      4      -4.8505      2.00000
      5       0.5150      0.00000
      6       7.3994      0.00000
      7       8.2164      0.00000
      8       8.4235      0.00000
      9       9.0238      0.00000
     10      10.3113      0.00000
     11      11.5018      0.00000
     12      12.0011      0.00000
     13      12.0958      0.00000
     14      14.2521      0.00000
     15      14.3463      0.00000
     16      15.2628      0.00000
     17      15.3548      0.00000
     18      15.6676      0.00000
     19      16.8774      0.00000
     20      17.5669      0.00000
     21      18.8646      0.00000
     22      19.5692      0.00000
     23      20.0980      0.00000
     24      20.3216      0.00000
     25      20.4618      0.00000
     26      20.9630      0.00000
     27      21.0110      0.00000
     28      22.5238      0.00000
     29      22.6577      0.00000
     30      23.0078      0.00000
     31      24.3131      0.00000
     32      24.8637      0.00000
     33      26.1817      0.00000
     34      27.1938      0.00000
     35      27.4713      0.00000
     36      27.7064      0.00000
     37      28.9767      0.00000
     38      29.4243      0.00000
     39      31.9354      0.00000
     40      32.7120      0.00000
     41      33.1321      0.00000
     42      34.5734      0.00000
     43      35.3672      0.00000
     44      35.7543      0.00000
     45      36.8115      0.00000
     46      37.2076      0.00000
     47      37.4199      0.00000
     48      37.8316      0.00000

 k-point    16 :       0.4167    0.1667    0.0000
  band No.  band energies     occupation 
      1     -16.0844      2.00000
      2     -15.1746      2.00000
      3     -10.4776      2.00000
      4      -3.9173      2.00000
      5      -0.6047      0.00000
      6       8.3294      0.00000
      7       9.6668      0.00000
      8       9.7197      0.00000
      9       9.9104      0.00000
     10      10.9625      0.00000
     11      11.5475      0.00000
     12      11.5803      0.00000
     13      12.0751      0.00000
     14      13.3927      0.00000
     15      13.7630      0.00000
     16      13.9356      0.00000
     17      14.4393      0.00000
     18      16.4990      0.00000
     19      17.2122      0.00000
     20      17.6317      0.00000
     21      17.9356      0.00000
     22      18.6932      0.00000
     23      18.9636      0.00000
     24      19.8472      0.00000
     25      20.1355      0.00000
     26      21.4294      0.00000
     27      21.7148      0.00000
     28      22.3935      0.00000
     29      22.5126      0.00000
     30      22.7783      0.00000
     31      23.5273      0.00000
     32      24.7589      0.00000
     33      25.4291      0.00000
     34      26.0239      0.00000
     35      27.0015      0.00000
     36      27.5307      0.00000
     37      29.1601      0.00000
     38      31.3251      0.00000
     39      31.4677      0.00000
     40      31.7310      0.00000
     41      32.3496      0.00000
     42      32.6040      0.00000
     43      35.1248      0.00000
     44      36.4959      0.00000
     45      36.8045      0.00000
     46      36.9567      0.00000
     47      37.8398      0.00000
     48      38.2175      0.00000

 k-point    17 :       0.2500    0.2500    0.0000
  band No.  band energies     occupation 
      1     -17.5540      2.00000
      2     -12.7108      2.00000
      3     -11.2580      2.00000
      4      -4.9394      2.00000
      5       0.8378      0.00000
      6       7.1796      0.00000
      7       7.9135      0.00000
      8       8.7805      0.00000
      9       9.9487      0.00000
     10      10.5330      0.00000
     11      11.1601      0.00000
     12      11.3336      0.00000
     13      11.7170      0.00000
     14      14.8425      0.00000
     15      15.3445      0.00000
     16      15.9616      0.00000
     17      16.1825      0.00000
     18      16.4859      0.00000
     19      17.2874      0.00000
     20      17.3163      0.00000
     21      17.3961      0.00000
     22      18.8993      0.00000
     23      19.3725      0.00000
     24      19.6952      0.00000
     25      19.8220      0.00000
     26      20.5871      0.00000
     27      20.5944      0.00000
     28      21.8743      0.00000
     29      22.5176      0.00000
     30      23.3268      0.00000
     31      24.0055      0.00000
     32      24.4679      0.00000
     33      24.9070      0.00000
     34      26.7093      0.00000
     35      27.2682      0.00000
     36      28.9442      0.00000
     37      29.8430      0.00000
     38      29.9033      0.00000
     39      30.2895      0.00000
     40      31.8408      0.00000
     41      33.1573      0.00000
     42      35.7380      0.00000
     43      36.3945      0.00000
     44      36.6161      0.00000
     45      36.8774      0.00000
     46      37.4485      0.00000
     47      37.7322      0.00000
     48      40.2911      0.00000

 k-point    18 :       0.3333    0.2500    0.0000
  band No.  band energies     occupation 
      1     -16.0765      2.00000
      2     -14.1916      2.00000
      3     -11.9785      2.00000
      4      -3.4968      2.00000
      5      -0.7456      0.00000
      6       8.8823      0.00000
      7       9.3489      0.00000
      8      10.6179      0.00000
      9      11.0469      0.00000
     10      11.0933      0.00000
     11      11.4837      0.00000
     12      13.0581      0.00000
     13      13.3948      0.00000
     14      13.7187      0.00000
     15      13.8495      0.00000
     16      14.8316      0.00000
     17      15.6795      0.00000
     18      15.8110      0.00000
     19      16.3606      0.00000
     20      16.7219      0.00000
     21      16.9195      0.00000
     22      17.3835      0.00000
     23      17.4872      0.00000
     24      18.7803      0.00000
     25      19.4603      0.00000
     26      20.0699      0.00000
     27      20.1254      0.00000
     28      21.4072      0.00000
     29      22.0654      0.00000
     30      23.2405      0.00000
     31      23.2553      0.00000
     32      23.7650      0.00000
     33      24.5708      0.00000
     34      25.3938      0.00000
     35      26.8976      0.00000
     36      27.7182      0.00000
     37      29.4227      0.00000
     38      29.5364      0.00000
     39      31.1438      0.00000
     40      31.1827      0.00000
     41      33.6718      0.00000
     42      33.8010      0.00000
     43      35.6590      0.00000
     44      36.3406      0.00000
     45      36.5134      0.00000
     46      39.4416      0.00000
     47      39.6053      0.00000
     48      39.8964      0.00000

 k-point    19 :       0.3333    0.3333    0.0000
  band No.  band energies     occupation 
      1     -14.8076      2.00000
      2     -14.8076      2.00000
      3     -12.9598      2.00000
      4      -2.0887      1.00013
      5      -2.0887      0.99987
      6       8.5950      0.00000
      7      11.0949      0.00000
      8      11.0949      0.00000
      9      11.6047      0.00000
     10      13.0475      0.00000
     11      13.0476      0.00000
     12      13.4203      0.00000
     13      13.4203      0.00000
     14      13.5771      0.00000
     15      13.9106      0.00000
     16      14.4923      0.00000
     17      14.4923      0.00000
     18      15.2927      0.00000
     19      15.4733      0.00000
     20      15.4733      0.00000
     21      16.5702      0.00000
     22      16.8724      0.00000
     23      16.8725      0.00000
     24      17.9336      0.00000
     25      19.2462      0.00000
     26      19.2462      0.00000
     27      20.8252      0.00000
     28      20.8252      0.00000
     29      20.8961      0.00000
     30      21.6410      0.00000
     31      23.8420      0.00000
     32      24.4490      0.00000
     33      24.4490      0.00000
     34      26.3608      0.00000
     35      26.3608      0.00000
     36      26.6698      0.00000
     37      26.9996      0.00000
     38      30.7692      0.00000
     39      30.7692      0.00000
     40      33.3506      0.00000
     41      33.3506      0.00000
     42      33.7235      0.00000
     43      33.9472      0.00000
     44      36.4854      0.00000
     45      36.4854      0.00000
     46      39.7835      0.00000
     47      41.2175      0.00000
     48      41.2175      0.00000


--------------------------------------------------------------------------------------------------------


 soft charge-density along one line, spin component           1
         0         1         2         3         4         5         6         7         8         9
 total charge-density along one line
 
 pseudopotential strength for first ion, spin component:           1
 10.178  13.534  -0.000  -0.000   0.000   0.000   0.000  -0.000
 13.534  17.995  -0.000  -0.000   0.000   0.000   0.000  -0.000
 -0.000  -0.000  -4.308  -0.000   0.000   8.423   0.000  -0.000
 -0.000  -0.000  -0.000  -4.299   0.000   0.000   8.411  -0.000
  0.000   0.000   0.000   0.000  -4.308  -0.000  -0.000   8.423
  0.000   0.000   8.423   0.000  -0.000 -18.602  -0.000   0.000
  0.000   0.000   0.000   8.411  -0.000  -0.000 -18.591   0.000
 -0.000  -0.000  -0.000  -0.000   8.423   0.000   0.000 -18.602
 total augmentation occupancy for first ion, spin component:           1
  8.650  -3.909   0.000  -0.000   0.000   0.000   0.000  -0.000
 -3.909   1.824   0.000  -0.000  -0.000   0.000   0.000   0.000
  0.000   0.000   1.878   0.000   0.000   0.175  -0.000   0.000
 -0.000  -0.000  -0.000   1.214  -0.000  -0.000   0.075   0.000
  0.000   0.000   0.000  -0.000   1.878   0.000   0.000   0.175
  0.000   0.000   0.175   0.000   0.000   0.018  -0.000  -0.000
  0.000   0.000   0.000   0.075  -0.000   0.000   0.005  -0.000
 -0.000  -0.000   0.000   0.000   0.175  -0.000   0.000   0.018


------------------------ aborting loop because EDIFF is reached ----------------------------------------


    CHARGE:  cpu time      0.0100: real time      0.0103
    FORLOC:  cpu time      0.0002: real time      0.0002
    FORNL :  cpu time      0.0057: real time      0.0058
    STRESS:  cpu time      0.0616: real time      0.0621
    FORCOR:  cpu time      0.0039: real time      0.0039
    FORHAR:  cpu time      0.0013: real time      0.0013
    MIXING:  cpu time      0.0005: real time      0.0005
    OFIELD:  cpu time      0.0003: real time      0.0003

 ---------------------------------------------------------------------------------------------

         DFTD3 V3.0 Rev 1        
 IVDW         = 12
 DF pbe       
 parameters
 VDW_S6       =    1.0000
 VDW_S8       =    0.7875
 VDW_A1       =    0.4289
 VDW_A2       =    4.4407
 k1-k3        =   16.0000    1.3333   -4.0000
 VDW_RADIUS   =   50.2022 A
 VDW_CNRADIUS =   21.1671 A
 Edisp (eV)   -0.17764

 E6    (eV) :    -0.1222
 E8    (eV) :    -0.0555
 % E8        : 31.24
    FORVDW:  cpu time      0.0097: real time      0.0097

  FORCE on cell =-STRESS in cart. coord.  units (eV):
  Direction    XX          YY          ZZ          XY          YZ          ZX
  --------------------------------------------------------------------------------------
  Alpha Z     4.28367     4.28367     4.28367
  Ewald    1142.55564  1142.55503 -1415.41137     0.00000    -0.00000    -0.00000
  Hartree  1110.97025  1110.97024 -1099.96606    -0.00000     0.00000     0.00000
  E(xc)     -29.98001   -29.98001   -31.10240    -0.00000     0.00000     0.00000
  Local   -2339.51100 -2339.51072  2411.02171     0.00000    -0.00000     0.00000
  n-local    -6.99340    -8.03875    -6.71688    -0.03126    -0.00000     0.00000
  augment    -0.82679    -0.82677    -0.74971     0.00000    -0.00000    -0.00000
  Kinetic   118.21377   126.17484   138.57671     0.03792    -0.00000    -0.00000
  Fock        0.00000     0.00000     0.00000     0.00000     0.00000     0.00000
  vdW         0.03569     0.03569    -0.00145     0.00000    -0.00000     0.00000
  -------------------------------------------------------------------------------------
  Total       2.20551     2.20551    -0.06577    -0.00000    -0.00000     0.00000
  in kB      46.06656    46.06655    -1.37381    -0.00000    -0.00000     0.00000
  external pressure =       30.25 kB  Pullay stress =        0.00 kB


 VOLUME and BASIS-vectors are now :
 -----------------------------------------------------------------------------
  energy-cutoff  :      450.00
  volume of cell :       76.71
      direct lattice vectors                 reciprocal lattice vectors
     2.104442000  1.215000000  0.000000000     0.237592673  0.411522634  0.000000000
    -2.104442000  1.215000000  0.000000000    -0.237592673  0.411522634  0.000000000
     0.000000000  0.000000000 15.000000000     0.000000000  0.000000000  0.066666667

  length of vectors
     2.430000233  2.430000233 15.000000000     0.475185392  0.475185392  0.066666667


 FORCES acting on ions
    electron-ion (+dipol)            ewald-force                    non-local-force                 convergence-correction
 -----------------------------------------------------------------------------------------------
   -.139E-03 0.229E-03 -.236E-05   -.232E-03 0.124E-13 0.970E-15   0.963E-17 0.250E-16 0.609E-21   0.652E-09 -.236E-09 -.135E-08
   0.139E-03 0.229E-03 -.236E-05   0.232E-03 -.108E-13 -.227E-21   -.419E-16 -.387E-16 0.344E-21   -.652E-09 -.236E-09 -.135E-08
 -----------------------------------------------------------------------------------------------
   0.163E-12 0.457E-03 -.472E-05   -.979E-15 0.158E-14 0.970E-15   -.322E-16 -.136E-16 0.953E-21   0.313E-16 -.471E-09 -.270E-08
 
 
 POSITION                                       TOTAL-FORCE (eV/Angst)
 -----------------------------------------------------------------------------------
     -0.70148      1.21500      1.50000        -0.000000     -0.000000      0.000000
      0.70148      1.21500      1.50000         0.000000      0.000000     -0.000000
 -----------------------------------------------------------------------------------
    total drift:                                0.000000      0.000457     -0.000005


--------------------------------------------------------------------------------------------------------



  FREE ENERGIE OF THE ION-ELECTRON SYSTEM (eV)
  ---------------------------------------------------
  free  energy   TOTEN  =       -18.59082824 eV

  energy  without entropy=      -18.58926105  energy(sigma->0) =      -18.59004465
 


--------------------------------------------------------------------------------------------------------


    POTLOK:  cpu time      0.0068: real time      0.0076


--------------------------------------------------------------------------------------------------------


 stress matrix after NEB project (eV)
      2.20551     -0.00000      0.00000
     -0.00000      2.20551      0.00000
      0.00000     -0.00000     -0.06577
  FORCES: max atom, RMS     0.000000    0.000000
  FORCE total and by dimension    0.000000    0.000000
  Stress total and by dimension    3.119760    2.205514


--------------------------------------------------------------------------------------------------------


  
 reached required accuracy - stopping structural energy minimisation
     LOOP+:  cpu time      8.7285: real time      8.8694
    4ORBIT:  cpu time      0.0000: real time      0.0000

 total amount of memory used by VASP MPI-rank0    34885. kBytes
=======================================================================

   base      :      30000. kBytes
   nonl-proj :       2156. kBytes
   fftplans  :        404. kBytes
   grid      :       1780. kBytes
   one-center:          6. kBytes
   wavefun   :        539. kBytes
 
  
  
 General timing and accounting informations for this job:
 ========================================================
  
                  Total CPU time used (sec):       11.555
                            User time (sec):        9.352
                          System time (sec):        2.203
                         Elapsed time (sec):       14.092
  
                   Maximum memory used (kb):      520260.
                   Average memory used (kb):          N/A
  
                          Minor page faults:        59631
                          Major page faults:         1970
                 Voluntary context switches:         4482
