<?xml version="1.0" encoding="ISO-8859-1"?>
<modeling>
 <generator>
  <i name="program" type="string">vasp </i>
  <i name="version" type="string">6.3.2  </i>
  <i name="subversion" type="string">27Jun22 (build May 31 2023 12:07:17) complex                          parallel </i>
  <i name="platform" type="string">LinuxIFC </i>
  <i name="date" type="string">2024 05 06 </i>
  <i name="time" type="string">17:57:09 </i>
 </generator>
 <incar>
  <i type="string" name="SYSTEM">Dielectric_function</i>
  <i type="int" name="ISTART">     1</i>
  <i type="string" name="PREC">Accurate</i>
  <i type="string" name="ALGO">Damped</i>
  <i type="int" name="ICHARG">     2</i>
  <i name="EDIFF">      0.00000001</i>
  <i name="ENCUT">    450.00000000</i>
  <i type="int" name="NBANDS">   128</i>
  <i type="int" name="NEDOS">  4000</i>
  <i type="logical" name="LREAL"> F  </i>
  <i type="int" name="ISMEAR">     0</i>
  <i name="SIGMA">      0.01000000</i>
  <i type="logical" name="LOPTICS"> T  </i>
  <i name="CSHIFT">      0.10000000</i>
  <i name="HFSCREEN">      0.20000000</i>
  <i type="logical" name="LHFCALC"> T  </i>
  <i type="string" name="GGA">PE</i>
  <i name="AEXX">      0.25000000</i>
 </incar>
 <primitive_cell>
  <structure name="primitive_cell" >
   <crystal>
    <varray name="basis" >
     <v>       2.13648450       1.23350000       0.00000000 </v>
     <v>      -2.13648450       1.23350000       0.00000000 </v>
     <v>       0.00000000       0.00000000      15.00000000 </v>
    </varray>
    <i name="volume">     79.06060892 </i>
    <varray name="rec_basis" >
     <v>       0.23402931       0.40535063       0.00000000 </v>
     <v>      -0.23402931       0.40535063       0.00000000 </v>
     <v>       0.00000000       0.00000000       0.06666667 </v>
    </varray>
   </crystal>
   <varray name="positions" >
    <v>       0.33333300       0.66666600       0.10000000 </v>
    <v>       0.66666600       0.33333300       0.10000000 </v>
   </varray>
  </structure>
  <varray name="primitive_index" >
   <v type="int" >        1 </v>
   <v type="int" >        2 </v>
  </varray>
 </primitive_cell>
 <kpoints>
  <generation param="Gamma">
   <v type="int" name="divisions">      33       33        1 </v>
   <v name="usershift">      0.00000000       0.00000000       0.00000000 </v>
   <v name="genvec1">      0.03030303      -0.00000000       0.00000000 </v>
   <v name="genvec2">     -0.00000000       0.03030303       0.00000000 </v>
   <v name="genvec3">      0.00000000       0.00000000       1.00000000 </v>
   <v name="shift">      0.00000000       0.00000000       0.00000000 </v>
  </generation>
  <varray name="kpointlist" >
   <v>       0.00000000       0.00000000       0.00000000 </v>
   <v>       0.03030303      -0.00000000       0.00000000 </v>
   <v>       0.06060606      -0.00000000       0.00000000 </v>
   <v>       0.09090909      -0.00000000       0.00000000 </v>
   <v>       0.12121212      -0.00000000       0.00000000 </v>
   <v>       0.15151515       0.00000000       0.00000000 </v>
   <v>       0.18181818      -0.00000000       0.00000000 </v>
   <v>       0.21212121       0.00000000       0.00000000 </v>
   <v>       0.24242424      -0.00000000       0.00000000 </v>
   <v>       0.27272727      -0.00000000       0.00000000 </v>
   <v>       0.30303030      -0.00000000       0.00000000 </v>
   <v>       0.33333333       0.00000000       0.00000000 </v>
   <v>       0.36363636      -0.00000000       0.00000000 </v>
   <v>       0.39393939      -0.00000000       0.00000000 </v>
   <v>       0.42424242       0.00000000       0.00000000 </v>
   <v>       0.45454545       0.00000000       0.00000000 </v>
   <v>       0.48484848      -0.00000000       0.00000000 </v>
   <v>       0.03030303       0.03030303       0.00000000 </v>
   <v>       0.06060606       0.03030303       0.00000000 </v>
   <v>       0.09090909       0.03030303       0.00000000 </v>
   <v>       0.12121212       0.03030303       0.00000000 </v>
   <v>       0.15151515       0.03030303       0.00000000 </v>
   <v>       0.18181818       0.03030303       0.00000000 </v>
   <v>       0.21212121       0.03030303       0.00000000 </v>
   <v>       0.24242424       0.03030303       0.00000000 </v>
   <v>       0.27272727       0.03030303       0.00000000 </v>
   <v>       0.30303030       0.03030303       0.00000000 </v>
   <v>       0.33333333       0.03030303       0.00000000 </v>
   <v>       0.36363636       0.03030303       0.00000000 </v>
   <v>       0.39393939       0.03030303       0.00000000 </v>
   <v>       0.42424242       0.03030303       0.00000000 </v>
   <v>       0.45454545       0.03030303       0.00000000 </v>
   <v>       0.48484848       0.03030303       0.00000000 </v>
   <v>       0.06060606       0.06060606       0.00000000 </v>
   <v>       0.09090909       0.06060606       0.00000000 </v>
   <v>       0.12121212       0.06060606       0.00000000 </v>
   <v>       0.15151515       0.06060606       0.00000000 </v>
   <v>       0.18181818       0.06060606       0.00000000 </v>
   <v>       0.21212121       0.06060606       0.00000000 </v>
   <v>       0.24242424       0.06060606       0.00000000 </v>
   <v>       0.27272727       0.06060606       0.00000000 </v>
   <v>       0.30303030       0.06060606       0.00000000 </v>
   <v>       0.33333333       0.06060606       0.00000000 </v>
   <v>       0.36363636       0.06060606       0.00000000 </v>
   <v>       0.39393939       0.06060606       0.00000000 </v>
   <v>       0.42424242       0.06060606       0.00000000 </v>
   <v>       0.45454545       0.06060606       0.00000000 </v>
   <v>       0.09090909       0.09090909       0.00000000 </v>
   <v>       0.12121212       0.09090909       0.00000000 </v>
   <v>       0.15151515       0.09090909       0.00000000 </v>
   <v>       0.18181818       0.09090909       0.00000000 </v>
   <v>       0.21212121       0.09090909       0.00000000 </v>
   <v>       0.24242424       0.09090909       0.00000000 </v>
   <v>       0.27272727       0.09090909       0.00000000 </v>
   <v>       0.30303030       0.09090909       0.00000000 </v>
   <v>       0.33333333       0.09090909       0.00000000 </v>
   <v>       0.36363636       0.09090909       0.00000000 </v>
   <v>       0.39393939       0.09090909       0.00000000 </v>
   <v>       0.42424242       0.09090909       0.00000000 </v>
   <v>       0.45454545       0.09090909       0.00000000 </v>
   <v>       0.12121212       0.12121212       0.00000000 </v>
   <v>       0.15151515       0.12121212       0.00000000 </v>
   <v>       0.18181818       0.12121212       0.00000000 </v>
   <v>       0.21212121       0.12121212       0.00000000 </v>
   <v>       0.24242424       0.12121212       0.00000000 </v>
   <v>       0.27272727       0.12121212       0.00000000 </v>
   <v>       0.30303030       0.12121212       0.00000000 </v>
   <v>       0.33333333       0.12121212       0.00000000 </v>
   <v>       0.36363636       0.12121212       0.00000000 </v>
   <v>       0.39393939       0.12121212       0.00000000 </v>
   <v>       0.42424242       0.12121212       0.00000000 </v>
   <v>       0.15151515       0.15151515       0.00000000 </v>
   <v>       0.18181818       0.15151515       0.00000000 </v>
   <v>       0.21212121       0.15151515       0.00000000 </v>
   <v>       0.24242424       0.15151515       0.00000000 </v>
   <v>       0.27272727       0.15151515       0.00000000 </v>
   <v>       0.30303030       0.15151515       0.00000000 </v>
   <v>       0.33333333       0.15151515       0.00000000 </v>
   <v>       0.36363636       0.15151515       0.00000000 </v>
   <v>       0.39393939       0.15151515       0.00000000 </v>
   <v>       0.42424242       0.15151515       0.00000000 </v>
   <v>       0.18181818       0.18181818       0.00000000 </v>
   <v>       0.21212121       0.18181818       0.00000000 </v>
   <v>       0.24242424       0.18181818       0.00000000 </v>
   <v>       0.27272727       0.18181818       0.00000000 </v>
   <v>       0.30303030       0.18181818       0.00000000 </v>
   <v>       0.33333333       0.18181818       0.00000000 </v>
   <v>       0.36363636       0.18181818       0.00000000 </v>
   <v>       0.39393939       0.18181818       0.00000000 </v>
   <v>       0.21212121       0.21212121       0.00000000 </v>
   <v>       0.24242424       0.21212121       0.00000000 </v>
   <v>       0.27272727       0.21212121       0.00000000 </v>
   <v>       0.30303030       0.21212121       0.00000000 </v>
   <v>       0.33333333       0.21212121       0.00000000 </v>
   <v>       0.36363636       0.21212121       0.00000000 </v>
   <v>       0.39393939       0.21212121       0.00000000 </v>
   <v>       0.24242424       0.24242424       0.00000000 </v>
   <v>       0.27272727       0.24242424       0.00000000 </v>
   <v>       0.30303030       0.24242424       0.00000000 </v>
   <v>       0.33333333       0.24242424       0.00000000 </v>
   <v>       0.36363636       0.24242424       0.00000000 </v>
   <v>       0.27272727       0.27272727       0.00000000 </v>
   <v>       0.30303030       0.27272727       0.00000000 </v>
   <v>       0.33333333       0.27272727       0.00000000 </v>
   <v>       0.36363636       0.27272727       0.00000000 </v>
   <v>       0.30303030       0.30303030       0.00000000 </v>
   <v>       0.33333333       0.30303030       0.00000000 </v>
   <v>       0.33333333       0.33333333       0.00000000 </v>
  </varray>
  <varray name="weights" >
   <v>       0.00091827 </v>
   <v>       0.00550964 </v>
   <v>       0.00550964 </v>
   <v>       0.00550964 </v>
   <v>       0.00550964 </v>
   <v>       0.00550964 </v>
   <v>       0.00550964 </v>
   <v>       0.00550964 </v>
   <v>       0.00550964 </v>
   <v>       0.00550964 </v>
   <v>       0.00550964 </v>
   <v>       0.00550964 </v>
   <v>       0.00550964 </v>
   <v>       0.00550964 </v>
   <v>       0.00550964 </v>
   <v>       0.00550964 </v>
   <v>       0.00550964 </v>
   <v>       0.00550964 </v>
   <v>       0.01101928 </v>
   <v>       0.01101928 </v>
   <v>       0.01101928 </v>
   <v>       0.01101928 </v>
   <v>       0.01101928 </v>
   <v>       0.01101928 </v>
   <v>       0.01101928 </v>
   <v>       0.01101928 </v>
   <v>       0.01101928 </v>
   <v>       0.01101928 </v>
   <v>       0.01101928 </v>
   <v>       0.01101928 </v>
   <v>       0.01101928 </v>
   <v>       0.01101928 </v>
   <v>       0.00550964 </v>
   <v>       0.00550964 </v>
   <v>       0.01101928 </v>
   <v>       0.01101928 </v>
   <v>       0.01101928 </v>
   <v>       0.01101928 </v>
   <v>       0.01101928 </v>
   <v>       0.01101928 </v>
   <v>       0.01101928 </v>
   <v>       0.01101928 </v>
   <v>       0.01101928 </v>
   <v>       0.01101928 </v>
   <v>       0.01101928 </v>
   <v>       0.01101928 </v>
   <v>       0.01101928 </v>
   <v>       0.00550964 </v>
   <v>       0.01101928 </v>
   <v>       0.01101928 </v>
   <v>       0.01101928 </v>
   <v>       0.01101928 </v>
   <v>       0.01101928 </v>
   <v>       0.01101928 </v>
   <v>       0.01101928 </v>
   <v>       0.01101928 </v>
   <v>       0.01101928 </v>
   <v>       0.01101928 </v>
   <v>       0.01101928 </v>
   <v>       0.00550964 </v>
   <v>       0.00550964 </v>
   <v>       0.01101928 </v>
   <v>       0.01101928 </v>
   <v>       0.01101928 </v>
   <v>       0.01101928 </v>
   <v>       0.01101928 </v>
   <v>       0.01101928 </v>
   <v>       0.01101928 </v>
   <v>       0.01101928 </v>
   <v>       0.01101928 </v>
   <v>       0.01101928 </v>
   <v>       0.00550964 </v>
   <v>       0.01101928 </v>
   <v>       0.01101928 </v>
   <v>       0.01101928 </v>
   <v>       0.01101928 </v>
   <v>       0.01101928 </v>
   <v>       0.01101928 </v>
   <v>       0.01101928 </v>
   <v>       0.01101928 </v>
   <v>       0.00550964 </v>
   <v>       0.00550964 </v>
   <v>       0.01101928 </v>
   <v>       0.01101928 </v>
   <v>       0.01101928 </v>
   <v>       0.01101928 </v>
   <v>       0.01101928 </v>
   <v>       0.01101928 </v>
   <v>       0.01101928 </v>
   <v>       0.00550964 </v>
   <v>       0.01101928 </v>
   <v>       0.01101928 </v>
   <v>       0.01101928 </v>
   <v>       0.01101928 </v>
   <v>       0.01101928 </v>
   <v>       0.00550964 </v>
   <v>       0.00550964 </v>
   <v>       0.01101928 </v>
   <v>       0.01101928 </v>
   <v>       0.01101928 </v>
   <v>       0.01101928 </v>
   <v>       0.00550964 </v>
   <v>       0.01101928 </v>
   <v>       0.01101928 </v>
   <v>       0.00550964 </v>
   <v>       0.00550964 </v>
   <v>       0.01101928 </v>
   <v>       0.00183655 </v>
  </varray>
 </kpoints>
 <parameters>
  <separator name="general" >
   <i type="string" name="SYSTEM">Dielectric_function</i>
   <i type="logical" name="LCOMPAT"> F  </i>
  </separator>
  <separator name="electronic" >
   <i type="string" name="PREC">accura</i>
   <i name="ENMAX">    450.00000000</i>
   <i name="ENAUG">    644.87300000</i>
   <i name="EDIFF">      0.00000001</i>
   <i type="int" name="IALGO">    53</i>
   <i type="int" name="IWAVPR">    10</i>
   <i type="int" name="NBANDS">   128</i>
   <i type="int" name="NBANDSLOW">    -1</i>
   <i type="int" name="NBANDSHIGH">    -1</i>
   <i name="NELECT">      8.00000000</i>
   <i type="int" name="TURBO">     0</i>
   <i type="int" name="IRESTART">     0</i>
   <i type="int" name="NREBOOT">     0</i>
   <i type="int" name="NMIN">     0</i>
   <i name="EREF">      0.00000000</i>
   <separator name="electronic smearing" >
    <i type="int" name="ISMEAR">     0</i>
    <i name="SIGMA">      0.01000000</i>
    <i name="KSPACING">      0.50000000</i>
    <i type="logical" name="KGAMMA"> T  </i>
    <i type="logical" name="KBLOWUP"> T  </i>
   </separator>
   <separator name="electronic projectors" >
    <i type="logical" name="LREAL"> F  </i>
    <v name="ROPT">      0.00000000</v>
    <i type="int" name="LMAXPAW">  -100</i>
    <i type="int" name="LMAXMIX">     2</i>
    <i type="logical" name="NLSPLINE"> F  </i>
   </separator>
   <separator name="electronic startup" >
    <i type="int" name="ISTART">     1</i>
    <i type="int" name="ICHARG">     2</i>
    <i type="int" name="INIWAV">     1</i>
   </separator>
   <separator name="electronic spin" >
    <i type="int" name="ISPIN">     1</i>
    <i type="logical" name="LNONCOLLINEAR"> F  </i>
    <v name="MAGMOM">      1.00000000      1.00000000</v>
    <i name="NUPDOWN">     -1.00000000</i>
    <i type="logical" name="LSORBIT"> F  </i>
    <v name="SAXIS">      0.00000000      0.00000000      1.00000000</v>
    <i type="logical" name="LSPIRAL"> F  </i>
    <v name="QSPIRAL">      0.00000000      0.00000000      0.00000000</v>
    <i type="logical" name="LZEROZ"> F  </i>
   </separator>
   <separator name="electronic exchange-correlation" >
    <i type="logical" name="LASPH"> F  </i>
    <i type="logical" name="LMETAGGA"> F  </i>
   </separator>
   <separator name="electronic convergence" >
    <i type="int" name="NELM">    60</i>
    <i type="int" name="NELMDL">     0</i>
    <i type="int" name="NELMIN">     2</i>
    <i name="ENINI">    450.00000000</i>
    <separator name="electronic convergence detail" >
     <i type="logical" name="LDIAG"> T  </i>
     <i type="logical" name="LSUBROT"> F  </i>
     <i name="WEIMIN">      0.00000000</i>
     <i name="EBREAK">      0.00000000</i>
     <i name="DEPER">      0.30000000</i>
     <i type="int" name="NRMM">     4</i>
     <i name="TIME">      0.40000000</i>
    </separator>
   </separator>
   <separator name="electronic mixer" >
    <i name="AMIX">      0.40000000</i>
    <i name="BMIX">      1.00000000</i>
    <i name="AMIN">      0.10000000</i>
    <i name="AMIX_MAG">      1.60000000</i>
    <i name="BMIX_MAG">      1.00000000</i>
    <separator name="electronic mixer details" >
     <i type="int" name="IMIX">     4</i>
     <i type="logical" name="MIXFIRST"> F  </i>
     <i type="int" name="MAXMIX">   -45</i>
     <i name="WC">    100.00000000</i>
     <i type="int" name="INIMIX">     1</i>
     <i type="int" name="MIXPRE">     1</i>
     <i type="int" name="MREMOVE">     5</i>
    </separator>
   </separator>
   <separator name="electronic dipolcorrection" >
    <i type="logical" name="LDIPOL"> F  </i>
    <i type="logical" name="LMONO"> F  </i>
    <i type="int" name="IDIPOL">     0</i>
    <i name="EPSILON">      1.00000000</i>
    <v name="DIPOL">   -100.00000000   -100.00000000   -100.00000000</v>
    <i name="EFIELD">      0.00000000</i>
   </separator>
  </separator>
  <separator name="grids" >
   <i type="int" name="NGX">    18</i>
   <i type="int" name="NGY">    18</i>
   <i type="int" name="NGZ">   108</i>
   <i type="int" name="NGXF">    36</i>
   <i type="int" name="NGYF">    36</i>
   <i type="int" name="NGZF">   216</i>
   <i type="logical" name="ADDGRID"> F  </i>
  </separator>
  <separator name="ionic" >
   <i type="int" name="NSW">     0</i>
   <i type="int" name="IBRION">    -1</i>
   <i type="int" name="MDALGO">     0</i>
   <i type="int" name="ISIF">     0</i>
   <i name="PSTRESS">      0.00000000</i>
   <i name="EDIFFG">      0.00000010</i>
   <i type="int" name="NFREE">     0</i>
   <i name="POTIM">      0.50000000</i>
   <i name="SMASS">     -3.00000000</i>
   <i name="SCALEE">      1.00000000</i>
  </separator>
  <separator name="ionic md" >
   <i name="TEBEG">      0.00010000</i>
   <i name="TEEND">      0.00010000</i>
   <i type="int" name="NBLOCK">     1</i>
   <i type="int" name="KBLOCK">     1</i>
   <i type="int" name="NPACO">   256</i>
   <i name="APACO">     10.00000000</i>
  </separator>
  <separator name="symmetry" >
   <i type="int" name="ISYM">     3</i>
   <i name="SYMPREC">      0.00001000</i>
  </separator>
  <separator name="dos" >
   <i type="int" name="LORBIT">     0</i>
   <v name="RWIGS">     -1.00000000</v>
   <i type="int" name="NEDOS">  4000</i>
   <i name="EMIN">     10.00000000</i>
   <i name="EMAX">    -10.00000000</i>
   <i name="EFERMI">      0.00000000</i>
  </separator>
  <separator name="writing" >
   <i type="int" name="NWRITE">     2</i>
   <i type="logical" name="LWAVE"> T  </i>
   <i type="logical" name="LDOWNSAMPLE"> F  </i>
   <i type="logical" name="LCHARG"> T  </i>
   <i type="logical" name="LPARD"> F  </i>
   <i type="logical" name="LVTOT"> F  </i>
   <i type="logical" name="LVHAR"> F  </i>
   <i type="logical" name="LELF"> F  </i>
   <i type="logical" name="LOPTICS"> T  </i>
   <v name="STM">      0.00000000      0.00000000      0.00000000      0.00000000      0.00000000      0.00000000      0.00000000</v>
  </separator>
  <separator name="performance" >
   <i type="int" name="NPAR">     8</i>
   <i type="int" name="NSIM">     4</i>
   <i type="int" name="NBLK">    -1</i>
   <i type="logical" name="LPLANE"> T  </i>
   <i type="logical" name="LSCALAPACK"> T  </i>
   <i type="logical" name="LSCAAWARE"> T  </i>
   <i type="logical" name="LSCALU"> F  </i>
   <i type="logical" name="LASYNC"> F  </i>
   <i type="logical" name="LORBITALREAL"> F  </i>
  </separator>
  <separator name="miscellaneous" >
   <i type="int" name="IDIOT">     3</i>
   <i type="int" name="PHON_NSTRUCT">    -1</i>
   <i type="logical" name="LMUSIC"> F  </i>
   <v name="POMASS">     12.01100000</v>
   <v name="DARWINR">      0.00000000</v>
   <v name="DARWINV">      1.00000000</v>
   <i type="logical" name="LCORR"> T  </i>
  </separator>
  <i type="logical" name="GGA_COMPAT"> T  </i>
  <i type="logical" name="LBERRY"> F  </i>
  <i type="int" name="ICORELEVEL">     0</i>
  <i type="logical" name="LDAU"> F  </i>
  <i type="int" name="I_CONSTRAINED_M">     0</i>
  <separator name="electronic exchange-correlation" >
   <i type="string" name="GGA">PE</i>
   <i type="int" name="VOSKOWN">     0</i>
   <i type="logical" name="LHFCALC"> T  </i>
   <i type="string" name="PRECFOCK">normal</i>
   <i type="logical" name="LSYMGRAD"> F  </i>
   <i type="logical" name="LHFONE"> F  </i>
   <i type="logical" name="LRHFCALC"> F  </i>
   <i type="logical" name="LTHOMAS"> F  </i>
   <i type="logical" name="LMODELHF"> F  </i>
   <i type="logical" name="LFOCKACE"> T  </i>
   <i name="ENCUT4O">     -1.00000000</i>
   <i type="int" name="EXXOEP">     0</i>
   <i type="int" name="FOURORBIT">     0</i>
   <i name="AEXX">      0.25000000</i>
   <i name="HFALPHA">     -1.00000000</i>
   <i name="MCALPHA">      0.00000000</i>
   <i name="ALDAX">      0.75000000</i>
   <i name="AGGAX">      0.75000000</i>
   <i name="ALDAC">      1.00000000</i>
   <i name="AGGAC">      1.00000000</i>
   <i type="int" name="NKREDX">     1</i>
   <i type="int" name="NKREDY">     1</i>
   <i type="int" name="NKREDZ">     1</i>
   <i type="logical" name="SHIFTRED"> F  </i>
   <i type="logical" name="ODDONLY"> F  </i>
   <i type="logical" name="EVENONLY"> F  </i>
   <i type="int" name="LMAXFOCK">     4</i>
   <i type="int" name="NMAXFOCKAE">     1</i>
   <i type="logical" name="LFOCKAEDFT"> F  </i>
   <i name="HFSCREEN">      0.20000000</i>
   <i name="HFSCREENC">      0.20000000</i>
   <i type="int" name="NBANDSGWLOW">     1</i>
  </separator>
  <separator name="vdW DFT" >
   <i type="logical" name="LUSE_VDW"> F  </i>
   <i type="int" name="IVDW_NL">     1</i>
   <i type="logical" name="LSPIN_VDW"> F  </i>
   <i name="Zab_VDW">     -0.84910000</i>
   <i name="PARAM1">      0.12340000</i>
   <i name="PARAM2">      1.00000000</i>
   <i name="PARAM3">      0.00000000</i>
  </separator>
  <separator name="model GW" >
   <i type="int" name="MODEL_GW">     0</i>
   <i name="MODEL_EPS0">     23.71818268</i>
   <i name="MODEL_ALPHA">      1.00000000</i>
  </separator>
  <separator name="linear response parameters" >
   <i type="logical" name="LEPSILON"> F  </i>
   <i type="logical" name="LRPA"> F  </i>
   <i type="logical" name="LNABLA"> F  </i>
   <i type="logical" name="LVEL"> F  </i>
   <i name="CSHIFT">      0.10000000</i>
   <i name="OMEGAMAX">     -1.00000000</i>
   <i name="DEG_THRESHOLD">      0.00200000</i>
   <i name="RTIME">     -0.10000000</i>
   <i name="WPLASMAI">      0.00000000</i>
   <v name="DFIELD">      0.00000000      0.00000000      0.00000000</v>
   <v name="WPLASMA">      0.00000000      0.00000000      0.00000000      0.00000000      0.00000000      0.00000000      0.00000000      0.00000000      0.00000000</v>
  </separator>
  <separator name="orbital magnetization" >
   <i type="logical" name="NUCIND"> F  </i>
   <v name="MAGPOS">      0.00000000      0.00000000      0.00000000</v>
   <i type="logical" name="LNICSALL"> T  </i>
   <i type="logical" name="ORBITALMAG"> F  </i>
   <i type="logical" name="LMAGBLOCH"> F  </i>
   <i type="logical" name="LCHIMAG"> F  </i>
   <i type="logical" name="LGAUGE"> T  </i>
   <i type="int" name="MAGATOM">     0</i>
   <v name="MAGDIPOL">      0.00000000      0.00000000      0.00000000</v>
   <v name="AVECCONST">      0.00000000      0.00000000      0.00000000</v>
  </separator>
  <separator name="response functions" >
   <i type="logical" name="LALL_IN_ONE"> F  </i>
   <i type="int" name="IALL_IN_ONE">    -1</i>
   <i type="int" name="NBANDS_WAVE">    -1</i>
   <i type="logical" name="LFINITE_TEMPERATURE"> F  </i>
   <i type="logical" name="LADDER"> F  </i>
   <i type="logical" name="LRPAFORCE"> F  </i>
   <i type="logical" name="LFXC"> F  </i>
   <i type="logical" name="LHARTREE"> T  </i>
   <i type="int" name="IBSE">     0</i>
   <v type="int" name="KPOINT">    -1     0     0     0</v>
   <i type="logical" name="LTCTC"> F  </i>
   <i type="logical" name="LTCTE"> F  </i>
   <i type="logical" name="LTETE"> F  </i>
   <i type="logical" name="LTRIPLET"> F  </i>
   <i type="logical" name="LFXCEPS"> F  </i>
   <i type="logical" name="LFXHEG"> F  </i>
   <i type="int" name="NATURALO">     2</i>
   <i type="logical" name="LHOLEGF"> F  </i>
   <i type="logical" name="L2ORDER"> F  </i>
   <i type="logical" name="LDMP1"> F  </i>
   <i type="logical" name="LMP2LT"> F  </i>
   <i type="logical" name="LSMP2LT"> F  </i>
   <i type="logical" name="LGWLF"> F  </i>
   <i name="ENCUTGW">     -1.60000002</i>
   <i name="ENCUTGWSOFT">     -1.60000002</i>
   <i name="ENCUTLF">     -1.00000000</i>
   <i type="logical" name="LESF_SPLINES"> F  </i>
   <i type="int" name="LMAXMP2">    -1</i>
   <i name="SCISSOR">      0.00000000</i>
   <i type="int" name="NOMEGA">     0</i>
   <i type="int" name="NOMEGAR">     0</i>
   <i type="int" name="NBANDSGW">    -1</i>
   <i type="int" name="NBANDSO">    -1</i>
   <i type="int" name="NBANDSV">    -1</i>
   <i type="int" name="NELMGW">     1</i>
   <i type="int" name="NELMHF">     1</i>
   <i type="int" name="DIM">     3</i>
   <i type="int" name="IESPILON">     4</i>
   <i type="int" name="ANTIRES">     0</i>
   <i name="OMEGAMAX">    -30.00000000</i>
   <i name="OMEGAMIN">    -30.00000000</i>
   <i name="OMEGATL">   -200.00000000</i>
   <i type="int" name="OMEGAGRID">     0</i>
   <i name="CSHIFT">      0.10000000</i>
   <i type="logical" name="LSELFENERGY"> F  </i>
   <i type="logical" name="LSPECTRAL"> F  </i>
   <i type="logical" name="LSPECTRALGW"> F  </i>
   <i type="logical" name="LSINGLES"> F  </i>
   <i type="logical" name="LFERMIGW"> F  </i>
   <i type="logical" name="ODDONLYGW"> F  </i>
   <i type="logical" name="EVENONLYGW"> F  </i>
   <i type="int" name="NKREDLFX">     1</i>
   <i type="int" name="NKREDLFY">     1</i>
   <i type="int" name="NKREDLFZ">     1</i>
   <i type="int" name="MAXMEM">  2800</i>
   <i type="int" name="TELESCOPE">     0</i>
   <i type="int" name="NTAUPAR">    -1</i>
   <i type="int" name="NOMEGAPAR">    -1</i>
   <i name="DAMP_NEWTON">      0.80000001</i>
   <i name="LAMBDA">      1.00000000</i>
  </separator>
  <separator name="External order field" >
   <i name="OFIELD_KAPPA">      0.00000000</i>
   <v name="OFIELD_K">      0.00000000      0.00000000      0.00000000</v>
   <i name="OFIELD_Q6_NEAR">      0.00000000</i>
   <i name="OFIELD_Q6_FAR">      0.00000000</i>
   <i name="OFIELD_A">      0.00000000</i>
  </separator>
  <separator name="optional k-points parameters" >
   <i type="int" name="KPOINTS_OPT_MODE">     1</i>
   <i type="logical" name="LKPOINTS_OPT"> F  </i>
  </separator>
 </parameters>
 <atominfo>
  <atoms>       2 </atoms>
  <types>       1 </types>
  <array name="atoms" >
   <dimension dim="1">ion</dimension>
   <field type="string">element</field>
   <field type="int">atomtype</field>
   <set>
    <rc><c>C </c><c>   1</c></rc>
    <rc><c>C </c><c>   1</c></rc>
   </set>
  </array>
  <array name="atomtypes" >
   <dimension dim="1">type</dimension>
   <field type="int">atomspertype</field>
   <field type="string">element</field>
   <field>mass</field>
   <field>valence</field>
   <field type="string">pseudopotential</field>
   <set>
    <rc><c>   2</c><c>C </c><c>     12.01100000</c><c>      4.00000000</c><c>  PAW_PBE C 08Apr2002                   </c></rc>
   </set>
  </array>
 </atominfo>
 <structure name="initialpos" >
  <crystal>
   <varray name="basis" >
    <v>       2.13648450       1.23350000       0.00000000 </v>
    <v>      -2.13648450       1.23350000       0.00000000 </v>
    <v>       0.00000000       0.00000000      15.00000000 </v>
   </varray>
   <i name="volume">     79.06060892 </i>
   <varray name="rec_basis" >
    <v>       0.23402931       0.40535063       0.00000000 </v>
    <v>      -0.23402931       0.40535063       0.00000000 </v>
    <v>       0.00000000       0.00000000       0.06666667 </v>
   </varray>
  </crystal>
  <varray name="positions" >
   <v>       0.33333300       0.66666600       0.10000000 </v>
   <v>       0.66666600       0.33333300       0.10000000 </v>
  </varray>
 </structure>
 <calculation>
  <scstep>
   <time name="total"> 4288.72 4349.14</time>
   <energy>
    <i name="alphaZ">      4.15613880 </i>
    <i name="ewald">    835.74592742 </i>
    <i name="hartreedc">  -1088.69766749 </i>
    <i name="XCdc">     21.26006461 </i>
    <i name="pawpsdc">   5876.77764616 </i>
    <i name="pawaedc">  -5877.76908651 </i>
    <i name="eentropy">     -0.00000000 </i>
    <i name="bandstr">    -57.81741141 </i>
    <i name="atom">    290.79478791 </i>
    <i name="e_fr_energy">     19.86238089 </i>
    <i name="e_wo_entrp">     19.86238089 </i>
    <i name="e_0_energy">     19.86238089 </i>
   </energy>
  </scstep>
  <scstep>
