Lattice                                 
           1
     4.343117    2.507500    0.000000
    -4.343117    2.507500    0.000000
     0.000000    0.000000   15.000000
   B    C 
     8     8
Direct configuration=     1
   0.66888689  0.00000000  0.10000000
   0.33111211  0.00000000  0.10000000
   0.00000000  0.33111211  0.10000000
   0.00000000  0.66888689  0.10000000
   0.33111211  0.33111211  0.10000000
   0.66888689  0.66888689  0.10000000
   0.66666600  0.33333300  0.09922189
   0.33333300  0.66666600  0.10077811
   0.24999933  0.24999967  0.46906667
   0.41666633  0.08333267  0.46906667
   0.24999933  0.74999967  0.46906667
   0.41666633  0.58333267  0.46906667
   0.74999933  0.24999967  0.46906667
   0.91666633  0.08333267  0.46906667
   0.74999933  0.74999967  0.46906667
   0.91666633  0.58333267  0.46906667
Direct configuration=     2
   0.66969179 -0.00000016  0.10002614
   0.33030735 -0.00000017  0.10002623
   0.00000016  0.33030721  0.10002614
   0.00000017  0.66969165  0.10002623
   0.33030702  0.33030698  0.10002624
   0.66969202  0.66969198  0.10002624
   0.66666607  0.33333293  0.09925401
   0.33333255  0.66666645  0.10080556
   0.24999515  0.24999500  0.46903984
   0.41666305  0.08333418  0.46903929
   0.24999891  0.75000009  0.46903889
   0.41666708  0.58333192  0.46903953
   0.75000217  0.24999683  0.46903966
   0.91666735  0.08333165  0.46904020
   0.75000400  0.75000385  0.46903984
   0.91666482  0.58333595  0.46903929
Direct configuration=     3
   0.66933714 -0.00000009  0.10001462
   0.33066194 -0.00000009  0.10001467
   0.00000009  0.33066186  0.10001462
   0.00000009  0.66933706  0.10001467
   0.33066175  0.33066173  0.10001468
   0.66933727  0.66933725  0.10001468
   0.66666604  0.33333296  0.09923986
   0.33333275  0.66666625  0.10079347
   0.24999699  0.24999705  0.46905166
   0.41666450  0.08333352  0.46905135
   0.24999910  0.74999990  0.46905113
   0.41666675  0.58333225  0.46905149
   0.75000092  0.24999808  0.46905156
   0.91666690  0.08333210  0.46905186
   0.75000195  0.75000201  0.46905166
   0.91666548  0.58333450  0.46905135
Direct configuration=     4
   0.66933728 -0.00000012  0.10003917
   0.33066196 -0.00000007  0.10003930
   0.00000012  0.33066172  0.10003917
   0.00000007  0.66933704  0.10003930
   0.33066180  0.33066175  0.10003931
   0.66933725  0.66933720  0.10003931
   0.66666601  0.33333299  0.09927125
   0.33333273  0.66666627  0.10081726
   0.24999999  0.25000115  0.46902650
   0.41666737  0.08333180  0.46902580
   0.24999899  0.75000001  0.46902532
   0.41666642  0.58333258  0.46902611
   0.74999817  0.25000083  0.46902628
   0.91666646  0.08333254  0.46902694
   0.74999785  0.74999901  0.46902650
   0.91666720  0.58333163  0.46902580
Direct configuration=     5
   0.66933768 -0.00000021  0.10011281
   0.33066203 -0.00000000  0.10011316
   0.00000021  0.33066132  0.10011281
   0.00000000  0.66933697  0.10011316
   0.33066196  0.33066183  0.10011322
   0.66933717  0.66933704  0.10011322
   0.66666591  0.33333309  0.09936542
   0.33333265  0.66666635  0.10088864
   0.25000900  0.25001343  0.46895103
   0.41667598  0.08332664  0.46894917
   0.24999868  0.75000032  0.46894791
   0.41666542  0.58333358  0.46894996
   0.74998993  0.25000907  0.46895044
   0.91666512  0.08333388  0.46895218
   0.74998557  0.74999000  0.46895103
   0.91667236  0.58332302  0.46894917
Direct configuration=     6
   0.66933848 -0.00000039  0.10026009
   0.33066217  0.00000014  0.10026090
   0.00000039  0.33066052  0.10026009
  -0.00000014  0.66933683  0.10026090
   0.33066227  0.33066199  0.10026102
   0.66933701  0.66933673  0.10026102
   0.66666571  0.33333329  0.09955377
   0.33333251  0.66666649  0.10103140
   0.25002701  0.25003798  0.46880008
   0.41669321  0.08331633  0.46879590
   0.24999805  0.75000095  0.46879309
   0.41666342  0.58333558  0.46879767
   0.74997345  0.25002555  0.46879876
   0.91666245  0.08333655  0.46880267
   0.74996102  0.74997199  0.46880008
   0.91668267  0.58330579  0.46879590
Direct configuration=     7
   0.66934008 -0.00000076  0.10055465
   0.33066244  0.00000042  0.10055637
   0.00000076  0.33065892  0.10055465
  -0.00000042  0.66933656  0.10055637
   0.33066288  0.33066230  0.10055663
   0.66933670  0.66933612  0.10055663
   0.66666532  0.33333368  0.09993046
   0.33333221  0.66666679  0.10131692
   0.25006304  0.25008710  0.46849818
   0.41672766  0.08329571  0.46848935
   0.24999679  0.75000221  0.46848344
   0.41665942  0.58333958  0.46849309
   0.74994048  0.25005852  0.46849539
   0.91665711  0.08334189  0.46850365
   0.74991190  0.74993596  0.46849818
   0.91670329  0.58327134  0.46848935
Direct configuration=     8
   0.66934329 -0.00000149  0.10114376
   0.33066300  0.00000099  0.10114732
   0.00000149  0.33065571  0.10114376
  -0.00000099  0.66933600  0.10114732
   0.33066412  0.33066293  0.10114786
   0.66933607  0.66933488  0.10114786
   0.66666455  0.33333445  0.10068385
   0.33333163  0.66666737  0.10188796
   0.25013510  0.25018533  0.46789438
   0.41679656  0.08325447  0.46787627
   0.24999428  0.75000472  0.46786415
   0.41665142  0.58334758  0.46788393
   0.74987454  0.25012446  0.46788866
   0.91664643  0.08335257  0.46790559
   0.74981367  0.74986390  0.46789438
   0.91674453  0.58320244  0.46787627
Direct configuration=     9
   0.66934970 -0.00000295  0.10232200
   0.33066410  0.00000213  0.10232922
   0.00000295  0.33064930  0.10232200
  -0.00000213  0.66933490  0.10232922
   0.33066659  0.33066418  0.10233030
   0.66933482  0.66933241  0.10233030
   0.66666299  0.33333601  0.10219063
   0.33333045  0.66666855  0.10303005
   0.25027922  0.25038180  0.46668679
   0.41693436  0.08317198  0.46665009
   0.24998925  0.75000975  0.46662557
   0.41663542  0.58336358  0.46666562
   0.74974266  0.25025634  0.46667519
   0.91662506  0.08337394  0.46670949
   0.74961720  0.74971978  0.46668679
   0.91682702  0.58306464  0.46665009
Direct configuration=    10
   0.66936253 -0.00000587  0.10467846
   0.33066631  0.00000439  0.10469301
   0.00000587  0.33063647  0.10467846
  -0.00000439  0.66933269  0.10469301
   0.33067154  0.33066669  0.10469518
   0.66933231  0.66932746  0.10469518
   0.66665987  0.33333913  0.10520418
   0.33332810  0.66667090  0.10531422
   0.25056745  0.25077472  0.46427160
   0.41720997  0.08300702  0.46419774
   0.24997919  0.75001981  0.46414841
   0.41660342  0.58339558  0.46422899
   0.74947891  0.25052009  0.46424826
   0.91658233  0.08341667  0.46431728
   0.74922428  0.74943155  0.46427160
   0.91699198  0.58278903  0.46419774
Direct configuration=    11
   0.66938818 -0.00001171  0.10939139
   0.33067073  0.00000893  0.10942059
   0.00001171  0.33061082  0.10939139
  -0.00000893  0.66932827  0.10942059
   0.33068144  0.33067170  0.10942496
   0.66932730  0.66931756  0.10942496
   0.66665364  0.33334536  0.11123130
   0.33332341  0.66667559  0.10988256
   0.25114391  0.25156058  0.45944123
   0.41776119  0.08267708  0.45929304
   0.24995907  0.75003993  0.45919409
   0.41653943  0.58345957  0.45935572
   0.74895140  0.25104760  0.45939440
   0.91649687  0.08350213  0.45953287
   0.74843842  0.74885509  0.45944123
   0.91732192  0.58223781  0.45929304
Direct configuration=    12
   0.66938818 -0.00001171  0.10939261
   0.33067073  0.00000893  0.10942181
   0.00001171  0.33061082  0.10939261
  -0.00000893  0.66932827  0.10942181
   0.33068144  0.33067170  0.10942618
   0.66932730  0.66931756  0.10942618
   0.66665364  0.33334536  0.11123285
   0.33332341  0.66667559  0.10988374
   0.25114395  0.25156062  0.45943997
   0.41776121  0.08267707  0.45929177
   0.24995908  0.75003992  0.45919281
   0.41653941  0.58345959  0.45935446
   0.74895138  0.25104762  0.45939314
   0.91649685  0.08350215  0.45953163
   0.74843838  0.74885505  0.45943997
   0.91732193  0.58223779  0.45929177
Direct configuration=    13
   0.66938819 -0.00001171  0.10939628
   0.33067074  0.00000893  0.10942549
   0.00001171  0.33061081  0.10939628
  -0.00000893  0.66932826  0.10942549
   0.33068145  0.33067171  0.10942986
   0.66932729  0.66931755  0.10942986
   0.66665364  0.33334536  0.11123753
   0.33332340  0.66667560  0.10988729
   0.25114408  0.25156073  0.45943622
   0.41776128  0.08267705  0.45928796
   0.24995911  0.75003989  0.45918896
   0.41653937  0.58345963  0.45935067
   0.74895132  0.25104768  0.45938937
   0.91649680  0.08350220  0.45952790
   0.74843827  0.74885492  0.45943622
   0.91732195  0.58223772  0.45928796
Direct configuration=    14
   0.66938822 -0.00001171  0.10940361
   0.33067076  0.00000894  0.10943284
   0.00001171  0.33061078  0.10940361
  -0.00000894  0.66932824  0.10943284
   0.33068147  0.33067172  0.10943722
   0.66932728  0.66931753  0.10943722
   0.66665363  0.33334537  0.11124688
   0.33332340  0.66667560  0.10989437
   0.25114434  0.25156096  0.45942870
   0.41776141  0.08267700  0.45928034
   0.24995917  0.75003983  0.45918128
   0.41653928  0.58345972  0.45934310
   0.74895119  0.25104781  0.45938182
   0.91649670  0.08350230  0.45952045
   0.74843804  0.74885466  0.45942870
   0.91732200  0.58223759  0.45928034
Direct configuration=    15
   0.66938827 -0.00001172  0.10941827
   0.33067079  0.00000895  0.10944755
   0.00001172  0.33061073  0.10941827
  -0.00000895  0.66932821  0.10944755
   0.33068151  0.33067173  0.10945193
   0.66932727  0.66931749  0.10945193
   0.66665363  0.33334537  0.11126558
   0.33332338  0.66667562  0.10990855
   0.25114486  0.25156142  0.45941368
   0.41776168  0.08267690  0.45926511
   0.24995928  0.75003972  0.45916591
   0.41653911  0.58345989  0.45932795
   0.74895095  0.25104805  0.45936673
   0.91649650  0.08350250  0.45950555
   0.74843758  0.74885414  0.45941368
   0.91732210  0.58223732  0.45926511
Direct configuration=    16
   0.66938836 -0.00001174  0.10944759
   0.33067084  0.00000898  0.10947696
   0.00001174  0.33061064  0.10944759
  -0.00000898  0.66932816  0.10947696
   0.33068159  0.33067176  0.10948135
   0.66932724  0.66931741  0.10948135
   0.66665361  0.33334539  0.11130298
   0.33332336  0.66667564  0.10993689
   0.25114589  0.25156233  0.45938362
   0.41776223  0.08267671  0.45923464
   0.24995952  0.75003948  0.45913517
   0.41653876  0.58346024  0.45929766
   0.74895046  0.25104854  0.45933654
   0.91649610  0.08350290  0.45947575
   0.74843667  0.74885311  0.45938362
   0.91732229  0.58223677  0.45923464
Direct configuration=    17
   0.66938856 -0.00001177  0.10950624
   0.33067096  0.00000903  0.10953578
   0.00001177  0.33061044  0.10950624
  -0.00000903  0.66932804  0.10953578
   0.33068175  0.33067183  0.10954020
   0.66932717  0.66931725  0.10954020
   0.66665358  0.33334542  0.11137779
   0.33332331  0.66667569  0.10999359
   0.25114795  0.25156417  0.45932351
   0.41776331  0.08267633  0.45917371
   0.24995999  0.75003901  0.45907369
   0.41653807  0.58346093  0.45923707
   0.74894948  0.25104952  0.45927617
   0.91649529  0.08350371  0.45941615
   0.74843483  0.74885105  0.45932351
   0.91732267  0.58223569  0.45917371
Direct configuration=    18
   0.66938895 -0.00001183  0.10962352
   0.33067120  0.00000913  0.10965342
   0.00001183  0.33061005  0.10962352
  -0.00000913  0.66932780  0.10965342
   0.33068208  0.33067195  0.10965790
   0.66932705  0.66931692  0.10965790
   0.66665353  0.33334547  0.11152740
   0.33332320  0.66667580  0.11010698
   0.25115208  0.25156783  0.45920329
   0.41776548  0.08267557  0.45905185
   0.24996093  0.75003807  0.45895073
   0.41653668  0.58346232  0.45911589
   0.74894752  0.25105148  0.45915543
   0.91649367  0.08350533  0.45929694
   0.74843117  0.74884692  0.45920329
   0.91732343  0.58223352  0.45905185
Direct configuration=    19
   0.66938973 -0.00001196  0.10985810
   0.33067168  0.00000934  0.10988871
   0.00001196  0.33060927  0.10985810
  -0.00000934  0.66932732  0.10988871
   0.33068272  0.33067220  0.10989329
   0.66932680  0.66931628  0.10989329
   0.66665341  0.33334559  0.11182663
   0.33332300  0.66667600  0.11033375
   0.25116033  0.25157516  0.45896285
   0.41776982  0.08267405  0.45880812
   0.24996281  0.75003619  0.45870482
   0.41653390  0.58346510  0.45887352
   0.74894361  0.25105539  0.45891394
   0.91649045  0.08350855  0.45905853
   0.74842384  0.74883867  0.45896285
   0.91732495  0.58222918  0.45880812
Direct configuration=    20
   0.66939130 -0.00001223  0.11032725
   0.33067263  0.00000975  0.11035929
   0.00001223  0.33060770  0.11032725
  -0.00000975  0.66932637  0.11035929
   0.33068401  0.33067270  0.11036408
   0.66932630  0.66931499  0.11036408
   0.66665319  0.33334581  0.11242508
   0.33332259  0.66667641  0.11078730
   0.25117684  0.25158983  0.45848197
   0.41777850  0.08267101  0.45832066
   0.24996656  0.75003244  0.45821299
   0.41652834  0.58347066  0.45838880
   0.74893577  0.25106323  0.45843097
   0.91648399  0.08351501  0.45858172
   0.74840917  0.74882216  0.45848197
   0.91732799  0.58222050  0.45832066
Direct configuration=    21
   0.66939442 -0.00001275  0.11126555
   0.33067454  0.00001057  0.11130044
   0.00001275  0.33060458  0.11126555
  -0.00001057  0.66932446  0.11130044
   0.33068660  0.33067370  0.11130565
   0.66932530  0.66931240  0.11130565
   0.66665273  0.33334627  0.11362198
   0.33332178  0.66667722  0.11169440
   0.25120985  0.25161915  0.45752021
   0.41779586  0.08266492  0.45734574
   0.24997407  0.75002493  0.45722932
   0.41651723  0.58348177  0.45741935
   0.74892010  0.25107890  0.45746503
   0.91647108  0.08352792  0.45762808
   0.74837985  0.74878915  0.45752021
   0.91733408  0.58220314  0.45734574
Direct configuration=    22
   0.66940068 -0.00001379  0.11314214
   0.33067835  0.00001221  0.11318274
   0.00001379  0.33059832  0.11314214
  -0.00001221  0.66932065  0.11318274
   0.33069176  0.33067571  0.11318879
   0.66932329  0.66930724  0.11318879
   0.66665183  0.33334717  0.11601579
   0.33332014  0.66667886  0.11350861
   0.25127589  0.25167781  0.45559669
   0.41783059  0.08265275  0.45539590
   0.24998910  0.75000990  0.45526200
   0.41649500  0.58350400  0.45548045
   0.74888877  0.25111023  0.45553314
   0.91644526  0.08355374  0.45572082
   0.74832119  0.74872311  0.45559669
   0.91734625  0.58216841  0.45539590
Direct configuration=    23
   0.66941319 -0.00001588  0.11689534
   0.33068596  0.00001550  0.11694734
   0.00001588  0.33058581  0.11689534
  -0.00001550  0.66931304  0.11694734
   0.33070209  0.33067972  0.11695507
   0.66931928  0.66929691  0.11695507
   0.66665002  0.33334898  0.12080340
   0.33331688  0.66668212  0.11713702
   0.25140795  0.25179511  0.45174966
   0.41790004  0.08262841  0.45149623
   0.25001914  0.74997986  0.45132734
   0.41645054  0.58354846  0.45160264
   0.74882610  0.25117290  0.45166937
   0.91639361  0.08360539  0.45190628
   0.74820389  0.74859105  0.45174966
   0.91737059  0.58209896  0.45149623
Direct configuration=    24
   0.66943821 -0.00002006  0.12440173
   0.33070120  0.00002207  0.12447654
   0.00002006  0.33056079  0.12440173
  -0.00002207  0.66929780  0.12447654
   0.33072275  0.33068773  0.12448763
   0.66931127  0.66927625  0.12448763
   0.66664639  0.33335261  0.13037863
   0.33331034  0.66668866  0.12439384
   0.25167207  0.25202972  0.44405559
   0.41803894  0.08257972  0.44369689
   0.25007924  0.74991976  0.44345804
   0.41636163  0.58363737  0.44384704
   0.74870075  0.25129825  0.44394182
   0.91629032  0.08370868  0.44427722
   0.74796928  0.74832693  0.44405559
   0.91741928  0.58196006  0.44369689
Direct configuration=    25
   0.66948826 -0.00002841  0.13941451
   0.33073168  0.00003522  0.13953494
   0.00002841  0.33051074  0.13941451
  -0.00003522  0.66926732  0.13953494
   0.33076406  0.33070376  0.13955276
   0.66929524  0.66923494  0.13955276
   0.66663914  0.33335986  0.14952908
   0.33329728  0.66670172  0.13890748
   0.25220032  0.25249894  0.42866744
   0.41831673  0.08248234  0.42809820
   0.25019943  0.74979957  0.42771943
   0.41618380  0.58381520  0.42833583
   0.74845007  0.25154893  0.42848673
   0.91608374  0.08391526  0.42901909
   0.74750006  0.74779868  0.42866744
   0.91751666  0.58168227  0.42809820
Direct configuration=    26
   0.66958835 -0.00004511  0.16944007
   0.33079264  0.00006151  0.16965175
   0.00004511  0.33041065  0.16944007
  -0.00006151  0.66920636  0.16965175
   0.33084670  0.33073582  0.16968300
   0.66926318  0.66915230  0.16968300
   0.66662464  0.33337436  0.18782999
   0.33327115  0.66672785  0.16793476
   0.25325682  0.25343738  0.39789115
   0.41887232  0.08228759  0.39690082
   0.25043980  0.74955920  0.39624220
   0.41582815  0.58417085  0.39731340
   0.74794870  0.25205030  0.39757655
   0.91567058  0.08432842  0.39850283
   0.74656162  0.74674218  0.39789115
   0.91771141  0.58112668  0.39690082
Direct configuration=    27
   0.66951941 -0.00003361  0.14875767
   0.33075065  0.00004340  0.14890650
   0.00003361  0.33047959  0.14875767
  -0.00004340  0.66924835  0.14890650
   0.33078978  0.33071374  0.14892849
   0.66928526  0.66920922  0.14892849
   0.66663463  0.33336437  0.16144731
   0.33328915  0.66670985  0.14794000
   0.25252907  0.25279096  0.41909067
   0.41848962  0.08242174  0.41839040
   0.25027422  0.74972478  0.41792455
   0.41607313  0.58392587  0.41868247
   0.74829406  0.25170494  0.41886830
   0.91595518  0.08404382  0.41952324
   0.74720804  0.74746993  0.41909067
   0.91757726  0.58150938  0.41839040
Direct configuration=    28
   0.66955388 -0.00003936  0.15909887
   0.33077164  0.00005245  0.15927913
   0.00003936  0.33044512  0.15909887
  -0.00005245  0.66922736  0.15927913
   0.33081824  0.33072478  0.15930575
   0.66927422  0.66918076  0.15930575
   0.66662963  0.33336937  0.17463865
   0.33328015  0.66671885  0.15793738
   0.25289295  0.25311417  0.40849091
   0.41868097  0.08235467  0.40764561
   0.25035701  0.74964199  0.40708338
   0.41595064  0.58404836  0.40799794
   0.74812138  0.25187762  0.40822243
   0.91581288  0.08418612  0.40901303
   0.74688483  0.74710605  0.40849091
   0.91764433  0.58131803  0.40764561
Direct configuration=    29
   0.66957091 -0.00004220  0.16420865
   0.33078202  0.00005693  0.16440443
   0.00004220  0.33042809  0.16420865
  -0.00005693  0.66921698  0.16440443
   0.33083230  0.33073023  0.16443334
   0.66926877  0.66916670  0.16443334
   0.66662717  0.33337183  0.18115673
   0.33327570  0.66672330  0.16287726
   0.25307274  0.25327388  0.40325338
   0.41877552  0.08232152  0.40233642
   0.25039792  0.74960108  0.40172656
   0.41589012  0.58410888  0.40271852
   0.74803606  0.25196294  0.40296211
   0.91574257  0.08425643  0.40381975
   0.74672512  0.74692626  0.40325338
   0.91767748  0.58122348  0.40233642
