  15  15   0   4
  0.2033749E+02  0.4846000E-09  0.4846000E-09  0.1500000E-08  0.5000000E-15
  1.000000000000000E-004
  CAR 
 SC                                      
     10.41896655    -21.66529509  301     -0.27244522      1.00000000
    -21.665  0.0000E+00  0.0000E+00
    -21.558  0.0000E+00  0.0000E+00
    -21.451  0.0000E+00  0.0000E+00
    -21.344  0.0000E+00  0.0000E+00
    -21.238  0.0000E+00  0.0000E+00
    -21.131  0.0000E+00  0.0000E+00
    -21.024  0.0000E+00  0.0000E+00
    -20.917  0.0000E+00  0.0000E+00
    -20.810  0.0000E+00  0.0000E+00
    -20.703  0.1863E-12  0.1992E-13
    -20.596  0.3179E-08  0.3400E-09
    -20.489  0.6366E-05  0.6811E-06
    -20.382  0.1691E-02  0.1815E-03
    -20.275  0.6877E-01  0.7536E-02
    -20.168  0.5051E+00  0.6155E-01
    -20.061  0.1061E+01  0.1750E+00
    -19.954  0.1162E+01  0.2993E+00
    -19.847  0.1219E+01  0.4296E+00
    -19.740  0.1246E+01  0.5628E+00
    -19.633  0.9707E+00  0.6667E+00
    -19.526  0.1532E+01  0.8305E+00
    -19.419  0.1078E+01  0.9458E+00
    -19.312  0.8944E+00  0.1041E+01
    -19.206  0.1519E+01  0.1204E+01
    -19.099  0.1474E+01  0.1362E+01
    -18.992  0.6999E+00  0.1436E+01
    -18.885  0.1051E+01  0.1549E+01
    -18.778  0.1679E+01  0.1728E+01
    -18.671  0.1417E+01  0.1880E+01
    -18.564  0.9672E+00  0.1983E+01
    -18.457  0.5550E+00  0.2043E+01
    -18.350  0.1588E+01  0.2213E+01
    -18.243  0.1836E+01  0.2409E+01
    -18.136  0.1036E+01  0.2520E+01
    -18.029  0.1067E+01  0.2634E+01
    -17.922  0.6417E+00  0.2703E+01
    -17.815  0.1173E+01  0.2828E+01
    -17.708  0.2116E+01  0.3054E+01
    -17.601  0.1494E+01  0.3214E+01
    -17.494  0.8103E+00  0.3301E+01
    -17.387  0.1438E+01  0.3455E+01
    -17.280  0.2574E+01  0.3730E+01
    -17.173  0.3264E+01  0.4079E+01
    -17.067  0.4137E+01  0.4521E+01
    -16.960  0.4138E+01  0.4964E+01
    -16.853  0.4891E+01  0.5487E+01
    -16.746  0.4617E+01  0.5981E+01
    -16.639  0.2386E+01  0.6236E+01
    -16.532  0.1841E+01  0.6433E+01
    -16.425  0.1863E+01  0.6632E+01
    -16.318  0.1515E+01  0.6794E+01
    -16.211  0.1315E+01  0.6935E+01
    -16.104  0.1125E+01  0.7055E+01
    -15.997  0.9345E+00  0.7155E+01
    -15.890  0.3145E+00  0.7189E+01
    -15.783  0.1455E+01  0.7344E+01
    -15.676  0.2630E+01  0.7626E+01
    -15.569  0.1441E+01  0.7780E+01
    -15.462  0.1176E+01  0.7906E+01
    -15.355  0.1078E+01  0.8021E+01
    -15.248  0.1071E+01  0.8135E+01
    -15.141  0.1028E+01  0.8245E+01
    -15.035  0.1046E+01  0.8357E+01
    -14.928  0.3865E+01  0.8770E+01
    -14.821  0.5553E+01  0.9364E+01
    -14.714  0.4850E+01  0.9883E+01
    -14.607  0.3977E+01  0.1031E+02
    -14.500  0.2847E+01  0.1061E+02
    -14.393  0.2069E+01  0.1083E+02
    -14.286  0.1920E+01  0.1104E+02
    -14.179  0.4076E+01  0.1148E+02
    -14.072  0.4619E+01  0.1197E+02
    -13.965  0.3062E+01  0.1230E+02
    -13.858  0.4369E+01  0.1276E+02
    -13.751  0.4317E+01  0.1323E+02
    -13.644  0.3944E+01  0.1365E+02
    -13.537  0.3781E+01  0.1405E+02
    -13.430  0.2139E+01  0.1428E+02
    -13.323  0.1699E+01  0.1446E+02
    -13.216  0.1510E+01  0.1462E+02
    -13.109  0.7809E+00  0.1471E+02
    -13.003  0.1176E+01  0.1483E+02
    -12.896  0.1617E+01  0.1501E+02
    -12.789  0.1778E+01  0.1520E+02
    -12.682  0.1529E+01  0.1536E+02
    -12.575  0.2062E+01  0.1558E+02
    -12.468  0.1295E+01  0.1572E+02
    -12.361  0.9460E+00  0.1582E+02
    -12.254  0.1891E+01  0.1602E+02
    -12.147  0.9885E+00  0.1613E+02
    -12.040  0.7298E+00  0.1621E+02
    -11.933  0.2094E+01  0.1643E+02
    -11.826  0.1613E+01  0.1660E+02
    -11.719  0.4211E+00  0.1665E+02
    -11.612  0.1106E+01  0.1677E+02
    -11.505  0.1414E+01  0.1692E+02
    -11.398  0.1239E+01  0.1705E+02
    -11.291  0.1002E+01  0.1716E+02
    -11.184  0.1182E+01  0.1728E+02
    -11.077  0.1265E+01  0.1742E+02
    -10.971  0.1447E+01  0.1757E+02
    -10.864  0.9569E+00  0.1768E+02
    -10.757  0.1483E+01  0.1783E+02
    -10.650  0.2135E+01  0.1806E+02
    -10.543  0.3435E+01  0.1843E+02
    -10.436  0.3700E+01  0.1883E+02
    -10.329  0.3012E+01  0.1915E+02
    -10.222  0.3463E+01  0.1952E+02
    -10.115  0.4732E+01  0.2002E+02
    -10.008  0.4603E+01  0.2052E+02
     -9.901  0.2613E+01  0.2080E+02
     -9.794  0.2007E+01  0.2101E+02
     -9.687  0.3432E+01  0.2138E+02
     -9.580  0.5794E+01  0.2200E+02
     -9.473  0.4097E+01  0.2244E+02
     -9.366  0.2136E+01  0.2266E+02
     -9.259  0.2270E+01  0.2291E+02
     -9.152  0.3486E+01  0.2328E+02
     -9.045  0.3600E+01  0.2366E+02
     -8.939  0.4102E+01  0.2410E+02
     -8.832  0.3306E+01  0.2446E+02
     -8.725  0.4072E+01  0.2489E+02
     -8.618  0.4664E+01  0.2539E+02
     -8.511  0.2148E+01  0.2562E+02
     -8.404  0.2512E+01  0.2589E+02
     -8.297  0.4622E+01  0.2638E+02
     -8.190  0.4273E+01  0.2684E+02
     -8.083  0.3716E+01  0.2724E+02
     -7.976  0.4875E+01  0.2776E+02
     -7.869  0.7618E+01  0.2857E+02
     -7.762  0.6001E+01  0.2922E+02
     -7.655  0.2799E+01  0.2952E+02
     -7.548  0.2112E+01  0.2974E+02
     -7.441  0.3301E+01  0.3009E+02
     -7.334  0.3614E+01  0.3048E+02
     -7.227  0.3709E+01  0.3088E+02
     -7.120  0.4059E+01  0.3131E+02
     -7.013  0.4255E+01  0.3177E+02
     -6.907  0.4560E+01  0.3225E+02
     -6.800  0.3731E+01  0.3265E+02
     -6.693  0.4742E+01  0.3316E+02
     -6.586  0.6310E+01  0.3384E+02
     -6.479  0.5016E+01  0.3437E+02
     -6.372  0.4201E+01  0.3482E+02
     -6.265  0.4981E+01  0.3535E+02
     -6.158  0.6122E+01  0.3601E+02
     -6.051  0.7536E+01  0.3682E+02
     -5.944  0.7304E+01  0.3760E+02
     -5.837  0.5727E+01  0.3821E+02
     -5.730  0.5029E+01  0.3875E+02
     -5.623  0.6216E+01  0.3941E+02
     -5.516  0.7469E+01  0.4021E+02
     -5.409  0.8422E+01  0.4111E+02
     -5.302  0.6386E+01  0.4179E+02
     -5.195  0.4627E+01  0.4229E+02
     -5.088  0.4357E+01  0.4275E+02
     -4.981  0.3416E+01  0.4312E+02
     -4.875  0.1868E+01  0.4332E+02
     -4.768  0.1070E+01  0.4343E+02
     -4.661  0.2710E+01  0.4372E+02
     -4.554  0.4260E+01  0.4418E+02
     -4.447  0.4485E+01  0.4466E+02
     -4.340  0.4417E+01  0.4513E+02
     -4.233  0.3992E+01  0.4556E+02
     -4.126  0.5084E+01  0.4610E+02
     -4.019  0.5688E+01  0.4671E+02
     -3.912  0.5966E+01  0.4735E+02
     -3.805  0.5166E+01  0.4790E+02
     -3.698  0.5403E+01  0.4848E+02
     -3.591  0.5272E+01  0.4904E+02
     -3.484  0.3247E+01  0.4939E+02
     -3.377  0.3648E+01  0.4978E+02
     -3.270  0.3947E+01  0.5020E+02
     -3.163  0.3635E+01  0.5059E+02
     -3.056  0.4881E+01  0.5111E+02
     -2.949  0.3914E+01  0.5153E+02
     -2.843  0.2481E+01  0.5180E+02
     -2.736  0.3073E+01  0.5213E+02
     -2.629  0.2766E+01  0.5242E+02
     -2.522  0.2454E+01  0.5268E+02
     -2.415  0.3584E+01  0.5307E+02
     -2.308  0.3846E+01  0.5348E+02
     -2.201  0.1941E+01  0.5369E+02
     -2.094  0.1600E+01  0.5386E+02
     -1.987  0.2273E+01  0.5410E+02
     -1.880  0.2772E+01  0.5440E+02
     -1.773  0.2001E+01  0.5461E+02
     -1.666  0.2757E+01  0.5491E+02
     -1.559  0.2729E+01  0.5520E+02
     -1.452  0.1515E+01  0.5536E+02
     -1.345  0.1107E+01  0.5548E+02
     -1.238  0.9899E+00  0.5558E+02
     -1.131  0.9328E+00  0.5568E+02
     -1.024  0.1174E+01  0.5581E+02
     -0.917  0.6066E+00  0.5587E+02
     -0.811  0.3678E+00  0.5591E+02
     -0.704  0.5526E+00  0.5597E+02
     -0.597  0.2408E+00  0.5600E+02
     -0.490  0.1604E-01  0.5600E+02
     -0.383  0.1353E-03  0.5600E+02
     -0.276  0.1310E-06  0.5600E+02
     -0.169  0.4274E-06  0.5600E+02
     -0.062  0.3176E-03  0.5600E+02
      0.045  0.2738E-01  0.5600E+02
      0.152  0.3021E+00  0.5604E+02
      0.259  0.4811E+00  0.5609E+02
      0.366  0.1700E+00  0.5610E+02
      0.473  0.4002E+00  0.5615E+02
      0.580  0.4446E+00  0.5620E+02
      0.687  0.5576E+00  0.5625E+02
      0.794  0.1563E+01  0.5642E+02
      0.901  0.3268E+01  0.5677E+02
      1.008  0.6237E+01  0.5744E+02
      1.115  0.4815E+01  0.5795E+02
      1.221  0.1346E+01  0.5810E+02
      1.328  0.2971E+00  0.5813E+02
      1.435  0.5171E+00  0.5818E+02
      1.542  0.2947E+01  0.5850E+02
      1.649  0.4827E+01  0.5902E+02
      1.756  0.5261E+01  0.5958E+02
      1.863  0.3331E+01  0.5993E+02
      1.970  0.1182E+01  0.6006E+02
      2.077  0.1637E+01  0.6024E+02
      2.184  0.2824E+01  0.6054E+02
      2.291  0.1994E+01  0.6075E+02
      2.398  0.2055E+01  0.6097E+02
      2.505  0.2275E+01  0.6121E+02
      2.612  0.1725E+01  0.6140E+02
      2.719  0.2439E+01  0.6166E+02
      2.826  0.2426E+01  0.6192E+02
      2.933  0.1908E+01  0.6212E+02
      3.040  0.1948E+01  0.6233E+02
      3.147  0.2407E+01  0.6259E+02
      3.253  0.2868E+01  0.6290E+02
      3.360  0.3496E+01  0.6327E+02
      3.467  0.3244E+01  0.6362E+02
      3.574  0.3308E+01  0.6397E+02
      3.681  0.4185E+01  0.6442E+02
      3.788  0.4998E+01  0.6495E+02
      3.895  0.7182E+01  0.6572E+02
      4.002  0.8581E+01  0.6664E+02
      4.109  0.5195E+01  0.6719E+02
      4.216  0.5551E+01  0.6779E+02
      4.323  0.6689E+01  0.6850E+02
      4.430  0.5721E+01  0.6911E+02
      4.537  0.5931E+01  0.6975E+02
      4.644  0.6461E+01  0.7044E+02
      4.751  0.4924E+01  0.7097E+02
      4.858  0.5755E+01  0.7158E+02
      4.965  0.6868E+01  0.7232E+02
      5.072  0.7762E+01  0.7315E+02
      5.179  0.6947E+01  0.7389E+02
      5.285  0.5201E+01  0.7445E+02
      5.392  0.4540E+01  0.7493E+02
      5.499  0.4417E+01  0.7540E+02
      5.606  0.7529E+01  0.7621E+02
      5.713  0.7650E+01  0.7703E+02
      5.820  0.5224E+01  0.7759E+02
      5.927  0.5107E+01  0.7813E+02
      6.034  0.5201E+01  0.7869E+02
      6.141  0.4140E+01  0.7913E+02
      6.248  0.4730E+01  0.7964E+02
      6.355  0.5154E+01  0.8019E+02
      6.462  0.5690E+01  0.8080E+02
      6.569  0.7832E+01  0.8163E+02
      6.676  0.6559E+01  0.8234E+02
      6.783  0.6422E+01  0.8302E+02
      6.890  0.7904E+01  0.8387E+02
      6.997  0.8758E+01  0.8480E+02
      7.104  0.6430E+01  0.8549E+02
      7.211  0.4572E+01  0.8598E+02
      7.317  0.5288E+01  0.8655E+02
      7.424  0.5086E+01  0.8709E+02
      7.531  0.4262E+01  0.8755E+02
      7.638  0.5173E+01  0.8810E+02
      7.745  0.6715E+01  0.8882E+02
      7.852  0.8926E+01  0.8977E+02
      7.959  0.1061E+02  0.9091E+02
      8.066  0.8777E+01  0.9185E+02
      8.173  0.8324E+01  0.9274E+02
      8.280  0.6404E+01  0.9342E+02
      8.387  0.5765E+01  0.9404E+02
      8.494  0.8158E+01  0.9491E+02
      8.601  0.6333E+01  0.9559E+02
      8.708  0.2293E+01  0.9583E+02
      8.815  0.6698E+00  0.9590E+02
      8.922  0.5784E+00  0.9597E+02
      9.029  0.2832E+00  0.9600E+02
      9.136  0.3587E-01  0.9600E+02
      9.243  0.1100E-02  0.9600E+02
      9.349  0.5218E-05  0.9600E+02
      9.456  0.2942E-08  0.9600E+02
      9.563  0.1811E-12  0.9600E+02
      9.670  0.0000E+00  0.9600E+02
      9.777  0.0000E+00  0.9600E+02
      9.884  0.0000E+00  0.9600E+02
      9.991  0.0000E+00  0.9600E+02
     10.098  0.0000E+00  0.9600E+02
     10.205  0.0000E+00  0.9600E+02
     10.312  0.0000E+00  0.9600E+02
     10.419  0.0000E+00  0.9600E+02
