 ----------------------------------------------------
    OOO  PPPP  EEEEE N   N M   M PPPP
   O   O P   P E     NN  N MM MM P   P
   O   O PPPP  EEEEE N N N M M M PPPP   -- VERSION
   O   O P     E     N  NN M   M P
    OOO  P     EEEEE N   N M   M P
 ----------------------------------------------------
 running   48 mpi-ranks, with    1 threads/rank
 distrk:  each k-point on   48 cores,    1 groups
 distr:  one band on    1 cores,   48 groups
 vasp.6.3.2 27Jun22 (build Dec 22 2022 13:13:19) complex                        
  
 POSCAR found type information on POSCAR B C 
 POSCAR found :  2 types and      15 ions
 Reading from existing POTCAR
 scaLAPACK will be used
 Reading from existing POTCAR
 LDA part: xc-table for Pade appr. of Perdew
 POSCAR found type information on POSCAR B C 
 POSCAR found :  2 types and      15 ions
 POSCAR, INCAR and KPOINTS ok, starting setup
 FFT: planning ... GRIDC
 FFT: planning ... GRID_SOFT
 FFT: planning ... GRID
 WAVECAR not read
 entering main loop
       N       E                     dE             d eps       ncg     rms          rms(c)
DAV:   1     0.196939675107E+03    0.19694E+03   -0.25898E+04  5856   0.863E+02
DAV:   2    -0.122374127178E+03   -0.31931E+03   -0.31792E+03  8256   0.163E+02
DAV:   3    -0.135654231726E+03   -0.13280E+02   -0.13280E+02 10944   0.435E+01
DAV:   4    -0.135682239052E+03   -0.28007E-01   -0.28007E-01  7632   0.191E+00
DAV:   5    -0.135682312058E+03   -0.73006E-04   -0.73006E-04 10800   0.106E-01    0.173E+01
DAV:   6    -0.127891483840E+03    0.77908E+01   -0.15687E+01 10656   0.104E+01    0.963E+00
DAV:   7    -0.125769382417E+03    0.21221E+01   -0.40983E+00 11712   0.616E+00    0.384E+00
DAV:   8    -0.125586720084E+03    0.18266E+00   -0.65618E-01 11568   0.243E+00    0.102E+00
DAV:   9    -0.125563005488E+03    0.23715E-01   -0.36698E-02  9024   0.645E-01    0.176E-01
DAV:  10    -0.125553209029E+03    0.97965E-02   -0.53943E-03 10992   0.190E-01    0.124E-01
DAV:  11    -0.125545584445E+03    0.76246E-02   -0.12683E-02  9888   0.228E-01    0.860E-02
DAV:  12    -0.125546932885E+03   -0.13484E-02   -0.49945E-04  6864   0.612E-02    0.433E-02
DAV:  13    -0.125549106246E+03   -0.21734E-02   -0.50284E-04  9312   0.626E-02    0.175E-02
DAV:  14    -0.125550695518E+03   -0.15893E-02   -0.14535E-04 10176   0.269E-02    0.901E-03
DAV:  15    -0.125551684964E+03   -0.98945E-03   -0.14994E-04  8592   0.219E-02    0.512E-03
DAV:  16    -0.125551828736E+03   -0.14377E-03   -0.17445E-05  8592   0.761E-03    0.132E-03
DAV:  17    -0.125551849877E+03   -0.21141E-04   -0.12888E-06  8736   0.232E-03    0.431E-04
DAV:  18    -0.125551852936E+03   -0.30586E-05   -0.12915E-07  9360   0.781E-04    0.111E-04
DAV:  19    -0.125551853237E+03   -0.30121E-06   -0.79577E-09  9600   0.229E-04
   1 F= -.12712838E+03 E0= -.12712838E+03  d E =-.476367E-11
 writing wavefunctions
