  16  16   0  16
  0.2012733E+02  0.4979000E-09  0.4979000E-09  0.1500000E-08  0.5000000E-15
  1.000000000000000E-004
  CAR 
 Lattice                                 
      9.50307889    -21.06446339  301     -0.21758265      1.00000000
    -21.064  0.0000E+00  0.0000E+00
    -20.963  0.0000E+00  0.0000E+00
    -20.861  0.0000E+00  0.0000E+00
    -20.759  0.0000E+00  0.0000E+00
    -20.657  0.0000E+00  0.0000E+00
    -20.555  0.0000E+00  0.0000E+00
    -20.453  0.0000E+00  0.0000E+00
    -20.351  0.0000E+00  0.0000E+00
    -20.249  0.2365E-18  0.2409E-19
    -20.147  0.1396E-13  0.1423E-14
    -20.046  0.1054E-09  0.1074E-10
    -19.944  0.1171E-06  0.1195E-07
    -19.842  0.2070E-04  0.2121E-05
    -19.740  0.6392E-03  0.6725E-04
    -19.638  0.4165E-02  0.4916E-03
    -19.536  0.8589E-02  0.1367E-02
    -19.434  0.9518E-02  0.2337E-02
    -19.332  0.1023E-01  0.3379E-02
    -19.230  0.8881E-02  0.4284E-02
    -19.129  0.1110E-01  0.5415E-02
    -19.027  0.8916E-02  0.6323E-02
    -18.925  0.9057E-02  0.7246E-02
    -18.823  0.1234E-01  0.8503E-02
    -18.721  0.8115E-02  0.9330E-02
    -18.619  0.8305E-02  0.1018E-01
    -18.517  0.1264E-01  0.1146E-01
    -18.415  0.1082E-01  0.1257E-01
    -18.313  0.6371E-02  0.1322E-01
    -18.211  0.9376E-02  0.1417E-01
    -18.110  0.1418E-01  0.1562E-01
    -18.008  0.9667E-02  0.1660E-01
    -17.906  0.7831E-02  0.1740E-01
    -17.804  0.6651E-02  0.1808E-01
    -17.702  0.1383E-01  0.1949E-01
    -17.600  0.1359E-01  0.2087E-01
    -17.498  0.7434E-02  0.2163E-01
    -17.396  0.7035E-02  0.2234E-01
    -17.294  0.8778E-02  0.2324E-01
    -17.193  0.1320E-01  0.2458E-01
    -17.091  0.1388E-01  0.2600E-01
    -16.989  0.9757E-02  0.2699E-01
    -16.887  0.5135E-02  0.2751E-01
    -16.785  0.7428E-02  0.2827E-01
    -16.683  0.1394E-01  0.2969E-01
    -16.581  0.1351E-01  0.3107E-01
    -16.479  0.1126E-01  0.3222E-01
    -16.377  0.9298E-02  0.3316E-01
    -16.276  0.6685E-02  0.3384E-01
    -16.174  0.5293E-02  0.3438E-01
    -16.072  0.1806E-01  0.3622E-01
    -15.970  0.2369E-01  0.3864E-01
    -15.868  0.2149E-01  0.4083E-01
    -15.766  0.2130E-01  0.4300E-01
    -15.664  0.2135E-01  0.4517E-01
    -15.562  0.2073E-01  0.4729E-01
    -15.460  0.2333E-01  0.4966E-01
    -15.359  0.3412E-01  0.5314E-01
    -15.257  0.3150E-01  0.5635E-01
    -15.155  0.2877E-01  0.5928E-01
    -15.053  0.2097E-01  0.6142E-01
    -14.951  0.1713E-01  0.6316E-01
    -14.849  0.1287E-01  0.6447E-01
    -14.747  0.1717E-01  0.6622E-01
    -14.645  0.2281E-01  0.6855E-01
    -14.543  0.2302E-01  0.7089E-01
    -14.441  0.2604E-01  0.7355E-01
    -14.340  0.2211E-01  0.7580E-01
    -14.238  0.1825E-01  0.7766E-01
    -14.136  0.1831E-01  0.7953E-01
    -14.034  0.2790E-01  0.8237E-01
    -13.932  0.1963E-01  0.8437E-01
    -13.830  0.8766E-02  0.8526E-01
    -13.728  0.5010E-02  0.8577E-01
    -13.626  0.1023E-01  0.8681E-01
    -13.524  0.1273E-01  0.8811E-01
    -13.423  0.1276E-01  0.8941E-01
    -13.321  0.1407E-01  0.9084E-01
    -13.219  0.1445E-01  0.9232E-01
    -13.117  0.1459E-01  0.9380E-01
    -13.015  0.1333E-01  0.9516E-01
    -12.913  0.1156E-01  0.9634E-01
    -12.811  0.1666E-01  0.9804E-01
    -12.709  0.2397E-01  0.1005E+00
    -12.607  0.2433E-01  0.1030E+00
    -12.506  0.2718E-01  0.1057E+00
    -12.404  0.3068E-01  0.1089E+00
    -12.302  0.2622E-01  0.1115E+00
    -12.200  0.3342E-01  0.1149E+00
    -12.098  0.3042E-01  0.1180E+00
    -11.996  0.3184E-01  0.1213E+00
    -11.894  0.3592E-01  0.1249E+00
    -11.792  0.2248E-01  0.1272E+00
    -11.690  0.1362E-01  0.1286E+00
    -11.589  0.9998E-02  0.1296E+00
    -11.487  0.1257E-01  0.1309E+00
    -11.385  0.1308E-01  0.1322E+00
    -11.283  0.1083E-01  0.1334E+00
    -11.181  0.9025E-02  0.1343E+00
    -11.079  0.8531E-02  0.1351E+00
    -10.977  0.9996E-02  0.1362E+00
    -10.875  0.1954E-01  0.1381E+00
    -10.773  0.2453E-01  0.1406E+00
    -10.671  0.2427E-01  0.1431E+00
    -10.570  0.2899E-01  0.1461E+00
    -10.468  0.3033E-01  0.1492E+00
    -10.366  0.2130E-01  0.1513E+00
    -10.264  0.2011E-01  0.1534E+00
    -10.162  0.2057E-01  0.1555E+00
    -10.060  0.2019E-01  0.1575E+00
     -9.958  0.1405E-01  0.1590E+00
     -9.856  0.2194E-01  0.1612E+00
     -9.754  0.2072E-01  0.1633E+00
     -9.653  0.2732E-01  0.1661E+00
     -9.551  0.3642E-01  0.1698E+00
     -9.449  0.2219E-01  0.1721E+00
     -9.347  0.3164E-01  0.1753E+00
     -9.245  0.3811E-01  0.1792E+00
     -9.143  0.2772E-01  0.1820E+00
     -9.041  0.1744E-01  0.1838E+00
     -8.939  0.3169E-01  0.1870E+00
     -8.837  0.4850E-01  0.1920E+00
     -8.736  0.2347E-01  0.1943E+00
     -8.634  0.1080E-01  0.1954E+00
     -8.532  0.2784E-01  0.1983E+00
     -8.430  0.3599E-01  0.2019E+00
     -8.328  0.2822E-01  0.2048E+00
     -8.226  0.3064E-01  0.2079E+00
     -8.124  0.2661E-01  0.2107E+00
     -8.022  0.2243E-01  0.2129E+00
     -7.920  0.2735E-01  0.2157E+00
     -7.819  0.3651E-01  0.2194E+00
     -7.717  0.4758E-01  0.2243E+00
     -7.615  0.3573E-01  0.2279E+00
     -7.513  0.2524E-01  0.2305E+00
     -7.411  0.2551E-01  0.2331E+00
     -7.309  0.3353E-01  0.2365E+00
     -7.207  0.3965E-01  0.2406E+00
     -7.105  0.3434E-01  0.2441E+00
     -7.003  0.3785E-01  0.2479E+00
     -6.902  0.3610E-01  0.2516E+00
     -6.800  0.4198E-01  0.2559E+00
     -6.698  0.5596E-01  0.2616E+00
     -6.596  0.7118E-01  0.2688E+00
     -6.494  0.7123E-01  0.2761E+00
     -6.392  0.3961E-01  0.2801E+00
     -6.290  0.3205E-01  0.2834E+00
     -6.188  0.3658E-01  0.2871E+00
     -6.086  0.3581E-01  0.2908E+00
     -5.984  0.3458E-01  0.2943E+00
     -5.883  0.2722E-01  0.2971E+00
     -5.781  0.3439E-01  0.3006E+00
     -5.679  0.4051E-01  0.3047E+00
     -5.577  0.2611E-01  0.3074E+00
     -5.475  0.1613E-01  0.3090E+00
     -5.373  0.2667E-01  0.3117E+00
     -5.271  0.4244E-01  0.3160E+00
     -5.169  0.3376E-01  0.3195E+00
     -5.067  0.2298E-01  0.3218E+00
     -4.966  0.2851E-01  0.3247E+00
     -4.864  0.4078E-01  0.3289E+00
     -4.762  0.2642E-01  0.3316E+00
     -4.660  0.1535E-01  0.3331E+00
     -4.558  0.3076E-01  0.3363E+00
     -4.456  0.3984E-01  0.3403E+00
     -4.354  0.4449E-01  0.3449E+00
     -4.252  0.4560E-01  0.3495E+00
     -4.150  0.3649E-01  0.3532E+00
     -4.049  0.4000E-01  0.3573E+00
     -3.947  0.4923E-01  0.3623E+00
     -3.845  0.5729E-01  0.3682E+00
     -3.743  0.5342E-01  0.3736E+00
     -3.641  0.4261E-01  0.3779E+00
     -3.539  0.3984E-01  0.3820E+00
     -3.437  0.3428E-01  0.3855E+00
     -3.335  0.2577E-01  0.3881E+00
     -3.233  0.1512E-01  0.3897E+00
     -3.132  0.1619E-01  0.3913E+00
     -3.030  0.2998E-01  0.3944E+00
     -2.928  0.3246E-01  0.3977E+00
     -2.826  0.2395E-01  0.4001E+00
     -2.724  0.2329E-01  0.4025E+00
     -2.622  0.2284E-01  0.4048E+00
     -2.520  0.2222E-01  0.4071E+00
     -2.418  0.3158E-01  0.4103E+00
     -2.316  0.2694E-01  0.4130E+00
     -2.214  0.1939E-01  0.4150E+00
     -2.113  0.2014E-01  0.4171E+00
     -2.011  0.1576E-01  0.4187E+00
     -1.909  0.1035E-01  0.4197E+00
     -1.807  0.1159E-01  0.4209E+00
     -1.705  0.1900E-01  0.4228E+00
     -1.603  0.1994E-01  0.4249E+00
     -1.501  0.1840E-01  0.4268E+00
     -1.399  0.1301E-01  0.4281E+00
     -1.297  0.1049E-01  0.4291E+00
     -1.196  0.9574E-02  0.4301E+00
     -1.094  0.1129E-01  0.4313E+00
     -0.992  0.1631E-01  0.4329E+00
     -0.890  0.1217E-01  0.4342E+00
     -0.788  0.6231E-02  0.4348E+00
     -0.686  0.2783E-02  0.4351E+00
     -0.584  0.2337E-02  0.4353E+00
     -0.482  0.6746E-02  0.4360E+00
     -0.380  0.6612E-02  0.4367E+00
     -0.279  0.4108E-02  0.4371E+00
     -0.177  0.7340E-02  0.4379E+00
     -0.075  0.9648E-02  0.4388E+00
      0.027  0.7039E-02  0.4396E+00
      0.129  0.7090E-02  0.4403E+00
      0.231  0.1574E-01  0.4419E+00
      0.333  0.2435E-01  0.4444E+00
      0.435  0.2272E-01  0.4467E+00
      0.537  0.1925E-01  0.4486E+00
      0.638  0.7552E-02  0.4494E+00
      0.740  0.1027E-01  0.4505E+00
      0.842  0.2352E-01  0.4529E+00
      0.944  0.1584E-01  0.4545E+00
      1.046  0.4241E-02  0.4549E+00
      1.148  0.8366E-02  0.4558E+00
      1.250  0.2719E-01  0.4585E+00
      1.352  0.4113E-01  0.4627E+00
      1.454  0.3210E-01  0.4660E+00
      1.556  0.2393E-01  0.4684E+00
      1.657  0.1531E-01  0.4700E+00
      1.759  0.1756E-01  0.4718E+00
      1.861  0.2474E-01  0.4743E+00
      1.963  0.2232E-01  0.4766E+00
      2.065  0.2519E-01  0.4791E+00
      2.167  0.2675E-01  0.4819E+00
      2.269  0.2112E-01  0.4840E+00
      2.371  0.1783E-01  0.4858E+00
      2.473  0.1047E-01  0.4869E+00
      2.574  0.1738E-01  0.4887E+00
      2.676  0.2662E-01  0.4914E+00
      2.778  0.2907E-01  0.4943E+00
      2.880  0.2994E-01  0.4974E+00
      2.982  0.2601E-01  0.5000E+00
      3.084  0.2371E-01  0.5025E+00
      3.186  0.3262E-01  0.5058E+00
      3.288  0.3177E-01  0.5090E+00
      3.390  0.2439E-01  0.5115E+00
      3.491  0.3440E-01  0.5150E+00
      3.593  0.5245E-01  0.5204E+00
      3.695  0.4396E-01  0.5248E+00
      3.797  0.3432E-01  0.5283E+00
      3.899  0.4037E-01  0.5324E+00
      4.001  0.5073E-01  0.5376E+00
      4.103  0.4224E-01  0.5419E+00
      4.205  0.3466E-01  0.5454E+00
      4.307  0.4077E-01  0.5496E+00
      4.408  0.4453E-01  0.5541E+00
      4.510  0.4968E-01  0.5592E+00
      4.612  0.3740E-01  0.5630E+00
      4.714  0.3662E-01  0.5667E+00
      4.816  0.5083E-01  0.5719E+00
      4.918  0.6547E-01  0.5786E+00
      5.020  0.5062E-01  0.5838E+00
      5.122  0.5316E-01  0.5892E+00
      5.224  0.4474E-01  0.5937E+00
      5.326  0.3666E-01  0.5975E+00
      5.427  0.5120E-01  0.6027E+00
      5.529  0.5905E-01  0.6087E+00
      5.631  0.5264E-01  0.6141E+00
      5.733  0.4773E-01  0.6189E+00
      5.835  0.5287E-01  0.6243E+00
      5.937  0.4387E-01  0.6288E+00
      6.039  0.5213E-01  0.6341E+00
      6.141  0.6056E-01  0.6403E+00
      6.243  0.3896E-01  0.6442E+00
      6.344  0.3107E-01  0.6474E+00
      6.446  0.4433E-01  0.6519E+00
      6.548  0.6182E-01  0.6582E+00
      6.650  0.5837E-01  0.6642E+00
      6.752  0.5050E-01  0.6693E+00
      6.854  0.4437E-01  0.6738E+00
      6.956  0.5393E-01  0.6793E+00
      7.058  0.6063E-01  0.6855E+00
      7.160  0.7609E-01  0.6933E+00
      7.261  0.8187E-01  0.7016E+00
      7.363  0.7216E-01  0.7089E+00
      7.465  0.5926E-01  0.7150E+00
      7.567  0.5068E-01  0.7201E+00
      7.669  0.6730E-01  0.7270E+00
      7.771  0.6552E-01  0.7337E+00
      7.873  0.6295E-01  0.7401E+00
      7.975  0.5318E-01  0.7455E+00
      8.077  0.2759E-01  0.7483E+00
      8.178  0.1331E-01  0.7497E+00
      8.280  0.2965E-02  0.7500E+00
      8.382  0.1379E-03  0.7500E+00
      8.484  0.1025E-05  0.7500E+00
      8.586  0.1091E-08  0.7500E+00
      8.688  0.1577E-12  0.7500E+00
      8.790  0.2838E-17  0.7500E+00
      8.892  0.0000E+00  0.7500E+00
      8.994  0.0000E+00  0.7500E+00
      9.096  0.0000E+00  0.7500E+00
      9.197  0.0000E+00  0.7500E+00
      9.299  0.0000E+00  0.7500E+00
      9.401  0.0000E+00  0.7500E+00
      9.503  0.0000E+00  0.7500E+00
