 ----------------------------------------------------
    OOO  PPPP  EEEEE N   N M   M PPPP
   O   O P   P E     NN  N MM MM P   P
   O   O PPPP  EEEEE N N N M M M PPPP   -- VERSION
   O   O P     E     N  NN M   M P
    OOO  P     EEEEE N   N M   M P
 ----------------------------------------------------
 running   24 mpi-ranks, with    1 threads/rank
 distrk:  each k-point on   24 cores,    1 groups
 distr:  one band on    1 cores,   24 groups
 vasp.6.3.2 27Jun22 (build Dec 22 2022 13:13:19) complex                        
  
 POSCAR found type information on POSCAR B C 
 POSCAR found :  2 types and      16 ions
 Reading from existing POTCAR
 scaLAPACK will be used
 Reading from existing POTCAR
 LDA part: xc-table for Pade appr. of Perdew
 POSCAR found type information on POSCAR B C 
 POSCAR found :  2 types and      16 ions
 POSCAR, INCAR and KPOINTS ok, starting setup
 FFT: planning ... GRIDC
 FFT: planning ... GRID_SOFT
 FFT: planning ... GRID
 WAVECAR not read
 entering main loop
       N       E                     dE             d eps       ncg     rms          rms(c)
DAV:   1     0.249900412144E+03    0.24990E+03   -0.22920E+04  1824   0.858E+02
DAV:   2    -0.109990640129E+03   -0.35989E+03   -0.34703E+03  2328   0.202E+02
DAV:   3    -0.133372912426E+03   -0.23382E+02   -0.23151E+02  2688   0.567E+01
DAV:   4    -0.133724917261E+03   -0.35200E+00   -0.35157E+00  2568   0.797E+00
DAV:   5    -0.133737230993E+03   -0.12314E-01   -0.12307E-01  2592   0.136E+00    0.158E+01
DAV:   6    -0.126818421773E+03    0.69188E+01   -0.57809E+00  2472   0.773E+00    0.915E+00
DAV:   7    -0.124119702102E+03    0.26987E+01   -0.77894E+00  2736   0.886E+00    0.203E+00
DAV:   8    -0.124078446945E+03    0.41255E-01   -0.32229E-01  2640   0.193E+00    0.310E-01
DAV:   9    -0.124068488467E+03    0.99585E-02   -0.17903E-02  2448   0.460E-01    0.198E-01
DAV:  10    -0.124053062575E+03    0.15426E-01   -0.10454E-02  2568   0.290E-01    0.925E-02
DAV:  11    -0.124049357524E+03    0.37051E-02   -0.36340E-03  2328   0.164E-01    0.813E-02
DAV:  12    -0.124049831702E+03   -0.47418E-03   -0.20420E-03  1896   0.109E-01    0.346E-02
DAV:  13    -0.124051745370E+03   -0.19137E-02   -0.21661E-04  2256   0.451E-02    0.219E-02
DAV:  14    -0.124054802639E+03   -0.30573E-02   -0.42163E-04  2304   0.456E-02    0.966E-03
DAV:  15    -0.124055355700E+03   -0.55306E-03   -0.52377E-05  2136   0.162E-02    0.458E-03
DAV:  16    -0.124055572194E+03   -0.21649E-03   -0.20945E-05  2160   0.896E-03    0.136E-03
DAV:  17    -0.124055598166E+03   -0.25972E-04   -0.18348E-06  2184   0.292E-03    0.505E-04
DAV:  18    -0.124055604662E+03   -0.64961E-05   -0.28685E-07  1632   0.115E-03    0.265E-04
DAV:  19    -0.124055608134E+03   -0.34723E-05   -0.29849E-07  1488   0.928E-04    0.134E-04
DAV:  20    -0.124055608878E+03   -0.74380E-06   -0.45934E-08  2040   0.422E-04
   1 F= -.12590645E+03 E0= -.12590416E+03  d E =-.125906E+03
 curvature:   0.00 expect dE= 0.000E+00 dE for cont linesearch  0.000E+00
 trial: gam= 0.00000 g(F)=  0.805E-02 g(S)=  0.000E+00 ort = 0.000E+00 (trialstep = 0.100E+01)
 search vector abs. value=  0.805E-02
 bond charge predicted
       N       E                     dE             d eps       ncg     rms          rms(c)
DAV:   1    -0.124058616958E+03   -0.30088E-02   -0.50330E-01  1872   0.212E+00    0.253E-01
DAV:   2    -0.124056072294E+03    0.25447E-02   -0.11333E-02  2376   0.342E-01    0.118E-01
DAV:   3    -0.124055603872E+03    0.46842E-03   -0.19873E-03  2328   0.130E-01    0.338E-02
DAV:   4    -0.124055587627E+03    0.16245E-04   -0.25549E-04  2496   0.445E-02    0.151E-02
DAV:   5    -0.124055586795E+03    0.83214E-06   -0.15930E-05  2208   0.129E-02    0.460E-03
DAV:   6    -0.124055586813E+03   -0.18144E-07   -0.41742E-06  2256   0.598E-03
   2 F= -.12590659E+03 E0= -.12590429E+03  d E =-.147574E-03
 trial-energy change:   -0.000148  1 .order   -0.000184   -0.008045    0.007678
 step:   0.5082(harm=  0.5117)  dis= 0.00406  next Energy=  -125.908486 (dE=-0.204E-02)
 bond charge predicted
       N       E                     dE             d eps       ncg     rms          rms(c)
DAV:   1    -0.124058285025E+03   -0.26982E-02   -0.12145E-01  1872   0.104E+00    0.124E-01
DAV:   2    -0.124057679363E+03    0.60566E-03   -0.27063E-03  2472   0.167E-01    0.581E-02
DAV:   3    -0.124057566262E+03    0.11310E-03   -0.49952E-04  2112   0.649E-02    0.160E-02
DAV:   4    -0.124057563164E+03    0.30982E-05   -0.63913E-05  2280   0.225E-02    0.751E-03
DAV:   5    -0.124057563451E+03   -0.28668E-06   -0.40116E-06  2016   0.649E-03
   3 F= -.12590849E+03 E0= -.12590622E+03  d E =-.204180E-02
 curvature:  -0.26 expect dE=-0.117E-04 dE for cont linesearch -0.120E-06
 ZBRENT: interpolating
 opt :   0.5121  next Energy=  -125.908488 (dE=-0.204E-02)
 bond charge predicted
       N       E                     dE             d eps       ncg     rms          rms(c)
DAV:   1    -0.124057562800E+03    0.36459E-06   -0.53264E-06  2160   0.737E-03    0.877E-04
DAV:   2    -0.124057562813E+03   -0.13386E-07   -0.10655E-07  1920   0.107E-03
   4 F= -.12590849E+03 E0= -.12590622E+03  d E =-.204183E-02
 curvature:  -0.26 expect dE=-0.118E-04 dE for cont linesearch -0.523E-07
 ZBRENT: interpolating
 opt :   0.5106  next Energy=  -125.908488 (dE=-0.204E-02)
 bond charge predicted
       N       E                     dE             d eps       ncg     rms          rms(c)
DAV:   1    -0.124057563197E+03   -0.39754E-06   -0.14493E-06  2016   0.357E-03    0.466E-04
DAV:   2    -0.124057563217E+03   -0.20230E-07   -0.41495E-08  1776   0.662E-04
   5 F= -.12590849E+03 E0= -.12590622E+03  d E =-.204197E-02
 curvature:  -0.15 expect dE=-0.709E-05 dE for cont linesearch -0.184E-07
 ZBRENT: bisectioning
 opt :   0.5094  next Energy=  -125.908488 (dE=-0.204E-02)
 bond charge predicted
       N       E                     dE             d eps       ncg     rms          rms(c)
DAV:   1    -0.124057563458E+03   -0.26084E-06   -0.61856E-07  1704   0.242E-03    0.324E-04
DAV:   2    -0.124057563464E+03   -0.61691E-08   -0.20188E-08  2160   0.491E-04
   6 F= -.12590849E+03 E0= -.12590622E+03  d E =-.204202E-02
 curvature:  -0.27 expect dE=-0.123E-04 dE for cont linesearch -0.350E-08
 ZBRENT: interpolating
 opt :   0.5090  next Energy=  -125.908488 (dE=-0.204E-02)
 bond charge predicted
       N       E                     dE             d eps       ncg     rms          rms(c)
DAV:   1    -0.124057563548E+03   -0.90067E-07   -0.82639E-08  1536   0.922E-04    0.132E-04
DAV:   2    -0.124057563552E+03   -0.38008E-08   -0.36599E-09  2016   0.215E-04
   7 F= -.12590849E+03 E0= -.12590622E+03  d E =-.204203E-02
 curvature:  -0.22 expect dE=-0.981E-05 dE for cont linesearch -0.561E-10
 trial: gam= 0.00585 g(F)=  0.456E-04 g(S)=  0.000E+00 ort =-0.145E-05 (trialstep = 0.902E+00)
 search vector abs. value=  0.459E-04
 bond charge predicted
       N       E                     dE             d eps       ncg     rms          rms(c)
DAV:   1    -0.124057583456E+03   -0.19908E-04   -0.37366E-03  1824   0.249E-01    0.139E-02
DAV:   2    -0.124057582846E+03    0.61022E-06   -0.60365E-05  2496   0.337E-02    0.809E-03
DAV:   3    -0.124057582359E+03    0.48658E-06   -0.73674E-06  2160   0.112E-02
   8 F= -.12590850E+03 E0= -.12590623E+03  d E =-.687067E-05
 trial-energy change:   -0.000007  1 .order   -0.000006   -0.000041    0.000030
 step:   0.5244(harm=  0.5244)  dis= 0.00024  next Energy=  -125.908500 (dE=-0.120E-04)
 bond charge predicted
       N       E                     dE             d eps       ncg     rms          rms(c)
DAV:   1    -0.124057582872E+03   -0.26612E-07   -0.64338E-04  1824   0.103E-01    0.479E-03
DAV:   2    -0.124057582879E+03   -0.65929E-08   -0.11071E-05  1824   0.141E-02    0.281E-03
DAV:   3    -0.124057582809E+03    0.69786E-07   -0.11923E-06  2592   0.433E-03
   9 F= -.12590850E+03 E0= -.12590623E+03  d E =-.123507E-04
 curvature:  -0.26 expect dE=-0.666E-05 dE for cont linesearch -0.314E-07
 trial: gam= 0.50244 g(F)=  0.253E-04 g(S)=  0.000E+00 ort = 0.234E-05 (trialstep = 0.826E+00)
 search vector abs. value=  0.392E-04
 bond charge predicted
       N       E                     dE             d eps       ncg     rms          rms(c)
DAV:   1    -0.124057613244E+03   -0.30365E-04   -0.22185E-03  1824   0.190E-01    0.805E-03
DAV:   2    -0.124057613663E+03   -0.41882E-06   -0.18036E-05  1920   0.179E-02    0.510E-03
DAV:   3    -0.124057613725E+03   -0.62048E-07   -0.18442E-06  1872   0.569E-03
  10 F= -.12590851E+03 E0= -.12590625E+03  d E =-.135037E-04
 trial-energy change:   -0.000014  1 .order   -0.000013   -0.000022   -0.000004
 step:   1.0178(harm=  1.0178)  dis= 0.00069  next Energy=  -125.908514 (dE=-0.135E-04)
 bond charge predicted
       N       E                     dE             d eps       ncg     rms          rms(c)
DAV:   1    -0.124057618455E+03   -0.47927E-05   -0.12191E-04  1872   0.446E-02    0.229E-03
DAV:   2    -0.124057618477E+03   -0.21802E-07   -0.99675E-07  2040   0.438E-03
  11 F= -.12590851E+03 E0= -.12590625E+03  d E =-.142232E-04
 curvature:  -0.75 expect dE=-0.905E-05 dE for cont linesearch -0.552E-07
 trial: gam= 0.48880 g(F)=  0.120E-04 g(S)=  0.000E+00 ort = 0.169E-05 (trialstep = 0.865E+00)
 search vector abs. value=  0.230E-04
 bond charge predicted
       N       E                     dE             d eps       ncg     rms          rms(c)
DAV:   1    -0.124057646351E+03   -0.27896E-04   -0.91928E-04  1824   0.120E-01    0.645E-03
DAV:   2    -0.124057646003E+03    0.34863E-06   -0.10548E-05  2256   0.137E-02    0.361E-03
DAV:   3    -0.124057645910E+03    0.92928E-07   -0.95437E-07  1680   0.409E-03
  12 F= -.12590852E+03 E0= -.12590626E+03  d E =-.803022E-05
 trial-energy change:   -0.000008  1 .order   -0.000008   -0.000011   -0.000005
 step:   1.5283(harm=  1.5283)  dis= 0.00119  next Energy=  -125.908525 (dE=-0.980E-05)
 bond charge predicted
       N       E                     dE             d eps       ncg     rms          rms(c)
DAV:   1    -0.124057663141E+03   -0.17139E-04   -0.54424E-04  1824   0.928E-02    0.516E-03
DAV:   2    -0.124057662957E+03    0.18397E-06   -0.63493E-06  2424   0.106E-02
  13 F= -.12590852E+03 E0= -.12590626E+03  d E =-.101818E-04
 curvature:  -1.37 expect dE=-0.442E-04 dE for cont linesearch -0.765E-07
 trial: gam= 2.67907 g(F)=  0.322E-04 g(S)=  0.000E+00 ort = 0.113E-05 (trialstep = 0.113E+00)
 search vector abs. value=  0.203E-03
 bond charge predicted
       N       E                     dE             d eps       ncg     rms          rms(c)
DAV:   1    -0.124057674907E+03   -0.11766E-04   -0.11500E-04  1872   0.397E-02    0.278E-03
DAV:   2    -0.124057674878E+03    0.29776E-07   -0.94793E-07  2208   0.394E-03
  14 F= -.12590853E+03 E0= -.12590626E+03  d E =-.378417E-05
 ZBRENT: can't locate minimum, use default step
 trial-energy change:   -0.000004  1 .order   -0.000004   -0.000004   -0.000004
 step:   0.4512(harm=  3.7165)  dis= 0.00114  next Energy=  -125.908590 (dE=-0.655E-04)
 bond charge predicted
       N       E                     dE             d eps       ncg     rms          rms(c)
DAV:   1    -0.124057709876E+03   -0.34968E-04   -0.10524E-03  1824   0.119E-01    0.600E-03
DAV:   2    -0.124057709959E+03   -0.82902E-07   -0.81319E-06  2496   0.110E-02
  15 F= -.12590854E+03 E0= -.12590627E+03  d E =-.144681E-04
 curvature:  -1.92 expect dE=-0.503E-04 dE for cont linesearch -0.898E-05
 ZBRENT: increasing intervall
 opt :   1.1280  next Energy=  -125.908558 (dE=-0.331E-04)
 bond charge predicted
       N       E                     dE             d eps       ncg     rms          rms(c)
DAV:   1    -0.124057775958E+03   -0.66082E-04   -0.42070E-03  1872   0.238E-01    0.122E-02
DAV:   2    -0.124057776186E+03   -0.22735E-06   -0.31740E-05  2520   0.218E-02    0.728E-03
DAV:   3    -0.124057775831E+03    0.35440E-06   -0.26240E-06  1968   0.619E-03
  16 F= -.12590856E+03 E0= -.12590629E+03  d E =-.315626E-04
 curvature:  -3.98 expect dE=-0.943E-04 dE for cont linesearch -0.786E-05
 ZBRENT: increasing intervall
 opt :   2.4816  next Energy=  -125.908569 (dE=-0.441E-04)
 bond charge predicted
       N       E                     dE             d eps       ncg     rms          rms(c)
DAV:   1    -0.124057891856E+03   -0.11567E-03   -0.17046E-02  1824   0.478E-01    0.237E-02
DAV:   2    -0.124057893517E+03   -0.16607E-05   -0.13082E-04  2448   0.443E-02    0.142E-02
DAV:   3    -0.124057891586E+03    0.19313E-05   -0.10314E-05  2208   0.124E-02    0.303E-03
DAV:   4    -0.124057891824E+03   -0.23827E-06   -0.15788E-06  1992   0.434E-03
  17 F= -.12590858E+03 E0= -.12590631E+03  d E =-.500743E-04
 curvature:  -6.33 expect dE=-0.377E-03 dE for cont linesearch -0.915E-06
 trial: gam= 1.78439 g(F)=  0.595E-04 g(S)=  0.000E+00 ort = 0.542E-05 (trialstep = 0.164E+00)
 search vector abs. value=  0.727E-03
 bond charge predicted
       N       E                     dE             d eps       ncg     rms          rms(c)
DAV:   1    -0.124057924858E+03   -0.33273E-04   -0.82765E-04  1872   0.987E-02    0.541E-03
DAV:   2    -0.124057924972E+03   -0.11310E-06   -0.70036E-06  2592   0.986E-03
  18 F= -.12590859E+03 E0= -.12590632E+03  d E =-.108608E-04
 ZBRENT: can't locate minimum, use default step
 trial-energy change:   -0.000011  1 .order   -0.000011   -0.000011   -0.000011
 step:   0.6569(harm=  2.3691)  dis= 0.00315  next Energy=  -125.908657 (dE=-0.819E-04)
 bond charge predicted
       N       E                     dE             d eps       ncg     rms          rms(c)
DAV:   1    -0.124058016423E+03   -0.91564E-04   -0.73637E-03  1824   0.295E-01    0.161E-02
DAV:   2    -0.124058017044E+03   -0.62155E-06   -0.60414E-05  2520   0.289E-02    0.962E-03
DAV:   3    -0.124058016209E+03    0.83543E-06   -0.51063E-06  2040   0.853E-03
  19 F= -.12590861E+03 E0= -.12590634E+03  d E =-.352055E-04
 curvature:  -4.94 expect dE=-0.248E-03 dE for cont linesearch -0.788E-05
 ZBRENT: increasing intervall
 opt :   1.6424  next Energy=  -125.908614 (dE=-0.389E-04)
 bond charge predicted
       N       E                     dE             d eps       ncg     rms          rms(c)
DAV:   1    -0.124058164705E+03   -0.14766E-03   -0.29727E-02  1824   0.592E-01    0.318E-02
DAV:   2    -0.124058168053E+03   -0.33484E-05   -0.24696E-04  2520   0.588E-02    0.190E-02
DAV:   3    -0.124058164312E+03    0.37413E-05   -0.20418E-05  2328   0.173E-02    0.412E-03
DAV:   4    -0.124058164592E+03   -0.28009E-06   -0.33151E-06  2016   0.660E-03
  20 F= -.12590862E+03 E0= -.12590635E+03  d E =-.497325E-04
 curvature:  -2.30 expect dE=-0.583E-03 dE for cont linesearch -0.408E-06
 ZBRENT: bracketing found
 ZBRENT: interpolating
 opt :   1.3961  next Energy=  -125.908626 (dE=-0.511E-04)
 bond charge predicted
       N       E                     dE             d eps       ncg     rms          rms(c)
DAV:   1    -0.124058132623E+03    0.31689E-04   -0.18502E-03  1824   0.147E-01    0.774E-03
DAV:   2    -0.124058132589E+03    0.34491E-07   -0.15473E-05  2160   0.146E-02    0.457E-03
DAV:   3    -0.124058132289E+03    0.29937E-06   -0.12998E-06  1872   0.434E-03
  21 F= -.12590863E+03 E0= -.12590636E+03  d E =-.508951E-04
 curvature:  -7.89 expect dE=-0.137E-02 dE for cont linesearch -0.867E-07
 trial: gam= 3.15207 g(F)=  0.174E-03 g(S)=  0.000E+00 ort = 0.283E-05 (trialstep = 0.403E-01)
 search vector abs. value=  0.741E-02
 bond charge predicted
       N       E                     dE             d eps       ncg     rms          rms(c)
DAV:   1    -0.124058157143E+03   -0.24555E-04   -0.49288E-04  1824   0.710E-02    0.388E-03
DAV:   2    -0.124058157159E+03   -0.15764E-07   -0.40622E-06  2400   0.690E-03
  22 F= -.12590863E+03 E0= -.12590636E+03  d E =-.726934E-05
 ZBRENT: can't locate minimum, use default step
 trial-energy change:   -0.000007  1 .order   -0.000007   -0.000007   -0.000007
 step:   0.1610(harm= 10.5526)  dis= 0.00247  next Energy=  -125.909591 (dE=-0.965E-03)
 bond charge predicted
       N       E                     dE             d eps       ncg     rms          rms(c)
DAV:   1    -0.124058230509E+03   -0.73365E-04   -0.44026E-03  1824   0.213E-01    0.121E-02
DAV:   2    -0.124058230803E+03   -0.29488E-06   -0.33730E-05  2544   0.199E-02    0.727E-03
DAV:   3    -0.124058230351E+03    0.45198E-06   -0.28004E-06  2016   0.554E-03
  23 F= -.12590865E+03 E0= -.12590638E+03  d E =-.276652E-04
 curvature:  -4.89 expect dE=-0.804E-03 dE for cont linesearch -0.159E-04
 ZBRENT: increasing intervall
 opt :   0.4026  next Energy=  -125.908685 (dE=-0.586E-04)
 bond charge predicted
       N       E                     dE             d eps       ncg     rms          rms(c)
DAV:   1    -0.124058372479E+03   -0.14168E-03   -0.17788E-02  1824   0.427E-01    0.241E-02
DAV:   2    -0.124058374341E+03   -0.18620E-05   -0.13744E-04  2400   0.403E-02    0.144E-02
DAV:   3    -0.124058372248E+03    0.20932E-05   -0.11185E-05  2136   0.111E-02    0.219E-03
DAV:   4    -0.124058372430E+03   -0.18220E-06   -0.15558E-06  1968   0.373E-03
  24 F= -.12590869E+03 E0= -.12590642E+03  d E =-.642153E-04
 curvature:  -9.53 expect dE=-0.150E-02 dE for cont linesearch -0.241E-04
 ZBRENT: increasing intervall
 opt :   0.8857  next Energy=  -125.908747 (dE=-0.121E-03)
 bond charge predicted
       N       E                     dE             d eps       ncg     rms          rms(c)
DAV:   1    -0.124058639937E+03   -0.26769E-03   -0.71064E-02  1824   0.853E-01    0.481E-02
DAV:   2    -0.124058646773E+03   -0.68365E-05   -0.55144E-04  2472   0.807E-02    0.287E-02
DAV:   3    -0.124058636981E+03    0.97917E-05   -0.45115E-05  2400   0.224E-02    0.435E-03
DAV:   4    -0.124058637681E+03   -0.69994E-06   -0.62794E-06  2064   0.752E-03
  25 F= -.12590874E+03 E0= -.12590647E+03  d E =-.118592E-03
 curvature: -22.67 expect dE=-0.395E-02 dE for cont linesearch -0.210E-04
 ZBRENT: increasing intervall
 opt :   1.8519  next Energy=  -125.908773 (dE=-0.147E-03)
 bond charge predicted
       N       E                     dE             d eps       ncg     rms          rms(c)
DAV:   1    -0.124059096590E+03   -0.45961E-03   -0.28406E-01  1824   0.171E+00    0.961E-02
DAV:   2    -0.124059125878E+03   -0.29288E-04   -0.22055E-03  2448   0.161E-01    0.574E-02
DAV:   3    -0.124059085303E+03    0.40574E-04   -0.18035E-04  2544   0.448E-02    0.873E-03
DAV:   4    -0.124059087964E+03   -0.26605E-05   -0.25107E-05  2136   0.150E-02    0.386E-03
DAV:   5    -0.124059088195E+03   -0.23087E-06   -0.11178E-06  2472   0.398E-03
  26 F= -.12590877E+03 E0= -.12590647E+03  d E =-.148207E-03
 curvature: -30.31 expect dE=-0.101E-01 dE for cont linesearch -0.284E-05
 trial: gam= 1.30537 g(F)=  0.333E-03 g(S)=  0.000E+00 ort =-0.263E-04 (trialstep = 0.231E+00)
 search vector abs. value=  0.129E-01
 bond charge predicted
       N       E                     dE             d eps       ncg     rms          rms(c)
DAV:   1    -0.124059276781E+03   -0.18882E-03   -0.28615E-02  1824   0.553E-01    0.305E-02
DAV:   2    -0.124059279496E+03   -0.27153E-05   -0.22893E-04  2544   0.533E-02    0.182E-02
DAV:   3    -0.124059275682E+03    0.38144E-05   -0.18379E-05  2304   0.152E-02    0.314E-03
DAV:   4    -0.124059276011E+03   -0.32852E-06   -0.27562E-06  2304   0.538E-03
  27 F= -.12590883E+03 E0= -.12590652E+03  d E =-.579109E-04
 trial-energy change:   -0.000058  1 .order   -0.000059   -0.000069   -0.000048
 step:   0.7765(harm=  0.7765)  dis= 0.01529  next Energy=  -125.908890 (dE=-0.116E-03)
 bond charge predicted
       N       E                     dE             d eps       ncg     rms          rms(c)
DAV:   1    -0.124059643908E+03   -0.36823E-03   -0.15867E-01  1824   0.130E+00    0.723E-02
DAV:   2    -0.124059660550E+03   -0.16642E-04   -0.12655E-03  2520   0.126E-01    0.431E-02
DAV:   3    -0.124059638215E+03    0.22335E-04   -0.10277E-04  2496   0.358E-02    0.744E-03
DAV:   4    -0.124059639802E+03   -0.15877E-05   -0.15286E-05  2160   0.127E-02    0.329E-03
DAV:   5    -0.124059639965E+03   -0.16222E-06   -0.69430E-07  2496   0.323E-03
  28 F= -.12590889E+03 E0= -.12590655E+03  d E =-.116211E-03
 curvature: -16.79 expect dE=-0.337E-02 dE for cont linesearch -0.751E-07
 trial: gam= 0.32057 g(F)=  0.201E-03 g(S)=  0.000E+00 ort = 0.759E-05 (trialstep = 0.340E+00)
 search vector abs. value=  0.153E-02
 bond charge predicted
       N       E                     dE             d eps       ncg     rms          rms(c)
DAV:   1    -0.124059744962E+03   -0.10516E-03   -0.83900E-03  1824   0.353E-01    0.168E-02
DAV:   2    -0.124059746466E+03   -0.15040E-05   -0.81420E-05  2520   0.371E-02    0.102E-02
DAV:   3    -0.124059745642E+03    0.82470E-06   -0.71896E-06  2208   0.112E-02
  29 F= -.12590894E+03 E0= -.12590659E+03  d E =-.479867E-04
 trial-energy change:   -0.000048  1 .order   -0.000047   -0.000069   -0.000024
 step:   0.5257(harm=  0.5257)  dis= 0.00301  next Energy=  -125.908944 (dE=-0.534E-04)
 bond charge predicted
       N       E                     dE             d eps       ncg     rms          rms(c)
DAV:   1    -0.124059784913E+03   -0.38447E-04   -0.24926E-03  1824   0.193E-01    0.998E-03
DAV:   2    -0.124059785487E+03   -0.57387E-06   -0.24256E-05  2544   0.204E-02    0.603E-03
DAV:   3    -0.124059785420E+03    0.67249E-07   -0.22274E-06  2040   0.634E-03
  30 F= -.12590895E+03 E0= -.12590660E+03  d E =-.563172E-04
 curvature:  -1.98 expect dE=-0.181E-03 dE for cont linesearch -0.528E-07
 trial: gam= 0.43840 g(F)=  0.913E-04 g(S)=  0.000E+00 ort = 0.639E-05 (trialstep = 0.377E+00)
 search vector abs. value=  0.391E-03
 bond charge predicted
       N       E                     dE             d eps       ncg     rms          rms(c)
DAV:   1    -0.124059839015E+03   -0.53528E-04   -0.26122E-03  1824   0.195E-01    0.928E-03
DAV:   2    -0.124059839395E+03   -0.37929E-06   -0.21145E-05  2280   0.183E-02    0.568E-03
DAV:   3    -0.124059839375E+03    0.19782E-07   -0.17387E-06  1656   0.542E-03
  31 F= -.12590898E+03 E0= -.12590662E+03  d E =-.313033E-04
 trial-energy change:   -0.000031  1 .order   -0.000031   -0.000036   -0.000026
 step:   1.4356(harm=  1.4356)  dis= 0.00270  next Energy=  -125.909014 (dE=-0.675E-04)
 bond charge predicted
       N       E                     dE             d eps       ncg     rms          rms(c)
DAV:   1    -0.124059940360E+03   -0.10097E-03   -0.20545E-02  1824   0.547E-01    0.256E-02
DAV:   2    -0.124059944328E+03   -0.39678E-05   -0.16923E-04  2568   0.520E-02    0.157E-02
DAV:   3    -0.124059942722E+03    0.16061E-05   -0.13813E-05  2088   0.151E-02    0.354E-03
DAV:   4    -0.124059942886E+03   -0.16420E-06   -0.22788E-06  2712   0.567E-03
  32 F= -.12590902E+03 E0= -.12590665E+03  d E =-.713174E-04
 curvature:  -2.98 expect dE=-0.421E-03 dE for cont linesearch -0.127E-06
 trial: gam= 1.58077 g(F)=  0.141E-03 g(S)=  0.000E+00 ort = 0.409E-05 (trialstep = 0.204E+00)
 search vector abs. value=  0.113E-02
 bond charge predicted
       N       E                     dE             d eps       ncg     rms          rms(c)
DAV:   1    -0.124059985558E+03   -0.42836E-04   -0.19619E-03  1824   0.154E-01    0.825E-03
DAV:   2    -0.124059985833E+03   -0.27548E-06   -0.16011E-05  2424   0.148E-02    0.490E-03
DAV:   3    -0.124059985734E+03    0.99145E-07   -0.11339E-06  1752   0.407E-03
  33 F= -.12590905E+03 E0= -.12590667E+03  d E =-.277728E-04
 ZBRENT: can't locate minimum, use default step
 trial-energy change:   -0.000028  1 .order   -0.000028   -0.000030   -0.000025
 step:   0.8146(harm=  1.2359)  dis= 0.00198  next Energy=  -125.909109 (dE=-0.912E-04)
 bond charge predicted
       N       E                     dE             d eps       ncg     rms          rms(c)
DAV:   1    -0.124060085439E+03   -0.99606E-04   -0.17642E-02  1824   0.462E-01    0.246E-02
DAV:   2    -0.124060087214E+03   -0.17754E-05   -0.14406E-04  2472   0.446E-02    0.145E-02
DAV:   3    -0.124060085398E+03    0.18167E-05   -0.11167E-05  2256   0.126E-02    0.337E-03
DAV:   4    -0.124060085557E+03   -0.15963E-06   -0.17061E-06  2472   0.476E-03
  34 F= -.12590910E+03 E0= -.12590671E+03  d E =-.823485E-04
 curvature:  -3.95 expect dE=-0.393E-03 dE for cont linesearch -0.997E-05
 ZBRENT: increasing intervall
 opt :   2.0364  next Energy=  -125.909080 (dE=-0.623E-04)
 bond charge predicted
       N       E                     dE             d eps       ncg     rms          rms(c)
DAV:   1    -0.124060154861E+03   -0.69463E-04   -0.70556E-02  1824   0.924E-01    0.491E-02
DAV:   2    -0.124060162550E+03   -0.76891E-05   -0.57846E-04  2496   0.893E-02    0.289E-02
DAV:   3    -0.124060154162E+03    0.83876E-05   -0.44687E-05  2256   0.251E-02    0.681E-03
DAV:   4    -0.124060154716E+03   -0.55346E-06   -0.68265E-06  2568   0.950E-03
  35 F= -.12590908E+03 E0= -.12590666E+03  d E =-.608630E-04
 curvature:   7.92 expect dE= 0.468E-02 dE for cont linesearch  0.575E-04
 ZBRENT: bracketing found
 ZBRENT: interpolating
 opt :   1.2679  next Energy=  -125.909112 (dE=-0.945E-04)
 bond charge predicted
       N       E                     dE             d eps       ncg     rms          rms(c)
DAV:   1    -0.124060133749E+03    0.20413E-04   -0.27893E-02  1824   0.581E-01    0.306E-02
DAV:   2    -0.124060135214E+03   -0.14648E-05   -0.22883E-04  2448   0.560E-02    0.179E-02
DAV:   3    -0.124060131387E+03    0.38274E-05   -0.18125E-05  2112   0.158E-02    0.410E-03
DAV:   4    -0.124060131662E+03   -0.27517E-06   -0.27476E-06  2376   0.597E-03
  36 F= -.12590911E+03 E0= -.12590671E+03  d E =-.948627E-04
 curvature:  -1.67 expect dE=-0.336E-03 dE for cont linesearch -0.738E-08
 trial: gam= 1.46771 g(F)=  0.202E-03 g(S)=  0.000E+00 ort = 0.224E-05 (trialstep = 0.178E+00)
 search vector abs. value=  0.265E-02
 bond charge predicted
       N       E                     dE             d eps       ncg     rms          rms(c)
DAV:   1    -0.124060182755E+03   -0.51368E-04   -0.33366E-03  1824   0.184E-01    0.104E-02
DAV:   2    -0.124060182897E+03   -0.14210E-06   -0.25033E-05  2424   0.169E-02    0.610E-03
DAV:   3    -0.124060182432E+03    0.46527E-06   -0.20450E-06  2256   0.479E-03
  37 F= -.12590915E+03 E0= -.12590674E+03  d E =-.342386E-04
 ZBRENT: can't locate minimum, use default step
 trial-energy change:   -0.000034  1 .order   -0.000034   -0.000036   -0.000031
 step:   0.7125(harm=  1.2497)  dis= 0.00232  next Energy=  -125.909241 (dE=-0.128E-03)
 bond charge predicted
       N       E                     dE             d eps       ncg     rms          rms(c)
DAV:   1    -0.124060307846E+03   -0.12495E-03   -0.30051E-02  1824   0.552E-01    0.315E-02
DAV:   2    -0.124060311776E+03   -0.39307E-05   -0.22227E-04  2496   0.505E-02    0.187E-02
DAV:   3    -0.124060308248E+03    0.35290E-05   -0.17325E-05  2256   0.139E-02    0.312E-03
DAV:   4    -0.124060308469E+03   -0.22179E-06   -0.20588E-06  2544   0.477E-03
  38 F= -.12590922E+03 E0= -.12590680E+03  d E =-.110868E-03
 curvature:  -6.04 expect dE=-0.607E-03 dE for cont linesearch -0.238E-04
 ZBRENT: increasing intervall
 opt :   1.7813  next Energy=  -125.909254 (dE=-0.141E-03)
 bond charge predicted
       N       E                     dE             d eps       ncg     rms          rms(c)
DAV:   1    -0.124060434782E+03   -0.12653E-03   -0.12011E-01  1824   0.110E+00    0.630E-02
DAV:   2    -0.124060451014E+03   -0.16232E-04   -0.89034E-04  2472   0.101E-01    0.373E-02
DAV:   3    -0.124060435852E+03    0.15161E-04   -0.69351E-05  2544   0.279E-02    0.624E-03
DAV:   4    -0.124060436727E+03   -0.87441E-06   -0.81731E-06  2376   0.951E-03
  39 F= -.12590925E+03 E0= -.12590678E+03  d E =-.140323E-03
 curvature:  -7.74 expect dE=-0.198E-02 dE for cont linesearch -0.823E-05
 ZBRENT: bracketing found
 ZBRENT: interpolating
 opt :   1.4160  next Energy=  -125.909263 (dE=-0.150E-03)
 bond charge predicted
       N       E                     dE             d eps       ncg     rms          rms(c)
DAV:   1    -0.124060412735E+03    0.23117E-04   -0.13991E-02  1824   0.376E-01    0.211E-02
DAV:   2    -0.124060413663E+03   -0.92755E-06   -0.10378E-04  2472   0.342E-02    0.124E-02
DAV:   3    -0.124060411668E+03    0.19953E-05   -0.82967E-06  2064   0.951E-03    0.200E-03
DAV:   4    -0.124060411824E+03   -0.15675E-06   -0.97298E-07  2496   0.321E-03
  40 F= -.12590926E+03 E0= -.12590680E+03  d E =-.149152E-03
 curvature:  -9.11 expect dE=-0.147E-02 dE for cont linesearch -0.495E-07
 trial: gam= 0.68953 g(F)=  0.161E-03 g(S)=  0.000E+00 ort = 0.379E-05 (trialstep = 0.426E+00)
 search vector abs. value=  0.142E-02
 bond charge predicted
       N       E                     dE             d eps       ncg     rms          rms(c)
DAV:   1    -0.124060480430E+03   -0.68763E-04   -0.11473E-02  1824   0.405E-01    0.191E-02
DAV:   2    -0.124060482346E+03   -0.19152E-05   -0.89322E-05  2448   0.375E-02    0.115E-02
DAV:   3    -0.124060481100E+03    0.12452E-05   -0.74316E-06  2016   0.110E-02    0.264E-03
DAV:   4    -0.124060481159E+03   -0.58324E-07   -0.11948E-06  2640   0.419E-03
  41 F= -.12590931E+03 E0= -.12590683E+03  d E =-.472613E-04
 trial-energy change:   -0.000047  1 .order   -0.000046   -0.000070   -0.000023
 step:   0.6307(harm=  0.6307)  dis= 0.00144  next Energy=  -125.909314 (dE=-0.515E-04)
 bond charge predicted
       N       E                     dE             d eps       ncg     rms          rms(c)
DAV:   1    -0.124060497090E+03   -0.15989E-04   -0.26638E-03  1824   0.195E-01    0.938E-03
DAV:   2    -0.124060497651E+03   -0.56191E-06   -0.20918E-05  2256   0.182E-02    0.571E-03
DAV:   3    -0.124060497519E+03    0.13276E-06   -0.16516E-06  1752   0.532E-03
  42 F= -.12590931E+03 E0= -.12590683E+03  d E =-.529853E-04
 curvature:  -2.75 expect dE=-0.947E-04 dE for cont linesearch -0.168E-08
 trial: gam= 0.22559 g(F)=  0.345E-04 g(S)=  0.000E+00 ort =-0.933E-06 (trialstep = 0.467E+00)
 search vector abs. value=  0.107E-03
 bond charge predicted
       N       E                     dE             d eps       ncg     rms          rms(c)
DAV:   1    -0.124060502408E+03   -0.47561E-05   -0.14311E-03  1824   0.160E-01    0.724E-03
DAV:   2    -0.124060502596E+03   -0.18861E-06   -0.14305E-05  2352   0.165E-02    0.436E-03
DAV:   3    -0.124060502570E+03    0.25871E-07   -0.12532E-06  1776   0.502E-03
  43 F= -.12590932E+03 E0= -.12590683E+03  d E =-.696446E-05
 trial-energy change:   -0.000007  1 .order   -0.000007   -0.000016    0.000003
 step:   0.4023(harm=  0.4023)  dis= 0.00039  next Energy=  -125.909322 (dE=-0.690E-05)
 bond charge predicted
       N       E                     dE             d eps       ncg     rms          rms(c)
DAV:   1    -0.124060503017E+03   -0.42134E-06   -0.27237E-05  2040   0.220E-02    0.101E-03
DAV:   2    -0.124060503034E+03   -0.16717E-07   -0.27165E-07  1608   0.230E-03
  44 F= -.12590932E+03 E0= -.12590683E+03  d E =-.716754E-05
 curvature:  -0.62 expect dE=-0.184E-05 dE for cont linesearch -0.156E-08
 trial: gam= 0.07839 g(F)=  0.294E-05 g(S)=  0.000E+00 ort = 0.515E-06 (trialstep = 0.454E+00)
 search vector abs. value=  0.368E-05
 bond charge predicted
       N       E                     dE             d eps       ncg     rms          rms(c)
DAV:   1    -0.124060496057E+03    0.69600E-05   -0.65861E-05  1824   0.322E-02    0.131E-03
DAV:   2    -0.124060496064E+03   -0.64247E-08   -0.51577E-07  1752   0.313E-03
  45 F= -.12590932E+03 E0= -.12590683E+03  d E =-.114677E-05
 trial-energy change:   -0.000001  1 .order   -0.000001   -0.000001   -0.000001
 step:   1.5856(harm=  1.5856)  dis= 0.00044  next Energy=  -125.909324 (dE=-0.236E-05)
 bond charge predicted
       N       E                     dE             d eps       ncg     rms          rms(c)
DAV:   1    -0.124060476800E+03    0.19257E-04   -0.40317E-04  1824   0.800E-02    0.339E-03
DAV:   2    -0.124060476836E+03   -0.36255E-07   -0.32500E-06  2208   0.756E-03
  46 F= -.12590932E+03 E0= -.12590683E+03  d E =-.216783E-05
 curvature:  -0.98 expect dE=-0.344E-05 dE for cont linesearch -0.528E-08
 trial: gam= 1.25619 g(F)=  0.351E-05 g(S)=  0.000E+00 ort =-0.141E-06 (trialstep = 0.279E+00)
 search vector abs. value=  0.896E-05
 bond charge predicted
       N       E                     dE             d eps       ncg     rms          rms(c)
DAV:   1    -0.124060466679E+03    0.10121E-04   -0.49629E-05  1872   0.291E-02    0.145E-03
DAV:   2    -0.124060466671E+03    0.83473E-08   -0.49594E-07  1872   0.316E-03
  47 F= -.12590933E+03 E0= -.12590684E+03  d E =-.746008E-06
 trial-energy change:   -0.000001  1 .order   -0.000001   -0.000001   -0.000001
 step:   0.6403(harm=  0.6403)  dis= 0.00029  next Energy=  -125.909325 (dE=-0.107E-05)
 bond charge predicted
       N       E                     dE             d eps       ncg     rms          rms(c)
DAV:   1    -0.124060452846E+03    0.13833E-04   -0.85405E-05  1896   0.382E-02    0.170E-03
DAV:   2    -0.124060452854E+03   -0.85893E-08   -0.81074E-07  1704   0.394E-03
  48 F= -.12590933E+03 E0= -.12590683E+03  d E =-.105780E-05
 curvature:  -0.86 expect dE=-0.226E-05 dE for cont linesearch -0.111E-10
 trial: gam= 0.65413 g(F)=  0.263E-05 g(S)=  0.000E+00 ort = 0.108E-07 (trialstep = 0.351E+00)
 search vector abs. value=  0.647E-05
 bond charge predicted
       N       E                     dE             d eps       ncg     rms          rms(c)
DAV:   1    -0.124060438321E+03    0.14525E-04   -0.45794E-05  1920   0.274E-02    0.127E-03
DAV:   2    -0.124060438322E+03   -0.10714E-08   -0.43654E-07  1632   0.283E-03
  49 F= -.12590933E+03 E0= -.12590683E+03  d E =-.820006E-06
 ZBRENT: can't locate minimum, use default step
 trial-energy change:   -0.000001  1 .order   -0.000001   -0.000001   -0.000001
 step:   1.4052(harm=  1.7027)  dis= 0.00064  next Energy=  -125.909328 (dE=-0.224E-05)
 bond charge predicted
       N       E                     dE             d eps       ncg     rms          rms(c)
DAV:   1    -0.124060393518E+03    0.44803E-04   -0.42013E-04  1824   0.826E-02    0.373E-03
DAV:   2    -0.124060393573E+03   -0.54542E-07   -0.40046E-06  2160   0.822E-03
  50 F= -.12590933E+03 E0= -.12590683E+03  d E =-.213112E-05
 curvature:  -1.99 expect dE=-0.444E-05 dE for cont linesearch -0.117E-06
 ZBRENT: extrapolating
 opt :   1.8476  next Energy=  -125.909328 (dE=-0.227E-05)
 bond charge predicted
       N       E                     dE             d eps       ncg     rms          rms(c)
DAV:   1    -0.124060374325E+03    0.19193E-04   -0.71206E-05  1848   0.343E-02    0.188E-03
DAV:   2    -0.124060374311E+03    0.14385E-07   -0.55822E-07  2232   0.321E-03
  51 F= -.12590933E+03 E0= -.12590683E+03  d E =-.220528E-05
 curvature:  -2.32 expect dE=-0.852E-05 dE for cont linesearch -0.503E-09
 trial: gam= 1.47351 g(F)=  0.368E-05 g(S)=  0.000E+00 ort =-0.375E-07 (trialstep = 0.239E+00)
 search vector abs. value=  0.176E-04
 bond charge predicted
       N       E                     dE             d eps       ncg     rms          rms(c)
DAV:   1    -0.124060355062E+03    0.19263E-04   -0.53352E-05  1848   0.290E-02    0.139E-03
DAV:   2    -0.124060355059E+03    0.30086E-08   -0.53991E-07  1488   0.315E-03
  52 F= -.12590933E+03 E0= -.12590683E+03  d E =-.749811E-06
 ZBRENT: can't locate minimum, use default step
 trial-energy change:   -0.000001  1 .order   -0.000001   -0.000001   -0.000001
 step:   0.9560(harm=  1.0787)  dis= 0.00076  next Energy=  -125.909330 (dE=-0.195E-05)
 bond charge predicted
       N       E                     dE             d eps       ncg     rms          rms(c)
DAV:   1    -0.124060296084E+03    0.58978E-04   -0.48946E-04  1848   0.877E-02    0.414E-03
DAV:   2    -0.124060296174E+03   -0.90280E-07   -0.53485E-06  2136   0.949E-03
  53 F= -.12590933E+03 E0= -.12590683E+03  d E =-.187142E-05
 curvature:  -2.57 expect dE=-0.805E-05 dE for cont linesearch -0.796E-07
 ZBRENT: extrapolating
 opt :   1.2107  next Energy=  -125.909330 (dE=-0.197E-05)
 bond charge predicted
       N       E                     dE             d eps       ncg     rms          rms(c)
DAV:   1    -0.124060274869E+03    0.21215E-04   -0.59176E-05  1872   0.308E-02    0.198E-03
DAV:   2    -0.124060274854E+03    0.14503E-07   -0.52326E-07  2280   0.312E-03
  54 F= -.12590933E+03 E0= -.12590683E+03  d E =-.187211E-05
 curvature:  -3.04 expect dE=-0.140E-04 dE for cont linesearch -0.753E-09
 trial: gam= 1.22966 g(F)=  0.462E-05 g(S)=  0.000E+00 ort =-0.661E-07 (trialstep = 0.246E+00)
 search vector abs. value=  0.311E-04
 bond charge predicted
       N       E                     dE             d eps       ncg     rms          rms(c)
DAV:   1    -0.124060246147E+03    0.28721E-04   -0.10408E-04  1872   0.407E-02    0.187E-03
DAV:   2    -0.124060246157E+03   -0.93696E-08   -0.11776E-06  1872   0.451E-03
  55 F= -.12590933E+03 E0= -.12590683E+03  d E =-.871070E-06
 trial-energy change:   -0.000001  1 .order   -0.000001   -0.000001   -0.000001
 step:   0.7132(harm=  0.7132)  dis= 0.00075  next Energy=  -125.909331 (dE=-0.162E-05)
 bond charge predicted
       N       E                     dE             d eps       ncg     rms          rms(c)
DAV:   1    -0.124060190467E+03    0.55680E-04   -0.38235E-04  1872   0.777E-02    0.370E-03
DAV:   2    -0.124060190498E+03   -0.30371E-07   -0.41759E-06  2160   0.851E-03
  56 F= -.12590933E+03 E0= -.12590683E+03  d E =-.154527E-05
 curvature:  -2.44 expect dE=-0.713E-05 dE for cont linesearch -0.212E-07
 trial: gam= 0.49678 g(F)=  0.292E-05 g(S)=  0.000E+00 ort = 0.519E-06 (trialstep = 0.339E+00)
 search vector abs. value=  0.111E-04
 bond charge predicted
       N       E                     dE             d eps       ncg     rms          rms(c)
DAV:   1    -0.124060165960E+03    0.24508E-04   -0.85403E-05  1872   0.375E-02    0.197E-03
DAV:   2    -0.124060165945E+03    0.14999E-07   -0.80343E-07  1608   0.399E-03
  57 F= -.12590933E+03 E0= -.12590683E+03  d E =-.839949E-06
 trial-energy change:   -0.000001  1 .order   -0.000001   -0.000001   -0.000001
 step:   1.2307(harm=  1.2307)  dis= 0.00069  next Energy=  -125.909333 (dE=-0.195E-05)
 bond charge predicted
       N       E                     dE             d eps       ncg     rms          rms(c)
DAV:   1    -0.124060099991E+03    0.65969E-04   -0.60721E-04  1872   0.994E-02    0.436E-03
DAV:   2    -0.124060100075E+03   -0.84340E-07   -0.64596E-06  1872   0.107E-02
  58 F= -.12590933E+03 E0= -.12590683E+03  d E =-.175590E-05
 curvature:  -2.15 expect dE=-0.263E-05 dE for cont linesearch -0.248E-08
 trial: gam= 0.53596 g(F)=  0.122E-05 g(S)=  0.000E+00 ort = 0.113E-06 (trialstep = 0.517E+00)
 search vector abs. value=  0.454E-05
 bond charge predicted
       N       E                     dE             d eps       ncg     rms          rms(c)
DAV:   1    -0.124060071967E+03    0.28024E-04   -0.87833E-05  1968   0.389E-02    0.221E-03
DAV:   2    -0.124060071936E+03    0.31000E-07   -0.11396E-06  1752   0.480E-03
  59 F= -.12590933E+03 E0= -.12590683E+03  d E =-.290521E-06
 trial-energy change:   -0.000000  1 .order   -0.000000   -0.000001   -0.000000
 step:   0.5608(harm=  0.5608)  dis= 0.00017  next Energy=  -125.909333 (dE=-0.360E-06)
 bond charge predicted
       N       E                     dE             d eps       ncg     rms          rms(c)
DAV:   1    -0.124060069597E+03    0.23701E-05   -0.62543E-07  1440   0.375E-03    0.548E-04
DAV:   2    -0.124060069611E+03   -0.14767E-07   -0.51814E-08  1968   0.105E-03
  60 F= -.12590933E+03 E0= -.12590683E+03  d E =-.352292E-06
 curvature:  -0.99 expect dE=-0.618E-06 dE for cont linesearch -0.121E-07
 ZBRENT: interpolating
 opt :   0.5303  next Energy=  -125.909333 (dE=-0.291E-06)
 bond charge predicted
       N       E                     dE             d eps       ncg     rms          rms(c)
DAV:   1    -0.124060071324E+03   -0.17272E-05   -0.30789E-07  1560   0.232E-03    0.102E-04
DAV:   2    -0.124060071334E+03   -0.97207E-08   -0.12611E-08  1992   0.567E-04
  61 F= -.12590933E+03 E0= -.12590683E+03  d E =-.395983E-06
 curvature:  -0.05 expect dE=-0.270E-07 dE for cont linesearch -0.335E-10
 trial: gam= 0.45446 g(F)=  0.517E-06 g(S)=  0.000E+00 ort =-0.539E-07 (trialstep = 0.520E+00)
 search vector abs. value=  0.141E-05
 bond charge predicted
       N       E                     dE             d eps       ncg     rms          rms(c)
DAV:   1    -0.124060052183E+03    0.19141E-04   -0.27328E-05  2088   0.208E-02    0.979E-04
DAV:   2    -0.124060052165E+03    0.18278E-07   -0.36641E-07  1488   0.258E-03
  62 F= -.12590933E+03 E0= -.12590683E+03  d E =-.227083E-06
 ZBRENT: can't locate minimum, use default step
 trial-energy change:   -0.000000  1 .order   -0.000000   -0.000000   -0.000000
 step:   2.0799(harm=  6.4080)  dis= 0.00028  next Energy=  -125.909335 (dE=-0.158E-05)
 bond charge predicted
       N       E                     dE             d eps       ncg     rms          rms(c)
DAV:   1    -0.124059994458E+03    0.57725E-04   -0.24304E-04  1848   0.622E-02    0.308E-03
DAV:   2    -0.124059994383E+03    0.75299E-07   -0.33518E-06  1968   0.761E-03
  63 F= -.12590933E+03 E0= -.12590683E+03  d E =-.634990E-06
 curvature:  -4.20 expect dE=-0.557E-05 dE for cont linesearch -0.192E-06
 ZBRENT: increasing intervall
 opt :   5.1997  next Energy=  -125.909334 (dE=-0.804E-06)
 bond charge predicted
       N       E                     dE             d eps       ncg     rms          rms(c)
DAV:   1    -0.124059877891E+03    0.11657E-03   -0.96956E-04  1824   0.124E-01    0.632E-03
DAV:   2    -0.124059877723E+03    0.16752E-06   -0.13254E-05  2136   0.152E-02    0.403E-03
DAV:   3    -0.124059877628E+03    0.95467E-07   -0.11024E-06  1536   0.470E-03
  64 F= -.12590933E+03 E0= -.12590683E+03  d E =-.145285E-06
 curvature:  -3.69 expect dE=-0.326E-04 dE for cont linesearch -0.515E-06
 ZBRENT: bracketing found
 ZBRENT: interpolating
 opt :   3.2162  next Energy=  -125.909334 (dE=-0.779E-06)
 bond charge predicted
       N       E                     dE             d eps       ncg     rms          rms(c)
DAV:   1    -0.124059952072E+03   -0.74349E-04   -0.39238E-04  1944   0.787E-02    0.346E-03
DAV:   2    -0.124059952125E+03   -0.52523E-07   -0.59819E-06  2064   0.999E-03
  65 F= -.12590933E+03 E0= -.12590683E+03  d E =-.766495E-06
 curvature:  -1.03 expect dE=-0.362E-05 dE for cont linesearch -0.897E-08
 ZBRENT: interpolating
 opt :   2.8713  next Energy=  -125.909334 (dE=-0.786E-06)
 bond charge predicted
       N       E                     dE             d eps       ncg     rms          rms(c)
DAV:   1    -0.124059964970E+03   -0.12898E-04   -0.10625E-05  2424   0.136E-02    0.120E-03
DAV:   2    -0.124059964959E+03    0.11535E-07   -0.96076E-08  1896   0.136E-03
  66 F= -.12590933E+03 E0= -.12590683E+03  d E =-.736567E-06
 curvature:  -2.19 expect dE=-0.572E-05 dE for cont linesearch -0.985E-10
 trial: gam= 4.91642 g(F)=  0.261E-05 g(S)=  0.000E+00 ort =-0.794E-08 (trialstep = 0.381E-01)
 search vector abs. value=  0.365E-04
 bond charge predicted
       N       E                     dE             d eps       ncg     rms          rms(c)
DAV:   1    -0.124059957814E+03    0.71561E-05   -0.40823E-06  1968   0.794E-03    0.355E-04
DAV:   2    -0.124059957811E+03    0.36007E-08   -0.68949E-08  1512   0.109E-03
  67 F= -.12590933E+03 E0= -.12590683E+03  d E =-.133273E-06
 ZBRENT: can't locate minimum, use default step
 trial-energy change:   -0.000000  1 .order   -0.000000   -0.000000   -0.000000
 step:   0.1525(harm=  0.1525)  dis= 0.00010  next Energy=  -125.909334 (dE=-0.475E-06)
 bond charge predicted
       N       E                     dE             d eps       ncg     rms          rms(c)
DAV:   1    -0.124059936276E+03    0.21538E-04   -0.33468E-05  1896   0.230E-02    0.111E-03
DAV:   2    -0.124059936258E+03    0.18091E-07   -0.41363E-07  1440   0.274E-03
  68 F= -.12590933E+03 E0= -.12590683E+03  d E =-.425213E-06
 curvature:  -1.68 expect dE=-0.348E-05 dE for cont linesearch -0.375E-06
 ZBRENT: increasing intervall
 opt :   0.3813  next Energy=  -125.909335 (dE=-0.108E-05)
 bond charge predicted
       N       E                     dE             d eps       ncg     rms          rms(c)
DAV:   1    -0.124059893130E+03    0.43146E-04   -0.13347E-04  1824   0.459E-02    0.224E-03
DAV:   2    -0.124059893096E+03    0.33771E-07   -0.17524E-06  1968   0.548E-03
  69 F= -.12590933E+03 E0= -.12590683E+03  d E =-.827700E-06
 curvature:  -2.94 expect dE=-0.425E-05 dE for cont linesearch -0.520E-06
 ZBRENT: increasing intervall
 opt :   0.8389  next Energy=  -125.909336 (dE=-0.185E-05)
 bond charge predicted
       N       E                     dE             d eps       ncg     rms          rms(c)
DAV:   1    -0.124059806612E+03    0.86518E-04   -0.53591E-04  1824   0.919E-02    0.453E-03
DAV:   2    -0.124059806540E+03    0.72190E-07   -0.70684E-06  2136   0.110E-02
  70 F= -.12590934E+03 E0= -.12590683E+03  d E =-.166353E-05
 curvature:  -5.76 expect dE=-0.545E-05 dE for cont linesearch -0.749E-06
 ZBRENT: increasing intervall
 opt :   1.7540  next Energy=  -125.909337 (dE=-0.332E-05)
 bond charge predicted
       N       E                     dE             d eps       ncg     rms          rms(c)
DAV:   1    -0.124059632618E+03    0.17399E-03   -0.21429E-03  1824   0.184E-01    0.905E-03
DAV:   2    -0.124059632591E+03    0.26753E-07   -0.28332E-05  2280   0.221E-02    0.590E-03
DAV:   3    -0.124059632361E+03    0.22994E-06   -0.25019E-06  2016   0.688E-03
  71 F= -.12590934E+03 E0= -.12590683E+03  d E =-.230135E-05
 curvature: -12.77 expect dE=-0.424E-04 dE for cont linesearch -0.279E-06
 ZBRENT: bracketing found
 ZBRENT: interpolating
 opt :   1.4878  next Energy=  -125.909336 (dE=-0.242E-05)
 bond charge predicted
       N       E                     dE             d eps       ncg     rms          rms(c)
DAV:   1    -0.124059683229E+03   -0.50638E-04   -0.17813E-04  2064   0.528E-02    0.206E-03
DAV:   2    -0.124059683307E+03   -0.77278E-07   -0.26821E-06  2040   0.659E-03
  72 F= -.12590934E+03 E0= -.12590683E+03  d E =-.238245E-05
 curvature:  -5.44 expect dE=-0.119E-04 dE for cont linesearch -0.118E-07
 trial: gam= 1.06863 g(F)=  0.218E-05 g(S)=  0.000E+00 ort = 0.282E-06 (trialstep = 0.269E+00)
 search vector abs. value=  0.445E-04
 bond charge predicted
       N       E                     dE             d eps       ncg     rms          rms(c)
DAV:   1    -0.124059628367E+03    0.54862E-04   -0.23255E-04  2184   0.601E-02    0.254E-03
DAV:   2    -0.124059628348E+03    0.18475E-07   -0.33625E-06  1968   0.742E-03
  73 F= -.12590934E+03 E0= -.12590683E+03  d E =-.626523E-06
 ZBRENT: can't locate minimum, use default step
 trial-energy change:   -0.000001  1 .order   -0.000001   -0.000001   -0.000001
 step:   1.0772(harm=  1.0772)  dis= 0.00076  next Energy=  -125.909339 (dE=-0.272E-05)
 bond charge predicted
       N       E                     dE             d eps       ncg     rms          rms(c)
DAV:   1    -0.124059462681E+03    0.16569E-03   -0.20226E-03  1824   0.179E-01    0.872E-03
DAV:   2    -0.124059462580E+03    0.10166E-06   -0.27558E-05  2160   0.217E-02    0.566E-03
DAV:   3    -0.124059462325E+03    0.25491E-06   -0.23957E-06  2088   0.672E-03
  74 F= -.12590934E+03 E0= -.12590682E+03  d E =-.125713E-05
 curvature: -14.54 expect dE=-0.163E-04 dE for cont linesearch -0.310E-06
 ZBRENT: interpolating
 opt :   0.8510  next Energy=  -125.909338 (dE=-0.137E-05)
 bond charge predicted
       N       E                     dE             d eps       ncg     rms          rms(c)
DAV:   1    -0.124059509034E+03   -0.46454E-04   -0.15498E-04  2112   0.493E-02    0.190E-03
DAV:   2    -0.124059509112E+03   -0.78356E-07   -0.23813E-06  2088   0.619E-03
  75 F= -.12590934E+03 E0= -.12590682E+03  d E =-.134601E-05
 curvature:  -5.17 expect dE=-0.273E-05 dE for cont linesearch -0.151E-07
 ZBRENT: interpolating
 opt :   0.9121  next Energy=  -125.909338 (dE=-0.136E-05)
 bond charge predicted
       N       E                     dE             d eps       ncg     rms          rms(c)
DAV:   1    -0.124059496524E+03    0.12510E-04   -0.12991E-05  2208   0.140E-02    0.432E-04
DAV:   2    -0.124059496527E+03   -0.38299E-08   -0.23240E-07  1560   0.191E-03
  76 F= -.12590934E+03 E0= -.12590682E+03  d E =-.137514E-05
 curvature:  -3.77 expect dE=-0.225E-05 dE for cont linesearch -0.369E-07
 ZBRENT: bisectioning
 opt :   0.9947  next Energy=  -125.909338 (dE=-0.145E-05)
 bond charge predicted
       N       E                     dE             d eps       ncg     rms          rms(c)
DAV:   1    -0.124059479529E+03    0.16995E-04   -0.20895E-05  2016   0.183E-02    0.915E-04
DAV:   2    -0.124059479519E+03    0.10002E-07   -0.27589E-07  1488   0.222E-03
  77 F= -.12590934E+03 E0= -.12590682E+03  d E =-.140846E-05
 curvature:  -7.27 expect dE=-0.570E-05 dE for cont linesearch -0.617E-07
 ZBRENT: bisectioning
 opt :   1.0359  next Energy=  -125.909338 (dE=-0.143E-05)
 bond charge predicted
       N       E                     dE             d eps       ncg     rms          rms(c)
DAV:   1    -0.124059471025E+03    0.85037E-05   -0.49585E-06  1992   0.906E-03    0.512E-04
DAV:   2    -0.124059471030E+03   -0.46557E-08   -0.64076E-08  2016   0.106E-03
  78 F= -.12590934E+03 E0= -.12590682E+03  d E =-.144061E-05
 curvature:  -2.93 expect dE=-0.266E-05 dE for cont linesearch -0.998E-08
 ZBRENT: bisectioning
 opt :   1.0566  next Energy=  -125.909338 (dE=-0.145E-05)
 bond charge predicted
       N       E                     dE             d eps       ncg     rms          rms(c)
DAV:   1    -0.124059466791E+03    0.42345E-05   -0.12199E-06  1680   0.453E-03    0.237E-04
DAV:   2    -0.124059466797E+03   -0.61891E-08   -0.40050E-08  2064   0.965E-04
  79 F= -.12590934E+03 E0= -.12590682E+03  d E =-.146831E-05
 curvature:  -2.02 expect dE=-0.196E-05 dE for cont linesearch -0.220E-10
 trial: gam= 0.78477 g(F)=  0.969E-06 g(S)=  0.000E+00 ort = 0.220E-07 (trialstep = 0.427E+00)
 search vector abs. value=  0.284E-04
 bond charge predicted
       N       E                     dE             d eps       ncg     rms          rms(c)
DAV:   1    -0.124059396397E+03    0.70394E-04   -0.36831E-04  1848   0.761E-02    0.351E-03
DAV:   2    -0.124059396355E+03    0.41769E-07   -0.49553E-06  1968   0.918E-03
  80 F= -.12590934E+03 E0= -.12590682E+03  d E =-.363273E-06
 ZBRENT: can't locate minimum, use default step
 trial-energy change:   -0.000000  1 .order   -0.000000   -0.000000   -0.000000
 step:   1.7070(harm=  1.7070)  dis= 0.00097  next Energy=  -125.909340 (dE=-0.205E-05)
 bond charge predicted
       N       E                     dE             d eps       ncg     rms          rms(c)
DAV:   1    -0.124059184079E+03    0.21232E-03   -0.32798E-03  1824   0.227E-01    0.108E-02
DAV:   2    -0.124059184198E+03   -0.11830E-06   -0.42631E-05  2232   0.271E-02    0.710E-03
DAV:   3    -0.124059183796E+03    0.40182E-06   -0.36964E-06  2088   0.842E-03
  81 F= -.12590934E+03 E0= -.12590681E+03  d E =-.264905E-06
 curvature: -38.10 expect dE=-0.799E-04 dE for cont linesearch -0.387E-05
 ZBRENT: interpolating
 opt :   0.9285  next Energy=  -125.909338 (dE=-0.638E-06)
 bond charge predicted
       N       E                     dE             d eps       ncg     rms          rms(c)
DAV:   1    -0.124059313267E+03   -0.12907E-03   -0.12050E-03  1872   0.137E-01    0.578E-03
DAV:   2    -0.124059313464E+03   -0.19683E-06   -0.16698E-05  2136   0.167E-02    0.381E-03
DAV:   3    -0.124059313300E+03    0.16339E-06   -0.12206E-06  1944   0.492E-03
  82 F= -.12590934E+03 E0= -.12590682E+03  d E =-.565408E-06
 curvature:  -2.70 expect dE=-0.182E-05 dE for cont linesearch -0.492E-07
 ZBRENT: bisectioning
 opt :   1.3178  next Energy=  -125.909339 (dE=-0.788E-06)
 bond charge predicted
       N       E                     dE             d eps       ncg     rms          rms(c)
DAV:   1    -0.124059248742E+03    0.64722E-04   -0.30237E-04  1920   0.688E-02    0.284E-03
DAV:   2    -0.124059248762E+03   -0.20404E-07   -0.44101E-06  2088   0.852E-03
  83 F= -.12590934E+03 E0= -.12590682E+03  d E =-.626002E-06
 curvature: -12.26 expect dE=-0.142E-04 dE for cont linesearch -0.128E-07
 trial: gam= 1.13074 g(F)=  0.115E-05 g(S)=  0.000E+00 ort = 0.172E-06 (trialstep = 0.454E+00)
 search vector abs. value=  0.378E-04
 bond charge predicted
       N       E                     dE             d eps       ncg     rms          rms(c)
DAV:   1    -0.124059161427E+03    0.87314E-04   -0.55175E-04  1824   0.938E-02    0.475E-03
DAV:   2    -0.124059161336E+03    0.91589E-07   -0.73217E-06  2328   0.113E-02
  84 F= -.12590934E+03 E0= -.12590681E+03  d E =-.639945E-07
 trial-energy change:   -0.000000  1 .order   -0.000000   -0.000001   -0.000000
 step:   0.5985(harm=  0.5985)  dis= 0.00040  next Energy=  -125.909339 (dE=-0.404E-06)
 reached required accuracy - stopping structural energy minimisation
