 vasp.6.3.2 27Jun22 (build Dec 22 2022 13:13:19) complex                        
  
 executed on             LinuxIFC date 2023.10.19  04:41:10
 running   48 mpi-ranks, with    1 threads/rank
 distrk:  each k-point on   48 cores,    1 groups
 distr:  one band on NCORE=   1 cores,   48 groups


--------------------------------------------------------------------------------------------------------


 INCAR:
   SYSTEM = Graphene
   ISTART = 0
   ICHARG = 2
   PREC = Accurate
   ENCUT = 450
   LCHARG = .FALSE.
   LWAVE = .FALSE.
   ALGO = Normal
   EDIFF = 1E-6
   EDIFFG = -1E-2
   SIGMA = 0.1
   ISMEAR = 0
   ISPIN = 1
   NSW = 100
   IBRION = 2
   ISIF = 2
   GGA = PE
   IVDW = 12

 POTCAR:    PAW_PBE C 08Apr2002                   
 POTCAR:    PAW_PBE C 08Apr2002                   
   SHA256 =  253f7b50bb8d59471dbedb8285d89021f4a42ed1a2c5d38a03a736e69125dd95 C/POTCAR              
   COPYR  = (c) Copyright 08Apr2002 Georg Kresse                                                    
   COPYR  = This file is part of the software VASP. Any use, copying, and all other rights are regul
   COPYR  = If you do not have a valid VASP license, you may not use, copy or distribute this file. 
   VRHFIN =C: s2p2                                                                                  
   LEXCH  = PE                                                                                      
   EATOM  =   147.1560 eV,   10.8157 Ry                                                             
                                                                                                    
   TITEL  = PAW_PBE C 08Apr2002                                                                     
   LULTRA =        F    use ultrasoft PP ?                                                          
   IUNSCR =        1    unscreen: 0-lin 1-nonlin 2-no                                               
   RPACOR =    1.200    partial core radius                                                         
   POMASS =   12.011; ZVAL   =    4.000    mass and valenz                                          
   RCORE  =    1.500    outmost cutoff radius                                                       
   RWIGS  =    1.630; RWIGS  =    0.863    wigner-seitz radius (au A)                               
   ENMAX  =  400.000; ENMIN  =  300.000 eV                                                          
   ICORE  =        2    local potential                                                             
   LCOR   =        T    correct aug charges                                                         
   LPAW   =        T    paw PP                                                                      
   EAUG   =  644.873                                                                                
   DEXC   =    0.000                                                                                
   RMAX   =    1.529    core radius for proj-oper                                                   
   RAUG   =    1.300    factor for augmentation sphere                                              
   RDEP   =    1.501    radius for radial grids                                                     
   RDEPT  =    1.300    core radius for aug-charge                                                  
                                                                                                    
   Atomic configuration                                                                             
    4 entries                                                                                       
     n  l   j            E        occ.                                                              
     1  0  0.50      -273.3789   2.0000                                                             
     2  0  0.50       -13.7508   2.0000                                                             
     2  1  0.50        -5.2854   2.0000                                                             
     3  2  1.50        -5.4423   0.0000                                                             
   Description                                                                                      
     l       E           TYP  RCUT    TYP  RCUT                                                     
     0    -13.7508458     23  1.200                                                                 
     0     -8.2022199     23  1.200                                                                 
     1     -5.2854383     23  1.500                                                                 
     1     34.0145650     23  1.500                                                                 
     2     -5.4423304      7  1.500                                                                 
  local pseudopotential read in
  partial core-charges read in
  partial kinetic energy density read in
  atomic valenz-charges read in
  non local Contribution for L=           0  read in
    real space projection operators read in
  non local Contribution for L=           0  read in
    real space projection operators read in
  non local Contribution for L=           1  read in
    real space projection operators read in
  non local Contribution for L=           1  read in
    real space projection operators read in
    PAW grid and wavefunctions read in
 
   number of l-projection  operators is LMAX  =           4
   number of lm-projection operators is LMMAX =           8
 
  PAW_PBE C 08Apr2002                   :
 energy of atom  1       EATOM= -147.1560
 kinetic energy error for atom=    0.0116 (will be added to EATOM!!)
 
 
 POSCAR: Graphene with lattice parameter 2.485
  positions in direct lattice
  No initial velocities read in
 exchange correlation table for  LEXCH =        8
   RHO(1)=    0.500       N(1)  =     2000
   RHO(2)=  100.500       N(2)  =     4000

 VTST: version 4.2, (08/11/21)

 CHAIN: initializing optimizer
 
 OPT: Using VASP Conjugate-Gradient optimizer
 CHAIN: Read ICHAIN            0
 
 POSCAR: Graphene with lattice parameter 2.485
  positions in direct lattice
  No initial velocities read in
 


--------------------------------------------------------------------------------------------------------


 ion  position               nearest neighbor table
   1  0.167  0.333  0.100-   4 1.43   6 1.43   2 1.43
   2  0.333  0.167  0.100-   3 1.43   5 1.43   1 1.43
   3  0.167  0.833  0.100-   2 1.43   8 1.43   4 1.43
   4  0.333  0.667  0.100-   1 1.43   7 1.43   3 1.43
   5  0.667  0.333  0.100-   2 1.43   8 1.43   6 1.43
   6  0.833  0.167  0.100-   1 1.43   7 1.43   5 1.43
   7  0.667  0.833  0.100-   4 1.43   6 1.43   8 1.43
   8  0.833  0.667  0.100-   3 1.43   5 1.43   7 1.43
 
  LATTYP: Found a hexagonal cell.
 ALAT       =     4.9699997776
 C/A-ratio  =     3.0181087870
  
  Lattice vectors:
  
 A1 = (   4.3041460000,   2.4850000000,   0.0000000000)
 A2 = (  -4.3041460000,   2.4850000000,   0.0000000000)
 A3 = (   0.0000000000,   0.0000000000,  15.0000000000)


Analysis of symmetry for initial positions (statically):
=====================================================================
 Subroutine PRICEL returns following result:
 
  LATTYP: Found a hexagonal cell.
 ALAT       =     2.4849998888
 C/A-ratio  =     6.0362175739
  
  Lattice vectors:
  
 A1 = (   2.1520730000,   1.2425000000,   0.0000000000)
 A2 = (  -2.1520730000,   1.2425000000,   0.0000000000)
 A3 = (   0.0000000000,   0.0000000000,  15.0000000000)
 
   4 primitive cells build up your supercell.
 

 Routine SETGRP: Setting up the symmetry group for a 
 hexagonal supercell.


 Subroutine GETGRP returns: Found 24 space group operations
 (whereof 12 operations were pure point group operations)
 out of a pool of 24 trial point group operations.


The static configuration has the point symmetry C_6v.
 The point group associated with its full space group is D_6h.


Analysis of symmetry for dynamics (positions and initial velocities):
=====================================================================
 Subroutine PRICEL returns following result:
 
  LATTYP: Found a hexagonal cell.
 ALAT       =     2.4849998888
 C/A-ratio  =     6.0362175739
  
  Lattice vectors:
  
 A1 = (   2.1520730000,   1.2425000000,   0.0000000000)
 A2 = (  -2.1520730000,   1.2425000000,   0.0000000000)
 A3 = (   0.0000000000,   0.0000000000,  15.0000000000)
 
   4 primitive cells build up your supercell.
 

 Routine SETGRP: Setting up the symmetry group for a 
 hexagonal supercell.


 Subroutine GETGRP returns: Found 24 space group operations
 (whereof 12 operations were pure point group operations)
 out of a pool of 24 trial point group operations.


The dynamic configuration has the point symmetry C_6v.
 The point group associated with its full space group is D_6h.


 Subroutine INISYM returns: Found 24 space group operations
 (whereof 12 operations are pure point group operations),
 and found     4 'primitive' translations


----------------------------------------------------------------------------------------

                                     Primitive cell                                     

  volume of cell :      80.2185

  direct lattice vectors                    reciprocal lattice vectors
     2.152073000  1.242500000  0.000000000     0.232334126  0.402414487  0.000000000
    -2.152073000  1.242500000  0.000000000    -0.232334126  0.402414487  0.000000000
     0.000000000  0.000000000 15.000000000     0.000000000  0.000000000  0.066666667

  length of vectors
     2.484999889  2.484999889 15.000000000     0.464668232  0.464668232  0.066666667

  position of ions in fractional coordinates (direct lattice)
     0.333332000  0.666666000  0.100000000
     0.666666000  0.333332000  0.100000000

  ion indices of the primitive-cell ions
   primitive index   ion index
                 1           1
                 2           2

----------------------------------------------------------------------------------------

 
 
 KPOINTS: k-points                                

Automatic generation of k-mesh.
 Grid dimensions read from file:
 generate k-points for:   12   12    1

 Generating k-lattice:

  Cartesian coordinates                     Fractional coordinates (reciprocal lattice)
     0.009680589  0.016767270  0.000000000     0.083333333 -0.000000000  0.000000000
    -0.009680589  0.016767270  0.000000000    -0.000000000  0.083333333  0.000000000
     0.000000000  0.000000000  0.066666667     0.000000000  0.000000000  1.000000000

  Length of vectors
     0.019361176  0.019361176  0.066666667

  Shift w.r.t. Gamma in fractional coordinates (k-lattice)
     0.000000000  0.000000000  0.000000000

 
 Subroutine IBZKPT returns following result:
 ===========================================
 
 Found     19 irreducible k-points:
 
 Following reciprocal coordinates:
            Coordinates               Weight
  0.000000  0.000000  0.000000      1.000000
  0.083333 -0.000000  0.000000      6.000000
  0.166667 -0.000000  0.000000      6.000000
  0.250000 -0.000000  0.000000      6.000000
  0.333333 -0.000000  0.000000      6.000000
  0.416667 -0.000000  0.000000      6.000000
  0.500000 -0.000000  0.000000      3.000000
  0.083333  0.083333  0.000000      6.000000
  0.166667  0.083333  0.000000     12.000000
  0.250000  0.083333  0.000000     12.000000
  0.333333  0.083333  0.000000     12.000000
  0.416667  0.083333  0.000000     12.000000
  0.166667  0.166667  0.000000      6.000000
  0.250000  0.166667  0.000000     12.000000
  0.333333  0.166667  0.000000     12.000000
  0.416667  0.166667  0.000000      6.000000
  0.250000  0.250000  0.000000      6.000000
  0.333333  0.250000  0.000000     12.000000
  0.333333  0.333333  0.000000      2.000000
 
 Following cartesian coordinates:
            Coordinates               Weight
  0.000000  0.000000  0.000000      1.000000
  0.009681  0.016767  0.000000      6.000000
  0.019361  0.033535  0.000000      6.000000
  0.029042  0.050302  0.000000      6.000000
  0.038722  0.067069  0.000000      6.000000
  0.048403  0.083836  0.000000      6.000000
  0.058084  0.100604  0.000000      3.000000
 -0.000000  0.033535  0.000000      6.000000
  0.009681  0.050302  0.000000     12.000000
  0.019361  0.067069  0.000000     12.000000
  0.029042  0.083836  0.000000     12.000000
  0.038722  0.100604  0.000000     12.000000
 -0.000000  0.067069  0.000000      6.000000
  0.009681  0.083836  0.000000     12.000000
  0.019361  0.100604  0.000000     12.000000
  0.029042  0.117371  0.000000      6.000000
 -0.000000  0.100604  0.000000      6.000000
  0.009681  0.117371  0.000000     12.000000
 -0.000000  0.134138  0.000000      2.000000
 


--------------------------------------------------------------------------------------------------------




 Dimension of arrays:
   k-points           NKPTS =     19   k-points in BZ     NKDIM =     19   number of bands    NBANDS=     48
   number of dos      NEDOS =    301   number of ions     NIONS =      8
   non local maximal  LDIM  =      4   non local SUM 2l+1 LMDIM =      8
   total plane-waves  NPLWV = 139968
   max r-space proj   IRMAX =      1   max aug-charges    IRDMAX=   5347
   dimension x,y,z NGX =    36 NGY =   36 NGZ =  108
   dimension x,y,z NGXF=    72 NGYF=   72 NGZF=  216
   support grid    NGXF=    72 NGYF=   72 NGZF=  216
   ions per type =               8
   NGX,Y,Z   is equivalent  to a cutoff of  12.04, 12.04, 11.97 a.u.
   NGXF,Y,Z  is equivalent  to a cutoff of  24.08, 24.08, 23.94 a.u.

 SYSTEM =  Graphene                                
 POSCAR =  Graphene with lattice parameter 2.485   

 Startparameter for this run:
   NWRITE =      2    write-flag & timer
   PREC   = accura    normal or accurate (medium, high low for compatibility)
   ISTART =      0    job   : 0-new  1-cont  2-samecut
   ICHARG =      2    charge: 1-file 2-atom 10-const
   ISPIN  =      1    spin polarized calculation?
   LNONCOLLINEAR =      F non collinear calculations
   LSORBIT =      F    spin-orbit coupling
   INIWAV =      1    electr: 0-lowe 1-rand  2-diag
   LASPH  =      F    aspherical Exc in radial PAW
 Electronic Relaxation 1
   ENCUT  =  450.0 eV  33.07 Ry    5.75 a.u.   8.60  8.60 25.95*2*pi/ulx,y,z
   ENINI  =  450.0     initial cutoff
   ENAUG  =  644.9 eV  augmentation charge cutoff
   NELM   =     60;   NELMIN=  2; NELMDL= -5     # of ELM steps 
   EDIFF  = 0.1E-05   stopping-criterion for ELM
   LREAL  =      F    real-space projection
   NLSPLINE    = F    spline interpolate recip. space projectors
   LCOMPAT=      F    compatible to vasp.4.4
   GGA_COMPAT  = T    GGA compatible to vasp.4.4-vasp.4.6
   LMAXPAW     = -100 max onsite density
   LMAXMIX     =    2 max onsite mixed and CHGCAR
   VOSKOWN=      0    Vosko Wilk Nusair interpolation
   ROPT   =    0.00000
 Ionic relaxation
   EDIFFG = -.1E-01   stopping-criterion for IOM
   NSW    =    100    number of steps for IOM
   NBLOCK =      1;   KBLOCK =    100    inner block; outer block 
   IBRION =      2    ionic relax: 0-MD 1-quasi-New 2-CG
   NFREE  =      1    steps in history (QN), initial steepest desc. (CG)
   ISIF   =      2    stress and relaxation
   IWAVPR =     11    prediction:  0-non 1-charg 2-wave 3-comb
   ISYM   =      2    0-nonsym 1-usesym 2-fastsym
   LCORR  =      T    Harris-Foulkes like correction to forces

   POTIM  = 0.5000    time-step for ionic-motion
   TEIN   =    0.0    initial temperature
   TEBEG  =    0.0;   TEEND  =   0.0 temperature during run
   SMASS  =  -3.00    Nose mass-parameter (am)
   estimated Nose-frequenzy (Omega)   =  0.10E-29 period in steps = 0.13E+47 mass=  -0.564E-27a.u.
   SCALEE = 1.0000    scale energy and forces
   NPACO  =    256;   APACO  = 10.0  distance and # of slots for P.C.
   PSTRESS=    0.0 pullay stress

  Mass of Ions in am
   POMASS =  12.01
  Ionic Valenz
   ZVAL   =   4.00
  Atomic Wigner-Seitz radii
   RWIGS  =  -1.00
  virtual crystal weights 
   VCA    =   1.00
   NELECT =      32.0000    total number of electrons
   NUPDOWN=      -1.0000    fix difference up-down

 DOS related values:
   EMIN   =  10.00;   EMAX   =-10.00  energy-range for DOS
   EFERMI =   0.00
   ISMEAR =     0;   SIGMA  =   0.10  broadening in eV -4-tet -1-fermi 0-gaus

 Electronic relaxation 2 (details)
   IALGO  =     38    algorithm
   LDIAG  =      T    sub-space diagonalisation (order eigenvalues)
   LSUBROT=      F    optimize rotation matrix (better conditioning)
   TURBO    =      0    0=normal 1=particle mesh
   IRESTART =      0    0=no restart 2=restart with 2 vectors
   NREBOOT  =      0    no. of reboots
   NMIN     =      0    reboot dimension
   EREF     =   0.00    reference energy to select bands
   IMIX   =      4    mixing-type and parameters
     AMIX     =   0.40;   BMIX     =  1.00
     AMIX_MAG =   1.60;   BMIX_MAG =  1.00
     AMIN     =   0.10
     WC   =   100.;   INIMIX=   1;  MIXPRE=   1;  MAXMIX= -45

 Intra band minimization:
   WEIMIN = 0.0010     energy-eigenvalue tresh-hold
   EBREAK =  0.52E-08  absolut break condition
   DEPER  =   0.30     relativ break condition  

   TIME   =   0.40     timestep for ELM

  volume/ion in A,a.u.               =      40.11       270.67
  Fermi-wavevector in a.u.,A,eV,Ry     =   0.759183  1.434648  7.841843  0.576359
  Thomas-Fermi vector in A             =   1.857921
 
 Write flags
   LWAVE        =      F    write WAVECAR
   LDOWNSAMPLE  =      F    k-point downsampling of WAVECAR
   LCHARG       =      F    write CHGCAR
   LVTOT        =      F    write LOCPOT, total local potential
   LVHAR        =      F    write LOCPOT, Hartree potential only
   LELF         =      F    write electronic localiz. function (ELF)
   LORBIT       =      0    0 simple, 1 ext, 2 COOP (PROOUT), +10 PAW based schemes


 Dipole corrections
   LMONO  =      F    monopole corrections only (constant potential shift)
   LDIPOL =      F    correct potential (dipole corrections)
   IDIPOL =      0    1-x, 2-y, 3-z, 4-all directions 
   EPSILON=  1.0000000 bulk dielectric constant

 Exchange correlation treatment:
   GGA     =    PE    GGA type
   LEXCH   =     8    internal setting for exchange type
   LIBXC   =     F    Libxc                    
   VOSKOWN =     0    Vosko Wilk Nusair interpolation
   LHFCALC =     F    Hartree Fock is set to
   LHFONE  =     F    Hartree Fock one center treatment
   AEXX    =    0.0000 exact exchange contribution

 Linear response parameters
   LEPSILON=     F    determine dielectric tensor
   LRPA    =     F    only Hartree local field effects (RPA)
   LNABLA  =     F    use nabla operator in PAW spheres
   LVEL    =     F    velocity operator in full k-point grid
   CSHIFT  =0.1000    complex shift for real part using Kramers Kronig
   OMEGAMAX=  -1.0    maximum frequency
   DEG_THRESHOLD= 0.2000000E-02 threshold for treating states as degnerate
   RTIME   =   -0.100 relaxation time in fs
  (WPLASMAI=    0.000 imaginary part of plasma frequency in eV, 0.658/RTIME)
   DFIELD  = 0.0000000 0.0000000 0.0000000 field for delta impulse in time
 
  Optional k-point grid parameters
   LKPOINTS_OPT  =     F    use optional k-point grid
   KPOINTS_OPT_MODE=     1    mode for optional k-point grid
 
 Orbital magnetization related:
   ORBITALMAG=     F  switch on orbital magnetization
   LCHIMAG   =     F  perturbation theory with respect to B field
   DQ        =  0.001000  dq finite difference perturbation B field
   LLRAUG    =     F  two centre corrections for induced B field



--------------------------------------------------------------------------------------------------------


 conjugate gradient relaxation of ions
 charge density and potential will be updated during run
 non-spin polarized calculation
 Variant of blocked Davidson
 Davidson routine will perform the subspace rotation
 perform sub-space diagonalisation
    after iterative eigenvector-optimisation
 modified Broyden-mixing scheme, WC =      100.0
 initial mixing is a Kerker type mixing with AMIX =  0.4000 and BMIX =      1.0000
 Hartree-type preconditioning will be used
 using additional bands           32
 reciprocal scheme for non local part
 use partial core corrections
 calculate Harris-corrections to forces 
   (improved forces if not selfconsistent)
 use gradient corrections 
 use of overlap-Matrix (Vanderbilt PP)
 Gauss-broadening in eV      SIGMA  =   0.10


--------------------------------------------------------------------------------------------------------


  energy-cutoff  :      450.00
  volume of cell :      320.87
      direct lattice vectors                 reciprocal lattice vectors
     4.304146000  2.485000000  0.000000000     0.116167063  0.201207243  0.000000000
    -4.304146000  2.485000000  0.000000000    -0.116167063  0.201207243  0.000000000
     0.000000000  0.000000000 15.000000000     0.000000000  0.000000000  0.066666667

  length of vectors
     4.969999778  4.969999778 15.000000000     0.232334116  0.232334116  0.066666667


 
 k-points in units of 2pi/SCALE and weight: k-points                                
   0.00000000  0.00000000  0.00000000       0.007
   0.00968059  0.01676727  0.00000000       0.042
   0.01936118  0.03353454  0.00000000       0.042
   0.02904177  0.05030181  0.00000000       0.042
   0.03872235  0.06706908  0.00000000       0.042
   0.04840294  0.08383635  0.00000000       0.042
   0.05808353  0.10060362  0.00000000       0.021
  -0.00000000  0.03353454  0.00000000       0.042
   0.00968059  0.05030181  0.00000000       0.083
   0.01936118  0.06706908  0.00000000       0.083
   0.02904177  0.08383635  0.00000000       0.083
   0.03872235  0.10060362  0.00000000       0.083
  -0.00000000  0.06706908  0.00000000       0.042
   0.00968059  0.08383635  0.00000000       0.083
   0.01936118  0.10060362  0.00000000       0.083
   0.02904177  0.11737089  0.00000000       0.042
  -0.00000000  0.10060362  0.00000000       0.042
   0.00968059  0.11737089  0.00000000       0.083
  -0.00000000  0.13413816  0.00000000       0.014
 
 k-points in reciprocal lattice and weights: k-points                                
   0.00000000  0.00000000  0.00000000       0.007
   0.08333333 -0.00000000  0.00000000       0.042
   0.16666667 -0.00000000  0.00000000       0.042
   0.25000000 -0.00000000  0.00000000       0.042
   0.33333333 -0.00000000  0.00000000       0.042
   0.41666667 -0.00000000  0.00000000       0.042
   0.50000000 -0.00000000  0.00000000       0.021
   0.08333333  0.08333333  0.00000000       0.042
   0.16666667  0.08333333  0.00000000       0.083
   0.25000000  0.08333333  0.00000000       0.083
   0.33333333  0.08333333  0.00000000       0.083
   0.41666667  0.08333333  0.00000000       0.083
   0.16666667  0.16666667  0.00000000       0.042
   0.25000000  0.16666667  0.00000000       0.083
   0.33333333  0.16666667  0.00000000       0.083
   0.41666667  0.16666667  0.00000000       0.042
   0.25000000  0.25000000  0.00000000       0.042
   0.33333333  0.25000000  0.00000000       0.083
   0.33333333  0.33333333  0.00000000       0.014
 
 position of ions in fractional coordinates (direct lattice) 
   0.16666600  0.33333300  0.10000000
   0.33333300  0.16666600  0.10000000
   0.16666600  0.83333300  0.10000000
   0.33333300  0.66666600  0.10000000
   0.66666600  0.33333300  0.10000000
   0.83333300  0.16666600  0.10000000
   0.66666600  0.83333300  0.10000000
   0.83333300  0.66666600  0.10000000
 
 position of ions in cartesian coordinates  (Angst):
  -0.71735910  1.24249752  1.50000000
   0.71735910  1.24249752  1.50000000
  -2.86943210  2.48499752  1.50000000
  -1.43471390  2.48499752  1.50000000
   1.43471390  2.48499752  1.50000000
   2.86943210  2.48499752  1.50000000
  -0.71735910  3.72749752  1.50000000
   0.71735910  3.72749752  1.50000000
 


--------------------------------------------------------------------------------------------------------


 k-point   1 :   0.0000 0.0000 0.0000  plane waves:    6981
 k-point   2 :   0.0833-0.0000 0.0000  plane waves:    6977
 k-point   3 :   0.1667-0.0000 0.0000  plane waves:    6967
 k-point   4 :   0.2500-0.0000 0.0000  plane waves:    6969
 k-point   5 :   0.3333-0.0000 0.0000  plane waves:    6957
 k-point   6 :   0.4167-0.0000 0.0000  plane waves:    6967
 k-point   7 :   0.5000-0.0000 0.0000  plane waves:    6914
 k-point   8 :   0.0833 0.0833 0.0000  plane waves:    6973
 k-point   9 :   0.1667 0.0833 0.0000  plane waves:    6975
 k-point  10 :   0.2500 0.0833 0.0000  plane waves:    6975
 k-point  11 :   0.3333 0.0833 0.0000  plane waves:    6940
 k-point  12 :   0.4167 0.0833 0.0000  plane waves:    6933
 k-point  13 :   0.1667 0.1667 0.0000  plane waves:    6977
 k-point  14 :   0.2500 0.1667 0.0000  plane waves:    6955
 k-point  15 :   0.3333 0.1667 0.0000  plane waves:    6940
 k-point  16 :   0.4167 0.1667 0.0000  plane waves:    6928
 k-point  17 :   0.2500 0.2500 0.0000  plane waves:    6943
 k-point  18 :   0.3333 0.2500 0.0000  plane waves:    6929
 k-point  19 :   0.3333 0.3333 0.0000  plane waves:    6924

 maximum and minimum number of plane-waves per node :      6981     6914

 maximum number of plane-waves:      6981
 maximum index in each direction: 
   IXMAX=    8   IYMAX=    8   IZMAX=   25
   IXMIN=   -9   IYMIN=   -8   IZMIN=  -25


 serial   3D FFT for wavefunctions
 parallel 3D FFT for charge:
    minimum data exchange during FFTs selected (reduces bandwidth)


 total amount of memory used by VASP MPI-rank0    50282. kBytes
=======================================================================

   base      :      30000. kBytes
   nonl-proj :       9418. kBytes
   fftplans  :       1560. kBytes
   grid      :       7121. kBytes
   one-center:         24. kBytes
   wavefun   :       2159. kBytes
 
     INWAV:  cpu time      0.0000: real time      0.0000
 Broyden mixing: mesh for mixing (old mesh)
   NGX = 17   NGY = 17   NGZ = 51
  (NGX  = 72   NGY  = 72   NGZ  =216)
  gives a total of  14739 points

 initial charge density was supplied:
 charge density of overlapping atoms calculated
 number of electron      32.0000000 magnetization 
 keeping initial charge density in first step


--------------------------------------------------------------------------------------------------------


 Maximum index for augmentation-charges          322 (set IRDMAX)


--------------------------------------------------------------------------------------------------------


 First call to EWALD:  gamma=   0.259
 Maximum number of real-space cells 4x 4x 2
 Maximum number of reciprocal cells 2x 2x 5

    FEWALD:  cpu time      0.0014: real time      0.0014


--------------------------------------- Iteration      1(   1)  ---------------------------------------


    POTLOK:  cpu time      0.0190: real time      0.0201
    SETDIJ:  cpu time      0.0016: real time      0.0016
     EDDAV:  cpu time      0.6648: real time      0.6719
       DOS:  cpu time      0.0015: real time      0.0015
    --------------------------------------------
      LOOP:  cpu time      0.6870: real time      0.6951

 eigenvalue-minimisations  :  1824
 total energy-change (2. order) : 0.1076921E+03  (-0.1390974E+04)
 number of electron      32.0000000 magnetization 
 augmentation part       32.0000000 magnetization 

 Free energy of the ion-electron system (eV)
  ---------------------------------------------------
  alpha Z        PSCENC =        16.38458848
  Ewald energy   TEWEN  =      3279.26800504
  -Hartree energ DENC   =     -4159.19447409
  -exchange      EXHF   =         0.00000000
  -V(xc)+E(xc)   XCENC  =       105.02820266
  PAW double counting   =       868.17637104     -872.73161751
  entropy T*S    EENTRO =        -0.01501582
  eigenvalues    EBANDS =      -306.37902846
  atomic energy  EATOM  =      1177.15502788
  Solvation  Ediel_sol  =         0.00000000
  ---------------------------------------------------
  free energy    TOTEN  =       107.69205921 eV

  energy without entropy =      107.70707503  energy(sigma->0) =      107.69956712


--------------------------------------------------------------------------------------------------------




--------------------------------------- Iteration      1(   2)  ---------------------------------------


     EDDAV:  cpu time      0.8006: real time      0.8107
       DOS:  cpu time      0.0004: real time      0.0004
    --------------------------------------------
      LOOP:  cpu time      0.8009: real time      0.8111

 eigenvalue-minimisations  :  2160
 total energy-change (2. order) :-0.1798464E+03  (-0.1784879E+03)
 number of electron      32.0000000 magnetization 
 augmentation part       32.0000000 magnetization 

 Free energy of the ion-electron system (eV)
  ---------------------------------------------------
  alpha Z        PSCENC =        16.38458848
  Ewald energy   TEWEN  =      3279.26800504
  -Hartree energ DENC   =     -4159.19447409
  -exchange      EXHF   =         0.00000000
  -V(xc)+E(xc)   XCENC  =       105.02820266
  PAW double counting   =       868.17637104     -872.73161751
  entropy T*S    EENTRO =        -0.00000001
  eigenvalues    EBANDS =      -486.24049135
  atomic energy  EATOM  =      1177.15502788
  Solvation  Ediel_sol  =         0.00000000
  ---------------------------------------------------
  free energy    TOTEN  =       -72.15438787 eV

  energy without entropy =      -72.15438786  energy(sigma->0) =      -72.15438787


--------------------------------------------------------------------------------------------------------




--------------------------------------- Iteration      1(   3)  ---------------------------------------


     EDDAV:  cpu time      1.3512: real time      1.3683
       DOS:  cpu time      0.0004: real time      0.0004
    --------------------------------------------
      LOOP:  cpu time      1.3516: real time      1.3688

 eigenvalue-minimisations  :  3360
 total energy-change (2. order) :-0.6363969E+01  (-0.6362412E+01)
 number of electron      32.0000000 magnetization 
 augmentation part       32.0000000 magnetization 

 Free energy of the ion-electron system (eV)
  ---------------------------------------------------
  alpha Z        PSCENC =        16.38458848
  Ewald energy   TEWEN  =      3279.26800504
  -Hartree energ DENC   =     -4159.19447409
  -exchange      EXHF   =         0.00000000
  -V(xc)+E(xc)   XCENC  =       105.02820266
  PAW double counting   =       868.17637104     -872.73161751
  entropy T*S    EENTRO =        -0.00156717
  eigenvalues    EBANDS =      -492.60289345
  atomic energy  EATOM  =      1177.15502788
  Solvation  Ediel_sol  =         0.00000000
  ---------------------------------------------------
  free energy    TOTEN  =       -78.51835713 eV

  energy without entropy =      -78.51678996  energy(sigma->0) =      -78.51757354


--------------------------------------------------------------------------------------------------------




--------------------------------------- Iteration      1(   4)  ---------------------------------------


     EDDAV:  cpu time      0.7725: real time      0.7925
       DOS:  cpu time      0.0004: real time      0.0004
    --------------------------------------------
      LOOP:  cpu time      0.7728: real time      0.7929

 eigenvalue-minimisations  :  2064
 total energy-change (2. order) :-0.6261326E-02  (-0.6261309E-02)
 number of electron      32.0000000 magnetization 
 augmentation part       32.0000000 magnetization 

 Free energy of the ion-electron system (eV)
  ---------------------------------------------------
  alpha Z        PSCENC =        16.38458848
  Ewald energy   TEWEN  =      3279.26800504
  -Hartree energ DENC   =     -4159.19447409
  -exchange      EXHF   =         0.00000000
  -V(xc)+E(xc)   XCENC  =       105.02820266
  PAW double counting   =       868.17637104     -872.73161751
  entropy T*S    EENTRO =        -0.00156719
  eigenvalues    EBANDS =      -492.60915476
  atomic energy  EATOM  =      1177.15502788
  Solvation  Ediel_sol  =         0.00000000
  ---------------------------------------------------
  free energy    TOTEN  =       -78.52461846 eV

  energy without entropy =      -78.52305126  energy(sigma->0) =      -78.52383486


--------------------------------------------------------------------------------------------------------




--------------------------------------- Iteration      1(   5)  ---------------------------------------


     EDDAV:  cpu time      1.2887: real time      1.3052
       DOS:  cpu time      0.0004: real time      0.0004
    CHARGE:  cpu time      0.0593: real time      0.0646
    MIXING:  cpu time      0.0023: real time      0.0023
    --------------------------------------------
      LOOP:  cpu time      1.3507: real time      1.3725

 eigenvalue-minimisations  :  3216
 total energy-change (2. order) :-0.1407462E-04  (-0.1407445E-04)
 number of electron      31.9999988 magnetization 
 augmentation part        0.8355918 magnetization 

 Broyden mixing:
  rms(total) = 0.12313E+01    rms(broyden)= 0.12312E+01
  rms(prec ) = 0.13774E+01
  weight for this iteration     100.00

 Free energy of the ion-electron system (eV)
  ---------------------------------------------------
  alpha Z        PSCENC =        16.38458848
  Ewald energy   TEWEN  =      3279.26800504
  -Hartree energ DENC   =     -4159.19447409
  -exchange      EXHF   =         0.00000000
  -V(xc)+E(xc)   XCENC  =       105.02820266
  PAW double counting   =       868.17637104     -872.73161751
  entropy T*S    EENTRO =        -0.00156719
  eigenvalues    EBANDS =      -492.60916883
  atomic energy  EATOM  =      1177.15502788
  Solvation  Ediel_sol  =         0.00000000
  ---------------------------------------------------
  free energy    TOTEN  =       -78.52463253 eV

  energy without entropy =      -78.52306534  energy(sigma->0) =      -78.52384894


--------------------------------------------------------------------------------------------------------




--------------------------------------- Iteration      1(   6)  ---------------------------------------


    POTLOK:  cpu time      0.0166: real time      0.0168
    SETDIJ:  cpu time      0.0012: real time      0.0012
     EDDAV:  cpu time      1.1109: real time      1.1257
       DOS:  cpu time      0.0005: real time      0.0005
    CHARGE:  cpu time      0.0576: real time      0.0639
    MIXING:  cpu time      0.0010: real time      0.0012
    --------------------------------------------
      LOOP:  cpu time      1.1878: real time      1.2093

 eigenvalue-minimisations  :  2880
 total energy-change (2. order) : 0.3388994E+01  (-0.3298390E+00)
 number of electron      31.9999989 magnetization 
 augmentation part        0.7973004 magnetization 

 Broyden mixing:
  rms(total) = 0.72948E+00    rms(broyden)= 0.72945E+00
  rms(prec ) = 0.80242E+00
  weight for this iteration     100.00

 eigenvalues of (default mixing * dielectric matrix)
  average eigenvalue GAMMA=   2.2139
  2.2139

 Free energy of the ion-electron system (eV)
  ---------------------------------------------------
  alpha Z        PSCENC =        16.38458848
  Ewald energy   TEWEN  =      3279.26800504
  -Hartree energ DENC   =     -4201.69286339
  -exchange      EXHF   =         0.00000000
  -V(xc)+E(xc)   XCENC  =       106.88921182
  PAW double counting   =      1579.64678414    -1584.77124537
  entropy T*S    EENTRO =        -0.00156719
  eigenvalues    EBANDS =      -448.01358006
  atomic energy  EATOM  =      1177.15502788
  Solvation  Ediel_sol  =         0.00000000
  ---------------------------------------------------
  free energy    TOTEN  =       -75.13563866 eV

  energy without entropy =      -75.13407147  energy(sigma->0) =      -75.13485506


--------------------------------------------------------------------------------------------------------




--------------------------------------- Iteration      1(   7)  ---------------------------------------


    POTLOK:  cpu time      0.0143: real time      0.0151
    SETDIJ:  cpu time      0.0010: real time      0.0010
     EDDAV:  cpu time      1.1568: real time      1.1737
       DOS:  cpu time      0.0006: real time      0.0006
    CHARGE:  cpu time      0.0572: real time      0.0640
    MIXING:  cpu time      0.0008: real time      0.0009
    --------------------------------------------
      LOOP:  cpu time      1.2306: real time      1.2554

 eigenvalue-minimisations  :  2976
 total energy-change (2. order) : 0.1312522E+01  (-0.4342914E+00)
 number of electron      31.9999989 magnetization 
 augmentation part        0.7538060 magnetization 

 Broyden mixing:
  rms(total) = 0.18034E+00    rms(broyden)= 0.18019E+00
  rms(prec ) = 0.19284E+00
  weight for this iteration     100.00

 eigenvalues of (default mixing * dielectric matrix)
  average eigenvalue GAMMA=   2.1489
  2.1489  2.1489

 Free energy of the ion-electron system (eV)
  ---------------------------------------------------
  alpha Z        PSCENC =        16.38458848
  Ewald energy   TEWEN  =      3279.26800504
  -Hartree energ DENC   =     -4258.56269379
  -exchange      EXHF   =         0.00000000
  -V(xc)+E(xc)   XCENC  =       109.36726917
  PAW double counting   =      2966.80084314    -2972.42941150
  entropy T*S    EENTRO =        -0.00156719
  eigenvalues    EBANDS =      -391.80517836
  atomic energy  EATOM  =      1177.15502788
  Solvation  Ediel_sol  =         0.00000000
  ---------------------------------------------------
  free energy    TOTEN  =       -73.82311714 eV

  energy without entropy =      -73.82154994  energy(sigma->0) =      -73.82233354


--------------------------------------------------------------------------------------------------------




--------------------------------------- Iteration      1(   8)  ---------------------------------------


    POTLOK:  cpu time      0.0213: real time      0.0223
    SETDIJ:  cpu time      0.0010: real time      0.0011
     EDDAV:  cpu time      1.1245: real time      1.1397
       DOS:  cpu time      0.0005: real time      0.0005
    CHARGE:  cpu time      0.0568: real time      0.0665
    MIXING:  cpu time      0.0008: real time      0.0008
    --------------------------------------------
      LOOP:  cpu time      1.2050: real time      1.2309

 eigenvalue-minimisations  :  2880
 total energy-change (2. order) : 0.2756632E-01  (-0.3071024E-02)
 number of electron      31.9999989 magnetization 
 augmentation part        0.7551447 magnetization 

 Broyden mixing:
  rms(total) = 0.19844E-01    rms(broyden)= 0.19812E-01
  rms(prec ) = 0.44131E-01
  weight for this iteration     100.00

 eigenvalues of (default mixing * dielectric matrix)
  average eigenvalue GAMMA=   2.0594
  1.5708  2.5840  2.0233

 Free energy of the ion-electron system (eV)
  ---------------------------------------------------
  alpha Z        PSCENC =        16.38458848
  Ewald energy   TEWEN  =      3279.26800504
  -Hartree energ DENC   =     -4265.56376198
  -exchange      EXHF   =         0.00000000
  -V(xc)+E(xc)   XCENC  =       109.39875976
  PAW double counting   =      3267.18167744    -3272.61482039
  entropy T*S    EENTRO =        -0.00156719
  eigenvalues    EBANDS =      -385.00345986
  atomic energy  EATOM  =      1177.15502788
  Solvation  Ediel_sol  =         0.00000000
  ---------------------------------------------------
  free energy    TOTEN  =       -73.79555081 eV

  energy without entropy =      -73.79398362  energy(sigma->0) =      -73.79476722


--------------------------------------------------------------------------------------------------------




--------------------------------------- Iteration      1(   9)  ---------------------------------------


    POTLOK:  cpu time      0.0145: real time      0.0146
    SETDIJ:  cpu time      0.0011: real time      0.0011
     EDDAV:  cpu time      1.2711: real time      1.2850
       DOS:  cpu time      0.0005: real time      0.0005
    CHARGE:  cpu time      0.0566: real time      0.0649
    MIXING:  cpu time      0.0007: real time      0.0009
    --------------------------------------------
      LOOP:  cpu time      1.3445: real time      1.3670

 eigenvalue-minimisations  :  3216
 total energy-change (2. order) : 0.8855767E-02  (-0.6260700E-03)
 number of electron      31.9999989 magnetization 
 augmentation part        0.7540962 magnetization 

 Broyden mixing:
  rms(total) = 0.15345E-01    rms(broyden)= 0.15339E-01
  rms(prec ) = 0.31375E-01
  weight for this iteration     100.00

 eigenvalues of (default mixing * dielectric matrix)
  average eigenvalue GAMMA=   2.1954
  3.4071  0.9552  2.4288  1.9907

 Free energy of the ion-electron system (eV)
  ---------------------------------------------------
  alpha Z        PSCENC =        16.38458848
  Ewald energy   TEWEN  =      3279.26800504
  -Hartree energ DENC   =     -4271.77782633
  -exchange      EXHF   =         0.00000000
  -V(xc)+E(xc)   XCENC  =       109.51105297
  PAW double counting   =      3308.23945923    -3313.65838840
  entropy T*S    EENTRO =        -0.00156719
  eigenvalues    EBANDS =      -378.90704672
  atomic energy  EATOM  =      1177.15502788
  Solvation  Ediel_sol  =         0.00000000
  ---------------------------------------------------
  free energy    TOTEN  =       -73.78669505 eV

  energy without entropy =      -73.78512785  energy(sigma->0) =      -73.78591145


--------------------------------------------------------------------------------------------------------




--------------------------------------- Iteration      1(  10)  ---------------------------------------


    POTLOK:  cpu time      0.0215: real time      0.0218
    SETDIJ:  cpu time      0.0011: real time      0.0011
     EDDAV:  cpu time      0.9466: real time      0.9551
       DOS:  cpu time      0.0004: real time      0.0004
    CHARGE:  cpu time      0.0563: real time      0.0604
    MIXING:  cpu time      0.0008: real time      0.0010
    --------------------------------------------
      LOOP:  cpu time      1.0268: real time      1.0398

 eigenvalue-minimisations  :  2496
 total energy-change (2. order) : 0.4626842E-02  (-0.6904711E-03)
 number of electron      31.9999989 magnetization 
 augmentation part        0.7531753 magnetization 

 Broyden mixing:
  rms(total) = 0.65150E-02    rms(broyden)= 0.65084E-02
  rms(prec ) = 0.13513E-01
  weight for this iteration     100.00

 eigenvalues of (default mixing * dielectric matrix)
  average eigenvalue GAMMA=   2.4982
  4.2458  0.9897  2.0483  2.6036  2.6036

 Free energy of the ion-electron system (eV)
  ---------------------------------------------------
  alpha Z        PSCENC =        16.38458848
  Ewald energy   TEWEN  =      3279.26800504
  -Hartree energ DENC   =     -4281.06164986
  -exchange      EXHF   =         0.00000000
  -V(xc)+E(xc)   XCENC  =       109.61857805
  PAW double counting   =      3264.15243541    -3269.56433061
  entropy T*S    EENTRO =        -0.00156719
  eigenvalues    EBANDS =      -369.73315539
  atomic energy  EATOM  =      1177.15502788
  Solvation  Ediel_sol  =         0.00000000
  ---------------------------------------------------
  free energy    TOTEN  =       -73.78206820 eV

  energy without entropy =      -73.78050101  energy(sigma->0) =      -73.78128461


--------------------------------------------------------------------------------------------------------




--------------------------------------- Iteration      1(  11)  ---------------------------------------


    POTLOK:  cpu time      0.0138: real time      0.0140
    SETDIJ:  cpu time      0.0013: real time      0.0013
     EDDAV:  cpu time      0.8373: real time      0.8441
       DOS:  cpu time      0.0004: real time      0.0004
    CHARGE:  cpu time      0.0546: real time      0.0567
    MIXING:  cpu time      0.0008: real time      0.0008
    --------------------------------------------
      LOOP:  cpu time      0.9082: real time      0.9172

 eigenvalue-minimisations  :  2256
 total energy-change (2. order) :-0.6996091E-03  (-0.9198624E-04)
 number of electron      31.9999989 magnetization 
 augmentation part        0.7530509 magnetization 

 Broyden mixing:
  rms(total) = 0.55822E-02    rms(broyden)= 0.55814E-02
  rms(prec ) = 0.77070E-02
  weight for this iteration     100.00

 eigenvalues of (default mixing * dielectric matrix)
  average eigenvalue GAMMA=   2.4744
  5.5251  2.8661  2.4293  1.9780  0.9793  1.0685

 Free energy of the ion-electron system (eV)
  ---------------------------------------------------
  alpha Z        PSCENC =        16.38458848
  Ewald energy   TEWEN  =      3279.26800504
  -Hartree energ DENC   =     -4284.84594410
  -exchange      EXHF   =         0.00000000
  -V(xc)+E(xc)   XCENC  =       109.62161495
  PAW double counting   =      3280.09975555    -3285.50948115
  entropy T*S    EENTRO =        -0.00156719
  eigenvalues    EBANDS =      -365.95476726
  atomic energy  EATOM  =      1177.15502788
  Solvation  Ediel_sol  =         0.00000000
  ---------------------------------------------------
  free energy    TOTEN  =       -73.78276781 eV

  energy without entropy =      -73.78120062  energy(sigma->0) =      -73.78198422


--------------------------------------------------------------------------------------------------------




--------------------------------------- Iteration      1(  12)  ---------------------------------------


    POTLOK:  cpu time      0.0188: real time      0.0190
    SETDIJ:  cpu time      0.0011: real time      0.0011
     EDDAV:  cpu time      1.0637: real time      1.0739
       DOS:  cpu time      0.0004: real time      0.0004
    CHARGE:  cpu time      0.0562: real time      0.0571
    MIXING:  cpu time      0.0008: real time      0.0008
    --------------------------------------------
      LOOP:  cpu time      1.1410: real time      1.1522

 eigenvalue-minimisations  :  2784
 total energy-change (2. order) :-0.1126877E-02  (-0.1170493E-04)
 number of electron      31.9999989 magnetization 
 augmentation part        0.7529073 magnetization 

 Broyden mixing:
  rms(total) = 0.21063E-02    rms(broyden)= 0.21059E-02
  rms(prec ) = 0.44053E-02
  weight for this iteration     100.00

 eigenvalues of (default mixing * dielectric matrix)
  average eigenvalue GAMMA=   2.8505
  6.6650  4.1221  2.7674  2.4181  1.9768  1.0021  1.0021

 Free energy of the ion-electron system (eV)
  ---------------------------------------------------
  alpha Z        PSCENC =        16.38458848
  Ewald energy   TEWEN  =      3279.26800504
  -Hartree energ DENC   =     -4285.59394842
  -exchange      EXHF   =         0.00000000
  -V(xc)+E(xc)   XCENC  =       109.62379735
  PAW double counting   =      3267.86396443    -3273.27971637
  entropy T*S    EENTRO =        -0.00156719
  eigenvalues    EBANDS =      -365.20404588
  atomic energy  EATOM  =      1177.15502788
  Solvation  Ediel_sol  =         0.00000000
  ---------------------------------------------------
  free energy    TOTEN  =       -73.78389469 eV

  energy without entropy =      -73.78232750  energy(sigma->0) =      -73.78311109


--------------------------------------------------------------------------------------------------------




--------------------------------------- Iteration      1(  13)  ---------------------------------------


    POTLOK:  cpu time      0.0126: real time      0.0130
    SETDIJ:  cpu time      0.0010: real time      0.0010
     EDDAV:  cpu time      1.0151: real time      1.0231
       DOS:  cpu time      0.0004: real time      0.0004
    CHARGE:  cpu time      0.0558: real time      0.0579
    MIXING:  cpu time      0.0008: real time      0.0008
    --------------------------------------------
      LOOP:  cpu time      1.0859: real time      1.0963

 eigenvalue-minimisations  :  2736
 total energy-change (2. order) :-0.2742726E-02  (-0.7412009E-04)
 number of electron      31.9999989 magnetization 
 augmentation part        0.7529284 magnetization 

 Broyden mixing:
  rms(total) = 0.82401E-03    rms(broyden)= 0.82397E-03
  rms(prec ) = 0.13555E-02
  weight for this iteration     100.00

 eigenvalues of (default mixing * dielectric matrix)
  average eigenvalue GAMMA=   2.8098
  6.7098  4.4432  1.0002  0.9815  2.6038  2.3750  2.3750  1.9903

 Free energy of the ion-electron system (eV)
  ---------------------------------------------------
  alpha Z        PSCENC =        16.38458848
  Ewald energy   TEWEN  =      3279.26800504
  -Hartree energ DENC   =     -4286.43323407
  -exchange      EXHF   =         0.00000000
  -V(xc)+E(xc)   XCENC  =       109.62002610
  PAW double counting   =      3271.08301248    -3276.49503951
  entropy T*S    EENTRO =        -0.00156719
  eigenvalues    EBANDS =      -364.36745660
  atomic energy  EATOM  =      1177.15502788
  Solvation  Ediel_sol  =         0.00000000
  ---------------------------------------------------
  free energy    TOTEN  =       -73.78663742 eV

  energy without entropy =      -73.78507022  energy(sigma->0) =      -73.78585382


--------------------------------------------------------------------------------------------------------




--------------------------------------- Iteration      1(  14)  ---------------------------------------


    POTLOK:  cpu time      0.0130: real time      0.0131
    SETDIJ:  cpu time      0.0010: real time      0.0011
     EDDAV:  cpu time      1.1589: real time      1.1673
       DOS:  cpu time      0.0007: real time      0.0007
    CHARGE:  cpu time      0.0648: real time      0.0661
    MIXING:  cpu time      0.0009: real time      0.0009
    --------------------------------------------
      LOOP:  cpu time      1.2392: real time      1.2491

 eigenvalue-minimisations  :  3024
 total energy-change (2. order) :-0.3562045E-03  (-0.1049584E-05)
 number of electron      31.9999989 magnetization 
 augmentation part        0.7528970 magnetization 

 Broyden mixing:
  rms(total) = 0.31145E-03    rms(broyden)= 0.31137E-03
  rms(prec ) = 0.59687E-03
  weight for this iteration     100.00

 eigenvalues of (default mixing * dielectric matrix)
  average eigenvalue GAMMA=   3.0497
  8.6236  5.4738  3.3207  2.6690  2.4426  1.9843  1.0067  0.9875  0.9391

 Free energy of the ion-electron system (eV)
  ---------------------------------------------------
  alpha Z        PSCENC =        16.38458848
  Ewald energy   TEWEN  =      3279.26800504
  -Hartree energ DENC   =     -4286.61964897
  -exchange      EXHF   =         0.00000000
  -V(xc)+E(xc)   XCENC  =       109.62151352
  PAW double counting   =      3270.02502364    -3275.43825825
  entropy T*S    EENTRO =        -0.00156719
  eigenvalues    EBANDS =      -364.18167776
  atomic energy  EATOM  =      1177.15502788
  Solvation  Ediel_sol  =         0.00000000
  ---------------------------------------------------
  free energy    TOTEN  =       -73.78699362 eV

  energy without entropy =      -73.78542643  energy(sigma->0) =      -73.78621002


--------------------------------------------------------------------------------------------------------




--------------------------------------- Iteration      1(  15)  ---------------------------------------


    POTLOK:  cpu time      0.0141: real time      0.0143
    SETDIJ:  cpu time      0.0011: real time      0.0011
     EDDAV:  cpu time      0.7146: real time      0.7193
       DOS:  cpu time      0.0004: real time      0.0004
    CHARGE:  cpu time      0.0558: real time      0.0570
    MIXING:  cpu time      0.0007: real time      0.0007
    --------------------------------------------
      LOOP:  cpu time      0.7866: real time      0.7928

 eigenvalue-minimisations  :  1968
 total energy-change (2. order) :-0.2367770E-03  (-0.2078880E-05)
 number of electron      31.9999989 magnetization 
 augmentation part        0.7529007 magnetization 

 Broyden mixing:
  rms(total) = 0.14358E-03    rms(broyden)= 0.14358E-03
  rms(prec ) = 0.17866E-03
  weight for this iteration     100.00

 eigenvalues of (default mixing * dielectric matrix)
  average eigenvalue GAMMA=   3.2118
  9.5536  5.9358  3.7185  2.9151  2.5876  2.4379  1.9844  1.0082  0.9884  0.9884

 Free energy of the ion-electron system (eV)
  ---------------------------------------------------
  alpha Z        PSCENC =        16.38458848
  Ewald energy   TEWEN  =      3279.26800504
  -Hartree energ DENC   =     -4286.64568012
  -exchange      EXHF   =         0.00000000
  -V(xc)+E(xc)   XCENC  =       109.62078203
  PAW double counting   =      3269.71925300    -3275.13259125
  entropy T*S    EENTRO =        -0.00156719
  eigenvalues    EBANDS =      -364.15504826
  atomic energy  EATOM  =      1177.15502788
  Solvation  Ediel_sol  =         0.00000000
  ---------------------------------------------------
  free energy    TOTEN  =       -73.78723040 eV

  energy without entropy =      -73.78566320  energy(sigma->0) =      -73.78644680


--------------------------------------------------------------------------------------------------------




--------------------------------------- Iteration      1(  16)  ---------------------------------------


    POTLOK:  cpu time      0.0122: real time      0.0124
    SETDIJ:  cpu time      0.0012: real time      0.0012
     EDDAV:  cpu time      0.8485: real time      0.8559
       DOS:  cpu time      0.0004: real time      0.0004
    CHARGE:  cpu time      0.0563: real time      0.0590
    MIXING:  cpu time      0.0010: real time      0.0010
    --------------------------------------------
      LOOP:  cpu time      0.9196: real time      0.9300

 eigenvalue-minimisations  :  2256
 total energy-change (2. order) :-0.2999690E-04  (-0.8885519E-07)
 number of electron      31.9999989 magnetization 
 augmentation part        0.7529061 magnetization 

 Broyden mixing:
  rms(total) = 0.39137E-04    rms(broyden)= 0.39130E-04
  rms(prec ) = 0.44983E-04
  weight for this iteration     100.00

 eigenvalues of (default mixing * dielectric matrix)
  average eigenvalue GAMMA=   3.0745
  9.6227  5.8470  3.9160  2.9117  2.5069  2.5069  1.9929  1.0066  0.9920  0.9920
  1.5249

 Free energy of the ion-electron system (eV)
  ---------------------------------------------------
  alpha Z        PSCENC =        16.38458848
  Ewald energy   TEWEN  =      3279.26800504
  -Hartree energ DENC   =     -4286.64086624
  -exchange      EXHF   =         0.00000000
  -V(xc)+E(xc)   XCENC  =       109.62045030
  PAW double counting   =      3270.06307158    -3275.47615780
  entropy T*S    EENTRO =        -0.00156719
  eigenvalues    EBANDS =      -364.15981243
  atomic energy  EATOM  =      1177.15502788
  Solvation  Ediel_sol  =         0.00000000
  ---------------------------------------------------
  free energy    TOTEN  =       -73.78726039 eV

  energy without entropy =      -73.78569320  energy(sigma->0) =      -73.78647680


--------------------------------------------------------------------------------------------------------




--------------------------------------- Iteration      1(  17)  ---------------------------------------


    POTLOK:  cpu time      0.0128: real time      0.0131
    SETDIJ:  cpu time      0.0010: real time      0.0010
     EDDAV:  cpu time      1.0246: real time      1.0337
       DOS:  cpu time      0.0005: real time      0.0005
    CHARGE:  cpu time      0.0555: real time      0.0565
    MIXING:  cpu time      0.0009: real time      0.0009
    --------------------------------------------
      LOOP:  cpu time      1.0953: real time      1.1057

 eigenvalue-minimisations  :  2736
 total energy-change (2. order) :-0.1098910E-05  (-0.4122406E-08)
 number of electron      31.9999989 magnetization 
 augmentation part        0.7529046 magnetization 

 Broyden mixing:
  rms(total) = 0.12958E-04    rms(broyden)= 0.12957E-04
  rms(prec ) = 0.14099E-04
  weight for this iteration     100.00

 eigenvalues of (default mixing * dielectric matrix)
  average eigenvalue GAMMA=   3.0217
  9.6192  5.8938  3.9367  3.0794  1.9879  2.7539  2.4731  2.4731  0.9942  0.9930
  0.9930  1.0632

 Free energy of the ion-electron system (eV)
  ---------------------------------------------------
  alpha Z        PSCENC =        16.38458848
  Ewald energy   TEWEN  =      3279.26800504
  -Hartree energ DENC   =     -4286.65102360
  -exchange      EXHF   =         0.00000000
  -V(xc)+E(xc)   XCENC  =       109.62060992
  PAW double counting   =      3269.97135163    -3275.38449008
  entropy T*S    EENTRO =        -0.00156719
  eigenvalues    EBANDS =      -364.14976358
  atomic energy  EATOM  =      1177.15502788
  Solvation  Ediel_sol  =         0.00000000
  ---------------------------------------------------
  free energy    TOTEN  =       -73.78726149 eV

  energy without entropy =      -73.78569430  energy(sigma->0) =      -73.78647790


--------------------------------------------------------------------------------------------------------




--------------------------------------- Iteration      1(  18)  ---------------------------------------


    POTLOK:  cpu time      0.0132: real time      0.0133
    SETDIJ:  cpu time      0.0011: real time      0.0011
     EDDAV:  cpu time      0.7409: real time      0.7481
       DOS:  cpu time      0.0004: real time      0.0004
    --------------------------------------------
      LOOP:  cpu time      0.7556: real time      0.7629

 eigenvalue-minimisations  :  2016
 total energy-change (2. order) :-0.6432310E-06  (-0.1189502E-08)
 number of electron      31.9999989 magnetization 
 augmentation part        0.7529046 magnetization 

 Free energy of the ion-electron system (eV)
  ---------------------------------------------------
  alpha Z        PSCENC =        16.38458848
  Ewald energy   TEWEN  =      3279.26800504
  -Hartree energ DENC   =     -4286.65066008
  -exchange      EXHF   =         0.00000000
  -V(xc)+E(xc)   XCENC  =       109.62060943
  PAW double counting   =      3269.98191630    -3275.39505737
  entropy T*S    EENTRO =        -0.00156719
  eigenvalues    EBANDS =      -364.15012463
  atomic energy  EATOM  =      1177.15502788
  Solvation  Ediel_sol  =         0.00000000
  ---------------------------------------------------
  free energy    TOTEN  =       -73.78726214 eV

  energy without entropy =      -73.78569494  energy(sigma->0) =      -73.78647854


--------------------------------------------------------------------------------------------------------




 average (electrostatic) potential at core
  the test charge radii are     0.6991
  (the norm of the test charge is              1.0000)
       1 -57.8079       2 -57.8079       3 -57.8079       4 -57.8079       5 -57.8079
       6 -57.8079       7 -57.8079       8 -57.8079
 
 
 
 E-fermi :  -2.3302     XC(G=0):  -2.8572     alpha+bet : -2.4988

 Fermi energy:        -2.3302066520

 k-point     1 :       0.0000    0.0000    0.0000
  band No.  band energies     occupation 
      1     -21.6601      2.00000
      2     -16.5225      2.00000
      3     -16.5225      2.00000
      4     -16.5225      2.00000
      5     -15.4124      2.00000
      6     -15.4124      2.00000
      7     -15.4123      2.00000
      8      -9.7920      2.00000
      9      -8.6738      2.00000
     10      -8.6737      2.00000
     11      -8.6737      2.00000
     12      -5.3683      2.00000
     13      -5.3682      2.00000
     14      -4.6454      2.00000
     15      -4.6454      2.00000
     16      -4.6454      2.00000
     17      -0.6622      0.00000
     18      -0.6622      0.00000
     19      -0.6621      0.00000
     20       0.9965      0.00000
     21       1.8943      0.00000
     22       2.4497      0.00000
     23       4.3127      0.00000
     24       4.8208      0.00000
     25       4.8208      0.00000
     26       4.8208      0.00000
     27       5.0996      0.00000
     28       5.8444      0.00000
     29       5.8445      0.00000
     30       8.2276      0.00000
     31       8.7304      0.00000
     32       8.7304      0.00000
     33       8.7304      0.00000
     34       8.8224      0.00000
     35       8.8835      0.00000
     36       8.8835      0.00000
     37       8.8836      0.00000
     38       9.3397      0.00000
     39       9.5941      0.00000
     40       9.5941      0.00000
     41       9.5941      0.00000
     42       9.6516      0.00000
     43       9.8442      0.00000
     44       9.8442      0.00000
     45       9.8442      0.00000
     46      10.4690      0.00000
     47      10.4690      0.00000
     48      10.4690      0.00000

 k-point     2 :       0.0833   -0.0000    0.0000
  band No.  band energies     occupation 
      1     -21.6197      2.00000
      2     -17.0003      2.00000
      3     -16.6502      2.00000
      4     -16.6502      2.00000
      5     -15.2182      2.00000
      6     -15.2181      2.00000
      7     -14.8743      2.00000
      8      -9.7440      2.00000
      9      -8.7998      2.00000
     10      -8.7997      2.00000
     11      -8.6337      2.00000
     12      -5.5363      2.00000
     13      -5.4553      2.00000
     14      -4.8903      2.00000
     15      -4.6738      2.00000
     16      -4.6737      2.00000
     17      -0.5911      0.00000
     18      -0.5911      0.00000
     19      -0.3548      0.00000
     20       1.0513      0.00000
     21       1.9496      0.00000
     22       2.5056      0.00000
     23       4.3676      0.00000
     24       4.8423      0.00000
     25       5.0107      0.00000
     26       5.0108      0.00000
     27       5.1528      0.00000
     28       5.8694      0.00000
     29       6.0191      0.00000
     30       7.5883      0.00000
     31       8.2214      0.00000
     32       8.2214      0.00000
     33       8.2808      0.00000
     34       8.5092      0.00000
     35       8.6817      0.00000
     36       9.1177      0.00000
     37       9.1177      0.00000
     38       9.2045      0.00000
     39       9.3950      0.00000
     40       9.4818      0.00000
     41       9.4818      0.00000
     42       9.7269      0.00000
     43       9.8735      0.00000
     44       9.8735      0.00000
     45      10.0995      0.00000
     46      10.3549      0.00000
     47      10.3549      0.00000
     48      10.6972      0.00000

 k-point     3 :       0.1667   -0.0000    0.0000
  band No.  band energies     occupation 
      1     -21.4983      2.00000
      2     -17.7386      2.00000
      3     -16.8923      2.00000
      4     -16.8923      2.00000
      5     -14.7792      2.00000
      6     -14.7792      2.00000
      7     -13.9567      2.00000
      8      -9.6000      2.00000
      9      -9.1538      2.00000
     10      -9.1538      2.00000
     11      -8.5147      2.00000
     12      -6.0143      2.00000
     13      -5.6985      2.00000
     14      -5.4674      2.00000
     15      -4.7479      2.00000
     16      -4.7478      2.00000
     17      -0.3970      0.00000
     18      -0.3970      0.00000
     19       0.4058      0.00000
     20       1.2160      0.00000
     21       2.1155      0.00000
     22       2.6732      0.00000
     23       4.5323      0.00000
     24       4.9047      0.00000
     25       5.3118      0.00000
     26       5.5551      0.00000
     27       5.5551      0.00000
     28       5.9139      0.00000
     29       6.4653      0.00000
     30       6.5246      0.00000
     31       7.3881      0.00000
     32       7.7436      0.00000
     33       7.7436      0.00000
     34       8.0371      0.00000
     35       8.2754      0.00000
     36       8.4409      0.00000
     37       8.6118      0.00000
     38       8.6118      0.00000
     39       9.3693      0.00000
     40       9.3693      0.00000
     41       9.5603      0.00000
     42       9.7199      0.00000
     43       9.9668      0.00000
     44      10.2218      0.00000
     45      10.2218      0.00000
     46      10.5667      0.00000
     47      10.6362      0.00000
     48      10.6362      0.00000

 k-point     4 :       0.2500   -0.0000    0.0000
  band No.  band energies     occupation 
      1     -21.2964      2.00000
      2     -18.4543      2.00000
      3     -17.1202      2.00000
      4     -17.1201      2.00000
      5     -14.2330      2.00000
      6     -14.2329      2.00000
      7     -12.9467      2.00000
      8      -9.6747      2.00000
      9      -9.6746      2.00000
     10      -9.3610      2.00000
     11      -8.3189      2.00000
     12      -6.7390      2.00000
     13      -6.1597      2.00000
     14      -6.0545      2.00000
     15      -4.8418      2.00000
     16      -4.8418      2.00000
     17      -0.1297      0.00000
     18      -0.1297      0.00000
     19       1.3949      0.00000
     20       1.4904      0.00000
     21       2.3916      0.00000
     22       2.9525      0.00000
     23       4.8062      0.00000
     24       4.9902      0.00000
     25       5.4572      0.00000
     26       5.5669      0.00000
     27       5.9308      0.00000
     28       6.3608      0.00000
     29       6.3869      0.00000
     30       6.3869      0.00000
     31       6.9790      0.00000
     32       7.3128      0.00000
     33       7.3720      0.00000
     34       7.3720      0.00000
     35       7.6369      0.00000
     36       8.1900      0.00000
     37       8.1900      0.00000
     38       8.7058      0.00000
     39       8.7201      0.00000
     40       8.9803      0.00000
     41       8.9803      0.00000
     42       9.5420      0.00000
     43       9.8337      0.00000
     44      10.2850      0.00000
     45      10.2850      0.00000
     46      10.3898      0.00000
     47      10.9403      0.00000
     48      10.9403      0.00000

 k-point     5 :       0.3333   -0.0000    0.0000
  band No.  band energies     occupation 
      1     -21.0145      2.00000
      2     -19.1114      2.00000
      3     -17.2943      2.00000
      4     -17.2943      2.00000
      5     -13.6414      2.00000
      6     -13.6414      2.00000
      7     -11.8882      2.00000
      8     -10.2823      2.00000
      9     -10.2822      2.00000
     10      -9.0289      2.00000
     11      -8.0515      2.00000
     12      -7.6374      2.00000
     13      -6.8570      2.00000
     14      -6.4726      2.00000
     15      -4.9288      2.00000
     16      -4.9288      2.00000
     17       0.1442      0.00000
     18       0.1442      0.00000
     19       1.8745      0.00000
     20       2.4863      0.00000
     21       2.7772      0.00000
     22       3.3436      0.00000
     23       4.4865      0.00000
     24       5.1739      0.00000
     25       5.1875      0.00000
     26       5.4370      0.00000
     27       5.7638      0.00000
     28       6.0334      0.00000
     29       6.0458      0.00000
     30       6.8124      0.00000
     31       7.0702      0.00000
     32       7.0702      0.00000
     33       7.4652      0.00000
     34       7.4652      0.00000
     35       7.8096      0.00000
     36       7.8642      0.00000
     37       7.8642      0.00000
     38       8.3271      0.00000
     39       8.6184      0.00000
     40       8.7029      0.00000
     41       8.7029      0.00000
     42       9.0752      0.00000
     43       9.9244      0.00000
     44       9.9244      0.00000
     45      10.2138      0.00000
     46      10.9813      0.00000
     47      11.1440      0.00000
     48      11.1440      0.00000

 k-point     6 :       0.4167   -0.0000    0.0000
  band No.  band energies     occupation 
      1     -20.6535      2.00000
      2     -19.6997      2.00000
      3     -17.4018      2.00000
      4     -17.4018      2.00000
      5     -13.0840      2.00000
      6     -13.0840      2.00000
      7     -10.8646      2.00000
      8     -10.8646      2.00000
      9     -10.8029      2.00000
     10      -8.6453      2.00000
     11      -8.6064      2.00000
     12      -7.7195      2.00000
     13      -7.5106      2.00000
     14      -6.9102      2.00000
     15      -4.9888      2.00000
     16      -4.9888      2.00000
     17       0.3509      0.00000
     18       0.3509      0.00000
     19       2.3678      0.00000
     20       3.2705      0.00000
     21       3.6005      0.00000
     22       3.6784      0.00000
     23       3.8460      0.00000
     24       4.6333      0.00000
     25       5.1619      0.00000
     26       5.3624      0.00000
     27       5.6332      0.00000
     28       5.6708      0.00000
     29       5.8920      0.00000
     30       6.4978      0.00000
     31       6.9252      0.00000
     32       6.9252      0.00000
     33       6.9994      0.00000
     34       7.6520      0.00000
     35       7.6520      0.00000
     36       7.8011      0.00000
     37       8.5015      0.00000
     38       8.5015      0.00000
     39       8.6529      0.00000
     40       8.6529      0.00000
     41       9.5122      0.00000
     42       9.5465      0.00000
     43       9.6747      0.00000
     44       9.6747      0.00000
     45      10.7001      0.00000
     46      10.7736      0.00000
     47      10.8249      0.00000
     48      10.8250      0.00000

 k-point     7 :       0.5000   -0.0000    0.0000
  band No.  band energies     occupation 
      1     -20.2146      2.00000
      2     -20.2146      2.00000
      3     -17.4381      2.00000
      4     -17.4381      2.00000
      5     -12.8013      2.00000
      6     -12.8013      2.00000
      7     -11.1581      2.00000
      8     -11.1581      2.00000
      9      -9.7127      2.00000
     10      -9.7127      2.00000
     11      -8.0979      2.00000
     12      -8.0979      2.00000
     13      -7.3335      2.00000
     14      -7.3335      2.00000
     15      -5.0099      2.00000
     16      -5.0099      2.00000
     17       0.4288      0.00000
     18       0.4288      0.00000
     19       2.9696      0.00000
     20       2.9696      0.00000
     21       3.8563      0.00000
     22       3.8563      0.00000
     23       4.4589      0.00000
     24       4.4589      0.00000
     25       4.7819      0.00000
     26       4.7819      0.00000
     27       5.5119      0.00000
     28       5.5119      0.00000
     29       6.2959      0.00000
     30       6.2959      0.00000
     31       6.8724      0.00000
     32       6.8724      0.00000
     33       7.0927      0.00000
     34       7.0927      0.00000
     35       7.5773      0.00000
     36       7.5773      0.00000
     37       8.4723      0.00000
     38       8.4723      0.00000
     39       9.5854      0.00000
     40       9.5854      0.00000
     41       9.6817      0.00000
     42       9.6817      0.00000
     43       9.9799      0.00000
     44       9.9799      0.00000
     45      10.1153      0.00000
     46      10.1153      0.00000
     47      11.0088      0.00000
     48      11.0088      0.00000

 k-point     8 :       0.0833    0.0833    0.0000
  band No.  band energies     occupation 
      1     -21.5387      2.00000
      2     -17.3395      2.00000
      3     -17.3395      2.00000
      4     -16.4176      2.00000
      5     -15.3121      2.00000
      6     -14.4097      2.00000
      7     -14.4097      2.00000
      8      -9.6479      2.00000
      9      -9.1947      2.00000
     10      -8.7197      2.00000
     11      -8.7197      2.00000
     12      -5.8503      2.00000
     13      -5.6292      2.00000
     14      -5.1185      2.00000
     15      -5.1185      2.00000
     16      -4.4983      2.00000
     17      -0.7043      0.00000
     18      -0.0249      0.00000
     19      -0.0249      0.00000
     20       1.1611      0.00000
     21       2.0602      0.00000
     22       2.6173      0.00000
     23       4.4774      0.00000
     24       5.0532      0.00000
     25       5.0532      0.00000
     26       5.2592      0.00000
     27       5.5338      0.00000
     28       5.9312      0.00000
     29       6.3293      0.00000
     30       7.0542      0.00000
     31       7.0542      0.00000
     32       7.9687      0.00000
     33       7.9687      0.00000
     34       8.3871      0.00000
     35       8.4103      0.00000
     36       8.6489      0.00000
     37       8.6489      0.00000
     38       8.8714      0.00000
     39       9.0346      0.00000
     40       9.5055      0.00000
     41       9.5642      0.00000
     42       9.8873      0.00000
     43      10.0108      0.00000
     44      10.2577      0.00000
     45      10.2577      0.00000
     46      10.6299      0.00000
     47      10.6581      0.00000
     48      10.7767      0.00000

 k-point     9 :       0.1667    0.0833    0.0000
  band No.  band energies     occupation 
      1     -21.3771      2.00000
      2     -18.0744      2.00000
      3     -17.6269      2.00000
      4     -16.4385      2.00000
      5     -15.0248      2.00000
      6     -13.8714      2.00000
      7     -13.4394      2.00000
      8      -9.7591      2.00000
      9      -9.4565      2.00000
     10      -9.0321      2.00000
     11      -8.5611      2.00000
     12      -6.4311      2.00000
     13      -5.9497      2.00000
     14      -5.7741      2.00000
     15      -5.3305      2.00000
     16      -4.3834      2.00000
     17      -0.6912      0.00000
     18       0.3560      0.00000
     19       0.8681      0.00000
     20       1.3807      0.00000
     21       2.2812      0.00000
     22       2.8408      0.00000
     23       4.6967      0.00000
     24       5.1312      0.00000
     25       5.4704      0.00000
     26       5.6151      0.00000
     27       5.9850      0.00000
     28       6.0144      0.00000
     29       6.3468      0.00000
     30       6.6274      0.00000
     31       6.8967      0.00000
     32       6.9016      0.00000
     33       7.5184      0.00000
     34       7.5360      0.00000
     35       7.8902      0.00000
     36       8.2035      0.00000
     37       8.5219      0.00000
     38       8.5991      0.00000
     39       9.1901      0.00000
     40       9.2389      0.00000
     41       9.7253      0.00000
     42       9.7516      0.00000
     43       9.8096      0.00000
     44      10.0820      0.00000
     45      10.2016      0.00000
     46      10.2374      0.00000
     47      10.3981      0.00000
     48      10.7218      0.00000

 k-point    10 :       0.2500    0.0833    0.0000
  band No.  band energies     occupation 
      1     -21.1352      2.00000
      2     -18.7622      2.00000
      3     -17.8487      2.00000
      4     -16.5703      2.00000
      5     -14.5120      2.00000
      6     -13.2886      2.00000
      7     -12.4061      2.00000
      8     -10.4199      2.00000
      9      -9.5060      2.00000
     10      -9.1709      2.00000
     11      -8.3274      2.00000
     12      -7.2221      2.00000
     13      -6.4778      2.00000
     14      -6.3583      2.00000
     15      -5.5052      2.00000
     16      -4.3263      2.00000
     17      -0.5850      0.00000
     18       0.7343      0.00000
     19       1.7100      0.00000
     20       1.9131      0.00000
     21       2.6121      0.00000
     22       3.1761      0.00000
     23       4.9567      0.00000
     24       5.0248      0.00000
     25       5.3053      0.00000
     26       5.7646      0.00000
     27       5.9218      0.00000
     28       6.0569      0.00000
     29       6.2517      0.00000
     30       6.5219      0.00000
     31       6.5338      0.00000
     32       7.1611      0.00000
     33       7.1662      0.00000
     34       7.3659      0.00000
     35       7.7162      0.00000
     36       7.8700      0.00000
     37       8.2084      0.00000
     38       8.2865      0.00000
     39       8.7598      0.00000
     40       8.9159      0.00000
     41       9.1076      0.00000
     42       9.4431      0.00000
     43       9.8619      0.00000
     44      10.0526      0.00000
     45      10.3659      0.00000
     46      10.3976      0.00000
     47      10.5418      0.00000
     48      10.7895      0.00000

 k-point    11 :       0.3333    0.0833    0.0000
  band No.  band energies     occupation 
      1     -20.8137      2.00000
      2     -19.3852      2.00000
      3     -17.9988      2.00000
      4     -16.6867      2.00000
      5     -13.9371      2.00000
      6     -12.7054      2.00000
      7     -11.3374      2.00000
      8     -11.0914      2.00000
      9     -10.0489      2.00000
     10      -8.7934      2.00000
     11      -8.1586      2.00000
     12      -8.0239      2.00000
     13      -7.1569      2.00000
     14      -6.8035      2.00000
     15      -5.6286      2.00000
     16      -4.3077      2.00000
     17      -0.4501      0.00000
     18       1.0469      0.00000
     19       2.1488      0.00000
     20       3.0190      0.00000
     21       3.0520      0.00000
     22       3.6229      0.00000
     23       4.1137      0.00000
     24       5.0537      0.00000
     25       5.4128      0.00000
     26       5.4567      0.00000
     27       5.6579      0.00000
     28       5.8822      0.00000
     29       6.0691      0.00000
     30       6.2767      0.00000
     31       6.2989      0.00000
     32       6.9199      0.00000
     33       7.4278      0.00000
     34       7.5238      0.00000
     35       7.6745      0.00000
     36       7.9679      0.00000
     37       8.2372      0.00000
     38       8.4190      0.00000
     39       8.5390      0.00000
     40       8.7272      0.00000
     41       9.1783      0.00000
     42       9.3353      0.00000
     43       9.6417      0.00000
     44      10.1173      0.00000
     45      10.1779      0.00000
     46      10.4868      0.00000
     47      11.0254      0.00000
     48      11.1527      0.00000

 k-point    12 :       0.4167    0.0833    0.0000
  band No.  band energies     occupation 
      1     -20.4138      2.00000
      2     -19.9369      2.00000
      3     -18.0744      2.00000
      4     -16.7500      2.00000
      5     -13.4667      2.00000
      6     -12.2496      2.00000
      7     -11.6128      2.00000
      8     -10.4945      2.00000
      9     -10.2549      2.00000
     10      -9.1843      2.00000
     11      -8.3276      2.00000
     12      -7.7790      2.00000
     13      -7.6593      2.00000
     14      -7.2463      2.00000
     15      -5.6923      2.00000
     16      -4.3049      2.00000
     17      -0.3586      0.00000
     18       1.2266      0.00000
     19       2.6965      0.00000
     20       3.3523      0.00000
     21       3.5965      0.00000
     22       4.0433      0.00000
     23       4.1810      0.00000
     24       4.3823      0.00000
     25       4.8484      0.00000
     26       5.2493      0.00000
     27       5.6056      0.00000
     28       5.7654      0.00000
     29       5.9629      0.00000
     30       6.0251      0.00000
     31       6.6709      0.00000
     32       6.7913      0.00000
     33       6.8234      0.00000
     34       7.4746      0.00000
     35       7.5287      0.00000
     36       7.8701      0.00000
     37       8.2261      0.00000
     38       8.7087      0.00000
     39       9.0367      0.00000
     40       9.5043      0.00000
     41       9.7179      0.00000
     42       9.8536      0.00000
     43       9.8757      0.00000
     44       9.9616      0.00000
     45      10.0051      0.00000
     46      10.1897      0.00000
     47      10.4642      0.00000
     48      10.6769      0.00000

 k-point    13 :       0.1667    0.1667    0.0000
  band No.  band energies     occupation 
      1     -21.1754      2.00000
      2     -18.3400      2.00000
      3     -18.3400      2.00000
      4     -16.1034      2.00000
      5     -15.0290      2.00000
      6     -12.8757      2.00000
      7     -12.8757      2.00000
      8     -10.4655      2.00000
      9      -9.2183      2.00000
     10      -8.8314      2.00000
     11      -8.8314      2.00000
     12      -7.0413      2.00000
     13      -6.3602      2.00000
[...]
     38       8.8450      0.00000
     39       8.8619      0.00000
     40       9.2126      0.00000
     41       9.2784      0.00000
     42       9.4793      0.00000
     43       9.7024      0.00000
     44       9.7024      0.00000
     45       9.9994      0.00000
     46      10.5100      0.00000
     47      10.7512      0.00000
     48      11.1067      0.00000

 k-point    14 :       0.2500    0.1667    0.0000
  band No.  band energies     occupation 
      1     -20.8940      2.00000
      2     -18.9951      2.00000
      3     -18.5317      2.00000
      4     -16.0182      2.00000
      5     -14.6829      2.00000
      6     -12.2940      2.00000
      7     -11.8376      2.00000
      8     -11.1997      2.00000
      9      -9.2539      2.00000
     10      -8.8872      2.00000
     11      -8.5549      2.00000
     12      -7.8207      2.00000
     13      -6.8459      2.00000
     14      -6.7215      2.00000
     15      -6.2097      2.00000
     16      -3.8096      2.00000
     17      -1.0103      0.00000
     18       1.7260      0.00000
     19       2.0394      0.00000
     20       2.3863      0.00000
     21       2.9426      0.00000
     22       3.5115      0.00000
     23       4.6588      0.00000
     24       5.3118      0.00000
     25       5.3521      0.00000
     26       5.5842      0.00000
     27       5.8659      0.00000
     28       6.0831      0.00000
     29       6.2084      0.00000
     30       6.2125      0.00000
     31       6.3945      0.00000
     32       6.5021      0.00000
     33       6.5966      0.00000
     34       6.8791      0.00000
     35       7.9499      0.00000
     36       7.9715      0.00000
     37       8.4588      0.00000
     38       8.5501      0.00000
     39       8.7813      0.00000
     40       8.8258      0.00000
     41       9.1109      0.00000
     42       9.2271      0.00000
     43       9.4306      0.00000
     44      10.2370      0.00000
     45      10.3807      0.00000
     46      10.6864      0.00000
     47      10.8533      0.00000
     48      11.5455      0.00000

 k-point    15 :       0.3333    0.1667    0.0000
  band No.  band energies     occupation 
      1     -20.5336      2.00000
      2     -19.5818      2.00000
      3     -18.6475      2.00000
      4     -16.0448      2.00000
      5     -14.1930      2.00000
      6     -11.8578      2.00000
      7     -11.7636      2.00000
      8     -10.7824      2.00000
      9      -9.7114      2.00000
     10      -8.7349      2.00000
     11      -8.4661      2.00000
     12      -8.2079      2.00000
     13      -7.3738      2.00000
     14      -7.3377      2.00000
     15      -6.3228      2.00000
     16      -3.6566      2.00000
     17      -1.0569      0.00000
     18       2.0087      0.00000
     19       2.5328      0.00000
     20       3.4360      0.00000
     21       3.4708      0.00000
     22       3.8446      0.00000
     23       4.0142      0.00000
     24       4.7726      0.00000
     25       5.1522      0.00000
     26       5.3509      0.00000
     27       5.5702      0.00000
     28       5.8570      0.00000
     29       6.0317      0.00000
     30       6.0369      0.00000
     31       6.2663      0.00000
     32       6.6882      0.00000
     33       6.6927      0.00000
     34       7.1472      0.00000
     35       7.6684      0.00000
     36       7.9661      0.00000
     37       8.3649      0.00000
     38       8.5030      0.00000
     39       8.8219      0.00000
     40       8.9234      0.00000
     41       9.2693      0.00000
     42       9.6121      0.00000
     43       9.6910      0.00000
     44      10.3610      0.00000
     45      10.6153      0.00000
     46      10.6487      0.00000
     47      10.8684      0.00000
     48      10.8778      0.00000

 k-point    16 :       0.4167    0.1667    0.0000
  band No.  band energies     occupation 
      1     -20.0956      2.00000
      2     -20.0956      2.00000
      3     -18.6862      2.00000
      4     -16.0623      2.00000
      5     -13.9232      2.00000
      6     -12.1771      2.00000
      7     -11.5029      2.00000
      8      -9.9518      2.00000
      9      -9.7367      2.00000
     10      -9.7367      2.00000
     11      -7.9592      2.00000
     12      -7.9592      2.00000
     13      -7.7982      2.00000
     14      -7.7982      2.00000
     15      -6.3609      2.00000
     16      -3.6058      2.00000
     17      -1.0673      0.00000
     18       2.1116      0.00000
     19       3.1349      0.00000
     20       3.1349      0.00000
     21       4.0202      0.00000
     22       4.0202      0.00000
     23       4.5841      0.00000
     24       4.5841      0.00000
     25       4.6282      0.00000
     26       4.6282      0.00000
     27       5.0984      0.00000
     28       5.9698      0.00000
     29       6.1806      0.00000
     30       6.1806      0.00000
     31       6.4456      0.00000
     32       6.4456      0.00000
     33       6.6384      0.00000
     34       7.2620      0.00000
     35       7.2620      0.00000
     36       8.3013      0.00000
     37       8.3832      0.00000
     38       8.5010      0.00000
     39       8.8775      0.00000
     40       9.2480      0.00000
     41       9.4425      0.00000
     42       9.8360      0.00000
     43       9.8360      0.00000
     44      10.2464      0.00000
     45      10.2464      0.00000
     46      10.3977      0.00000
     47      10.5430      0.00000
     48      10.5720      0.00000

 k-point    17 :       0.2500    0.2500    0.0000
  band No.  band energies     occupation 
      1     -20.5736      2.00000
      2     -19.1512      2.00000
      3     -19.1512      2.00000
      4     -15.5809      2.00000
      5     -14.6707      2.00000
      6     -11.9337      2.00000
      7     -11.2838      2.00000
      8     -11.2838      2.00000
      9      -8.9185      2.00000
     10      -8.9185      2.00000
     11      -8.5297      2.00000
     12      -8.5124      2.00000
     13      -7.4270      2.00000
     14      -6.8863      2.00000
     15      -6.8863      2.00000
     16      -3.3330      2.00000
     17      -1.3973      0.00000
     18       2.4783      0.00000
     19       2.7615      0.00000
     20       2.7615      0.00000
     21       3.3822      0.00000
     22       3.9586      0.00000
     23       4.4452      0.00000
     24       4.4452      0.00000
     25       5.3513      0.00000
     26       5.3513      0.00000
     27       5.6976      0.00000
     28       5.7874      0.00000
     29       5.9663      0.00000
     30       5.9663      0.00000
     31       6.5001      0.00000
     32       6.7493      0.00000
     33       6.7493      0.00000
     34       6.8090      0.00000
     35       7.7178      0.00000
     36       7.7178      0.00000
     37       8.2295      0.00000
     38       8.5439      0.00000
     39       8.5654      0.00000
     40       8.5654      0.00000
     41       9.5260      0.00000
     42       9.6357      0.00000
     43       9.8761      0.00000
     44      10.2116      0.00000
     45      10.6369      0.00000
     46      10.6369      0.00000
     47      10.8150      0.00000
     48      11.2928      0.00000

 k-point    18 :       0.3333    0.2500    0.0000
  band No.  band energies     occupation 
      1     -20.1751      2.00000
      2     -19.7002      2.00000
      3     -19.2295      2.00000
      4     -15.4074      2.00000
      5     -14.4627      2.00000
      6     -12.4630      2.00000
      7     -10.8649      2.00000
      8     -10.2916      2.00000
      9      -9.3593      2.00000
     10      -9.2551      2.00000
     11      -8.4996      2.00000
     12      -8.0497      2.00000
     13      -7.9977      2.00000
     14      -7.5048      2.00000
     15      -6.9694      2.00000
     16      -2.9922      2.00000
     17      -1.6832      0.00000
     18       2.9744      0.00000
     19       3.0262      0.00000
     20       3.6822      0.00000
     21       3.7894      0.00000
     22       3.9281      0.00000
     23       4.3373      0.00000
     24       4.5173      0.00000
     25       4.5937      0.00000
     26       4.7872      0.00000
     27       5.1872      0.00000
     28       5.2304      0.00000
     29       5.8575      0.00000
     30       6.3288      0.00000
     31       6.8449      0.00000
     32       6.8604      0.00000
     33       6.9740      0.00000
     34       7.2045      0.00000
     35       7.5984      0.00000
     36       7.7084      0.00000
     37       7.8120      0.00000
     38       8.3371      0.00000
     39       8.4745      0.00000
     40       8.7828      0.00000
     41       9.4545      0.00000
     42       9.6494      0.00000
     43       9.8498      0.00000
     44      10.1333      0.00000
     45      10.3500      0.00000
     46      10.7016      0.00000
     47      10.8390      0.00000
     48      11.1546      0.00000

 k-point    19 :       0.3333    0.3333    0.0000
  band No.  band energies     occupation 
      1     -19.7397      2.00000
      2     -19.7397      2.00000
      3     -19.7397      2.00000
      4     -14.8527      2.00000
      5     -14.8526      2.00000
      6     -12.7086      2.00000
      7     -10.0588      2.00000
      8     -10.0587      2.00000
      9     -10.0587      2.00000
     10      -8.6708      2.00000
     11      -8.6708      2.00000
     12      -8.6708      2.00000
     13      -7.5486      2.00000
     14      -7.5486      2.00000
     15      -7.5486      2.00000
     16      -2.3302      1.00028
     17      -2.3302      0.99972
     18       3.6280      0.00000
     19       3.6280      0.00000
     20       3.6280      0.00000
     21       3.9090      0.00000
     22       3.9090      0.00000
     23       3.9090      0.00000
     24       4.5279      0.00000
     25       4.5279      0.00000
     26       4.5279      0.00000
     27       5.1319      0.00000
     28       5.1319      0.00000
     29       5.1319      0.00000
     30       6.9149      0.00000
     31       6.9149      0.00000
     32       6.9149      0.00000
     33       7.4356      0.00000
     34       7.4356      0.00000
     35       7.4356      0.00000
     36       7.8154      0.00000
     37       7.8154      0.00000
     38       7.8154      0.00000
     39       8.2550      0.00000
     40       8.8752      0.00000
     41       8.8753      0.00000
     42       8.8753      0.00000
     43      10.3979      0.00000
     44      10.3979      0.00000
     45      10.6405      0.00000
     46      10.6405      0.00000
     47      10.6405      0.00000
     48      11.0614      0.00000


--------------------------------------------------------------------------------------------------------


 soft charge-density along one line, spin component           1
         0         1         2         3         4         5         6         7         8         9
 total charge-density along one line
 
 pseudopotential strength for first ion, spin component:           1
 10.194  13.556  -0.000  -0.000  -0.000   0.000   0.000   0.000
 13.556  18.025  -0.000  -0.000  -0.000   0.000   0.000   0.000
 -0.000  -0.000  -4.328   0.000   0.000   8.467  -0.000  -0.000
 -0.000  -0.000   0.000  -4.321   0.000  -0.000   8.459  -0.000
 -0.000  -0.000   0.000   0.000  -4.328  -0.000  -0.000   8.467
  0.000   0.000   8.467  -0.000  -0.000 -18.700   0.000   0.000
  0.000   0.000  -0.000   8.459  -0.000   0.000 -18.693   0.000
  0.000   0.000  -0.000  -0.000   8.467   0.000   0.000 -18.700
 total augmentation occupancy for first ion, spin component:           1
  7.966  -3.515  -0.000  -0.000   0.000  -0.000   0.000   0.000
 -3.515   1.608  -0.000  -0.000   0.000   0.000   0.000   0.000
 -0.000  -0.000   1.786  -0.000   0.000   0.163   0.000   0.000
 -0.000  -0.000   0.000   1.186   0.000  -0.000   0.070  -0.000
  0.000  -0.000   0.000   0.000   1.786   0.000   0.000   0.163
 -0.000   0.000   0.163   0.000  -0.000   0.016  -0.000  -0.000
  0.000   0.000   0.000   0.070   0.000  -0.000   0.005  -0.000
  0.000  -0.000   0.000   0.000   0.163   0.000   0.000   0.016


------------------------ aborting loop because EDIFF is reached ----------------------------------------


    CHARGE:  cpu time      0.0548: real time      0.0556
    FORLOC:  cpu time      0.0010: real time      0.0010
    FORNL :  cpu time      0.0668: real time      0.0671
    STRESS:  cpu time      0.4735: real time      0.4749
    FORCOR:  cpu time      0.0117: real time      0.0118
    FORHAR:  cpu time      0.0034: real time      0.0034
    MIXING:  cpu time      0.0007: real time      0.0007
    OFIELD:  cpu time      0.0000: real time      0.0000

 ---------------------------------------------------------------------------------------------

         DFTD3 V3.0 Rev 1        
 IVDW         = 12
 DF pbe       
 parameters
 VDW_S6       =    1.0000
 VDW_S8       =    0.7875
 VDW_A1       =    0.4289
 VDW_A2       =    4.4407
 k1-k3        =   16.0000    1.3333   -4.0000
 VDW_RADIUS   =   50.2022 A
 VDW_CNRADIUS =   21.1671 A
 Edisp (eV)   -0.70625

 E6    (eV) :    -0.4855
 E8    (eV) :    -0.2207
 % E8        : 31.26
    FORVDW:  cpu time      0.0166: real time      0.0166

  FORCE on cell =-STRESS in cart. coord.  units (eV):
  Direction    XX          YY          ZZ          XY          YZ          ZX
  --------------------------------------------------------------------------------------
  Alpha Z    16.38459    16.38459    16.38459
  Ewald    4346.53319  4346.53812 -5413.80479    -0.00000     0.00000     0.00000
  Hartree  4240.70322  4240.70327 -4194.75606     0.00000    -0.00000    -0.00000
  E(xc)    -118.27986  -118.27987  -122.71747    -0.00000    -0.00000     0.00000
  Local   -8934.40739 -8934.40987  9195.84412    -0.00000     0.00000     0.00000
  n-local   -27.80851   -27.55207   -25.55742     0.21602    -0.00000     0.00000
  augment    -3.01779    -3.01773    -2.80493    -0.00000    -0.00000     0.00000
  Kinetic   486.32754   465.54547   547.14326    -9.20378     0.00000    -0.00000
  Fock        0.00000     0.00000     0.00000     0.00000     0.00000     0.00000
  vdW        -0.28823    -0.28823    -0.00583    -0.00000    -0.00000     0.00000
  -------------------------------------------------------------------------------------
  Total      -4.11479    -4.11479    -0.27453     0.00000    -0.00000    -0.00000
  in kB     -20.54584   -20.54584    -1.37077     0.00000    -0.00000    -0.00000
  external pressure =      -14.15 kB  Pullay stress =        0.00 kB


 VOLUME and BASIS-vectors are now :
 -----------------------------------------------------------------------------
  energy-cutoff  :      450.00
  volume of cell :      320.87
      direct lattice vectors                 reciprocal lattice vectors
     4.304146000  2.485000000  0.000000000     0.116167063  0.201207243  0.000000000
    -4.304146000  2.485000000  0.000000000    -0.116167063  0.201207243  0.000000000
     0.000000000  0.000000000 15.000000000     0.000000000  0.000000000  0.066666667

  length of vectors
     4.969999778  4.969999778 15.000000000     0.232334116  0.232334116  0.066666667


 FORCES acting on ions
    electron-ion (+dipol)            ewald-force                    non-local-force                 convergence-correction
 -----------------------------------------------------------------------------------------------
   0.266E-03 0.472E-03 0.121E-06   0.486E-03 0.230E-13 0.701E-15   -.171E-16 0.836E-17 0.864E-21   0.342E-10 -.624E-11 -.202E-09
   -.266E-03 0.472E-03 0.121E-06   -.486E-03 0.240E-13 0.526E-15   -.119E-16 -.480E-17 0.768E-21   -.342E-10 -.625E-11 -.202E-09
   0.266E-03 0.472E-03 0.121E-06   0.486E-03 0.000E+00 0.351E-15   -.162E-16 -.492E-17 -.108E-20   0.342E-10 -.625E-11 -.202E-09
   -.266E-03 0.472E-03 0.121E-06   -.486E-03 0.129E-14 0.175E-15   0.996E-17 0.378E-17 0.347E-21   -.342E-10 -.625E-11 -.202E-09
   0.266E-03 0.472E-03 0.121E-06   0.486E-03 0.000E+00 -.175E-18   -.105E-16 -.268E-17 0.129E-20   0.342E-10 -.624E-11 -.202E-09
   -.266E-03 0.472E-03 0.121E-06   -.486E-03 -.341E-15 -.175E-15   0.191E-16 0.345E-17 0.665E-21   -.342E-10 -.624E-11 -.202E-09
   0.266E-03 0.472E-03 0.121E-06   0.486E-03 -.300E-13 -.350E-15   0.100E-16 0.978E-17 -.115E-20   0.342E-10 -.624E-11 -.202E-09
   -.266E-03 0.472E-03 0.121E-06   -.486E-03 -.273E-13 -.526E-15   0.150E-16 -.672E-17 0.361E-21   -.342E-10 -.624E-11 -.202E-09
 -----------------------------------------------------------------------------------------------
   -.351E-12 0.377E-02 0.971E-06   -.145E-13 -.931E-14 0.702E-15   -.173E-17 0.625E-17 0.207E-20   -.491E-14 -.499E-10 -.162E-08
 
 
 POSITION                                       TOTAL-FORCE (eV/Angst)
 -----------------------------------------------------------------------------------
     -0.71736      1.24250      1.50000        -0.000000      0.000000      0.000000
      0.71736      1.24250      1.50000         0.000000     -0.000000     -0.000000
     -2.86943      2.48500      1.50000         0.000000      0.000000     -0.000000
     -1.43471      2.48500      1.50000        -0.000000     -0.000000     -0.000000
      1.43471      2.48500      1.50000         0.000000      0.000000     -0.000000
      2.86943      2.48500      1.50000        -0.000000     -0.000000     -0.000000
     -0.71736      3.72750      1.50000        -0.000000      0.000000      0.000000
      0.71736      3.72750      1.50000         0.000000     -0.000000      0.000000
 -----------------------------------------------------------------------------------
    total drift:                               -0.000000      0.003774      0.000001


--------------------------------------------------------------------------------------------------------



  FREE ENERGIE OF THE ION-ELECTRON SYSTEM (eV)
  ---------------------------------------------------
  free  energy   TOTEN  =       -74.49350824 eV

  energy  without entropy=      -74.49194105  energy(sigma->0) =      -74.49272464
 


--------------------------------------------------------------------------------------------------------


    POTLOK:  cpu time      0.0173: real time      0.0177


--------------------------------------------------------------------------------------------------------


 stress matrix after NEB project (eV)
     -4.11479      0.00000     -0.00000
      0.00000     -4.11479      0.00000
      0.00000     -0.00000     -0.27453
  FORCES: max atom, RMS     0.000000    0.000000
  FORCE total and by dimension    0.000000    0.000000
  Stress total and by dimension    5.825667    4.114792


--------------------------------------------------------------------------------------------------------


  
 reached required accuracy - stopping structural energy minimisation
     LOOP+:  cpu time     19.5411: real time     19.8095
    4ORBIT:  cpu time      0.0000: real time      0.0000

 total amount of memory used by VASP MPI-rank0    50282. kBytes
=======================================================================

   base      :      30000. kBytes
   nonl-proj :       9418. kBytes
   fftplans  :       1560. kBytes
   grid      :       7121. kBytes
   one-center:         24. kBytes
   wavefun   :       2159. kBytes
 
  
  
 General timing and accounting informations for this job:
 ========================================================
  
                  Total CPU time used (sec):       22.757
                            User time (sec):       20.452
                          System time (sec):        2.305
                         Elapsed time (sec):       25.131
  
                   Maximum memory used (kb):      559928.
                   Average memory used (kb):          N/A
  
                          Minor page faults:        99471
                          Major page faults:         1830
                 Voluntary context switches:         5385
