   8   8   0  16
  0.4338553E+02  0.5169000E-09  0.5169000E-09  0.1500000E-08  0.5000000E-15
  1.000000000000000E-004
  CAR 
 Lattice                                 
      6.56055646    -21.14413388  301     -3.47633874      1.00000000
    -21.144  0.0000E+00  0.0000E+00
    -21.052  0.0000E+00  0.0000E+00
    -20.959  0.0000E+00  0.0000E+00
    -20.867  0.0000E+00  0.0000E+00
    -20.775  0.0000E+00  0.0000E+00
    -20.682  0.0000E+00  0.0000E+00
    -20.590  0.0000E+00  0.0000E+00
    -20.498  0.0000E+00  0.0000E+00
    -20.405  0.1322E-15  0.1221E-16
    -20.313  0.1220E-11  0.1126E-12
    -20.221  0.2206E-08  0.2038E-09
    -20.128  0.8103E-06  0.7504E-07
    -20.036  0.6413E-04  0.5998E-05
    -19.944  0.1208E-02  0.1176E-03
    -19.851  0.6424E-02  0.7108E-03
    -19.759  0.1300E-01  0.1911E-02
    -19.667  0.1590E-01  0.3380E-02
    -19.574  0.1759E-01  0.5004E-02
    -19.482  0.2037E-01  0.6885E-02
    -19.390  0.2649E-01  0.9331E-02
    -19.297  0.3389E-01  0.1246E-01
    -19.205  0.2571E-01  0.1484E-01
    -19.112  0.7782E-02  0.1555E-01
    -19.020  0.7513E-03  0.1562E-01
    -18.928  0.1932E-04  0.1562E-01
    -18.835  0.1152E-06  0.1562E-01
    -18.743  0.1453E-09  0.1562E-01
    -18.651  0.3683E-13  0.1563E-01
    -18.558  0.1614E-17  0.1563E-01
    -18.466  0.0000E+00  0.1563E-01
    -18.374  0.0000E+00  0.1563E-01
    -18.281  0.0000E+00  0.1563E-01
    -18.189  0.5009E-18  0.1563E-01
    -18.097  0.1175E-13  0.1563E-01
    -18.004  0.5370E-10  0.1563E-01
    -17.912  0.4875E-07  0.1563E-01
    -17.820  0.9192E-05  0.1563E-01
    -17.727  0.3879E-03  0.1566E-01
    -17.635  0.4161E-02  0.1605E-01
    -17.543  0.1422E-01  0.1736E-01
    -17.450  0.2289E-01  0.1947E-01
    -17.358  0.2516E-01  0.2180E-01
    -17.265  0.1991E-01  0.2363E-01
    -17.173  0.1510E-01  0.2503E-01
    -17.081  0.1441E-01  0.2636E-01
    -16.988  0.1486E-01  0.2773E-01
    -16.896  0.1552E-01  0.2916E-01
    -16.804  0.1639E-01  0.3068E-01
    -16.711  0.1764E-01  0.3231E-01
    -16.619  0.1968E-01  0.3412E-01
    -16.527  0.2361E-01  0.3631E-01
    -16.434  0.2788E-01  0.3888E-01
    -16.342  0.2556E-01  0.4124E-01
    -16.250  0.1983E-01  0.4307E-01
    -16.157  0.1612E-01  0.4456E-01
    -16.065  0.1333E-01  0.4579E-01
    -15.973  0.8679E-02  0.4659E-01
    -15.880  0.2764E-02  0.4685E-01
    -15.788  0.2881E-03  0.4687E-01
    -15.696  0.7772E-05  0.4687E-01
    -15.603  0.4741E-07  0.4687E-01
    -15.511  0.6043E-10  0.4687E-01
    -15.418  0.1536E-13  0.4688E-01
    -15.326  0.6679E-18  0.4688E-01
    -15.234  0.0000E+00  0.4688E-01
    -15.141  0.0000E+00  0.4688E-01
    -15.049  0.0000E+00  0.4688E-01
    -14.957  0.0000E+00  0.4688E-01
    -14.864  0.0000E+00  0.4688E-01
    -14.772  0.5566E-19  0.4688E-01
    -14.680  0.2547E-14  0.4688E-01
    -14.587  0.1438E-10  0.4688E-01
    -14.495  0.1606E-07  0.4688E-01
    -14.403  0.3700E-05  0.4688E-01
    -14.310  0.1883E-03  0.4689E-01
    -14.218  0.2380E-02  0.4711E-01
    -14.126  0.9149E-02  0.4796E-01
    -14.033  0.1523E-01  0.4936E-01
    -13.941  0.1784E-01  0.5101E-01
    -13.849  0.2058E-01  0.5291E-01
    -13.756  0.2550E-01  0.5527E-01
    -13.664  0.2721E-01  0.5778E-01
    -13.572  0.2007E-01  0.5963E-01
    -13.479  0.1414E-01  0.6094E-01
    -13.387  0.1222E-01  0.6207E-01
    -13.294  0.1142E-01  0.6312E-01
    -13.202  0.1091E-01  0.6413E-01
    -13.110  0.1051E-01  0.6510E-01
    -13.017  0.1017E-01  0.6604E-01
    -12.925  0.9892E-02  0.6695E-01
    -12.833  0.1010E-01  0.6789E-01
    -12.740  0.1195E-01  0.6899E-01
    -12.648  0.1491E-01  0.7037E-01
    -12.556  0.1562E-01  0.7181E-01
    -12.463  0.1477E-01  0.7317E-01
    -12.371  0.1378E-01  0.7444E-01
    -12.279  0.1285E-01  0.7563E-01
    -12.186  0.1208E-01  0.7675E-01
    -12.094  0.1142E-01  0.7780E-01
    -12.002  0.1082E-01  0.7880E-01
    -11.909  0.9754E-02  0.7970E-01
    -11.817  0.7036E-02  0.8035E-01
    -11.725  0.4268E-02  0.8075E-01
    -11.632  0.3531E-02  0.8107E-01
    -11.540  0.3578E-02  0.8140E-01
    -11.447  0.3630E-02  0.8174E-01
    -11.355  0.3841E-02  0.8209E-01
    -11.263  0.4349E-02  0.8249E-01
    -11.170  0.5619E-02  0.8301E-01
    -11.078  0.6457E-02  0.8361E-01
    -10.986  0.6900E-02  0.8425E-01
    -10.893  0.8208E-02  0.8500E-01
    -10.801  0.1041E-01  0.8596E-01
    -10.709  0.1210E-01  0.8708E-01
    -10.616  0.1274E-01  0.8826E-01
    -10.524  0.1373E-01  0.8953E-01
    -10.432  0.1464E-01  0.9088E-01
    -10.339  0.1660E-01  0.9241E-01
    -10.247  0.1827E-01  0.9410E-01
    -10.155  0.1603E-01  0.9558E-01
    -10.062  0.1179E-01  0.9667E-01
     -9.970  0.1018E-01  0.9761E-01
     -9.878  0.1381E-01  0.9889E-01
     -9.785  0.2069E-01  0.1008E+00
     -9.693  0.2115E-01  0.1027E+00
     -9.601  0.1812E-01  0.1044E+00
     -9.508  0.1639E-01  0.1059E+00
     -9.416  0.1497E-01  0.1073E+00
     -9.323  0.1463E-01  0.1087E+00
     -9.231  0.1474E-01  0.1100E+00
     -9.139  0.1583E-01  0.1115E+00
     -9.046  0.1741E-01  0.1131E+00
     -8.954  0.1930E-01  0.1149E+00
     -8.862  0.2050E-01  0.1168E+00
     -8.769  0.1953E-01  0.1186E+00
     -8.677  0.2001E-01  0.1204E+00
     -8.585  0.2301E-01  0.1226E+00
     -8.492  0.2318E-01  0.1247E+00
     -8.400  0.2000E-01  0.1265E+00
     -8.308  0.1720E-01  0.1281E+00
     -8.215  0.1562E-01  0.1296E+00
     -8.123  0.1599E-01  0.1310E+00
     -8.031  0.1977E-01  0.1329E+00
     -7.938  0.2462E-01  0.1351E+00
     -7.846  0.3059E-01  0.1380E+00
     -7.754  0.3430E-01  0.1411E+00
     -7.661  0.3409E-01  0.1443E+00
     -7.569  0.3293E-01  0.1473E+00
     -7.476  0.2567E-01  0.1497E+00
     -7.384  0.1668E-01  0.1512E+00
     -7.292  0.1329E-01  0.1525E+00
     -7.199  0.1634E-01  0.1540E+00
     -7.107  0.1615E-01  0.1555E+00
     -7.015  0.1367E-01  0.1567E+00
     -6.922  0.1268E-01  0.1579E+00
     -6.830  0.1262E-01  0.1591E+00
     -6.738  0.1352E-01  0.1603E+00
     -6.645  0.1748E-01  0.1619E+00
     -6.553  0.2604E-01  0.1643E+00
     -6.461  0.3939E-01  0.1680E+00
     -6.368  0.5888E-01  0.1734E+00
     -6.276  0.6033E-01  0.1790E+00
     -6.184  0.4391E-01  0.1830E+00
     -6.091  0.3110E-01  0.1859E+00
     -5.999  0.2185E-01  0.1879E+00
     -5.907  0.1838E-01  0.1896E+00
     -5.814  0.1829E-01  0.1913E+00
     -5.722  0.1876E-01  0.1930E+00
     -5.630  0.1936E-01  0.1948E+00
     -5.537  0.2006E-01  0.1967E+00
     -5.445  0.2092E-01  0.1986E+00
     -5.352  0.2197E-01  0.2006E+00
     -5.260  0.2334E-01  0.2028E+00
     -5.168  0.2531E-01  0.2051E+00
     -5.075  0.2843E-01  0.2078E+00
     -4.983  0.3205E-01  0.2107E+00
     -4.891  0.3351E-01  0.2138E+00
     -4.798  0.3554E-01  0.2171E+00
     -4.706  0.3754E-01  0.2206E+00
     -4.614  0.3446E-01  0.2237E+00
     -4.521  0.2909E-01  0.2264E+00
     -4.429  0.2010E-01  0.2283E+00
     -4.337  0.1218E-01  0.2294E+00
     -4.244  0.9934E-02  0.2303E+00
     -4.152  0.9478E-02  0.2312E+00
     -4.060  0.9170E-02  0.2321E+00
     -3.967  0.8876E-02  0.2329E+00
     -3.875  0.8273E-02  0.2336E+00
     -3.783  0.5829E-02  0.2342E+00
     -3.690  0.1948E-02  0.2344E+00
     -3.598  0.2100E-03  0.2344E+00
     -3.505  0.5822E-05  0.2344E+00
     -3.413  0.3299E-06  0.2344E+00
     -3.321  0.2830E-04  0.2344E+00
     -3.228  0.6401E-03  0.2344E+00
     -3.136  0.3987E-02  0.2348E+00
     -3.044  0.9057E-02  0.2356E+00
     -2.951  0.1174E-01  0.2367E+00
     -2.859  0.1326E-01  0.2380E+00
     -2.767  0.1539E-01  0.2394E+00
     -2.674  0.1907E-01  0.2411E+00
     -2.582  0.2117E-01  0.2431E+00
     -2.490  0.1734E-01  0.2447E+00
     -2.397  0.1277E-01  0.2459E+00
     -2.305  0.1011E-01  0.2468E+00
     -2.213  0.8338E-02  0.2476E+00
     -2.120  0.6960E-02  0.2482E+00
     -2.028  0.5762E-02  0.2487E+00
     -1.936  0.4329E-02  0.2491E+00
     -1.843  0.2980E-02  0.2494E+00
     -1.751  0.2209E-02  0.2496E+00
     -1.659  0.1680E-02  0.2498E+00
     -1.566  0.1205E-02  0.2499E+00
     -1.474  0.7458E-03  0.2500E+00
     -1.381  0.3753E-03  0.2500E+00
     -1.289  0.3332E-03  0.2500E+00
     -1.197  0.6591E-03  0.2501E+00
     -1.104  0.1114E-02  0.2502E+00
     -1.012  0.1602E-02  0.2503E+00
     -0.920  0.2121E-02  0.2505E+00
     -0.827  0.2656E-02  0.2508E+00
     -0.735  0.3262E-02  0.2511E+00
     -0.643  0.3929E-02  0.2514E+00
     -0.550  0.4672E-02  0.2519E+00
     -0.458  0.5631E-02  0.2524E+00
     -0.366  0.6842E-02  0.2530E+00
     -0.273  0.9637E-02  0.2539E+00
     -0.181  0.1694E-01  0.2555E+00
     -0.089  0.2390E-01  0.2577E+00
      0.004  0.2128E-01  0.2597E+00
      0.096  0.1585E-01  0.2611E+00
      0.188  0.1301E-01  0.2623E+00
      0.281  0.1142E-01  0.2634E+00
      0.373  0.1065E-01  0.2644E+00
      0.466  0.1109E-01  0.2654E+00
      0.558  0.1184E-01  0.2665E+00
      0.650  0.1134E-01  0.2675E+00
      0.743  0.9528E-02  0.2684E+00
      0.835  0.8986E-02  0.2692E+00
      0.927  0.1193E-01  0.2703E+00
      1.020  0.1411E-01  0.2716E+00
      1.112  0.1475E-01  0.2730E+00
      1.204  0.1515E-01  0.2744E+00
      1.297  0.1566E-01  0.2758E+00
      1.389  0.1629E-01  0.2773E+00
      1.481  0.1733E-01  0.2789E+00
      1.574  0.1866E-01  0.2807E+00
      1.666  0.1893E-01  0.2824E+00
      1.758  0.1826E-01  0.2841E+00
      1.851  0.1947E-01  0.2859E+00
      1.943  0.2226E-01  0.2880E+00
      2.035  0.2348E-01  0.2901E+00
      2.128  0.2345E-01  0.2923E+00
      2.220  0.2416E-01  0.2945E+00
      2.313  0.2699E-01  0.2970E+00
      2.405  0.2971E-01  0.2998E+00
      2.497  0.3029E-01  0.3026E+00
      2.590  0.3021E-01  0.3053E+00
      2.682  0.3014E-01  0.3081E+00
      2.774  0.3000E-01  0.3109E+00
      2.867  0.2997E-01  0.3137E+00
      2.959  0.2983E-01  0.3164E+00
      3.051  0.2984E-01  0.3192E+00
      3.144  0.2970E-01  0.3219E+00
      3.236  0.2971E-01  0.3247E+00
      3.328  0.2966E-01  0.3274E+00
      3.421  0.2967E-01  0.3301E+00
      3.513  0.2972E-01  0.3329E+00
      3.605  0.2943E-01  0.3356E+00
      3.698  0.2962E-01  0.3383E+00
      3.790  0.2977E-01  0.3411E+00
      3.882  0.3048E-01  0.3439E+00
      3.975  0.3165E-01  0.3468E+00
      4.067  0.3100E-01  0.3497E+00
      4.159  0.2643E-01  0.3521E+00
      4.252  0.2399E-01  0.3543E+00
      4.344  0.2681E-01  0.3568E+00
      4.437  0.3080E-01  0.3597E+00
      4.529  0.2803E-01  0.3623E+00
      4.621  0.2224E-01  0.3643E+00
      4.714  0.1842E-01  0.3660E+00
      4.806  0.1787E-01  0.3677E+00
      4.898  0.2040E-01  0.3695E+00
      4.991  0.2138E-01  0.3715E+00
      5.083  0.1637E-01  0.3730E+00
      5.175  0.1122E-01  0.3741E+00
      5.268  0.6986E-02  0.3747E+00
      5.360  0.2624E-02  0.3750E+00
      5.452  0.4359E-03  0.3750E+00
      5.545  0.2409E-04  0.3750E+00
      5.637  0.3472E-06  0.3750E+00
      5.729  0.1116E-08  0.3750E+00
      5.822  0.7308E-12  0.3750E+00
      5.914  0.9306E-16  0.3750E+00
      6.006  0.0000E+00  0.3750E+00
      6.099  0.0000E+00  0.3750E+00
      6.191  0.0000E+00  0.3750E+00
      6.284  0.0000E+00  0.3750E+00
      6.376  0.0000E+00  0.3750E+00
      6.468  0.0000E+00  0.3750E+00
      6.561  0.0000E+00  0.3750E+00
