Lattice                                 
           1
     4.243524    2.450000    0.000000
    -4.243524    2.450000    0.000000
     0.000000    0.000000   15.000000
   B    C 
   4  11
Direct configuration=     1
   0.00415361  0.00267210  0.12034134
   0.35695335  0.00285503  0.09748893
   0.00423858  0.35550699  0.09749256
   0.65142295  0.65006557  0.09747688
   0.32808646  0.32671938  0.10030508
   0.68027775  0.00278085  0.10027562
   0.00416530  0.67883808  0.10026559
   0.16666600  0.33333300  0.33720000
   0.33333300  0.16666600  0.33720000
   0.16666600  0.83333300  0.33720000
   0.33333300  0.66666600  0.33720000
   0.66666600  0.33333300  0.33720000
   0.83333300  0.16666600  0.33720000
   0.66666600  0.83333300  0.33720000
   0.83333300  0.66666600  0.33720000
Direct configuration=     2
   0.00418117  0.00273974  0.11864780
   0.35555739  0.00280879  0.09793890
   0.00420090  0.35412260  0.09794164
   0.65279182  0.65140670  0.09793481
   0.32373082  0.32233162  0.10032594
   0.68465244  0.00279997  0.10030803
   0.00420045  0.68323974  0.10030208
   0.16658188  0.33341896  0.33726772
   0.33341922  0.16658451  0.33726882
   0.16682828  0.83340424  0.33727052
   0.33333509  0.66667224  0.33711717
   0.66667137  0.33333157  0.33711715
   0.83340140  0.16682606  0.33727034
   0.66657747  0.83316887  0.33726801
   0.83316430  0.66657839  0.33726708
Direct configuration=     3
   0.00416907  0.00271005  0.11939126
   0.35617022  0.00282909  0.09774137
   0.00421744  0.35473034  0.09774450
   0.65219089  0.65081795  0.09773378
   0.32564294  0.32425783  0.10031678
   0.68273196  0.00279158  0.10029380
   0.00418502  0.68130742  0.10028606
   0.16661881  0.33338122  0.33723799
   0.33338137  0.16662029  0.33723861
   0.16675704  0.83337296  0.33723956
   0.33333417  0.66666950  0.33715353
   0.66666901  0.33333220  0.33715352
   0.83337137  0.16675580  0.33723946
   0.66661633  0.83324092  0.33723815
   0.83323836  0.66661685  0.33723763
Direct configuration=     4
   0.00418312  0.00276257  0.11787861
   0.35671640  0.00279039  0.09816224
   0.00418862  0.35529508  0.09816454
   0.65164648  0.65024799  0.09816256
   0.32589497  0.32448491  0.10029425
   0.68249498  0.00279700  0.10028259
   0.00420419  0.68108036  0.10027821
   0.16670896  0.33328743  0.33730063
   0.33328581  0.16670970  0.33730209
   0.16657237  0.83328683  0.33730424
   0.33332816  0.66666030  0.33710583
   0.66665898  0.33333092  0.33710582
   0.83328646  0.16657492  0.33730393
   0.66670502  0.83341931  0.33730081
   0.83341949  0.66670630  0.33729965
Direct configuration=     5
   0.00422525  0.00292012  0.11334064
   0.35835494  0.00267428  0.09942488
   0.00410217  0.35698928  0.09942466
   0.65001324  0.64853811  0.09944889
   0.32665108  0.32516612  0.10022667
   0.68178404  0.00281326  0.10024896
   0.00426169  0.68039920  0.10025468
   0.16697943  0.33300604  0.33748856
   0.33299914  0.16697796  0.33749254
   0.16601835  0.83302844  0.33749826
   0.33331013  0.66663270  0.33696274
   0.66662890  0.33332708  0.33696270
   0.83303170  0.16603228  0.33749732
   0.66697106  0.83395448  0.33748880
   0.83396289  0.66697465  0.33748572
Direct configuration=     6
   0.00424485  0.00299340  0.11123016
   0.35911697  0.00262028  0.10001209
   0.00406196  0.35777720  0.10001071
   0.64925366  0.64774289  0.10004713
   0.32700272  0.32548293  0.10019524
   0.68145340  0.00282082  0.10023333
   0.00428843  0.68008241  0.10024373
   0.16710522  0.33287518  0.33757596
   0.33286582  0.16710272  0.33758111
   0.16576069  0.83290827  0.33758849
   0.33330174  0.66661986  0.33689619
   0.66661491  0.33332529  0.33689614
   0.83291322  0.16577991  0.33758727
   0.66709478  0.83420337  0.33757622
   0.83421561  0.66709945  0.33757225
Direct configuration=     7
   0.00424601  0.00299845  0.11053864
   0.35924890  0.00261462  0.10015048
   0.00406139  0.35791587  0.10014897
   0.64912924  0.64761141  0.10018752
   0.32708533  0.32556223  0.10024010
   0.68137451  0.00281609  0.10028175
   0.00428649  0.68000777  0.10029311
   0.16692881  0.33302227  0.33759304
   0.33301359  0.16692874  0.33759828
   0.16608101  0.83307014  0.33760568
   0.33330456  0.66663138  0.33691085
   0.66662576  0.33332267  0.33691081
   0.83307086  0.16609571  0.33760438
   0.66694661  0.83388492  0.33759318
   0.83389092  0.66695173  0.33758920
Direct configuration=     8
   0.00424943  0.00301327  0.10851370
   0.35963521  0.00259805  0.10055571
   0.00405971  0.35832195  0.10055383
   0.64876488  0.64722639  0.10059864
   0.32732723  0.32579442  0.10037148
   0.68114350  0.00280222  0.10042354
   0.00428080  0.67978922  0.10043770
   0.16641224  0.33345300  0.33764308
   0.33344631  0.16641926  0.33764856
   0.16701899  0.83354413  0.33765602
   0.33331280  0.66666512  0.33695380
   0.66665755  0.33331499  0.33695377
   0.83353248  0.16702044  0.33765449
   0.66651273  0.83295241  0.33764283
   0.83294014  0.66651914  0.33763883
Direct configuration=     9
   0.00424534  0.00299296  0.10799397
   0.35953255  0.00261349  0.10058420
   0.00407775  0.35821832  0.10058263
   0.64887771  0.64734303  0.10062597
   0.32728808  0.32576523  0.10048249
   0.68118042  0.00279199  0.10053437
   0.00426672  0.67982561  0.10054830
   0.16644821  0.33346422  0.33763914
   0.33345802  0.16645697  0.33764424
   0.16698527  0.83350321  0.33765100
   0.33331522  0.66666469  0.33701827
   0.66665653  0.33331622  0.33701825
   0.83349166  0.16698724  0.33764946
   0.66650010  0.83298339  0.33763866
   0.83297042  0.66650743  0.33763506
Direct configuration=    10
   0.00423307  0.00293204  0.10643479
   0.35922457  0.00265981  0.10066965
   0.00413187  0.35790745  0.10066905
   0.64921619  0.64769296  0.10070794
   0.32717064  0.32567763  0.10081551
   0.68129120  0.00276131  0.10086686
   0.00422451  0.67993481  0.10088011
   0.16655614  0.33349787  0.33762731
   0.33349315  0.16657009  0.33763125
   0.16688408  0.83338045  0.33763593
   0.33332248  0.66666340  0.33721166
   0.66665345  0.33331991  0.33721169
   0.83336922  0.16688762  0.33763436
   0.66646219  0.83307634  0.33762614
   0.83306124  0.66647231  0.33762376
Direct configuration=    11
   0.00420853  0.00281021  0.10331642
   0.35860861  0.00275245  0.10084056
   0.00424010  0.35728570  0.10084188
   0.64989315  0.64839281  0.10087190
   0.32693574  0.32550244  0.10148156
   0.68151275  0.00269996  0.10153184
   0.00414008  0.68015320  0.10154371
   0.16677199  0.33356517  0.33760366
   0.33356341  0.16679634  0.33760527
   0.16668171  0.83313492  0.33760579
   0.33333701  0.66666082  0.33759845
   0.66664730  0.33332730  0.33759856
   0.83312435  0.16668839  0.33760417
   0.66638638  0.83326225  0.33760109
   0.83324290  0.66640205  0.33760115
Direct configuration=    12
   0.00421618  0.00284822  0.10428941
   0.35880080  0.00272354  0.10078723
   0.00420633  0.35747970  0.10078795
   0.64968192  0.64817444  0.10082074
   0.32700904  0.32555710  0.10127374
   0.68144362  0.00271910  0.10132436
   0.00416642  0.68008506  0.10133666
   0.16670464  0.33354417  0.33761104
   0.33354149  0.16672574  0.33761337
   0.16674486  0.83321153  0.33761519
   0.33333248  0.66666162  0.33747776
   0.66664922  0.33332500  0.33747785
   0.83320075  0.16675055  0.33761359
   0.66641003  0.83320424  0.33760891
   0.83318622  0.66642397  0.33760820
Direct configuration=    13
   0.00423009  0.00285178  0.10370659
   0.35899544  0.00276314  0.10085240
   0.00423037  0.35763743  0.10085378
   0.64946766  0.64798900  0.10088046
   0.32734842  0.32591653  0.10135855
   0.68108844  0.00274180  0.10140323
   0.00417598  0.67969550  0.10141372
   0.16659968  0.33319804  0.33761153
   0.33318377  0.16660414  0.33761334
   0.16658877  0.83336364  0.33761448
   0.33328853  0.66664482  0.33755301
   0.66663705  0.33330622  0.33755309
   0.83335221  0.16659850  0.33761301
   0.66675284  0.83336378  0.33760954
   0.83335475  0.66675968  0.33760926
Direct configuration=    14
   0.00423060  0.00285191  0.10368533
   0.35900254  0.00276459  0.10085478
   0.00423125  0.35764318  0.10085618
   0.64945985  0.64798224  0.10088264
   0.32736080  0.32592964  0.10136165
   0.68107549  0.00274262  0.10140611
   0.00417633  0.67968128  0.10141653
   0.16659585  0.33318542  0.33761155
   0.33317072  0.16659970  0.33761334
   0.16658307  0.83336919  0.33761445
   0.33328693  0.66664421  0.33755575
   0.66663660  0.33330553  0.33755584
   0.83335773  0.16659295  0.33761299
   0.66676534  0.83336960  0.33760956
   0.83336090  0.66677192  0.33760929
Direct configuration=    15
   0.00423524  0.00285113  0.10349267
   0.35921270  0.00278341  0.10092190
   0.00423380  0.35782519  0.10092362
   0.64923203  0.64777741  0.10094496
   0.32751579  0.32609131  0.10133702
   0.68091668  0.00277019  0.10137474
   0.00419755  0.67950147  0.10138338
   0.16658076  0.33329018  0.33762184
   0.33328048  0.16659074  0.33762352
   0.16666271  0.83336990  0.33762474
   0.33330318  0.66664231  0.33756691
   0.66662969  0.33331318  0.33756697
   0.83336025  0.16667481  0.33762342
   0.66665486  0.83328588  0.33762030
   0.83327828  0.66666689  0.33762000
Direct configuration=    16
   0.00423746  0.00285076  0.10340072
   0.35931301  0.00279239  0.10095393
   0.00423502  0.35791206  0.10095581
   0.64912328  0.64767964  0.10097470
   0.32758977  0.32616848  0.10132527
   0.68084087  0.00278335  0.10135977
   0.00420768  0.67941564  0.10136755
   0.16657356  0.33334019  0.33762676
   0.33333287  0.16658646  0.33762838
   0.16670073  0.83337024  0.33762965
   0.33331094  0.66664141  0.33757224
   0.66662640  0.33331684  0.33757229
   0.83336145  0.16671388  0.33762840
   0.66660213  0.83324591  0.33762543
   0.83323884  0.66661676  0.33762511
Direct configuration=    17
   0.00422656  0.00282292  0.10324289
   0.35939202  0.00280106  0.10103015
   0.00423036  0.35797530  0.10103224
   0.64904056  0.64761471  0.10104565
   0.32748376  0.32606275  0.10127736
   0.68095593  0.00280336  0.10130350
   0.00422593  0.67952764  0.10130915
   0.16663177  0.33335276  0.33764374
   0.33334133  0.16664277  0.33764537
   0.16668035  0.83330808  0.33764703
   0.33330084  0.66665205  0.33756871
   0.66664205  0.33330982  0.33756874
   0.83329452  0.16668816  0.33764595
   0.66659505  0.83326758  0.33764301
   0.83325298  0.66660503  0.33764252
Direct configuration=    18
   0.00421422  0.00279139  0.10306410
   0.35948151  0.00281089  0.10111648
   0.00422508  0.35804693  0.10111882
   0.64894685  0.64754116  0.10112601
   0.32736369  0.32594299  0.10122309
   0.68108626  0.00282603  0.10123976
   0.00424660  0.67965451  0.10124300
   0.16669771  0.33336699  0.33766299
   0.33335092  0.16670655  0.33766463
   0.16665726  0.83323768  0.33766672
   0.33328939  0.66666410  0.33756471
   0.66665978  0.33330188  0.33756471
   0.83321870  0.16665903  0.33766582
   0.66658703  0.83329213  0.33766293
   0.83326899  0.66659175  0.33766223
Direct configuration=    19
   0.00420199  0.00276124  0.10288175
   0.35942464  0.00281488  0.10116902
   0.00422318  0.35798752  0.10117145
   0.64901170  0.64761224  0.10117388
   0.32726662  0.32584460  0.10119684
   0.68119581  0.00283062  0.10120466
   0.00425121  0.67977024  0.10120571
   0.16653333  0.33326457  0.33768450
   0.33325895  0.16654960  0.33768619
   0.16664058  0.83340869  0.33768866
   0.33331361  0.66662709  0.33756332
   0.66660759  0.33332053  0.33756331
   0.83340404  0.16666052  0.33768792
   0.66666763  0.83329509  0.33768486
   0.83329312  0.66668658  0.33768392
Direct configuration=    20
   0.00420496  0.00276856  0.10292602
   0.35943844  0.00281391  0.10115627
   0.00422364  0.35800195  0.10115868
   0.64899596  0.64759499  0.10116226
   0.32729018  0.32586849  0.10120322
   0.68116922  0.00282950  0.10121318
   0.00425009  0.67974214  0.10121476
   0.16657323  0.33328943  0.33767928
   0.33328128  0.16658771  0.33768095
   0.16664463  0.83336717  0.33768334
   0.33330773  0.66663607  0.33756366
   0.66662026  0.33331600  0.33756365
   0.83335905  0.16666016  0.33768255
   0.66664807  0.83329437  0.33767954
   0.83328726  0.66666356  0.33767866
Direct configuration=    21
   0.00420493  0.00276508  0.10279077
   0.35935452  0.00281569  0.10116262
   0.00422718  0.35792194  0.10116500
   0.64908827  0.64768263  0.10116674
   0.32732552  0.32590386  0.10121109
   0.68113789  0.00282313  0.10121594
   0.00424344  0.67971351  0.10121634
   0.16657378  0.33327993  0.33769481
   0.33326723  0.16658345  0.33769653
   0.16666466  0.83337193  0.33769904
   0.33329411  0.66664058  0.33756975
   0.66662756  0.33330727  0.33756974
   0.83335931  0.16667713  0.33769832
   0.66665768  0.83327783  0.33769516
   0.83326793  0.66667004  0.33769415
Direct configuration=    22
   0.00420486  0.00275552  0.10241926
   0.35912400  0.00282058  0.10118008
   0.00423689  0.35770218  0.10118236
   0.64934186  0.64792340  0.10117903
   0.32742259  0.32600103  0.10123271
   0.68105185  0.00280562  0.10122352
   0.00422518  0.67963487  0.10122068
   0.16657528  0.33325381  0.33773749
   0.33322862  0.16657177  0.33773932
   0.16671969  0.83338498  0.33774218
   0.33325668  0.66665297  0.33758649
   0.66664760  0.33328328  0.33758646
   0.83336003  0.16672375  0.33774166
   0.66668408  0.83323240  0.33773807
   0.83321481  0.66668783  0.33773670
Direct configuration=    23
   0.00420835  0.00276117  0.10233939
   0.35911225  0.00282200  0.10118199
   0.00423910  0.35769022  0.10118425
   0.64935587  0.64793524  0.10118026
   0.32744319  0.32602203  0.10123757
   0.68103084  0.00280431  0.10122604
   0.00422341  0.67961215  0.10122268
   0.16658478  0.33327320  0.33774611
   0.33325203  0.16658691  0.33774795
   0.16669668  0.83336577  0.33775082
   0.33326873  0.66664810  0.33759335
   0.66663938  0.33329059  0.33759332
   0.83334443  0.16670396  0.33775033
   0.66666175  0.83324921  0.33774668
   0.83323321  0.66666913  0.33774526
Direct configuration=    24
   0.00421883  0.00277810  0.10209979
   0.35907701  0.00282627  0.10118773
   0.00424575  0.35765432  0.10118992
   0.64939790  0.64797078  0.10118397
   0.32750500  0.32608506  0.10125214
   0.68096783  0.00280036  0.10123360
   0.00421808  0.67954400  0.10122867
   0.16661325  0.33333135  0.33777200
   0.33332223  0.16663233  0.33777384
   0.16662768  0.83330815  0.33777674
   0.33330487  0.66663348  0.33761393
   0.66661474  0.33331253  0.33761389
   0.83329765  0.16664460  0.33777635
   0.66659475  0.83329962  0.33777249
   0.83328841  0.66661304  0.33777096
Direct configuration=    25
   0.00422071  0.00278113  0.10205693
   0.35907070  0.00282703  0.10118875
   0.00424693  0.35764791  0.10119093
   0.64940542  0.64797713  0.10118464
   0.32751606  0.32609633  0.10125475
   0.68095656  0.00279965  0.10123495
   0.00421713  0.67953181  0.10122974
   0.16661835  0.33334176  0.33777663
   0.33333479  0.16664046  0.33777847
   0.16661533  0.83329784  0.33778138
   0.33331134  0.66663087  0.33761761
   0.66661033  0.33331646  0.33761757
   0.83328929  0.16663398  0.33778100
   0.66658277  0.83330864  0.33777711
   0.83329829  0.66660301  0.33777555
Direct configuration=    26
   0.00422801  0.00279525  0.10194198
   0.35911882  0.00282792  0.10119206
   0.00424872  0.35769330  0.10119421
   0.64935723  0.64792731  0.10118781
   0.32751660  0.32609692  0.10125737
   0.68095397  0.00280179  0.10123569
   0.00421918  0.67952460  0.10123007
   0.16661745  0.33333696  0.33778827
   0.33332882  0.16663982  0.33779009
   0.16661465  0.83329553  0.33779288
   0.33330896  0.66663293  0.33763368
   0.66661359  0.33331502  0.33763363
   0.83328586  0.16663252  0.33779253
   0.66658771  0.83330703  0.33778863
   0.83329443  0.66660711  0.33778709
Direct configuration=    27
   0.00424992  0.00283763  0.10159714
   0.35926319  0.00283061  0.10120198
   0.00425407  0.35782950  0.10120405
   0.64921266  0.64777782  0.10119731
   0.32751822  0.32609867  0.10126526
   0.68094622  0.00280822  0.10123789
   0.00422535  0.67950297  0.10123108
   0.16661474  0.33332257  0.33782322
   0.33331090  0.16663790  0.33782496
   0.16661262  0.83328859  0.33782738
   0.33330181  0.66663911  0.33768188
   0.66662335  0.33331070  0.33768183
   0.83327558  0.16662813  0.33782710
   0.66660252  0.83330219  0.33782321
   0.83328285  0.66661940  0.33782170
Direct configuration=    28
   0.00429373  0.00292238  0.10090745
   0.35955191  0.00283598  0.10122183
   0.00426477  0.35810189  0.10122372
   0.64892352  0.64747886  0.10121633
   0.32752146  0.32610216  0.10128104
   0.68093070  0.00282107  0.10124230
   0.00423767  0.67945970  0.10123309
   0.16660934  0.33329378  0.33789312
   0.33327508  0.16663407  0.33789470
   0.16660854  0.83327472  0.33789637
   0.33328752  0.66665147  0.33777828
   0.66664288  0.33330207  0.33777823
   0.83325503  0.16661935  0.33789625
   0.66663215  0.83329251  0.33789237
   0.83325970  0.66664398  0.33789092
Direct configuration=    29
   0.00427724  0.00289047  0.10116710
   0.35944321  0.00283396  0.10121436
   0.00426074  0.35799934  0.10121631
   0.64903238  0.64759141  0.10120917
   0.32752024  0.32610085  0.10127510
   0.68093654  0.00281623  0.10124064
   0.00423303  0.67947599  0.10123234
   0.16661137  0.33330462  0.33786680
   0.33328857  0.16663551  0.33786845
   0.16661007  0.83327995  0.33787040
   0.33329290  0.66664681  0.33774199
   0.66663553  0.33330532  0.33774193
   0.83326277  0.16662266  0.33787022
   0.66662099  0.83329615  0.33786634
   0.83326842  0.66663473  0.33786486
Direct configuration=    30
   0.00426131  0.00285979  0.10092693
   0.35946081  0.00281931  0.10123698
   0.00425349  0.35803503  0.10123890
   0.64902929  0.64758349  0.10123335
   0.32740795  0.32597887  0.10125130
   0.68107411  0.00281201  0.10121748
   0.00423837  0.67963451  0.10120938
   0.16656529  0.33328343  0.33789353
   0.33326434  0.16657867  0.33789510
   0.16665923  0.83335448  0.33789674
   0.33327288  0.66662797  0.33778284
   0.66660845  0.33329254  0.33778281
   0.83333494  0.16667732  0.33789651
   0.66662213  0.83325594  0.33789275
   0.83324140  0.66664066  0.33789141
Direct configuration=    31
   0.00425505  0.00284773  0.10083252
   0.35946772  0.00281355  0.10124587
   0.00425064  0.35804905  0.10124778
   0.64902808  0.64758038  0.10124286
   0.32736381  0.32593093  0.10124194
   0.68112818  0.00281034  0.10120837
   0.00424047  0.67969681  0.10120036
   0.16654718  0.33327511  0.33790403
   0.33325482  0.16655632  0.33790557
   0.16667855  0.83338378  0.33790709
   0.33326501  0.66662057  0.33779890
   0.66659781  0.33328751  0.33779888
   0.83336331  0.16669880  0.33790684
   0.66662258  0.83324013  0.33790314
   0.83323078  0.66664299  0.33790184
Direct configuration=    32
   0.00423825  0.00281392  0.10069153
   0.35941566  0.00280432  0.10127090
   0.00424497  0.35800835  0.10127286
   0.64908956  0.64764302  0.10127041
   0.32733786  0.32589821  0.10120235
   0.68117634  0.00281070  0.10117381
   0.00424775  0.67976140  0.10116703
   0.16659668  0.33329879  0.33792374
   0.33328081  0.16661556  0.33792525
   0.16662320  0.83330781  0.33792668
   0.33327675  0.66662811  0.33782543
   0.66660774  0.33329439  0.33782543
   0.83328882  0.16664185  0.33792633
   0.66660478  0.83328315  0.33792272
   0.83326483  0.66662443  0.33792155
Direct configuration=    33
   0.00423506  0.00280749  0.10066474
   0.35940576  0.00280256  0.10127566
   0.00424389  0.35800061  0.10127763
   0.64910125  0.64765492  0.10127564
   0.32733293  0.32589199  0.10119482
   0.68118549  0.00281076  0.10116724
   0.00424913  0.67977367  0.10116069
   0.16660609  0.33330329  0.33792749
   0.33328575  0.16662682  0.33792899
   0.16661268  0.83329338  0.33793040
   0.33327898  0.66662954  0.33783047
   0.66660963  0.33329570  0.33783047
   0.83327467  0.16663103  0.33793003
   0.66660139  0.83329133  0.33792644
   0.83327131  0.66662090  0.33792529
Direct configuration=    34
   0.00423702  0.00280774  0.10057076
   0.35936222  0.00280754  0.10129332
   0.00424638  0.35794892  0.10129535
   0.64914239  0.64770309  0.10129602
   0.32739944  0.32595923  0.10115439
   0.68112177  0.00282069  0.10113400
   0.00425888  0.67970475  0.10112916
   0.16659103  0.33329736  0.33794536
   0.33327837  0.16661399  0.33794689
   0.16661962  0.83329848  0.33794835
   0.33327964  0.66663435  0.33784848
   0.66661715  0.33329632  0.33784850
   0.83327836  0.16663668  0.33794788
   0.66660844  0.83327823  0.33794431
   0.83325330  0.66662663  0.33794325
Direct configuration=    35
   0.00423815  0.00280788  0.10051630
   0.35933698  0.00281042  0.10130355
   0.00424782  0.35791897  0.10130561
   0.64916624  0.64773101  0.10130782
   0.32743799  0.32599819  0.10113097
   0.68108484  0.00282645  0.10111473
   0.00426453  0.67966480  0.10111089
   0.16658230  0.33329393  0.33795572
   0.33327410  0.16660656  0.33795726
   0.16662364  0.83330144  0.33795875
   0.33328001  0.66663713  0.33785892
   0.66662151  0.33329668  0.33785895
   0.83328050  0.16663995  0.33795822
   0.66661252  0.83327065  0.33795467
   0.83324286  0.66662995  0.33795365
Direct configuration=    36
   0.00424825  0.00282359  0.10049147
   0.35934739  0.00282033  0.10129463
   0.00425481  0.35791940  0.10129671
   0.64915390  0.64772147  0.10129974
   0.32743495  0.32599950  0.10112476
   0.68107949  0.00283068  0.10111239
   0.00426481  0.67964747  0.10110947
   0.16657130  0.33328730  0.33796431
   0.33326808  0.16658768  0.33796590
   0.16663610  0.83333892  0.33796752
   0.33326817  0.66661633  0.33786319
   0.66659044  0.33328881  0.33786321
   0.83331918  0.16665928  0.33796697
   0.66660184  0.83326773  0.33796338
   0.83325530  0.66662551  0.33796235
Direct configuration=    37
   0.00424971  0.00282585  0.10048790
   0.35934889  0.00282176  0.10129334
   0.00425581  0.35791946  0.10129543
   0.64915212  0.64772010  0.10129858
   0.32743452  0.32599969  0.10112386
   0.68107872  0.00283129  0.10111206
   0.00426485  0.67964497  0.10110926
   0.16656972  0.33328634  0.33796555
   0.33326721  0.16658496  0.33796714
   0.16663790  0.83334432  0.33796879
   0.33326646  0.66661334  0.33786380
   0.66658596  0.33328768  0.33786382
   0.83332475  0.16666206  0.33796823
   0.66660030  0.83326732  0.33796463
   0.83325709  0.66662487  0.33796360
Direct configuration=    38
   0.00425375  0.00283121  0.10047369
   0.35935630  0.00282670  0.10128585
   0.00425955  0.35792284  0.10128795
   0.64914525  0.64771412  0.10129154
   0.32742985  0.32599703  0.10112054
   0.68108060  0.00283237  0.10111117
   0.00426413  0.67964207  0.10110895
   0.16657248  0.33328476  0.33797127
   0.33326471  0.16658659  0.33797289
   0.16663877  0.83334308  0.33797464
   0.33326299  0.66661294  0.33786680
   0.66658548  0.33328546  0.33786681
   0.83332262  0.16666271  0.33797406
   0.66660077  0.83326703  0.33797044
   0.83325676  0.66662508  0.33796941
Direct configuration=    39
   0.00426587  0.00284732  0.10043106
   0.35937852  0.00284150  0.10126336
   0.00427077  0.35793298  0.10126551
   0.64912465  0.64769617  0.10127043
   0.32741584  0.32598907  0.10111058
   0.68108623  0.00283560  0.10110851
   0.00426195  0.67963338  0.10110800
   0.16658076  0.33328001  0.33798842
   0.33325719  0.16659147  0.33799015
   0.16664138  0.83333938  0.33799219
   0.33325259  0.66661176  0.33787577
   0.66658404  0.33327882  0.33787577
   0.83331625  0.16666468  0.33799155
   0.66660217  0.83326616  0.33798787
   0.83325580  0.66662570  0.33798682
Direct configuration=    40
   0.00429011  0.00287952  0.10034582
   0.35942297  0.00287111  0.10121838
   0.00429320  0.35795325  0.10122063
   0.64908345  0.64766026  0.10122821
   0.32738782  0.32597315  0.10109065
   0.68109749  0.00284207  0.10110318
   0.00425759  0.67961599  0.10110612
   0.16659731  0.33327051  0.33802274
   0.33324217  0.16660123  0.33802465
   0.16664660  0.83333199  0.33802729
   0.33323178  0.66660940  0.33789373
   0.66658116  0.33326554  0.33789370
   0.83330350  0.16666861  0.33802653
   0.66660499  0.83326443  0.33802272
   0.83325387  0.66662693  0.33802164
Direct configuration=    41
   0.00428083  0.00286719  0.10037846
   0.35940595  0.00285977  0.10123561
   0.00428461  0.35794549  0.10123782
   0.64909923  0.64767401  0.10124438
   0.32739855  0.32597925  0.10109828
   0.68109317  0.00283959  0.10110522
   0.00425926  0.67962265  0.10110684
   0.16659097  0.33327415  0.33800960
   0.33324792  0.16659750  0.33801144
   0.16664460  0.83333482  0.33801385
   0.33323975  0.66661031  0.33788685
   0.66658227  0.33327063  0.33788683
   0.83330838  0.16666711  0.33801314
   0.66660391  0.83326509  0.33800937
   0.83325461  0.66662646  0.33800830
Direct configuration=    42
   0.00427653  0.00285651  0.10035951
   0.35940696  0.00285943  0.10122621
   0.00428517  0.35794981  0.10122845
   0.64910385  0.64767737  0.10123543
   0.32740007  0.32597974  0.10109042
   0.68109888  0.00283713  0.10110021
   0.00425788  0.67963320  0.10110250
   0.16658361  0.33328038  0.33801790
   0.33325599  0.16659801  0.33801976
   0.16663248  0.83332132  0.33802228
   0.33325269  0.66661714  0.33789365
   0.66659203  0.33327887  0.33789363
   0.83329648  0.16665434  0.33802153
   0.66660246  0.83326608  0.33801779
   0.83324893  0.66662467  0.33801673
Direct configuration=    43
   0.00426576  0.00282975  0.10031206
   0.35940949  0.00285859  0.10120270
   0.00428659  0.35796064  0.10120499
   0.64911544  0.64768578  0.10121301
   0.32740387  0.32598095  0.10107072
   0.68111315  0.00283096  0.10108767
   0.00425442  0.67965963  0.10109162
   0.16656517  0.33329600  0.33803867
   0.33327618  0.16659930  0.33804059
   0.16660214  0.83328752  0.33804338
   0.33328508  0.66663426  0.33791068
   0.66661647  0.33329951  0.33791066
   0.83326670  0.16662238  0.33804255
   0.66659884  0.83326853  0.33803888
   0.83323470  0.66662021  0.33803782
Direct configuration=    44
   0.00425650  0.00281099  0.10029282
   0.35940107  0.00285233  0.10119532
   0.00428280  0.35796045  0.10119762
   0.64913139  0.64769914  0.10120570
   0.32741526  0.32598802  0.10105651
   0.68111573  0.00282868  0.10107521
   0.00425610  0.67967364  0.10107958
   0.16656274  0.33329120  0.33804798
   0.33327025  0.16659425  0.33804985
   0.16660706  0.83329615  0.33805273
   0.33327873  0.66662964  0.33792264
   0.66660986  0.33329542  0.33792262
   0.83327438  0.16662847  0.33805187
   0.66659815  0.83326509  0.33804828
   0.83323398  0.66662054  0.33804727
Direct configuration=    45
   0.00422869  0.00275471  0.10023511
   0.35937578  0.00283354  0.10117320
   0.00427141  0.35795987  0.10117550
   0.64917924  0.64773925  0.10118376
   0.32744944  0.32600924  0.10101388
   0.68112347  0.00282185  0.10103785
   0.00426114  0.67971565  0.10104343
   0.16655544  0.33327681  0.33807589
   0.33325248  0.16657909  0.33807763
   0.16662184  0.83332206  0.33808077
   0.33325969  0.66661579  0.33795851
   0.66659005  0.33328315  0.33795851
   0.83329744  0.16664671  0.33807985
   0.66659607  0.83325474  0.33807648
   0.83323181  0.66662154  0.33807562
Direct configuration=    46
   0.00421639  0.00272980  0.10020957
   0.35936459  0.00282522  0.10116341
   0.00426637  0.35795962  0.10116570
   0.64920042  0.64775700  0.10117405
   0.32746457  0.32601864  0.10099501
   0.68112689  0.00281882  0.10102130
   0.00426338  0.67973425  0.10102743
   0.16655221  0.33327044  0.33808825
   0.33324461  0.16657238  0.33808993
   0.16662838  0.83333353  0.33809318
   0.33325127  0.66660966  0.33797438
   0.66658128  0.33327772  0.33797440
   0.83330764  0.16665478  0.33809224
   0.66659515  0.83325016  0.33808897
   0.83323085  0.66662199  0.33808817
Direct configuration=    47
   0.00421970  0.00273600  0.10019213
   0.35936255  0.00282515  0.10115680
   0.00426608  0.35795525  0.10115907
   0.64920282  0.64775968  0.10116731
   0.32746760  0.32602070  0.10098056
   0.68112546  0.00282345  0.10100751
   0.00426865  0.67973021  0.10101379
   0.16655656  0.33327048  0.33809734
   0.33324398  0.16657644  0.33809898
   0.16662567  0.83332822  0.33810224
   0.33324803  0.66660876  0.33798674
   0.66657993  0.33327549  0.33798676
   0.83330149  0.16665207  0.33810131
   0.66659320  0.83325202  0.33809811
   0.83323229  0.66662008  0.33809735
Direct configuration=    48
   0.00422964  0.00275462  0.10013983
   0.35935641  0.00282494  0.10113697
   0.00426521  0.35794217  0.10113918
   0.64921000  0.64776772  0.10114709
   0.32747670  0.32602687  0.10093720
   0.68112116  0.00283734  0.10096611
   0.00428446  0.67971809  0.10097288
   0.16656959  0.33327059  0.33812463
   0.33324209  0.16658862  0.33812615
   0.16661754  0.83331231  0.33812944
   0.33323834  0.66660606  0.33802379
   0.66657589  0.33326881  0.33802383
   0.83328302  0.16664391  0.33812851
   0.66658735  0.83325760  0.33812553
   0.83323660  0.66661436  0.33812487
Direct configuration=    49
   0.00424951  0.00279184  0.10003521
   0.35934415  0.00282453  0.10109731
   0.00426347  0.35791600  0.10109939
   0.64922438  0.64778380  0.10110664
   0.32749488  0.32603922  0.10085049
   0.68111256  0.00286511  0.10088332
   0.00431608  0.67969385  0.10089105
   0.16659565  0.33327081  0.33817920
   0.33323831  0.16661297  0.33818048
   0.16660128  0.83328048  0.33818382
   0.33321894  0.66660065  0.33809791
   0.66656780  0.33325546  0.33809797
   0.83324609  0.16662761  0.33818293
   0.66657565  0.83326875  0.33818038
   0.83324523  0.66660291  0.33817991
Direct configuration=    50
   0.00426334  0.00281672  0.10000262
   0.35934983  0.00283006  0.10108146
   0.00426808  0.35791246  0.10108350
   0.64921756  0.64777813  0.10109042
   0.32748809  0.32603349  0.10082691
   0.68111489  0.00287352  0.10085942
   0.00432328  0.67968383  0.10086710
   0.16657456  0.33327152  0.33819740
   0.33324046  0.16659864  0.33819866
   0.16659628  0.83328381  0.33820195
   0.33322949  0.66660231  0.33811934
   0.66657013  0.33326230  0.33811939