Lattice                                 
           1
     4.252185    2.455000    0.000000
    -4.252185    2.455000    0.000000
     0.000000    0.000000   15.000000
   B    C 
     4    11
Direct configuration=     1
   0.00415361  0.00267210  0.12034134
   0.35695335  0.00285503  0.09748893
   0.00423858  0.35550699  0.09749256
   0.65142295  0.65006557  0.09747688
   0.32808646  0.32671938  0.10030508
   0.68027775  0.00278085  0.10027562
   0.00416530  0.67883808  0.10026559
   0.16666600  0.33333300  0.33720000
   0.33333300  0.16666600  0.33720000
   0.16666600  0.83333300  0.33720000
   0.33333300  0.66666600  0.33720000
   0.66666600  0.33333300  0.33720000
   0.83333300  0.16666600  0.33720000
   0.66666600  0.83333300  0.33720000
   0.83333300  0.66666600  0.33720000
Direct configuration=     2
   0.00418055  0.00273783  0.11859321
   0.35550091  0.00280979  0.09795379
   0.00420192  0.35406586  0.09795651
   0.65284861  0.65146415  0.09794977
   0.32356125  0.32216272  0.10032622
   0.68482183  0.00279957  0.10030847
   0.00420002  0.68340924  0.10030259
   0.16657983  0.33341819  0.33726894
   0.33341842  0.16658245  0.33727005
   0.16682956  0.83340632  0.33727175
   0.33333512  0.66667224  0.33711785
   0.66667137  0.33333161  0.33711783
   0.83340346  0.16682738  0.33727156
   0.66657814  0.83316758  0.33726920
   0.83316302  0.66657908  0.33726828
Direct configuration=     3
   0.00416894  0.00270952  0.11934618
   0.35612651  0.00282928  0.09775357
   0.00421771  0.35468660  0.09775668
   0.65223454  0.65086175  0.09774608
   0.32551038  0.32412539  0.10031711
   0.68286457  0.00279151  0.10029432
   0.00418506  0.68144031  0.10028665
   0.16661695  0.33338150  0.33723925
   0.33338163  0.16661844  0.33723988
   0.16675911  0.83337474  0.33724084
   0.33333421  0.66666955  0.33715323
   0.66666906  0.33333221  0.33715322
   0.83337311  0.16675787  0.33724073
   0.66661598  0.83323883  0.33723940
   0.83323624  0.66661652  0.33723887
Direct configuration=     4
   0.00418251  0.00276069  0.11780367
   0.35666020  0.00279167  0.09818228
   0.00418965  0.35523824  0.09818455
   0.65170250  0.65030496  0.09818264
   0.32578571  0.32437639  0.10029389
   0.68260447  0.00279698  0.10028243
   0.00420409  0.68118950  0.10027812
   0.16670868  0.33328743  0.33730236
   0.33328579  0.16670942  0.33730382
   0.16657271  0.83328714  0.33730594
   0.33332802  0.66666025  0.33710843
   0.66665887  0.33333083  0.33710841
   0.83328673  0.16657528  0.33730561
   0.66670493  0.83341897  0.33730250
   0.83341915  0.66670624  0.33730135
Direct configuration=     5
   0.00422320  0.00291419  0.11317615
   0.35826125  0.00267887  0.09946842
   0.00410548  0.35689317  0.09946818
   0.65010640  0.64863461  0.09949233
   0.32661168  0.32512939  0.10022420
   0.68182417  0.00281340  0.10024677
   0.00426118  0.68043708  0.10025253
   0.16698388  0.33300523  0.33749170
   0.33299826  0.16698235  0.33749565
   0.16601350  0.83302435  0.33750123
   0.33330947  0.66663235  0.33697401
   0.66662829  0.33332668  0.33697397
   0.83302758  0.16602753  0.33750025
   0.66697175  0.83395938  0.33749180
   0.83396790  0.66697542  0.33748880
Direct configuration=     6
   0.00424329  0.00298997  0.11089162
   0.35905167  0.00262318  0.10010336
   0.00406393  0.35771018  0.10010188
   0.64931843  0.64780998  0.10013890
   0.32701945  0.32550113  0.10018980
   0.68143895  0.00282151  0.10022916
   0.00428937  0.68006562  0.10023990
   0.16711974  0.33286591  0.33758518
   0.33285631  0.16711709  0.33759035
   0.16573743  0.83289461  0.33759765
   0.33330031  0.66661857  0.33690765
   0.66661320  0.33332464  0.33690761
   0.83289964  0.16575712  0.33759634
   0.66710348  0.83422618  0.33758525
   0.83423881  0.66710831  0.33758134
Direct configuration=     7
   0.00424449  0.00299489  0.11017048
   0.35919134  0.00261768  0.10024555
   0.00406353  0.35785666  0.10024396
   0.64918658  0.64767101  0.10028308
   0.32709752  0.32557584  0.10023832
   0.68136444  0.00281678  0.10028124
   0.00428737  0.67999539  0.10029293
   0.16693346  0.33302007  0.33760264
   0.33301117  0.16693344  0.33760789
   0.16607415  0.83306541  0.33761518
   0.33330358  0.66663081  0.33692487
   0.66662484  0.33332212  0.33692483
   0.83306599  0.16608908  0.33761379
   0.66694824  0.83389131  0.33760257
   0.83389730  0.66695352  0.33759867
Direct configuration=     8
   0.00424788  0.00300887  0.10811841
   0.35958881  0.00260202  0.10065017
   0.00406239  0.35827348  0.10064824
   0.64881137  0.64727554  0.10069336
   0.32731968  0.32578843  0.10037637
   0.68115242  0.00280333  0.10042942
   0.00428169  0.67979556  0.10044382
   0.16640338  0.33345875  0.33765233
   0.33345186  0.16641083  0.33765779
   0.16703235  0.83355144  0.33766507
   0.33331288  0.66666562  0.33697388
   0.66665796  0.33331494  0.33697385
   0.83353935  0.16703373  0.33766345
   0.66650649  0.83293842  0.33765186
   0.83292548  0.66651306  0.33764798
Direct configuration=     9
   0.00424402  0.00298881  0.10758008
   0.35950132  0.00261738  0.10067672
   0.00408044  0.35818516  0.10067513
   0.64890940  0.64737708  0.10071863
   0.32725775  0.32573621  0.10049385
   0.68121183  0.00279314  0.10054656
   0.00426750  0.67985468  0.10056068
   0.16644058  0.33346907  0.33764832
   0.33346268  0.16644975  0.33765338
   0.16699642  0.83350939  0.33765994
   0.33331526  0.66666503  0.33704130
   0.66665671  0.33331616  0.33704129
   0.83349746  0.16699843  0.33765832
   0.66649461  0.83297153  0.33764763
   0.83295800  0.66650218  0.33764416
Direct configuration=    10
   0.00423243  0.00292863  0.10596510
   0.35923887  0.00266345  0.10075634
   0.00413456  0.35792020  0.10075578
   0.64920351  0.64768169  0.10079445
   0.32707195  0.32557955  0.10084630
   0.68139006  0.00276256  0.10089799
   0.00422495  0.68003203  0.10091128
   0.16655220  0.33350003  0.33763630
   0.33349513  0.16656653  0.33764014
   0.16688866  0.83338327  0.33764455
   0.33332238  0.66666329  0.33724357
   0.66665296  0.33331981  0.33724360
   0.83337176  0.16689254  0.33764292
   0.66645899  0.83307089  0.33763494
   0.83305558  0.66646954  0.33763273
Direct configuration=    11
   0.00420927  0.00280826  0.10273515
   0.35871395  0.00275560  0.10091558
   0.00424281  0.35739027  0.10091710
   0.64979171  0.64829091  0.10094610
   0.32670034  0.32526622  0.10155120
   0.68174653  0.00270141  0.10160084
   0.00413984  0.68038675  0.10161246
   0.16677542  0.33356195  0.33761226
   0.33356004  0.16680008  0.33761366
   0.16667313  0.83313101  0.33761377
   0.33333663  0.66665980  0.33764811
   0.66664546  0.33332713  0.33764822
   0.83312038  0.16668075  0.33761213
   0.66638774  0.83326960  0.33760956
   0.83325075  0.66640427  0.33760986
Direct configuration=    12
   0.00421792  0.00285321  0.10394126
   0.35890996  0.00272119  0.10085612
   0.00420239  0.35758815  0.10085686
   0.64957207  0.64806342  0.10088947
   0.32683910  0.32538322  0.10128798
   0.68161342  0.00272424  0.10133838
   0.00417162  0.68025429  0.10135063
   0.16669207  0.33353883  0.33762124
   0.33353580  0.16671287  0.33762355
   0.16675361  0.83322521  0.33762527
   0.33333131  0.66666110  0.33749705
   0.66664826  0.33332440  0.33749713
   0.83321425  0.16675984  0.33762363
   0.66641435  0.83319540  0.33761904
   0.83317787  0.66642864  0.33761840
Direct configuration=    13
   0.00423031  0.00285553  0.10338960
   0.35907396  0.00275906  0.10091491
   0.00422565  0.35771699  0.10091629
   0.64938921  0.64790803  0.10094285
   0.32720303  0.32576682  0.10136963
   0.68123633  0.00274481  0.10141394
   0.00417955  0.67984407  0.10142435
   0.16660560  0.33320530  0.33762284
   0.33319101  0.16661050  0.33762465
   0.16658788  0.83335658  0.33762576
   0.33328911  0.66664503  0.33756774
   0.66663699  0.33330656  0.33756782
   0.83334487  0.16659761  0.33762426
   0.66674553  0.83336449  0.33762082
   0.83335499  0.66675262  0.33762056
Direct configuration=    14
   0.00423094  0.00285564  0.10336175
   0.35908224  0.00276097  0.10091787
   0.00422683  0.35772349  0.10091929
   0.64937997  0.64790018  0.10094554
   0.32722140  0.32578619  0.10137375
   0.68121728  0.00274585  0.10141775
   0.00417995  0.67982335  0.10142807
   0.16660123  0.33318846  0.33762292
   0.33317360  0.16660534  0.33762471
   0.16657951  0.83336322  0.33762579
   0.33328698  0.66664422  0.33757131
   0.66663642  0.33330566  0.33757139
   0.83335147  0.16658942  0.33762429
   0.66676225  0.83337303  0.33762091
   0.83336393  0.66676898  0.33762067
Direct configuration=    15
   0.00423461  0.00285329  0.10318964
   0.35924050  0.00277931  0.10098031
   0.00423019  0.35785527  0.10098202
   0.64920532  0.64774749  0.10100331
   0.32740215  0.32597420  0.10134726
   0.68103365  0.00277060  0.10138458
   0.00419879  0.67961991  0.10139313
   0.16658236  0.33329516  0.33763399
   0.33328544  0.16659288  0.33763568
   0.16666457  0.83336703  0.33763691
   0.33330369  0.66664290  0.33757946
   0.66663012  0.33331343  0.33757952
   0.83335717  0.16667671  0.33763558
   0.66664990  0.83328366  0.33763245
   0.83327553  0.66666216  0.33763215
Direct configuration=    16
   0.00423606  0.00285237  0.10312195
   0.35930275  0.00278652  0.10100487
   0.00423152  0.35790710  0.10100669
   0.64913662  0.64768743  0.10102603
   0.32747324  0.32604815  0.10133683
   0.68096142  0.00278034  0.10137153
   0.00420620  0.67953989  0.10137939
   0.16657493  0.33333713  0.33763834
   0.33332943  0.16658798  0.33764000
   0.16669803  0.83336853  0.33764129
   0.33331027  0.66664238  0.33758267
   0.66662764  0.33331649  0.33758272
   0.83335941  0.16671104  0.33764002
   0.66660571  0.83324850  0.33763699
   0.83324076  0.66662015  0.33763667
Direct configuration=    17
   0.00422691  0.00282732  0.10299041
   0.35934953  0.00279593  0.10107284
   0.00422879  0.35793858  0.10107486
   0.64908590  0.64765384  0.10108904
   0.32739907  0.32597551  0.10128934
   0.68104250  0.00279838  0.10131613
   0.00422253  0.67961720  0.10132197
   0.16662445  0.33334921  0.33765511
   0.33333785  0.16663567  0.33765678
   0.16668246  0.83331589  0.33765846
   0.33330132  0.66665132  0.33757775
   0.66664090  0.33331038  0.33757779
   0.83330250  0.16669085  0.33765735
   0.66659806  0.83326540  0.33765434
   0.83325122  0.66660852  0.33765383
Direct configuration=    18
   0.00421421  0.00279253  0.10280767
   0.35941452  0.00280900  0.10116726
   0.00422500  0.35798230  0.10116956
   0.64901544  0.64760719  0.10117658
   0.32729603  0.32587458  0.10122336
   0.68115515  0.00282344  0.10123916
   0.00424521  0.67972459  0.10124219
   0.16669325  0.33336600  0.33767841
   0.33334954  0.16670191  0.33768010
   0.16666082  0.83324276  0.33768231
   0.33328889  0.66666375  0.33757093
   0.66665933  0.33330190  0.33757094
   0.83322343  0.16666280  0.33768143
   0.66658744  0.83328888  0.33767844
   0.83326575  0.66659236  0.33767766
Direct configuration=    19
   0.00420338  0.00276348  0.10263490
   0.35937480  0.00281502  0.10121433
   0.00422455  0.35793797  0.10121675
   0.64906183  0.64766148  0.10121887
   0.32720012  0.32577859  0.10119660
   0.68126146  0.00282931  0.10120328
   0.00425064  0.67983533  0.10120406
   0.16653186  0.33326484  0.33770063
   0.33325955  0.16654879  0.33770235
   0.16663973  0.83340977  0.33770494
   0.33331412  0.66662651  0.33757195
   0.66660621  0.33332083  0.33757194
   0.83340533  0.16666031  0.33770423
   0.66666673  0.83329535  0.33770109
   0.83329370  0.66668643  0.33770008
Direct configuration=    20
   0.00420640  0.00277158  0.10268310
   0.35938588  0.00281334  0.10120120
   0.00422468  0.35795034  0.10120359
   0.64904888  0.64764634  0.10120707
   0.32722688  0.32580537  0.10120407
   0.68123180  0.00282767  0.10121329
   0.00424912  0.67980444  0.10121470
   0.16657688  0.33329306  0.33769443
   0.33328466  0.16659151  0.33769615
   0.16664561  0.83336317  0.33769863
   0.33330708  0.66663690  0.33757166
   0.66662103  0.33331554  0.33757166
   0.83335458  0.16666101  0.33769787
   0.66664461  0.83329354  0.33769477
   0.83328590  0.66666019  0.33769382
Direct configuration=    21
   0.00420634  0.00276765  0.10255876
   0.35933504  0.00281549  0.10120005
   0.00422830  0.35790269  0.10120241
   0.64910749  0.64770100  0.10120419
   0.32724184  0.32582050  0.10121474
   0.68122050  0.00282218  0.10121916
   0.00424319  0.67979565  0.10121945
   0.16657489  0.33328078  0.33770901
   0.33326790  0.16658489  0.33771074
   0.16666390  0.83337037  0.33771328
   0.33329429  0.66664101  0.33758193
   0.66662790  0.33330755  0.33758192
   0.83335747  0.16667638  0.33771259
   0.66665702  0.83327831  0.33770940
   0.83326792  0.66666952  0.33770836
Direct configuration=    22
   0.00420616  0.00275584  0.10218573
   0.35918254  0.00282194  0.10119659
   0.00423917  0.35775976  0.10119887
   0.64928331  0.64786501  0.10119556
   0.32728674  0.32586590  0.10124677
   0.68118661  0.00280572  0.10123676
   0.00422541  0.67976930  0.10123372
   0.16656889  0.33324393  0.33775276
   0.33321762  0.16656505  0.33775453
   0.16671878  0.83339195  0.33775726
   0.33325591  0.66665335  0.33761274
   0.66664849  0.33328359  0.33761271
   0.83336613  0.16672251  0.33775673
   0.66669425  0.83323263  0.33775328
   0.83321397  0.66669752  0.33775198
Direct configuration=    23
   0.00420866  0.00275966  0.10212162
   0.35917765  0.00282320  0.10119570
   0.00424097  0.35775467  0.10119797
   0.64929022  0.64787030  0.10119412
   0.32730037  0.32587984  0.10125109
   0.68117302  0.00280476  0.10123915
   0.00422401  0.67975437  0.10123568
   0.16657681  0.33326071  0.33776013
   0.33323769  0.16657754  0.33776189
   0.16670118  0.83337615  0.33776461
   0.33326540  0.66664937  0.33762002
   0.66664166  0.33328920  0.33761999
   0.83335328  0.16670763  0.33776411
   0.66667489  0.83324540  0.33776062
   0.83322819  0.66668121  0.33775929
Direct configuration=    24
   0.00421615  0.00277113  0.10192929
   0.35916301  0.00282700  0.10119304
   0.00424639  0.35773941  0.10119525
   0.64931094  0.64788617  0.10118981
   0.32734127  0.32592164  0.10126405
   0.68113223  0.00280188  0.10124631
   0.00421983  0.67970956  0.10124155
   0.16660055  0.33331104  0.33778224
   0.33329790  0.16661500  0.33778399
   0.16664836  0.83332872  0.33778667
   0.33329385  0.66663743  0.33764187
   0.66662117  0.33330605  0.33764182
   0.83331473  0.16666298  0.33778624
   0.66661679  0.83328373  0.33778264
   0.83327085  0.66663227  0.33778124
Direct configuration=    25
   0.00423114  0.00279406  0.10154462
   0.35913372  0.00283459  0.10118772
   0.00425722  0.35770888  0.10118982
   0.64935239  0.64791790  0.10118118
   0.32742305  0.32600525  0.10128997
   0.68105066  0.00279612  0.10126063
   0.00421145  0.67961995  0.10125328
   0.16664803  0.33341172  0.33782646
   0.33341831  0.16668992  0.33782817
   0.16654272  0.83323388  0.33783079
   0.33335074  0.66661355  0.33768555
   0.66658018  0.33333973  0.33768549
   0.83323763  0.16657368  0.33783051
   0.66650059  0.83336039  0.33782668
   0.83335616  0.66653438  0.33782513
Direct configuration=    26
   0.00422105  0.00277863  0.10180354
   0.35915343  0.00282948  0.10119130
   0.00424993  0.35772943  0.10119348
   0.64932449  0.64789654  0.10118699
   0.32736800  0.32594898  0.10127252
   0.68110557  0.00280000  0.10125099
   0.00421709  0.67968027  0.10124538
   0.16661607  0.33334396  0.33779669
   0.33333726  0.16663949  0.33779843
   0.16661382  0.83329772  0.33780109
   0.33331245  0.66662962  0.33765615
   0.66660777  0.33331706  0.33765610
   0.83328952  0.16663378  0.33780072
   0.66657880  0.83330879  0.33779704
   0.83329874  0.66660027  0.33779559
Direct configuration=    27
   0.00422770  0.00279153  0.10168864
   0.35918533  0.00283053  0.10119345
   0.00425165  0.35775870  0.10119560
   0.64929317  0.64786360  0.10118893
   0.32737904  0.32595995  0.10127229
   0.68109343  0.00280207  0.10124871
   0.00421898  0.67966345  0.10124266
   0.16661763  0.33334209  0.33781005
   0.33333426  0.16664141  0.33781176
   0.16661276  0.83329260  0.33781428
   0.33331010  0.66663154  0.33767337
   0.66661072  0.33331558  0.33767332
   0.83328325  0.16663196  0.33781394
   0.66658076  0.83330752  0.33781022
   0.83329521  0.66660148  0.33780878
Direct configuration=    28
   0.00424763  0.00283025  0.10134395
   0.35928103  0.00283369  0.10119990
   0.00425680  0.35784651  0.10120196
   0.64919920  0.64776478  0.10119475
   0.32741214  0.32599287  0.10127157
   0.68105702  0.00280829  0.10124185
   0.00422464  0.67961299  0.10123449
   0.16662231  0.33333647  0.33785013
   0.33332526  0.16664716  0.33785176
   0.16660957  0.83327725  0.33785386
   0.33330307  0.66663729  0.33772506
   0.66661958  0.33331113  0.33772500
   0.83326445  0.16662647  0.33785359
   0.66658666  0.83330371  0.33784978
   0.83328464  0.66660514  0.33784835
Direct configuration=    29
   0.00428749  0.00290768  0.10065457
   0.35947243  0.00284000  0.10121279
   0.00426711  0.35802214  0.10121468
   0.64901126  0.64756713  0.10120640
   0.32747834  0.32605871  0.10127014
   0.68098419  0.00282072  0.10122814
   0.00423598  0.67951208  0.10121815
   0.16663166  0.33332525  0.33793028
   0.33330727  0.16665866  0.33793174
   0.16660319  0.83324656  0.33793302
   0.33328900  0.66664878  0.33782842
   0.66663730  0.33330223  0.33782836
   0.83322683  0.16661551  0.33793291
   0.66659846  0.83329609  0.33792888
   0.83326348  0.66661245  0.33792750
Direct configuration=    30
   0.00426856  0.00287090  0.10098200
   0.35938152  0.00283700  0.10120667
   0.00426222  0.35793872  0.10120864
   0.64910052  0.64766101  0.10120087
   0.32744689  0.32602743  0.10127082
   0.68101878  0.00281482  0.10123466
   0.00423060  0.67956001  0.10122591
   0.16662722  0.33333058  0.33789221
   0.33331582  0.16665320  0.33789375
   0.16660622  0.83326114  0.33789542
   0.33329568  0.66664332  0.33777933
   0.66662888  0.33330646  0.33777926
   0.83324470  0.16662072  0.33789523
   0.66659286  0.83329971  0.33789131
   0.83327353  0.66660898  0.33788991
Direct configuration=    31
   0.00426398  0.00286177  0.10076215
   0.35940449  0.00282804  0.10122502
   0.00425829  0.35797073  0.10122696
   0.64908625  0.64764287  0.10122028
   0.32737400  0.32594790  0.10124447
   0.68110626  0.00281481  0.10120799
   0.00423698  0.67965792  0.10119921
   0.16657648  0.33328453  0.33792067
   0.33326415  0.16659251  0.33792216
   0.16664915  0.83333404  0.33792357
   0.33327409  0.66663510  0.33781630
   0.66661851  0.33329361  0.33781625
   0.83331310  0.16666502  0.33792336
   0.66662620  0.83326254  0.33791946
   0.83324206  0.66664262  0.33791814
Direct configuration=    32
   0.00426060  0.00285502  0.10059938
   0.35942150  0.00282140  0.10123860
   0.00425538  0.35799442  0.10124053
   0.64907568  0.64762944  0.10123466
   0.32732003  0.32588901  0.10122495
   0.68117103  0.00281481  0.10118824
   0.00424171  0.67973041  0.10117945
   0.16653891  0.33325043  0.33794174
   0.33322590  0.16654758  0.33794320
   0.16668093  0.83338801  0.33794441
   0.33325811  0.66662901  0.33784367
   0.66661083  0.33328410  0.33784363
   0.83336374  0.16669782  0.33794419
   0.66665088  0.83323503  0.33794031
   0.83321877  0.66666752  0.33793904
Direct configuration=    33
   0.00424785  0.00282888  0.10044371
   0.35939746  0.00281117  0.10126253
   0.00424985  0.35798208  0.10126449
   0.64910896  0.64766175  0.10126078
   0.32726092  0.32582259  0.10118234
   0.68124995  0.00281462  0.10114953
   0.00424912  0.67982559  0.10114169
   0.16656774  0.33328394  0.33796602
   0.33326499  0.16658538  0.33796747
   0.16663729  0.83334174  0.33796863
   0.33327316  0.66662222  0.33787130
   0.66659893  0.33329264  0.33787127
   0.83332228  0.16665878  0.33796835
   0.66661236  0.83326822  0.33796454
   0.83325314  0.66663438  0.33796336
Direct configuration=    34
   0.00424341  0.00281978  0.10038949
   0.35938909  0.00280761  0.10127086
   0.00424792  0.35797778  0.10127284
   0.64912055  0.64767301  0.10126987
   0.32724033  0.32579947  0.10116750
   0.68127743  0.00281455  0.10113604
   0.00425170  0.67985874  0.10112853
   0.16657778  0.33329561  0.33797448
   0.33327861  0.16659855  0.33797592
   0.16662209  0.83332563  0.33797706
   0.33327840  0.66661986  0.33788092
   0.66659478  0.33329561  0.33788090
   0.83330785  0.16664518  0.33797676
   0.66659895  0.83327978  0.33797298
   0.83326511  0.66662284  0.33797184
Direct configuration=    35
   0.00424391  0.00281858  0.10032885
   0.35937148  0.00280991  0.10128176
   0.00424938  0.35795626  0.10128378
   0.64913745  0.64769397  0.10128272
   0.32728348  0.32584278  0.10113638
   0.68123745  0.00282024  0.10111022
   0.00425794  0.67981639  0.10110398
   0.16659504  0.33329916  0.33798851
   0.33327845  0.16661634  0.33798998
   0.16662336  0.83329770  0.33799125
   0.33327315  0.66663199  0.33789224
   0.66661319  0.33329227  0.33789224
   0.83327577  0.16664121  0.33799088
   0.66660286  0.83327528  0.33798716
   0.83325109  0.66662191  0.33798605
Direct configuration=    36
   0.00424423  0.00281782  0.10029024
   0.35936027  0.00281138  0.10128870
   0.00425031  0.35794256  0.10129075
   0.64914821  0.64770732  0.10129090
   0.32731095  0.32587035  0.10111656
   0.68121199  0.00282387  0.10109377
   0.00426191  0.67978942  0.10108834
   0.16660603  0.33330143  0.33799744
   0.33327834  0.16662767  0.33799893
   0.16662416  0.83327992  0.33800028
   0.33326981  0.66663972  0.33789946
   0.66662491  0.33329014  0.33789946
   0.83325535  0.16663867  0.33799987
   0.66660536  0.83327242  0.33799619
   0.83324216  0.66662131  0.33799510
Direct configuration=    37
   0.00424984  0.00282496  0.10024762
   0.35934476  0.00281918  0.10128857
   0.00425561  0.35791800  0.10129066
   0.64916181  0.64772607  0.10129276
   0.32735157  0.32591390  0.10109044
   0.68116893  0.00283045  0.10107433
   0.00426646  0.67973763  0.10107047
   0.16656125  0.33328612  0.33801149
   0.33326661  0.16658337  0.33801304
   0.16663028  0.83333263  0.33801459
   0.33327446  0.66662264  0.33790899
   0.66659930  0.33329333  0.33790900
   0.83331244  0.16665271  0.33801411
   0.66660577  0.83326412  0.33801049
   0.83324489  0.66662888  0.33800942
Direct configuration=    38
   0.00424880  0.00282363  0.10025559
   0.35934766  0.00281772  0.10128860
   0.00425462  0.35792259  0.10129068
   0.64915927  0.64772256  0.10129241
   0.32734397  0.32590576  0.10109533
   0.68117698  0.00282922  0.10107797
   0.00426561  0.67974731  0.10107381
   0.16656963  0.33328899  0.33800886
   0.33326880  0.16659165  0.33801040
   0.16662914  0.83332278  0.33801192
   0.33327360  0.66662583  0.33790721
   0.66660409  0.33329273  0.33790722
   0.83330176  0.16665008  0.33801145
   0.66660569  0.83326568  0.33800782
   0.83324438  0.66662747  0.33800675
