<?xml version="1.0" encoding="ISO-8859-1"?>
<modeling>
 <generator>
  <i name="program" type="string">vasp </i>
  <i name="version" type="string">6.3.2  </i>
  <i name="subversion" type="string">27Jun22 (build Dec 22 2022 13:13:19) complex                          parallel </i>
  <i name="platform" type="string">LinuxIFC </i>
  <i name="date" type="string">2023 08 23 </i>
  <i name="time" type="string">17:30:12 </i>
 </generator>
 <incar>
  <i type="string" name="SYSTEM">Lattice</i>
  <i type="int" name="ISTART">     0</i>
  <i type="string" name="PREC">Accurate</i>
  <i type="string" name="ALGO">Normal</i>
  <i type="int" name="ISPIN">     2</i>
  <i type="int" name="ICHARG">     2</i>
  <i type="int" name="NELM">    64</i>
  <i type="int" name="IBRION">     2</i>
  <i name="EDIFF">      0.00000001</i>
  <i name="EDIFFG">     -0.00100000</i>
  <i type="int" name="NSW">   128</i>
  <i type="int" name="ISIF">     2</i>
  <i name="ENCUT">    450.00000000</i>
  <i name="POTIM">      0.50000000</i>
  <i type="int" name="ISMEAR">     0</i>
  <i name="SIGMA">      0.10000000</i>
  <i type="logical" name="LWAVE"> F  </i>
  <i type="logical" name="LCHARG"> F  </i>
  <i type="string" name="GGA">PE</i>
  <i type="int" name="IVDW">    12</i>
 </incar>
 <primitive_cell>
  <structure name="primitive_cell" >
   <crystal>
    <varray name="basis" >
     <v>       4.31020843       2.48850000       0.00000000 </v>
     <v>      -4.31020843       2.48850000       0.00000000 </v>
     <v>       0.00000000       0.00000000      15.00000000 </v>
    </varray>
    <i name="volume">    321.77861069 </i>
    <varray name="rec_basis" >
     <v>       0.11600367       0.20092425       0.00000000 </v>
     <v>      -0.11600367       0.20092425       0.00000000 </v>
     <v>       0.00000000       0.00000000       0.06666667 </v>
    </varray>
   </crystal>
   <varray name="positions" >
    <v>       0.66888689       1.00000000       0.10000000 </v>
    <v>       0.33111211       1.00000000       0.10000000 </v>
    <v>       1.00000000       0.33111211       0.10000000 </v>
    <v>       1.00000000       0.66888689       0.10000000 </v>
    <v>       0.33111211       0.33111211       0.10000000 </v>
    <v>       0.66888689       0.66888689       0.10000000 </v>
    <v>       0.66666600       0.33333300       0.09922189 </v>
    <v>       0.33333300       0.66666600       0.10077811 </v>
    <v>       0.24999933       0.24999967       0.46906667 </v>
    <v>       0.41666633       0.08333267       0.46906667 </v>
    <v>       0.24999933       0.74999967       0.46906667 </v>
    <v>       0.41666633       0.58333267       0.46906667 </v>
    <v>       0.74999933       0.24999967       0.46906667 </v>
    <v>       0.91666633       0.08333267       0.46906667 </v>
    <v>       0.74999933       0.74999967       0.46906667 </v>
    <v>       0.91666633       0.58333267       0.46906667 </v>
   </varray>
  </structure>
  <varray name="primitive_index" >
   <v type="int" >        1 </v>
   <v type="int" >        2 </v>
   <v type="int" >        3 </v>
   <v type="int" >        4 </v>
   <v type="int" >        5 </v>
   <v type="int" >        6 </v>
   <v type="int" >        7 </v>
   <v type="int" >        8 </v>
   <v type="int" >        9 </v>
   <v type="int" >       10 </v>
   <v type="int" >       11 </v>
   <v type="int" >       12 </v>
   <v type="int" >       13 </v>
   <v type="int" >       14 </v>
   <v type="int" >       15 </v>
   <v type="int" >       16 </v>
  </varray>
 </primitive_cell>
 <kpoints>
  <generation param="Gamma">
   <v type="int" name="divisions">      12       12        1 </v>
   <v name="usershift">      0.00000000       0.00000000       0.00000000 </v>
   <v name="genvec1">      0.08333333      -0.00000000       0.00000000 </v>
   <v name="genvec2">     -0.00000000       0.08333333       0.00000000 </v>
   <v name="genvec3">      0.00000000       0.00000000       1.00000000 </v>
   <v name="shift">      0.00000000       0.00000000       0.00000000 </v>
  </generation>
  <varray name="kpointlist" >
   <v>       0.00000000       0.00000000       0.00000000 </v>
   <v>       0.08333333       0.00000000       0.00000000 </v>
   <v>      -0.08333333       0.08333333       0.00000000 </v>
   <v>       0.16666667       0.00000000       0.00000000 </v>
   <v>      -0.16666667       0.16666667       0.00000000 </v>
   <v>       0.25000000       0.00000000       0.00000000 </v>
   <v>      -0.25000000       0.25000000       0.00000000 </v>
   <v>       0.33333333       0.00000000       0.00000000 </v>
   <v>      -0.33333333       0.33333333       0.00000000 </v>
   <v>       0.41666667       0.00000000       0.00000000 </v>
   <v>      -0.41666667       0.41666667       0.00000000 </v>
   <v>       0.50000000       0.00000000       0.00000000 </v>
   <v>       0.50000000       0.50000000       0.00000000 </v>
   <v>       0.08333333       0.08333333       0.00000000 </v>
   <v>      -0.08333333       0.16666667       0.00000000 </v>
   <v>       0.16666667       0.08333333       0.00000000 </v>
   <v>      -0.08333333       0.25000000       0.00000000 </v>
   <v>      -0.25000000       0.16666667       0.00000000 </v>
   <v>       0.25000000       0.08333333       0.00000000 </v>
   <v>      -0.08333333       0.33333333       0.00000000 </v>
   <v>      -0.33333333       0.25000000       0.00000000 </v>
   <v>       0.33333333       0.08333333       0.00000000 </v>
   <v>      -0.08333333       0.41666667       0.00000000 </v>
   <v>      -0.41666667       0.33333333       0.00000000 </v>
   <v>       0.41666667       0.08333333       0.00000000 </v>
   <v>      -0.08333333       0.50000000       0.00000000 </v>
   <v>       0.50000000       0.41666667       0.00000000 </v>
   <v>       0.16666667       0.16666667       0.00000000 </v>
   <v>      -0.16666667       0.33333333       0.00000000 </v>
   <v>       0.25000000       0.16666667       0.00000000 </v>
   <v>      -0.16666667       0.41666667       0.00000000 </v>
   <v>      -0.41666667       0.25000000       0.00000000 </v>
   <v>       0.33333333       0.16666667       0.00000000 </v>
   <v>      -0.16666667       0.50000000       0.00000000 </v>
   <v>       0.50000000       0.33333333       0.00000000 </v>
   <v>       0.41666667       0.16666667       0.00000000 </v>
   <v>       0.41666667       0.41666667       0.00000000 </v>
   <v>       0.25000000       0.25000000       0.00000000 </v>
   <v>      -0.25000000       0.50000000       0.00000000 </v>
   <v>       0.33333333       0.25000000       0.00000000 </v>
   <v>      -0.25000000      -0.41666667       0.00000000 </v>
   <v>       0.41666667       0.33333333       0.00000000 </v>
   <v>       0.33333333       0.33333333       0.00000000 </v>
  </varray>
  <varray name="weights" >
   <v>       0.00694444 </v>
   <v>       0.02777778 </v>
   <v>       0.01388889 </v>
   <v>       0.02777778 </v>
   <v>       0.01388889 </v>
   <v>       0.02777778 </v>
   <v>       0.01388889 </v>
   <v>       0.02777778 </v>
   <v>       0.01388889 </v>
   <v>       0.02777778 </v>
   <v>       0.01388889 </v>
   <v>       0.01388889 </v>
   <v>       0.00694444 </v>
   <v>       0.01388889 </v>
   <v>       0.02777778 </v>
   <v>       0.02777778 </v>
   <v>       0.02777778 </v>
   <v>       0.02777778 </v>
   <v>       0.02777778 </v>
   <v>       0.02777778 </v>
   <v>       0.02777778 </v>
   <v>       0.02777778 </v>
   <v>       0.02777778 </v>
   <v>       0.02777778 </v>
   <v>       0.02777778 </v>
   <v>       0.02777778 </v>
   <v>       0.02777778 </v>
   <v>       0.01388889 </v>
   <v>       0.02777778 </v>
   <v>       0.02777778 </v>
   <v>       0.02777778 </v>
   <v>       0.02777778 </v>
   <v>       0.02777778 </v>
   <v>       0.02777778 </v>
   <v>       0.02777778 </v>
   <v>       0.02777778 </v>
   <v>       0.01388889 </v>
   <v>       0.01388889 </v>
   <v>       0.02777778 </v>
   <v>       0.02777778 </v>
   <v>       0.02777778 </v>
   <v>       0.02777778 </v>
   <v>       0.01388889 </v>
  </varray>
 </kpoints>
 <parameters>
  <separator name="general" >
   <i type="string" name="SYSTEM">Lattice</i>
   <i type="logical" name="LCOMPAT"> F  </i>
  </separator>
  <separator name="electronic" >
   <i type="string" name="PREC">accura</i>
   <i name="ENMAX">    450.00000000</i>
   <i name="ENAUG">    644.87300000</i>
   <i name="EDIFF">      0.00000001</i>
   <i type="int" name="IALGO">    38</i>
   <i type="int" name="IWAVPR">    11</i>
   <i type="int" name="NBANDS">    48</i>
   <i type="int" name="NBANDSLOW">    -1</i>
   <i type="int" name="NBANDSHIGH">    -1</i>
   <i name="NELECT">     56.00000000</i>
   <i type="int" name="TURBO">     0</i>
   <i type="int" name="IRESTART">     0</i>
   <i type="int" name="NREBOOT">     0</i>
   <i type="int" name="NMIN">     0</i>
   <i name="EREF">      0.00000000</i>
   <separator name="electronic smearing" >
    <i type="int" name="ISMEAR">     0</i>
    <i name="SIGMA">      0.10000000</i>
    <i name="KSPACING">      0.50000000</i>
    <i type="logical" name="KGAMMA"> T  </i>
    <i type="logical" name="KBLOWUP"> T  </i>
   </separator>
   <separator name="electronic projectors" >
    <i type="logical" name="LREAL"> F  </i>
    <v name="ROPT">      0.00000000      0.00000000</v>
    <i type="int" name="LMAXPAW">  -100</i>
    <i type="int" name="LMAXMIX">     2</i>
    <i type="logical" name="NLSPLINE"> F  </i>
   </separator>
   <separator name="electronic startup" >
    <i type="int" name="ISTART">     0</i>
    <i type="int" name="ICHARG">     2</i>
    <i type="int" name="INIWAV">     1</i>
   </separator>
   <separator name="electronic spin" >
    <i type="int" name="ISPIN">     2</i>
    <i type="logical" name="LNONCOLLINEAR"> F  </i>
    <v name="MAGMOM">      1.00000000      1.00000000      1.00000000      1.00000000      1.00000000      1.00000000      1.00000000      1.00000000      1.00000000      1.00000000      1.00000000      1.00000000      1.00000000      1.00000000      1.00000000      1.00000000</v>
    <i name="NUPDOWN">     -1.00000000</i>
    <i type="logical" name="LSORBIT"> F  </i>
    <v name="SAXIS">      0.00000000      0.00000000      1.00000000</v>
    <i type="logical" name="LSPIRAL"> F  </i>
    <v name="QSPIRAL">      0.00000000      0.00000000      0.00000000</v>
    <i type="logical" name="LZEROZ"> F  </i>
   </separator>
   <separator name="electronic exchange-correlation" >
    <i type="logical" name="LASPH"> F  </i>
    <i type="logical" name="LMETAGGA"> F  </i>
   </separator>
   <separator name="electronic convergence" >
    <i type="int" name="NELM">    64</i>
    <i type="int" name="NELMDL">    -5</i>
    <i type="int" name="NELMIN">     2</i>
    <i name="ENINI">    450.00000000</i>
    <separator name="electronic convergence detail" >
     <i type="logical" name="LDIAG"> T  </i>
     <i type="logical" name="LSUBROT"> F  </i>
     <i name="WEIMIN">      0.00100000</i>
     <i name="EBREAK">      0.00000000</i>
     <i name="DEPER">      0.30000000</i>
     <i type="int" name="NRMM">     4</i>
     <i name="TIME">      0.40000000</i>
    </separator>
   </separator>
   <separator name="electronic mixer" >
    <i name="AMIX">      0.40000000</i>
    <i name="BMIX">      1.00000000</i>
    <i name="AMIN">      0.10000000</i>
    <i name="AMIX_MAG">      1.60000000</i>
    <i name="BMIX_MAG">      1.00000000</i>
    <separator name="electronic mixer details" >
     <i type="int" name="IMIX">     4</i>
     <i type="logical" name="MIXFIRST"> F  </i>
     <i type="int" name="MAXMIX">   -45</i>
     <i name="WC">    100.00000000</i>
     <i type="int" name="INIMIX">     1</i>
     <i type="int" name="MIXPRE">     1</i>
     <i type="int" name="MREMOVE">     5</i>
    </separator>
   </separator>
   <separator name="electronic dipolcorrection" >
    <i type="logical" name="LDIPOL"> F  </i>
    <i type="logical" name="LMONO"> F  </i>
    <i type="int" name="IDIPOL">     0</i>
    <i name="EPSILON">      1.00000000</i>
    <v name="DIPOL">   -100.00000000   -100.00000000   -100.00000000</v>
    <i name="EFIELD">      0.00000000</i>
   </separator>
  </separator>
  <separator name="grids" >
   <i type="int" name="NGX">    36</i>
   <i type="int" name="NGY">    36</i>
   <i type="int" name="NGZ">   108</i>
   <i type="int" name="NGXF">    72</i>
   <i type="int" name="NGYF">    72</i>
   <i type="int" name="NGZF">   216</i>
   <i type="logical" name="ADDGRID"> F  </i>
  </separator>
  <separator name="ionic" >
   <i type="int" name="NSW">   128</i>
   <i type="int" name="IBRION">     2</i>
   <i type="int" name="MDALGO">     0</i>
   <i type="int" name="ISIF">     2</i>
   <i name="PSTRESS">      0.00000000</i>
   <i name="EDIFFG">     -0.00100000</i>
   <i type="int" name="NFREE">     1</i>
   <i name="POTIM">      0.50000000</i>
   <i name="SMASS">     -3.00000000</i>
   <i name="SCALEE">      1.00000000</i>
  </separator>
  <separator name="ionic md" >
   <i name="TEBEG">      0.00010000</i>
   <i name="TEEND">      0.00010000</i>
   <i type="int" name="NBLOCK">     1</i>
   <i type="int" name="KBLOCK">   128</i>
   <i type="int" name="NPACO">   256</i>
   <i name="APACO">     10.00000000</i>
  </separator>
  <separator name="symmetry" >
   <i type="int" name="ISYM">     2</i>
   <i name="SYMPREC">      0.00001000</i>
  </separator>
  <separator name="dos" >
   <i type="int" name="LORBIT">     0</i>
   <v name="RWIGS">     -1.00000000     -1.00000000</v>
   <i type="int" name="NEDOS">   301</i>
   <i name="EMIN">     10.00000000</i>
   <i name="EMAX">    -10.00000000</i>
   <i name="EFERMI">      0.00000000</i>
  </separator>
  <separator name="writing" >
   <i type="int" name="NWRITE">     2</i>
   <i type="logical" name="LWAVE"> F  </i>
   <i type="logical" name="LDOWNSAMPLE"> F  </i>
   <i type="logical" name="LCHARG"> F  </i>
   <i type="logical" name="LPARD"> F  </i>
   <i type="logical" name="LVTOT"> F  </i>
   <i type="logical" name="LVHAR"> F  </i>
   <i type="logical" name="LELF"> F  </i>
   <i type="logical" name="LOPTICS"> F  </i>
   <v name="STM">      0.00000000      0.00000000      0.00000000      0.00000000      0.00000000      0.00000000      0.00000000</v>
  </separator>
  <separator name="performance" >
   <i type="int" name="NPAR">    48</i>
   <i type="int" name="NSIM">     4</i>
   <i type="int" name="NBLK">    -1</i>
   <i type="logical" name="LPLANE"> T  </i>
   <i type="logical" name="LSCALAPACK"> T  </i>
   <i type="logical" name="LSCAAWARE"> F  </i>
   <i type="logical" name="LSCALU"> F  </i>
   <i type="logical" name="LASYNC"> F  </i>
   <i type="logical" name="LORBITALREAL"> F  </i>
  </separator>
  <separator name="miscellaneous" >
   <i type="int" name="IDIOT">     3</i>
   <i type="int" name="PHON_NSTRUCT">    -1</i>
   <i type="logical" name="LMUSIC"> F  </i>
   <v name="POMASS">     10.81100000     12.01100000</v>
   <v name="DARWINR">      0.00000000      0.00000000</v>
   <v name="DARWINV">      1.00000000      1.00000000</v>
   <i type="logical" name="LCORR"> T  </i>
  </separator>
  <i type="logical" name="GGA_COMPAT"> T  </i>
  <i type="logical" name="LBERRY"> F  </i>
  <i type="int" name="ICORELEVEL">     0</i>
  <i type="logical" name="LDAU"> F  </i>
  <i type="int" name="I_CONSTRAINED_M">     0</i>
  <separator name="electronic exchange-correlation" >
   <i type="string" name="GGA">PE</i>
   <i type="int" name="VOSKOWN">     0</i>
   <i type="logical" name="LHFCALC"> F  </i>
   <i type="string" name="PRECFOCK"></i>
   <i type="logical" name="LSYMGRAD"> F  </i>
   <i type="logical" name="LHFONE"> F  </i>
   <i type="logical" name="LRHFCALC"> F  </i>
   <i type="logical" name="LTHOMAS"> F  </i>
   <i type="logical" name="LMODELHF"> F  </i>
   <i type="logical" name="LFOCKACE"> F  </i>
   <i name="ENCUT4O">     -1.00000000</i>
   <i type="int" name="EXXOEP">     0</i>
   <i type="int" name="FOURORBIT">     0</i>
   <i name="AEXX">      0.00000000</i>
   <i name="HFALPHA">      0.00000000</i>
   <i name="MCALPHA">      0.00000000</i>
   <i name="ALDAX">      1.00000000</i>
   <i name="AGGAX">      1.00000000</i>
   <i name="ALDAC">      1.00000000</i>
   <i name="AGGAC">      1.00000000</i>
   <i type="int" name="NKREDX">     1</i>
   <i type="int" name="NKREDY">     1</i>
   <i type="int" name="NKREDZ">     1</i>
   <i type="logical" name="SHIFTRED"> F  </i>
   <i type="logical" name="ODDONLY"> F  </i>
   <i type="logical" name="EVENONLY"> F  </i>
   <i type="int" name="LMAXFOCK">     0</i>
   <i type="int" name="NMAXFOCKAE">     0</i>
   <i type="logical" name="LFOCKAEDFT"> F  </i>
   <i name="HFSCREEN">      0.00000000</i>
   <i name="HFSCREENC">      0.00000000</i>
   <i type="int" name="NBANDSGWLOW">     0</i>
  </separator>
  <separator name="vdW DFT" >
   <i type="logical" name="LUSE_VDW"> F  </i>
   <i name="Zab_VDW">     -0.84910000</i>
   <i name="PARAM1">      0.12340000</i>
   <i name="PARAM2">      1.00000000</i>
   <i name="PARAM3">      0.00000000</i>
  </separator>
  <separator name="model GW" >
   <i type="int" name="MODEL_GW">     0</i>
   <i name="MODEL_EPS0">     12.06669790</i>
   <i name="MODEL_ALPHA">      1.00000000</i>
  </separator>
  <separator name="linear response parameters" >
   <i type="logical" name="LEPSILON"> F  </i>
   <i type="logical" name="LRPA"> F  </i>
   <i type="logical" name="LNABLA"> F  </i>
   <i type="logical" name="LVEL"> F  </i>
   <i name="CSHIFT">      0.10000000</i>
   <i name="OMEGAMAX">     -1.00000000</i>
   <i name="DEG_THRESHOLD">      0.00200000</i>
   <i name="RTIME">     -0.10000000</i>
   <i name="WPLASMAI">      0.00000000</i>
   <v name="DFIELD">      0.00000000      0.00000000      0.00000000</v>
   <v name="WPLASMA">      0.00000000      0.00000000      0.00000000      0.00000000      0.00000000      0.00000000      0.00000000      0.00000000      0.00000000</v>
  </separator>
  <separator name="orbital magnetization" >
   <i type="logical" name="NUCIND"> F  </i>
   <v name="MAGPOS">      0.00000000      0.00000000      0.00000000</v>
   <i type="logical" name="LNICSALL"> T  </i>
   <i type="logical" name="ORBITALMAG"> F  </i>
   <i type="logical" name="LMAGBLOCH"> F  </i>
   <i type="logical" name="LCHIMAG"> F  </i>
   <i type="logical" name="LGAUGE"> T  </i>
   <i type="int" name="MAGATOM">     0</i>
   <v name="MAGDIPOL">      0.00000000      0.00000000      0.00000000</v>
   <v name="AVECCONST">      0.00000000      0.00000000      0.00000000</v>
  </separator>
  <separator name="response functions" >
   <i type="logical" name="LFINITE_TEMPERATURE"> F  </i>
   <i type="logical" name="LADDER"> F  </i>
   <i type="logical" name="LRPAFORCE"> F  </i>
   <i type="logical" name="LFXC"> F  </i>
   <i type="logical" name="LHARTREE"> T  </i>
   <i type="int" name="IBSE">     0</i>
   <v type="int" name="KPOINT">    -1     0     0     0</v>
   <i type="logical" name="LTCTC"> F  </i>
   <i type="logical" name="LTCTE"> F  </i>
   <i type="logical" name="LTETE"> F  </i>
   <i type="logical" name="LTRIPLET"> F  </i>
   <i type="logical" name="LFXCEPS"> F  </i>
   <i type="logical" name="LFXHEG"> F  </i>
   <i type="int" name="NATURALO">     2</i>
   <i type="logical" name="LHOLEGF"> F  </i>
   <i type="logical" name="L2ORDER"> F  </i>
   <i type="logical" name="LDMP1"> F  </i>
   <i type="logical" name="LMP2LT"> F  </i>
   <i type="logical" name="LSMP2LT"> F  </i>
   <i type="logical" name="LGWLF"> F  </i>
   <i name="ENCUTGW">     -2.00000000</i>
   <i name="ENCUTGWSOFT">     -2.00000000</i>
   <i name="ENCUTLF">     -1.00000000</i>
   <i type="logical" name="LESF_SPLINES"> F  </i>
   <i type="int" name="LMAXMP2">    -1</i>
   <i name="SCISSOR">      0.00000000</i>
   <i type="int" name="NOMEGA">     0</i>
   <i type="int" name="NOMEGAR">     0</i>
   <i type="int" name="NBANDSGW">    -1</i>
   <i type="int" name="NBANDSO">    -1</i>
   <i type="int" name="NBANDSV">    -1</i>
   <i type="int" name="NELMGW">     1</i>
   <i type="int" name="NELMHF">     1</i>
   <i type="int" name="DIM">     3</i>
   <i type="int" name="IESPILON">     4</i>
   <i type="int" name="ANTIRES">     0</i>
   <i name="OMEGAMAX">    -30.00000000</i>
   <i name="OMEGAMIN">    -30.00000000</i>
   <i name="OMEGATL">   -200.00000000</i>
   <i type="int" name="OMEGAGRID">     0</i>
   <i name="CSHIFT">     -0.10000000</i>
   <i type="logical" name="LSELFENERGY"> F  </i>
   <i type="logical" name="LSPECTRAL"> F  </i>
   <i type="logical" name="LSPECTRALGW"> F  </i>
   <i type="logical" name="LSINGLES"> F  </i>
   <i type="logical" name="LFERMIGW"> F  </i>
   <i type="logical" name="ODDONLYGW"> F  </i>
   <i type="logical" name="EVENONLYGW"> F  </i>
   <i type="int" name="NKREDLFX">     1</i>
   <i type="int" name="NKREDLFY">     1</i>
   <i type="int" name="NKREDLFZ">     1</i>
   <i type="int" name="MAXMEM">  2800</i>
   <i type="int" name="TELESCOPE">     0</i>
   <i type="int" name="NTAUPAR">    -1</i>
   <i type="int" name="NOMEGAPAR">    -1</i>
   <i name="DAMP_NEWTON">      0.80000001</i>
   <i name="LAMBDA">      1.00000000</i>
  </separator>
  <separator name="External order field" >
   <i name="OFIELD_KAPPA">      0.00000000</i>
   <v name="OFIELD_K">      0.00000000      0.00000000      0.00000000</v>
   <i name="OFIELD_Q6_NEAR">      0.00000000</i>
   <i name="OFIELD_Q6_FAR">      0.00000000</i>
   <i name="OFIELD_A">      0.00000000</i>
  </separator>
  <separator name="optional k-points parameters" >
   <i type="int" name="KPOINTS_OPT_MODE">     1</i>
   <i type="logical" name="LKPOINTS_OPT"> F  </i>
  </separator>
  <separator name="solvation model" >
   <i type="logical" name="LSOL"> F  </i>
  </separator>
 </parameters>
 <atominfo>
  <atoms>      16 </atoms>
  <types>       2 </types>
  <array name="atoms" >
   <dimension dim="1">ion</dimension>
   <field type="string">element</field>
   <field type="int">atomtype</field>
   <set>
    <rc><c>B </c><c>   1</c></rc>
    <rc><c>B </c><c>   1</c></rc>
    <rc><c>B </c><c>   1</c></rc>
    <rc><c>B </c><c>   1</c></rc>
    <rc><c>B </c><c>   1</c></rc>
    <rc><c>B </c><c>   1</c></rc>
    <rc><c>B </c><c>   1</c></rc>
    <rc><c>B </c><c>   1</c></rc>
    <rc><c>C </c><c>   2</c></rc>
    <rc><c>C </c><c>   2</c></rc>
    <rc><c>C </c><c>   2</c></rc>
    <rc><c>C </c><c>   2</c></rc>
    <rc><c>C </c><c>   2</c></rc>
    <rc><c>C </c><c>   2</c></rc>
    <rc><c>C </c><c>   2</c></rc>
    <rc><c>C </c><c>   2</c></rc>
   </set>
  </array>
  <array name="atomtypes" >
   <dimension dim="1">type</dimension>
   <field type="int">atomspertype</field>
   <field type="string">element</field>
   <field>mass</field>
   <field>valence</field>
   <field type="string">pseudopotential</field>
   <set>
    <rc><c>   8</c><c>B </c><c>     10.81100000</c><c>      3.00000000</c><c>  PAW_PBE B 06Sep2000                   </c></rc>
    <rc><c>   8</c><c>C </c><c>     12.01100000</c><c>      4.00000000</c><c>  PAW_PBE C 08Apr2002                   </c></rc>
   </set>
  </array>
 </atominfo>
 <structure name="initialpos" >
  <crystal>
   <varray name="basis" >
    <v>       4.31020843       2.48850000       0.00000000 </v>
    <v>      -4.31020843       2.48850000       0.00000000 </v>
    <v>       0.00000000       0.00000000      15.00000000 </v>
   </varray>
   <i name="volume">    321.77861069 </i>
   <varray name="rec_basis" >
    <v>       0.11600367       0.20092425       0.00000000 </v>
    <v>      -0.11600367       0.20092425       0.00000000 </v>
    <v>       0.00000000       0.00000000       0.06666667 </v>
   </varray>
  </crystal>
  <varray name="positions" >
   <v>       0.66888689       0.00000000       0.10000000 </v>
   <v>       0.33111211       0.00000000       0.10000000 </v>
   <v>       0.00000000       0.33111211       0.10000000 </v>
   <v>       0.00000000       0.66888689       0.10000000 </v>
   <v>       0.33111211       0.33111211       0.10000000 </v>
   <v>       0.66888689       0.66888689       0.10000000 </v>
   <v>       0.66666600       0.33333300       0.09922189 </v>
   <v>       0.33333300       0.66666600       0.10077811 </v>
   <v>       0.24999933       0.24999967       0.46906667 </v>
   <v>       0.41666633       0.08333267       0.46906667 </v>
   <v>       0.24999933       0.74999967       0.46906667 </v>
   <v>       0.41666633       0.58333267       0.46906667 </v>
   <v>       0.74999933       0.24999967       0.46906667 </v>
   <v>       0.91666633       0.08333267       0.46906667 </v>
   <v>       0.74999933       0.74999967       0.46906667 </v>
   <v>       0.91666633       0.58333267       0.46906667 </v>
  </varray>
 </structure>
 <calculation>
  <scstep>
   <time name="dav">    3.26    3.32</time>
   <time name="total">    3.31    3.37</time>
   <energy>
    <i name="alphaZ">     60.51935305 </i>
    <i name="ewald">   1878.56099923 </i>
    <i name="hartreedc">  -3292.28758755 </i>
    <i name="XCdc">    163.50826725 </i>
    <i name="pawpsdc">   1214.24570090 </i>
    <i name="pawaedc">  -1211.68112031 </i>
    <i name="eentropy">     -0.02265600 </i>
    <i name="bandstr">   -371.13754645 </i>
    <i name="atom">   1746.50554237 </i>
    <i name="e_fr_energy">    188.21095249 </i>
    <i name="e_wo_entrp">    188.23360849 </i>
    <i name="e_0_energy">    188.22228049 </i>
   </energy>
  </scstep>
  <scstep>
   <time name="dav">    5.21    5.27</time>
   <time name="total">    5.21    5.27</time>
   <energy>
    <i name="e_fr_energy">   -118.46019563 </i>
    <i name="e_wo_entrp">   -118.44786297 </i>
    <i name="e_0_energy">   -118.45402930 </i>
   </energy>
  </scstep>
  <scstep>
   <time name="dav">    5.83    5.88</time>
   <time name="total">    5.83    5.88</time>
   <energy>
    <i name="e_fr_energy">   -127.95357449 </i>
    <i name="e_wo_entrp">   -127.94125395 </i>
    <i name="e_0_energy">   -127.94741422 </i>
   </energy>
  </scstep>
  <scstep>
   <time name="dav">    5.29    5.34</time>
   <time name="total">    5.30    5.34</time>
   <energy>
    <i name="e_fr_energy">   -127.98086855 </i>
    <i name="e_wo_entrp">   -127.96851733 </i>
    <i name="e_0_energy">   -127.97469294 </i>
   </energy>
  </scstep>
  <scstep>
   <time name="dav">    5.49    5.54</time>
   <time name="total">    5.68    5.76</time>
   <energy>
    <i name="e_fr_energy">   -127.98090615 </i>
    <i name="e_wo_entrp">   -127.96855496 </i>
    <i name="e_0_energy">   -127.97473056 </i>
   </energy>
  </scstep>
  <scstep>
   <time name="dav">    4.27    4.31</time>
   <time name="total">    4.49    4.55</time>
   <energy>
    <i name="e_fr_energy">    -94.57463554 </i>
    <i name="e_wo_entrp">    -94.56352531 </i>
    <i name="e_0_energy">    -94.56908042 </i>
   </energy>
  </scstep>
  <scstep>
   <time name="dav">    5.23    5.27</time>
   <time name="total">    5.44    5.51</time>
   <energy>
    <i name="e_fr_energy">   -105.68733298 </i>
    <i name="e_wo_entrp">   -105.67777184 </i>
    <i name="e_0_energy">   -105.68255241 </i>
   </energy>
  </scstep>
  <scstep>
   <time name="dav">    5.11    5.15</time>
   <time name="total">    5.32    5.37</time>
   <energy>
    <i name="e_fr_energy">   -111.48662616 </i>
    <i name="e_wo_entrp">   -111.47725718 </i>
    <i name="e_0_energy">   -111.48194167 </i>
   </energy>
  </scstep>
  <scstep>
   <time name="dav">    4.15    4.19</time>
   <time name="total">    4.36    4.41</time>
   <energy>
    <i name="e_fr_energy">   -116.78646138 </i>
    <i name="e_wo_entrp">   -116.78394098 </i>
    <i name="e_0_energy">   -116.78520118 </i>
   </energy>
  </scstep>
  <scstep>
   <time name="dav">    5.34    5.38</time>
   <time name="total">    5.55    5.60</time>
   <energy>
    <i name="e_fr_energy">   -120.92810640 </i>
    <i name="e_wo_entrp">   -120.92324604 </i>
    <i name="e_0_energy">   -120.92567622 </i>
   </energy>
  </scstep>
  <scstep>
   <time name="dav">    4.86    4.90</time>
   <time name="total">    5.07    5.12</time>
   <energy>
    <i name="e_fr_energy">   -122.77711512 </i>
    <i name="e_wo_entrp">   -122.77391991 </i>
    <i name="e_0_energy">   -122.77551752 </i>
   </energy>
  </scstep>
  <scstep>
   <time name="dav">    5.48    5.52</time>
   <time name="total">    5.69    5.74</time>
   <energy>
    <i name="e_fr_energy">   -123.75654703 </i>
    <i name="e_wo_entrp">   -123.75183869 </i>
    <i name="e_0_energy">   -123.75419286 </i>
   </energy>
  </scstep>
  <scstep>
   <time name="dav">    5.26    5.30</time>
   <time name="total">    5.47    5.52</time>
   <energy>
    <i name="e_fr_energy">   -124.06290781 </i>
    <i name="e_wo_entrp">   -124.05685017 </i>
    <i name="e_0_energy">   -124.05987899 </i>
   </energy>
  </scstep>
  <scstep>
   <time name="dav">    4.02    4.05</time>
   <time name="total">    4.23    4.27</time>
   <energy>
    <i name="e_fr_energy">   -124.11621129 </i>
    <i name="e_wo_entrp">   -124.11012280 </i>
    <i name="e_0_energy">   -124.11316704 </i>
   </energy>
  </scstep>
  <scstep>
   <time name="dav">    4.06    4.09</time>
   <time name="total">    4.27    4.30</time>
   <energy>
    <i name="e_fr_energy">   -124.13988620 </i>
    <i name="e_wo_entrp">   -124.13381220 </i>
    <i name="e_0_energy">   -124.13684920 </i>
   </energy>
  </scstep>
  <scstep>
   <time name="dav">    3.99    4.02</time>
   <time name="total">    4.20    4.24</time>
   <energy>
    <i name="e_fr_energy">   -124.14130660 </i>
    <i name="e_wo_entrp">   -124.13525120 </i>
    <i name="e_0_energy">   -124.13827890 </i>
   </energy>
  </scstep>
  <scstep>
   <time name="dav">    3.65    3.68</time>
   <time name="total">    3.86    3.89</time>
   <energy>
    <i name="e_fr_energy">   -124.14184795 </i>
    <i name="e_wo_entrp">   -124.13580149 </i>
    <i name="e_0_energy">   -124.13882472 </i>
   </energy>
  </scstep>
  <scstep>
   <time name="dav">    3.49    3.51</time>
   <time name="total">    3.70    3.73</time>
   <energy>
    <i name="e_fr_energy">   -124.14188105 </i>
    <i name="e_wo_entrp">   -124.13582317 </i>
    <i name="e_0_energy">   -124.13885211 </i>
   </energy>
  </scstep>
  <scstep>
   <time name="dav">    3.38    3.41</time>
   <time name="total">    3.59    3.63</time>
   <energy>
    <i name="e_fr_energy">   -124.14194036 </i>
    <i name="e_wo_entrp">   -124.13587776 </i>
    <i name="e_0_energy">   -124.13890906 </i>
   </energy>
  </scstep>
  <scstep>
   <time name="dav">    3.61    3.64</time>
   <time name="total">    3.82    3.86</time>
   <energy>
    <i name="e_fr_energy">   -124.14196576 </i>
    <i name="e_wo_entrp">   -124.13590629 </i>
    <i name="e_0_energy">   -124.13893602 </i>
   </energy>
  </scstep>
  <scstep>
   <time name="dav">    3.39    3.41</time>
   <time name="total">    3.59    3.63</time>
   <energy>
    <i name="e_fr_energy">   -124.14201592 </i>
    <i name="e_wo_entrp">   -124.13595813 </i>
    <i name="e_0_energy">   -124.13898702 </i>
   </energy>
  </scstep>
  <scstep>
   <time name="dav">    3.96    4.00</time>
   <time name="total">    4.16    4.21</time>
   <energy>
    <i name="e_fr_energy">   -124.14204133 </i>
    <i name="e_wo_entrp">   -124.13598286 </i>
    <i name="e_0_energy">   -124.13901209 </i>
   </energy>
  </scstep>
  <scstep>
   <time name="dav">    4.77    4.81</time>
   <time name="total">    4.98    5.02</time>
   <energy>
    <i name="e_fr_energy">   -124.14204565 </i>
    <i name="e_wo_entrp">   -124.13598703 </i>
    <i name="e_0_energy">   -124.13901634 </i>
   </energy>
  </scstep>
  <scstep>
   <time name="dav">    4.76    4.79</time>
   <time name="total">    4.96    5.01</time>
   <energy>
    <i name="e_fr_energy">   -124.14204863 </i>
    <i name="e_wo_entrp">   -124.13598990 </i>
    <i name="e_0_energy">   -124.13901926 </i>
   </energy>
  </scstep>
  <scstep>
   <time name="dav">    4.00    4.02</time>
   <time name="total">    4.20    4.24</time>
   <energy>
    <i name="e_fr_energy">   -124.14205007 </i>
    <i name="e_wo_entrp">   -124.13599140 </i>
    <i name="e_0_energy">   -124.13902074 </i>
   </energy>
  </scstep>
  <scstep>
   <time name="dav">    5.46    5.50</time>
   <time name="total">    5.67    5.72</time>
   <energy>
    <i name="e_fr_energy">   -124.14205043 </i>
    <i name="e_wo_entrp">   -124.13599190 </i>
    <i name="e_0_energy">   -124.13902117 </i>
   </energy>
  </scstep>
  <scstep>
   <time name="dav">    5.01    5.04</time>
   <time name="total">    5.22    5.26</time>
   <energy>
    <i name="e_fr_energy">   -124.14205052 </i>
    <i name="e_wo_entrp">   -124.13599206 </i>
    <i name="e_0_energy">   -124.13902129 </i>
   </energy>
  </scstep>
  <scstep>
   <time name="dav">    4.98    5.02</time>
   <time name="total">    5.19    5.24</time>
   <energy>
    <i name="e_fr_energy">   -124.14205053 </i>
    <i name="e_wo_entrp">   -124.13599207 </i>
    <i name="e_0_energy">   -124.13902130 </i>
   </energy>
  </scstep>
  <scstep>
   <time name="dav">    5.89    5.93</time>
   <time name="total">    5.93    5.97</time>
   <energy>
    <i name="alphaZ">     60.51935305 </i>
    <i name="ewald">   1878.56099923 </i>
    <i name="hartreedc">  -3488.56097974 </i>
    <i name="XCdc">    168.36734007 </i>
    <i name="pawpsdc">   5817.99697761 </i>
    <i name="pawaedc">  -5817.37767150 </i>
    <i name="eentropy">     -0.00605849 </i>
    <i name="bandstr">   -490.14755313 </i>
    <i name="atom">   1746.50554237 </i>
    <i name="e_fr_energy">   -124.14205053 </i>
    <i name="e_wo_entrp">   -124.13599204 </i>
    <i name="e_0_energy">   -124.13902129 </i>
   </energy>
  </scstep>
  <structure>
   <crystal>
    <varray name="basis" >
     <v>       4.31020843       2.48850000       0.00000000 </v>
     <v>      -4.31020843       2.48850000       0.00000000 </v>
     <v>       0.00000000       0.00000000      15.00000000 </v>
    </varray>
    <i name="volume">    321.77861069 </i>
    <varray name="rec_basis" >
     <v>       0.11600367       0.20092425       0.00000000 </v>
     <v>      -0.11600367       0.20092425       0.00000000 </v>
     <v>       0.00000000       0.00000000       0.06666667 </v>
    </varray>
   </crystal>
   <varray name="positions" >
    <v>       0.66888689       0.00000000       0.10000000 </v>
    <v>       0.33111211       0.00000000       0.10000000 </v>
    <v>       0.00000000       0.33111211       0.10000000 </v>
    <v>       0.00000000       0.66888689       0.10000000 </v>
    <v>       0.33111211       0.33111211       0.10000000 </v>
    <v>       0.66888689       0.66888689       0.10000000 </v>
    <v>       0.66666600       0.33333300       0.09922189 </v>
    <v>       0.33333300       0.66666600       0.10077811 </v>
    <v>       0.24999933       0.24999967       0.46906667 </v>
    <v>       0.41666633       0.08333267       0.46906667 </v>
    <v>       0.24999933       0.74999967       0.46906667 </v>
    <v>       0.41666633       0.58333267       0.46906667 </v>
    <v>       0.74999933       0.24999967       0.46906667 </v>
    <v>       0.91666633       0.08333267       0.46906667 </v>
    <v>       0.74999933       0.74999967       0.46906667 </v>
    <v>       0.91666633       0.58333267       0.46906667 </v>
   </varray>
  </structure>
  <varray name="forces" >
   <v>       0.15607233       0.09009687       0.00821533 </v>
   <v>      -0.15603540      -0.09010207       0.00823717 </v>
   <v>       0.15607233      -0.09009687       0.00821533 </v>
   <v>      -0.15603540       0.09010207       0.00823717 </v>
   <v>       0.00000631      -0.18022481       0.00824088 </v>
   <v>       0.00000631       0.18022481       0.00824088 </v>
   <v>       0.00001703      -0.00000000       0.00687846 </v>
   <v>      -0.00008092      -0.00000000       0.01143020 </v>
   <v>       0.00005041      -0.00046947      -0.00837687 </v>
   <v>      -0.00044095      -0.00009680      -0.00854878 </v>
   <v>      -0.00007242      -0.00000000      -0.00867112 </v>
   <v>       0.00012666       0.00000000      -0.00847503 </v>
   <v>       0.00052106       0.00000000      -0.00843298 </v>
   <v>       0.00018319       0.00000000      -0.00826497 </v>
   <v>       0.00005041       0.00046947      -0.00837687 </v>
   <v>      -0.00044095       0.00009680      -0.00854878 </v>
  </varray>
  <varray name="stress" >
   <v>       4.90396698       0.00000000      -0.00067187 </v>
   <v>       0.00000000       4.90460644       0.00000000 </v>
   <v>      -0.00067189       0.00000000      -3.64106215 </v>
  </varray>
  <energy>
   <i name="e_fr_energy">   -125.63354094 </i>
   <i name="e_wo_entrp">   -125.62748245 </i>
   <i name="e_0_energy">   -125.63051169 </i>
  </energy>
  <time name="totalsc">  141.34  142.75</time>
 </calculation>
 <calculation>
  <scstep>
   <time name="dav">    3.33    3.37</time>
   <time name="total">    3.55    3.59</time>
   <energy>
    <i name="alphaZ">     60.51935305 </i>
    <i name="ewald">   1877.54599576 </i>
    <i name="hartreedc">  -3488.27332895 </i>
    <i name="XCdc">    168.33087530 </i>
    <i name="pawpsdc">   5817.99636354 </i>
    <i name="pawaedc">  -5817.37705718 </i>
    <i name="eentropy">     -0.00606943 </i>
    <i name="bandstr">   -489.38781448 </i>
    <i name="atom">   1746.50554237 </i>
    <i name="e_fr_energy">   -124.14614002 </i>
    <i name="e_wo_entrp">   -124.14007059 </i>
    <i name="e_0_energy">   -124.14310531 </i>
   </energy>
  </scstep>
  <scstep>
   <time name="dav">    5.27    5.31</time>
   <time name="total">    5.49    5.54</time>
   <energy>
    <i name="e_fr_energy">   -124.14260674 </i>
    <i name="e_wo_entrp">   -124.13651666 </i>
    <i name="e_0_energy">   -124.13956170 </i>
   </energy>
  </scstep>
  <scstep>
   <time name="dav">    4.69    4.72</time>
   <time name="total">    4.89    4.95</time>
   <energy>
    <i name="e_fr_energy">   -124.14205174 </i>
    <i name="e_wo_entrp">   -124.13599697 </i>
    <i name="e_0_energy">   -124.13902436 </i>
   </energy>
  </scstep>
  <scstep>
   <time name="dav">    5.39    5.42</time>
   <time name="total">    5.59    5.64</time>
   <energy>
    <i name="e_fr_energy">   -124.14203182 </i>
    <i name="e_wo_entrp">   -124.13598740 </i>
    <i name="e_0_energy">   -124.13900961 </i>
   </energy>
  </scstep>
  <scstep>
   <time name="dav">    5.19    5.23</time>
   <time name="total">    5.41    5.45</time>
   <energy>
    <i name="e_fr_energy">   -124.14203161 </i>
    <i name="e_wo_entrp">   -124.13598481 </i>
    <i name="e_0_energy">   -124.13900821 </i>
   </energy>
  </scstep>
  <scstep>
   <time name="dav">    3.76    3.79</time>
   <time name="total">    3.97    4.01</time>
   <energy>
    <i name="e_fr_energy">   -124.14203286 </i>
    <i name="e_wo_entrp">   -124.13598592 </i>
    <i name="e_0_energy">   -124.13900939 </i>
   </energy>
  </scstep>
  <scstep>
   <time name="dav">    4.17    4.20</time>
   <time name="total">    4.37    4.41</time>
   <energy>
    <i name="e_fr_energy">   -124.14203453 </i>
    <i name="e_wo_entrp">   -124.13598845 </i>
    <i name="e_0_energy">   -124.13901149 </i>
   </energy>
  </scstep>
  <scstep>
   <time name="dav">    3.89    3.91</time>
   <time name="total">    4.09    4.13</time>
   <energy>
    <i name="e_fr_energy">   -124.14203640 </i>
    <i name="e_wo_entrp">   -124.13599097 </i>
    <i name="e_0_energy">   -124.13901368 </i>
   </energy>
  </scstep>
  <scstep>
   <time name="dav">    4.14    4.17</time>
   <time name="total">    4.37    4.41</time>
   <energy>
    <i name="e_fr_energy">   -124.14203814 </i>
    <i name="e_wo_entrp">   -124.13599271 </i>
    <i name="e_0_energy">   -124.13901542 </i>
   </energy>
  </scstep>
  <scstep>
   <time name="dav">    3.97    4.00</time>
   <time name="total">    4.18    4.22</time>
   <energy>
    <i name="e_fr_energy">   -124.14203884 </i>
    <i name="e_wo_entrp">   -124.13599343 </i>
    <i name="e_0_energy">   -124.13901613 </i>
   </energy>
  </scstep>
  <scstep>
   <time name="dav">    5.00    5.03</time>
   <time name="total">    5.20    5.24</time>
   <energy>
    <i name="e_fr_energy">   -124.14203907 </i>
    <i name="e_wo_entrp">   -124.13599371 </i>
    <i name="e_0_energy">   -124.13901639 </i>
   </energy>
  </scstep>
  <scstep>
   <time name="dav">    4.18    4.21</time>
   <time name="total">    4.38    4.42</time>
   <energy>
    <i name="e_fr_energy">   -124.14203915 </i>
    <i name="e_wo_entrp">   -124.13599380 </i>
    <i name="e_0_energy">   -124.13901647 </i>
   </energy>
  </scstep>
  <scstep>
   <time name="dav">    5.13    5.17</time>
   <time name="total">    5.33    5.38</time>
   <energy>
    <i name="e_fr_energy">   -124.14203917 </i>
    <i name="e_wo_entrp">   -124.13599381 </i>
    <i name="e_0_energy">   -124.13901649 </i>
   </energy>
  </scstep>
  <scstep>
   <time name="dav">    3.81    3.84</time>
   <time name="total">    4.01    4.05</time>
   <energy>
    <i name="e_fr_energy">   -124.14203918 </i>
    <i name="e_wo_entrp">   -124.13599380 </i>
    <i name="e_0_energy">   -124.13901649 </i>
   </energy>
  </scstep>
  <scstep>
   <time name="dav">    6.00    6.04</time>
   <time name="total">    6.04    6.08</time>
   <energy>
    <i name="alphaZ">     60.51935305 </i>
    <i name="ewald">   1877.54599576 </i>
    <i name="hartreedc">  -3487.62259788 </i>
    <i name="XCdc">    168.31851879 </i>
    <i name="pawpsdc">   5800.69234974 </i>
    <i name="pawaedc">  -5800.06773072 </i>
    <i name="eentropy">     -0.00604538 </i>
    <i name="bandstr">   -490.02742491 </i>
    <i name="atom">   1746.50554237 </i>
    <i name="e_fr_energy">   -124.14203918 </i>
    <i name="e_wo_entrp">   -124.13599380 </i>
    <i name="e_0_energy">   -124.13901649 </i>
   </energy>
  </scstep>
  <structure>
   <crystal>
    <varray name="basis" >
     <v>       4.31020843       2.48850000       0.00000000 </v>
     <v>      -4.31020843       2.48850000       0.00000000 </v>
     <v>       0.00000000       0.00000000      15.00000000 </v>
    </varray>
    <i name="volume">    321.77861069 </i>
    <varray name="rec_basis" >
     <v>       0.11600367       0.20092425       0.00000000 </v>
     <v>      -0.11600367       0.20092425       0.00000000 </v>
     <v>       0.00000000       0.00000000       0.06666667 </v>
    </varray>
   </crystal>
   <varray name="positions" >
    <v>       0.67063364      -0.00000011       0.10002642 </v>
    <v>       0.32936552      -0.00000015       0.10002649 </v>
    <v>       0.00000011       0.32936536       0.10002642 </v>
    <v>       0.00000015       0.67063348       0.10002649 </v>
    <v>       0.32936521       0.32936514       0.10002650 </v>
    <v>       0.67063386       0.67063379       0.10002650 </v>
    <v>       0.66666610       0.33333290       0.09924401 </v>
    <v>       0.33333255       0.66666645       0.10081487 </v>
    <v>       0.24999506       0.24999483       0.46903973 </v>
    <v>       0.41666293       0.08333420       0.46903917 </v>
    <v>       0.24999893       0.75000007       0.46903878 </v>
    <v>       0.41666704       0.58333196       0.46903941 </v>
    <v>       0.75000225       0.24999675       0.46903954 </v>
    <v>       0.91666736       0.08333164       0.46904009 </v>
    <v>       0.75000417       0.75000394       0.46903973 </v>
    <v>       0.91666480       0.58333607       0.46903917 </v>
   </varray>
  </structure>
  <varray name="forces" >
   <v>      -0.14869360      -0.08584232       0.00829418 </v>
   <v>       0.14868470       0.08586505       0.00831370 </v>
   <v>      -0.14869360       0.08584232       0.00829418 </v>
   <v>       0.14868470      -0.08586505       0.00831370 </v>
   <v>      -0.00000251       0.17174522       0.00831722 </v>
   <v>      -0.00000251      -0.17174522       0.00831722 </v>
   <v>      -0.00002413      -0.00000000       0.00879447 </v>
   <v>       0.00006909      -0.00000000       0.00906137 </v>
   <v>      -0.00028468       0.00120661      -0.00841739 </v>
   <v>       0.00127916       0.00024397      -0.00851143 </v>
   <v>       0.00003229      -0.00000000      -0.00856802 </v>
   <v>      -0.00020003      -0.00000000      -0.00847203 </v>
   <v>      -0.00151491      -0.00000000      -0.00844501 </v>
   <v>      -0.00032846      -0.00000000      -0.00836332 </v>
   <v>      -0.00028468      -0.00120661      -0.00841739 </v>
   <v>       0.00127916      -0.00024397      -0.00851143 </v>
  </varray>
  <varray name="stress" >
   <v>       3.40857235       0.00000000      -0.00064164 </v>
   <v>       0.00000000       3.40543669       0.00000000 </v>
   <v>      -0.00064165       0.00000000      -3.63982536 </v>
  </varray>
  <energy>
   <i name="e_fr_energy">   -125.63377812 </i>
   <i name="e_wo_entrp">   -125.62773274 </i>
   <i name="e_0_energy">   -125.63075543 </i>
  </energy>
  <time name="totalsc">   73.96   74.63</time>
 </calculation>
 <calculation>
  <scstep>
   <time name="dav">    3.30    3.33</time>
   <time name="total">    3.51    3.54</time>
   <energy>
    <i name="alphaZ">     60.51935305 </i>
    <i name="ewald">   1878.02846707 </i>
    <i name="hartreedc">  -3487.75223924 </i>
    <i name="XCdc">    168.33594958 </i>
    <i name="pawpsdc">   5800.69321833 </i>
    <i name="pawaedc">  -5800.06859980 </i>
    <i name="eentropy">     -0.00594359 </i>
    <i name="bandstr">   -490.40105215 </i>
    <i name="atom">   1746.50554237 </i>
    <i name="e_fr_energy">   -124.14530439 </i>
    <i name="e_wo_entrp">   -124.13936080 </i>
    <i name="e_0_energy">   -124.14233260 </i>
   </energy>
  </scstep>
  <scstep>
   <time name="dav">    5.13    5.17</time>
   <time name="total">    5.34    5.38</time>
   <energy>
    <i name="e_fr_energy">   -124.14447133 </i>
    <i name="e_wo_entrp">   -124.13847312 </i>
    <i name="e_0_energy">   -124.14147222 </i>
   </energy>
  </scstep>
  <scstep>
   <time name="dav">    6.09    6.13</time>
   <time name="total">    6.30    6.35</time>
   <energy>
    <i name="e_fr_energy">   -124.14434053 </i>
    <i name="e_wo_entrp">   -124.13830805 </i>
    <i name="e_0_energy">   -124.14132429 </i>
   </energy>
  </scstep>
  <scstep>
   <time name="dav">    4.24    4.28</time>
   <time name="total">    4.45    4.49</time>
   <energy>
    <i name="e_fr_energy">   -124.14433588 </i>
    <i name="e_wo_entrp">   -124.13830072 </i>
    <i name="e_0_energy">   -124.14131830 </i>
   </energy>
  </scstep>
  <scstep>
   <time name="dav">    6.45    6.49</time>
   <time name="total">    6.65    6.70</time>
   <energy>
    <i name="e_fr_energy">   -124.14433598 </i>
    <i name="e_wo_entrp">   -124.13830104 </i>
    <i name="e_0_energy">   -124.14131851 </i>
   </energy>
  </scstep>
  <scstep>
   <time name="dav">    3.92    3.94</time>
   <time name="total">    4.12    4.16</time>
   <energy>
    <i name="e_fr_energy">   -124.14433608 </i>
    <i name="e_wo_entrp">   -124.13830153 </i>
    <i name="e_0_energy">   -124.14131880 </i>
   </energy>
  </scstep>
  <scstep>
   <time name="dav">    3.87    3.90</time>
   <time name="total">    4.07    4.11</time>
   <energy>
    <i name="e_fr_energy">   -124.14433634 </i>
    <i name="e_wo_entrp">   -124.13830109 </i>
    <i name="e_0_energy">   -124.14131872 </i>
   </energy>
  </scstep>
  <scstep>
   <time name="dav">    4.39    4.42</time>
   <time name="total">    4.60    4.64</time>
   <energy>
    <i name="e_fr_energy">   -124.14433650 </i>
    <i name="e_wo_entrp">   -124.13830111 </i>
    <i name="e_0_energy">   -124.14131880 </i>
   </energy>
  </scstep>
  <scstep>
   <time name="dav">    3.83    3.85</time>
   <time name="total">    4.03    4.07</time>
   <energy>
    <i name="e_fr_energy">   -124.14433667 </i>
    <i name="e_wo_entrp">   -124.13830128 </i>
    <i name="e_0_energy">   -124.14131898 </i>
   </energy>
  </scstep>
  <scstep>
   <time name="dav">    4.39    4.42</time>
   <time name="total">    4.59    4.63</time>
   <energy>
    <i name="e_fr_energy">   -124.14433676 </i>
    <i name="e_wo_entrp">   -124.13830134 </i>
    <i name="e_0_energy">   -124.14131905 </i>
   </energy>
  </scstep>
  <scstep>
   <time name="dav">    3.82    3.84</time>
   <time name="total">    4.02    4.06</time>
   <energy>
    <i name="e_fr_energy">   -124.14433680 </i>
    <i name="e_wo_entrp">   -124.13830136 </i>
    <i name="e_0_energy">   -124.14131908 </i>
   </energy>
  </scstep>
  <scstep>
   <time name="dav">    5.81    5.84</time>
   <time name="total">    5.84    5.88</time>
   <energy>
    <i name="alphaZ">     60.51935305 </i>
    <i name="ewald">   1878.02846707 </i>
    <i name="hartreedc">  -3488.06874590 </i>
    <i name="XCdc">    168.34189261 </i>
    <i name="pawpsdc">   5808.95498467 </i>
    <i name="pawaedc">  -5808.33285146 </i>
    <i name="eentropy">     -0.00603544 </i>
    <i name="bandstr">   -490.08694376 </i>
    <i name="atom">   1746.50554237 </i>
    <i name="e_fr_energy">   -124.14433680 </i>
    <i name="e_wo_entrp">   -124.13830136 </i>
    <i name="e_0_energy">   -124.14131908 </i>
   </energy>
  </scstep>
  <structure>
   <crystal>
    <varray name="basis" >
     <v>       4.31020843       2.48850000       0.00000000 </v>
     <v>      -4.31020843       2.48850000       0.00000000 </v>
     <v>       0.00000000       0.00000000      15.00000000 </v>
    </varray>
    <i name="volume">    321.77861069 </i>
    <varray name="rec_basis" >
     <v>       0.11600367       0.20092425       0.00000000 </v>
     <v>      -0.11600367       0.20092425       0.00000000 </v>
     <v>       0.00000000       0.00000000       0.06666667 </v>
    </varray>
   </crystal>
   <varray name="positions" >
    <v>       0.66978094      -0.00000006       0.10001352 </v>
    <v>       0.33021814      -0.00000007       0.10001356 </v>
    <v>       0.00000006       0.33021806       0.10001352 </v>
    <v>       0.00000007       0.66978086       0.10001356 </v>
    <v>       0.33021798       0.33021795       0.10001357 </v>
    <v>       0.66978105       0.66978102       0.10001357 </v>
    <v>       0.66666605       0.33333295       0.09923321 </v>
    <v>       0.33333277       0.66666623       0.10079693 </v>
    <v>       0.24999715       0.24999719       0.46905288 </v>
    <v>       0.41666459       0.08333345       0.46905259 </v>
    <v>       0.24999913       0.74999987       0.46905239 </v>
    <v>       0.41666670       0.58333230       0.46905272 </v>
    <v>       0.75000083       0.24999817       0.46905278 </v>
    <v>       0.91666686       0.08333214       0.46905306 </v>
    <v>       0.75000181       0.75000185       0.46905288 </v>
    <v>       0.91666555       0.58333441       0.46905259 </v>
   </varray>
  </structure>
  <varray name="forces" >
   <v>      -0.00079752      -0.00046325       0.00825496 </v>
   <v>       0.00081095       0.00047238       0.00827565 </v>
   <v>      -0.00079752       0.00046325       0.00825496 </v>
   <v>       0.00081095      -0.00047238       0.00827565 </v>
   <v>       0.00000157       0.00094296       0.00827924 </v>
   <v>       0.00000157      -0.00094296       0.00827924 </v>
   <v>      -0.00000430      -0.00000000       0.00787977 </v>
   <v>      -0.00000338      -0.00000000       0.01019549 </v>
   <v>      -0.00012148       0.00038833      -0.00839683 </v>
   <v>       0.00043975       0.00007761      -0.00852893 </v>
   <v>      -0.00001920      -0.00000000      -0.00861772 </v>
   <v>      -0.00004010      -0.00000000      -0.00847282 </v>
   <v>      -0.00052125      -0.00000000      -0.00843845 </v>
   <v>      -0.00007830      -0.00000000      -0.00831447 </v>
   <v>      -0.00012148      -0.00038833      -0.00839683 </v>
   <v>       0.00043975      -0.00007761      -0.00852893 </v>
  </varray>
  <varray name="stress" >
   <v>       4.09719531       0.00000000      -0.00065610 </v>
   <v>       0.00000000       4.09588586       0.00000000 </v>
   <v>      -0.00065607       0.00000000      -3.63989844 </v>
  </varray>
  <energy>
   <i name="e_fr_energy">   -125.63595557 </i>
   <i name="e_wo_entrp">   -125.62992012 </i>
   <i name="e_0_energy">   -125.63293785 </i>
  </energy>
  <time name="totalsc">   60.58   61.10</time>
 </calculation>
 <calculation>
  <scstep>
   <time name="dav">    3.25    3.27</time>
   <time name="total">    3.45    3.49</time>
   <energy>
    <i name="alphaZ">     60.51935305 </i>
    <i name="ewald">   1878.65664295 </i>
    <i name="hartreedc">  -3488.69724004 </i>
    <i name="XCdc">    168.34189481 </i>
    <i name="pawpsdc">   5808.95551880 </i>
    <i name="pawaedc">  -5808.33338615 </i>
    <i name="eentropy">     -0.00603546 </i>
    <i name="bandstr">   -490.08663386 </i>
    <i name="atom">   1746.50554237 </i>
    <i name="e_fr_energy">   -124.14434355 </i>
    <i name="e_wo_entrp">   -124.13830809 </i>
    <i name="e_0_energy">   -124.14132582 </i>
   </energy>
  </scstep>
  <scstep>
   <time name="dav">    3.62    3.65</time>
   <time name="total">    3.82    3.86</time>
   <energy>
    <i name="e_fr_energy">   -124.14434249 </i>
    <i name="e_wo_entrp">   -124.13830677 </i>
    <i name="e_0_energy">   -124.14132463 </i>
   </energy>
  </scstep>
  <scstep>
   <time name="dav">    3.90    3.93</time>
   <time name="total">    4.11    4.15</time>
   <energy>
    <i name="e_fr_energy">   -124.14434185 </i>
    <i name="e_wo_entrp">   -124.13830634 </i>
    <i name="e_0_energy">   -124.14132410 </i>
   </energy>
  </scstep>
  <scstep>
   <time name="dav">    5.59    5.63</time>
   <time name="total">    5.80    5.85</time>
   <energy>
    <i name="e_fr_energy">   -124.14434189 </i>
    <i name="e_wo_entrp">   -124.13830644 </i>
    <i name="e_0_energy">   -124.14132417 </i>
   </energy>
  </scstep>
  <scstep>
   <time name="dav">    4.43    4.46</time>
   <time name="total">    4.46    4.50</time>
   <energy>
    <i name="alphaZ">     60.51935305 </i>
    <i name="ewald">   1878.65664295 </i>
    <i name="hartreedc">  -3488.70134556 </i>
    <i name="XCdc">    168.34190764 </i>
    <i name="pawpsdc">   5808.95397590 </i>
    <i name="pawaedc">  -5808.33184194 </i>
    <i name="eentropy">     -0.00603543 </i>
    <i name="bandstr">   -490.08254087 </i>
    <i name="atom">   1746.50554237 </i>
    <i name="e_fr_energy">   -124.14434189 </i>
    <i name="e_wo_entrp">   -124.13830646 </i>
    <i name="e_0_energy">   -124.14132417 </i>
   </energy>
  </scstep>
  <structure>
   <crystal>
    <varray name="basis" >
     <v>       4.31020843       2.48850000       0.00000000 </v>
     <v>      -4.31020843       2.48850000       0.00000000 </v>
     <v>       0.00000000       0.00000000      15.00000000 </v>
    </varray>
    <i name="volume">    321.77861069 </i>
    <varray name="rec_basis" >
     <v>       0.11600367       0.20092425       0.00000000 </v>
     <v>      -0.11600367       0.20092425       0.00000000 </v>
     <v>       0.00000000       0.00000000       0.06666667 </v>
    </varray>
   </crystal>
   <varray name="positions" >
    <v>       0.66978102      -0.00000008       0.10003760 </v>
    <v>       0.33021821      -0.00000004       0.10003770 </v>
    <v>       0.00000008       0.33021798       0.10003760 </v>
    <v>       0.00000004       0.66978079       0.10003770 </v>
    <v>       0.33021808       0.33021802       0.10003772 </v>
    <v>       0.66978098       0.66978092       0.10003772 </v>
    <v>       0.66666603       0.33333297       0.09925618 </v>
    <v>       0.33333275       0.66666625       0.10082669 </v>
    <v>       0.24999991       0.25000118       0.46902838 </v>
    <v>       0.41666747       0.08333191       0.46902771 </v>
    <v>       0.24999903       0.74999997       0.46902725 </v>
    <v>       0.41666650       0.58333250       0.46902800 </v>
    <v>       0.74999821       0.25000079       0.46902817 </v>
    <v>       0.91666647       0.08333253       0.46902881 </v>
    <v>       0.74999782       0.74999909       0.46902838 </v>
    <v>       0.91666709       0.58333153       0.46902771 </v>
   </varray>
  </structure>
  <varray name="forces" >
   <v>      -0.00081025      -0.00047657       0.00825358 </v>
   <v>       0.00082026       0.00046151       0.00827277 </v>
   <v>      -0.00081025       0.00047657       0.00825358 </v>
   <v>       0.00082026      -0.00046151       0.00827277 </v>
   <v>      -0.00000253       0.00093642       0.00827581 </v>
   <v>      -0.00000253      -0.00093642       0.00827581 </v>
   <v>       0.00000990       0.00000000       0.00782141 </v>
   <v>      -0.00000249      -0.00000000       0.01014365 </v>
   <v>       0.00044224      -0.00086750      -0.00840872 </v>
   <v>      -0.00117759      -0.00017154      -0.00848407 </v>
   <v>       0.00021711       0.00000000      -0.00853166 </v>
   <v>      -0.00009257       0.00000000      -0.00845515 </v>
   <v>       0.00134691       0.00000000      -0.00843446 </v>
   <v>      -0.00002312      -0.00000000      -0.00836253 </v>
   <v>       0.00044224       0.00086750      -0.00840872 </v>
   <v>      -0.00117759       0.00017154      -0.00848407 </v>
  </varray>
  <varray name="stress" >
   <v>       4.09455650       0.00000000      -0.00065861 </v>
   <v>       0.00000000       4.09833276       0.00000000 </v>
   <v>      -0.00065862       0.00000000      -3.64177016 </v>
  </varray>
  <energy>
   <i name="e_fr_energy">   -125.63600584 </i>
   <i name="e_wo_entrp">   -125.62997041 </i>
   <i name="e_0_energy">   -125.63298813 </i>
  </energy>
  <time name="totalsc">   24.71   24.94</time>
 </calculation>
 <calculation>
  <scstep>
   <time name="dav">    3.26    3.28</time>
   <time name="total">    3.46    3.49</time>
   <energy>
    <i name="alphaZ">     60.51935305 </i>
    <i name="ewald">   1880.54258658 </i>
    <i name="hartreedc">  -3490.58641923 </i>
    <i name="XCdc">    168.34190744 </i>
    <i name="pawpsdc">   5808.95357521 </i>
    <i name="pawaedc">  -5808.33144153 </i>
    <i name="eentropy">     -0.00603547 </i>
    <i name="bandstr">   -490.08343991 </i>
    <i name="atom">   1746.50554237 </i>
    <i name="e_fr_energy">   -124.14437150 </i>
    <i name="e_wo_entrp">   -124.13833603 </i>
    <i name="e_0_energy">   -124.14135376 </i>
   </energy>
  </scstep>
  <scstep>
   <time name="dav">    3.51    3.54</time>
   <time name="total">    3.72    3.76</time>
   <energy>
    <i name="e_fr_energy">   -124.14436169 </i>
    <i name="e_wo_entrp">   -124.13832544 </i>
    <i name="e_0_energy">   -124.14134356 </i>
   </energy>
  </scstep>
  <scstep>
   <time name="dav">    4.66    4.69</time>
   <time name="total">    4.87    4.90</time>
   <energy>
    <i name="e_fr_energy">   -124.14435533 </i>
    <i name="e_wo_entrp">   -124.13831967 </i>
    <i name="e_0_energy">   -124.14133750 </i>
   </energy>
  </scstep>
  <scstep>
   <time name="dav">    3.88    4.10</time>
   <time name="total">    4.09    4.32</time>
   <energy>
    <i name="e_fr_energy">   -124.14435585 </i>
    <i name="e_wo_entrp">   -124.13832040 </i>
    <i name="e_0_energy">   -124.14133813 </i>
   </energy>
  </scstep>
  <scstep>
   <time name="dav">    3.79    3.85</time>
   <time name="total">    4.00    4.07</time>
   <energy>
    <i name="e_fr_energy">   -124.14435602 </i>
    <i name="e_wo_entrp">   -124.13832062 </i>
    <i name="e_0_energy">   -124.14133832 </i>
   </energy>
  </scstep>
  <scstep>
   <time name="dav">    4.03    4.05</time>
   <time name="total">    4.23    4.27</time>
   <energy>
    <i name="e_fr_energy">   -124.14435601 </i>
    <i name="e_wo_entrp">   -124.13832059 </i>
    <i name="e_0_energy">   -124.14133830 </i>
   </energy>
  </scstep>
  <scstep>
   <time name="dav">    4.16    4.18</time>
   <time name="total">    4.36    4.40</time>
   <energy>
    <i name="e_fr_energy">   -124.14435602 </i>
    <i name="e_wo_entrp">   -124.13832060 </i>
    <i name="e_0_energy">   -124.14133831 </i>
   </energy>
  </scstep>
  <scstep>
   <time name="dav">    3.87    3.90</time>
   <time name="total">    4.07    4.11</time>
   <energy>
    <i name="e_fr_energy">   -124.14435610 </i>
    <i name="e_wo_entrp">   -124.13832069 </i>
    <i name="e_0_energy">   -124.14133840 </i>
   </energy>
  </scstep>
  <scstep>
   <time name="dav">    4.34    4.37</time>
   <time name="total">    4.54    4.59</time>
   <energy>
    <i name="e_fr_energy">   -124.14435617 </i>
    <i name="e_wo_entrp">   -124.13832077 </i>
    <i name="e_0_energy">   -124.14133847 </i>
   </energy>
  </scstep>
  <scstep>
   <time name="dav">    4.01    4.03</time>
   <time name="total">    4.21    4.25</time>
   <energy>
    <i name="e_fr_energy">   -124.14435623 </i>
    <i name="e_wo_entrp">   -124.13832083 </i>
    <i name="e_0_energy">   -124.14133853 </i>
   </energy>
  </scstep>
  <scstep>
   <time name="dav">    4.54    4.58</time>
   <time name="total">    4.75    4.79</time>
   <energy>
    <i name="e_fr_energy">   -124.14435624 </i>
    <i name="e_wo_entrp">   -124.13832083 </i>
    <i name="e_0_energy">   -124.14133854 </i>
   </energy>
  </scstep>
  <scstep>
   <time name="dav">    4.80    4.83</time>
   <time name="total">    4.83    4.87</time>
   <energy>
    <i name="alphaZ">     60.51935305 </i>
    <i name="ewald">   1880.54258658 </i>
    <i name="hartreedc">  -3490.58357733 </i>
    <i name="XCdc">    168.34188710 </i>
    <i name="pawpsdc">   5808.94966404 </i>
    <i name="pawaedc">  -5808.32752888 </i>
    <i name="eentropy">     -0.00603541 </i>
    <i name="bandstr">   -490.08624775 </i>
    <i name="atom">   1746.50554237 </i>
    <i name="e_fr_energy">   -124.14435625 </i>
    <i name="e_wo_entrp">   -124.13832084 </i>
    <i name="e_0_energy">   -124.14133854 </i>
   </energy>
  </scstep>
  <structure>
   <crystal>
    <varray name="basis" >
     <v>       4.31020843       2.48850000       0.00000000 </v>
     <v>      -4.31020843       2.48850000       0.00000000 </v>
     <v>       0.00000000       0.00000000      15.00000000 </v>
    </varray>
    <i name="volume">    321.77861069 </i>
    <varray name="rec_basis" >
     <v>       0.11600367       0.20092425       0.00000000 </v>
     <v>      -0.11600367       0.20092425       0.00000000 </v>
     <v>       0.00000000       0.00000000       0.06666667 </v>
    </varray>
   </crystal>
   <varray name="positions" >
    <v>       0.66978127      -0.00000016       0.10010985 </v>
    <v>       0.33021840       0.00000007       0.10011012 </v>
    <v>       0.00000016       0.33021773       0.10010985 </v>
    <v>      -0.00000007       0.66978060       0.10011012 </v>
    <v>       0.33021835       0.33021825       0.10011017 </v>
    <v>       0.66978075       0.66978065       0.10011017 </v>
    <v>       0.66666596       0.33333304       0.09932510 </v>
    <v>       0.33333269       0.66666631       0.10091597 </v>
    <v>       0.25000820       0.25001314       0.46895490 </v>
    <v>       0.41667612       0.08332731       0.46895307 </v>
    <v>       0.24999873       0.75000027       0.46895183 </v>
    <v>       0.41666590       0.58333310       0.46895385 </v>
    <v>       0.74999035       0.25000865       0.46895432 </v>
    <v>       0.91666530       0.08333370       0.46895604 </v>
    <v>       0.74998586       0.74999080       0.46895490 </v>
    <v>       0.91667169       0.58332288       0.46895307 </v>
   </varray>
  </structure>
  <varray name="forces" >
   <v>      -0.00084476      -0.00051274       0.00834721 </v>
   <v>       0.00084328       0.00042749       0.00836237 </v>
   <v>      -0.00084476       0.00051274       0.00834721 </v>
   <v>       0.00084328      -0.00042749       0.00836237 </v>
   <v>      -0.00001333       0.00091178       0.00836353 </v>
   <v>      -0.00001333      -0.00091178       0.00836353 </v>
   <v>       0.00005226       0.00000000       0.00770323 </v>
   <v>      -0.00000015      -0.00000000       0.01005695 </v>
   <v>       0.00212642      -0.00464106      -0.00853264 </v>
   <v>      -0.00602389      -0.00092271      -0.00843955 </v>
   <v>       0.00091499       0.00000000      -0.00836463 </v>
   <v>      -0.00024310       0.00000000      -0.00849158 </v>
   <v>       0.00694382       0.00000000      -0.00851183 </v>
   <v>       0.00015675      -0.00000000      -0.00859398 </v>
   <v>       0.00212642       0.00464106      -0.00853264 </v>
   <v>      -0.00602389       0.00092271      -0.00843955 </v>
  </varray>
  <varray name="stress" >
   <v>       4.08676929       0.00000000      -0.00066352 </v>
   <v>       0.00000000       4.10527430       0.00000000 </v>
   <v>      -0.00066351       0.00000000      -3.64447026 </v>
  </varray>
  <energy>
   <i name="e_fr_energy">   -125.63615597 </i>
   <i name="e_wo_entrp">   -125.63012055 </i>
   <i name="e_0_energy">   -125.63313826 </i>
  </energy>
  <time name="totalsc">   54.19   54.90</time>
 </calculation>
 <calculation>
  <scstep>
   <time name="dav">    3.25    3.28</time>
   <time name="total">    3.45    3.49</time>
   <energy>
    <i name="alphaZ">     60.51935305 </i>
    <i name="ewald">   1884.32084552 </i>
    <i name="hartreedc">  -3494.36098113 </i>
    <i name="XCdc">    168.34187446 </i>
    <i name="pawpsdc">   5808.94978411 </i>
    <i name="pawaedc">  -5808.32764935 </i>
    <i name="eentropy">     -0.00603539 </i>
    <i name="bandstr">   -490.08717645 </i>
    <i name="atom">   1746.50554237 </i>
    <i name="e_fr_energy">   -124.14444280 </i>
    <i name="e_wo_entrp">   -124.13840741 </i>
    <i name="e_0_energy">   -124.14142511 </i>
   </energy>
  </scstep>
  <scstep>
   <time name="dav">    3.54    3.56</time>
   <time name="total">    3.74    3.77</time>
   <energy>
    <i name="e_fr_energy">   -124.14440622 </i>
    <i name="e_wo_entrp">   -124.13836928 </i>
    <i name="e_0_energy">   -124.14138775 </i>
   </energy>
  </scstep>
  <scstep>
   <time name="dav">    4.72    4.75</time>
   <time name="total">    4.93    4.97</time>
   <energy>
    <i name="e_fr_energy">   -124.14437844 </i>
    <i name="e_wo_entrp">   -124.13834264 </i>
    <i name="e_0_energy">   -124.14136054 </i>
   </energy>
  </scstep>
  <scstep>
   <time name="dav">    3.62    3.64</time>
   <time name="total">    3.82    3.86</time>
   <energy>
    <i name="e_fr_energy">   -124.14437974 </i>
    <i name="e_wo_entrp">   -124.13834439 </i>
    <i name="e_0_energy">   -124.14136206 </i>
   </energy>
  </scstep>
  <scstep>
   <time name="dav">    3.60    3.62</time>
   <time name="total">    3.80    3.83</time>
   <energy>
    <i name="e_fr_energy">   -124.14438040 </i>
    <i name="e_wo_entrp">   -124.13834513 </i>
    <i name="e_0_energy">   -124.14136276 </i>
   </energy>
  </scstep>
  <scstep>
   <time name="dav">    6.05    6.09</time>
   <time name="total">    6.26    6.31</time>
   <energy>
    <i name="e_fr_energy">   -124.14438029 </i>
    <i name="e_wo_entrp">   -124.13834496 </i>
    <i name="e_0_energy">   -124.14136263 </i>
   </energy>
  </scstep>
  <scstep>
   <time name="dav">    4.25    4.28</time>
   <time name="total">    4.46    4.50</time>
   <energy>
    <i name="e_fr_energy">   -124.14438038 </i>
    <i name="e_wo_entrp">   -124.13834508 </i>
    <i name="e_0_energy">   -124.14136273 </i>
   </energy>
  </scstep>
  <scstep>
   <time name="dav">    3.84    3.87</time>
   <time name="total">    4.04    4.08</time>
   <energy>
    <i name="e_fr_energy">   -124.14438059 </i>
    <i name="e_wo_entrp">   -124.13834532 </i>
    <i name="e_0_energy">   -124.14136295 </i>
   </energy>
  </scstep>
  <scstep>
   <time name="dav">    3.87    3.89</time>
   <time name="total">    4.07    4.11</time>
   <energy>
    <i name="e_fr_energy">   -124.14438084 </i>
    <i name="e_wo_entrp">   -124.13834557 </i>
    <i name="e_0_energy">   -124.14136320 </i>
   </energy>
  </scstep>
  <scstep>
   <time name="dav">    3.83    3.85</time>
   <time name="total">    4.03    4.07</time>
   <energy>
    <i name="e_fr_energy">   -124.14438109 </i>
    <i name="e_wo_entrp">   -124.13834581 </i>
    <i name="e_0_energy">   -124.14136345 </i>
   </energy>
  </scstep>
  <scstep>
   <time name="dav">    4.72    4.75</time>
   <time name="total">    4.92    4.96</time>
   <energy>
    <i name="e_fr_energy">   -124.14438114 </i>
    <i name="e_wo_entrp">   -124.13834585 </i>
    <i name="e_0_energy">   -124.14136350 </i>
   </energy>
  </scstep>
  <scstep>
   <time name="dav">    4.18    4.20</time>
   <time name="total">    4.38    4.42</time>
   <energy>
    <i name="e_fr_energy">   -124.14438116 </i>
    <i name="e_wo_entrp">   -124.13834588 </i>
    <i name="e_0_energy">   -124.14136352 </i>
   </energy>
  </scstep>
  <scstep>
   <time name="dav">    5.73    5.78</time>
   <time name="total">    5.77    5.81</time>
   <energy>
    <i name="alphaZ">     60.51935305 </i>
    <i name="ewald">   1884.32084552 </i>
    <i name="hartreedc">  -3494.36122034 </i>
    <i name="XCdc">    168.34185804 </i>
    <i name="pawpsdc">   5808.94169881 </i>
    <i name="pawaedc">  -5808.31956139 </i>
    <i name="eentropy">     -0.00603529 </i>
    <i name="bandstr">   -490.08686194 </i>
    <i name="atom">   1746.50554237 </i>
    <i name="e_fr_energy">   -124.14438117 </i>
    <i name="e_wo_entrp">   -124.13834588 </i>
    <i name="e_0_energy">   -124.14136352 </i>
   </energy>
  </scstep>
  <structure>
   <crystal>
    <varray name="basis" >
     <v>       4.31020843       2.48850000       0.00000000 </v>
     <v>      -4.31020843       2.48850000       0.00000000 </v>
     <v>       0.00000000       0.00000000      15.00000000 </v>
    </varray>
    <i name="volume">    321.77861069 </i>
    <varray name="rec_basis" >
     <v>       0.11600367       0.20092425       0.00000000 </v>
     <v>      -0.11600367       0.20092425       0.00000000 </v>
     <v>       0.00000000       0.00000000       0.06666667 </v>
    </varray>
   </crystal>
   <varray name="positions" >
    <v>       0.66978177      -0.00000031       0.10025433 </v>
    <v>       0.33021879       0.00000028       0.10025497 </v>
    <v>       0.00000031       0.33021723       0.10025433 </v>
    <v>      -0.00000028       0.66978021       0.10025497 </v>
    <v>       0.33021891       0.33021871       0.10025508 </v>
    <v>       0.66978029       0.66978009       0.10025508 </v>
    <v>       0.66666584       0.33333316       0.09946293 </v>
    <v>       0.33333258       0.66666642       0.10109454 </v>
    <v>       0.25002478       0.25003707       0.46880793 </v>
    <v>       0.41669343       0.08331810       0.46880379 </v>
    <v>       0.24999814       0.75000086       0.46880099 </v>
    <v>       0.41666470       0.58333430       0.46880555 </v>
    <v>       0.74997464       0.25002436       0.46880662 </v>
    <v>       0.91666295       0.08333605       0.46881052 </v>
    <v>       0.74996193       0.74997422       0.46880793 </v>
    <v>       0.91668090       0.58330557       0.46880379 </v>
   </varray>
  </structure>
  <varray name="forces" >
   <v>      -0.00091231      -0.00058671       0.00848415 </v>
   <v>       0.00088987       0.00035696       0.00849076 </v>
   <v>      -0.00091231       0.00058671       0.00848415 </v>
   <v>       0.00088987      -0.00035696       0.00849076 </v>
   <v>      -0.00003723       0.00086221       0.00848890 </v>
   <v>      -0.00003723      -0.00086221       0.00848890 </v>
   <v>       0.00013706      -0.00000000       0.00743733 </v>
   <v>       0.00000473       0.00000000       0.00984903 </v>
   <v>       0.00549543      -0.01218386      -0.00873502 </v>
   <v>      -0.01571586      -0.00242417      -0.00830455 </v>
   <v>       0.00231638       0.00000000      -0.00798387 </v>
   <v>      -0.00054870      -0.00000000      -0.00851884 </v>
   <v>       0.01814063      -0.00000000      -0.00862008 </v>
   <v>       0.00051011      -0.00000000      -0.00901207 </v>
   <v>       0.00549543       0.01218386      -0.00873502 </v>
   <v>      -0.01571586       0.00242417      -0.00830455 </v>
  </varray>
  <varray name="stress" >
   <v>       4.07116144       0.00000000      -0.00069487 </v>
   <v>       0.00000000       4.11938609       0.00000000 </v>
   <v>      -0.00069487       0.00000000      -3.65027205 </v>
  </varray>
  <energy>
   <i name="e_fr_energy">   -125.63645330 </i>
   <i name="e_wo_entrp">   -125.63041801 </i>
   <i name="e_0_energy">   -125.63343565 </i>
  </energy>
  <time name="totalsc">   60.71   61.25</time>
 </calculation>
 <calculation>
  <scstep>
   <time name="dav">    3.24    3.26</time>
   <time name="total">    3.44    3.47</time>
   <energy>
    <i name="alphaZ">     60.51935305 </i>
    <i name="ewald">   1891.90285182 </i>
    <i name="hartreedc">  -3501.94009636 </i>
    <i name="XCdc">    168.34182347 </i>
    <i name="pawpsdc">   5808.94200822 </i>
    <i name="pawaedc">  -5808.31987084 </i>
    <i name="eentropy">     -0.00603490 </i>
    <i name="bandstr">   -490.09023606 </i>
    <i name="atom">   1746.50554237 </i>
    <i name="e_fr_energy">   -124.14465923 </i>
    <i name="e_wo_entrp">   -124.13862432 </i>
    <i name="e_0_energy">   -124.14164177 </i>
   </energy>
  </scstep>
  <scstep>
   <time name="dav">    3.74    3.76</time>
   <time name="total">    3.94    3.98</time>
   <energy>
    <i name="e_fr_energy">   -124.14452590 </i>
    <i name="e_wo_entrp">   -124.13848808 </i>
    <i name="e_0_energy">   -124.14150699 </i>
   </energy>
  </scstep>
  <scstep>
   <time name="dav">    4.73    4.77</time>
   <time name="total">    4.94    4.98</time>
   <energy>
    <i name="e_fr_energy">   -124.14440684 </i>
    <i name="e_wo_entrp">   -124.13837104 </i>
    <i name="e_0_energy">   -124.14138894 </i>
   </energy>
  </scstep>
  <scstep>
   <time name="dav">    5.10    5.13</time>
   <time name="total">    5.30    5.35</time>
   <energy>
    <i name="e_fr_energy">   -124.14441017 </i>
    <i name="e_wo_entrp">   -124.13837531 </i>
    <i name="e_0_energy">   -124.14139274 </i>
   </energy>
  </scstep>
  <scstep>
   <time name="dav">    3.94    3.97</time>
   <time name="total">    4.14    4.19</time>
   <energy>
    <i name="e_fr_energy">   -124.14440951 </i>
    <i name="e_wo_entrp">   -124.13837488 </i>
    <i name="e_0_energy">   -124.14139219 </i>
   </energy>
  </scstep>
  <scstep>
   <time name="dav">    5.80    5.84</time>
   <time name="total">    6.00    6.05</time>
   <energy>
    <i name="e_fr_energy">   -124.14440891 </i>
    <i name="e_wo_entrp">   -124.13837416 </i>
    <i name="e_0_energy">   -124.14139154 </i>
   </energy>
  </scstep>
  <scstep>
   <time name="dav">    3.69    3.72</time>
   <time name="total">    3.89    3.93</time>
   <energy>
    <i name="e_fr_energy">   -124.14440946 </i>
    <i name="e_wo_entrp">   -124.13837473 </i>
    <i name="e_0_energy">   -124.14139209 </i>
   </energy>
  </scstep>
  <scstep>
   <time name="dav">    3.92    3.95</time>
   <time name="total">    4.12    4.17</time>
   <energy>
    <i name="e_fr_energy">   -124.14441070 </i>
    <i name="e_wo_entrp">   -124.13837602 </i>
    <i name="e_0_energy">   -124.14139336 </i>
   </energy>
  </scstep>
  <scstep>
   <time name="dav">    3.99    4.02</time>
   <time name="total">    4.19    4.23</time>
   <energy>
    <i name="e_fr_energy">   -124.14441234 </i>
    <i name="e_wo_entrp">   -124.13837769 </i>
    <i name="e_0_energy">   -124.14139502 </i>
   </energy>
  </scstep>
  <scstep>
   <time name="dav">    3.86    3.89</time>
   <time name="total">    4.06    4.11</time>
   <energy>
    <i name="e_fr_energy">   -124.14441396 </i>
    <i name="e_wo_entrp">   -124.13837928 </i>
    <i name="e_0_energy">   -124.14139662 </i>
   </energy>
  </scstep>
  <scstep>
   <time name="dav">    5.57    5.61</time>
   <time name="total">    5.78    5.82</time>
   <energy>
    <i name="e_fr_energy">   -124.14441416 </i>
    <i name="e_wo_entrp">   -124.13837947 </i>
    <i name="e_0_energy">   -124.14139681 </i>
   </energy>
  </scstep>
  <scstep>
   <time name="dav">    4.04    4.07</time>
   <time name="total">    4.24    4.28</time>
   <energy>
    <i name="e_fr_energy">   -124.14441423 </i>
    <i name="e_wo_entrp">   -124.13837954 </i>
    <i name="e_0_energy">   -124.14139688 </i>
   </energy>
  </scstep>
  <scstep>
   <time name="dav">    5.69    5.73</time>
   <time name="total">    5.72    5.76</time>
   <energy>
    <i name="alphaZ">     60.51935305 </i>
    <i name="ewald">   1891.90285182 </i>
    <i name="hartreedc">  -3501.94243376 </i>
    <i name="XCdc">    168.34180626 </i>
    <i name="pawpsdc">   5808.92583805 </i>
    <i name="pawaedc">  -5808.30369516 </i>
    <i name="eentropy">     -0.00603469 </i>
    <i name="bandstr">   -490.08764217 </i>
    <i name="atom">   1746.50554237 </i>
    <i name="e_fr_energy">   -124.14441424 </i>
    <i name="e_wo_entrp">   -124.13837955 </i>
    <i name="e_0_energy">   -124.14139689 </i>
   </energy>
  </scstep>
  <structure>
   <crystal>
    <varray name="basis" >
     <v>       4.31020843       2.48850000       0.00000000 </v>
     <v>      -4.31020843       2.48850000       0.00000000 </v>
     <v>       0.00000000       0.00000000      15.00000000 </v>
    </varray>
    <i name="volume">    321.77861069 </i>
    <varray name="rec_basis" >
     <v>       0.11600367       0.20092425       0.00000000 </v>
     <v>      -0.11600367       0.20092425       0.00000000 </v>
     <v>       0.00000000       0.00000000       0.06666667 </v>
    </varray>
   </crystal>
   <varray name="positions" >
    <v>       0.66978277      -0.00000061       0.10054330 </v>
    <v>       0.33021958       0.00000071       0.10054467 </v>
    <v>       0.00000061       0.33021623       0.10054330 </v>
    <v>      -0.00000071       0.66977942       0.10054467 </v>
    <v>       0.33022002       0.33021963       0.10054490 </v>
    <v>       0.66977937       0.66977898       0.10054490 </v>
    <v>       0.66666558       0.33333342       0.09973859 </v>
    <v>       0.33333235       0.66666665       0.10145167 </v>
    <v>       0.25005794       0.25008492       0.46851399 </v>
    <v>       0.41672803       0.08329968       0.46850521 </v>
    <v>       0.24999695       0.75000205       0.46849930 </v>
    <v>       0.41666231       0.58333669       0.46850894 </v>
    <v>       0.74994322       0.25005578       0.46851122 </v>
    <v>       0.91665826       0.08334074       0.46851947 </v>
    <v>       0.74991408       0.74994106       0.46851399 </v>
    <v>       0.91669932       0.58327097       0.46850521 </v>
   </varray>
  </structure>
  <varray name="forces" >
   <v>      -0.00104733      -0.00074032       0.00876338 </v>
   <v>       0.00098793       0.00021392       0.00875319 </v>
   <v>      -0.00104733       0.00074032       0.00876338 </v>
   <v>       0.00098793      -0.00021392       0.00875319 </v>
   <v>      -0.00008958       0.00076542       0.00874400 </v>
   <v>      -0.00008958      -0.00076542       0.00874400 </v>
   <v>       0.00030670       0.00000000       0.00690953 </v>
   <v>       0.00001448       0.00000000       0.00943573 </v>
   <v>       0.01223070      -0.02727420      -0.00914477 </v>
   <v>      -0.03509590      -0.00543637      -0.00803844 </v>
   <v>       0.00512136       0.00000000      -0.00722795 </v>
   <v>      -0.00116774       0.00000000      -0.00857804 </v>
   <v>       0.04053589       0.00000000      -0.00884071 </v>
   <v>       0.00121769       0.00000000      -0.00985329 </v>
   <v>       0.01223070       0.02727420      -0.00914477 </v>
   <v>      -0.03509590       0.00543637      -0.00803844 </v>
  </varray>
  <varray name="stress" >
   <v>       4.04012056       0.00000000      -0.00069443 </v>
   <v>       0.00000000       4.14779476       0.00000000 </v>
   <v>      -0.00069444       0.00000000      -3.66203269 </v>
  </varray>
  <energy>
   <i name="e_fr_energy">   -125.63703474 </i>
   <i name="e_wo_entrp">   -125.63100005 </i>
   <i name="e_0_energy">   -125.63401739 </i>
  </energy>
  <time name="totalsc">   62.84   63.41</time>
 </calculation>
 <calculation>
  <scstep>
[...]
       <r>     2.5357     1.0366    31.2117 </r>
       <r>     2.6385     1.9003    31.4071 </r>
       <r>     2.7414     1.9474    31.6074 </r>
       <r>     2.8442     1.5100    31.7626 </r>
       <r>     2.9470     1.1796    31.8839 </r>
       <r>     3.0498     1.0807    31.9950 </r>
       <r>     3.1527     1.9943    32.2001 </r>
       <r>     3.2555     2.6748    32.4751 </r>
       <r>     3.3583     2.2576    32.7073 </r>
       <r>     3.4611     1.7884    32.8911 </r>
       <r>     3.5640     2.3238    33.1301 </r>
       <r>     3.6668     3.0160    33.4402 </r>
       <r>     3.7696     2.4191    33.6890 </r>
       <r>     3.8724     2.3788    33.9336 </r>
       <r>     3.9753     2.4282    34.1832 </r>
       <r>     4.0781     2.4914    34.4394 </r>
       <r>     4.1809     2.7368    34.7208 </r>
       <r>     4.2837     3.1659    35.0464 </r>
       <r>     4.3866     3.1422    35.3695 </r>
       <r>     4.4894     2.3950    35.6157 </r>
       <r>     4.5922     2.5968    35.8827 </r>
       <r>     4.6950     3.7055    36.2637 </r>
       <r>     4.7979     2.6961    36.5410 </r>
       <r>     4.9007     2.4777    36.7957 </r>
       <r>     5.0035     3.4288    37.1483 </r>
       <r>     5.1063     3.9778    37.5573 </r>
       <r>     5.2092     3.9037    37.9587 </r>
       <r>     5.3120     3.4207    38.3104 </r>
       <r>     5.4148     2.7315    38.5913 </r>
       <r>     5.5176     2.9975    38.8995 </r>
       <r>     5.6205     3.5133    39.2608 </r>
       <r>     5.7233     3.5929    39.6302 </r>
       <r>     5.8261     2.9048    39.9289 </r>
       <r>     5.9289     2.7489    40.2116 </r>
       <r>     6.0318     2.8554    40.5052 </r>
       <r>     6.1346     3.1768    40.8318 </r>
       <r>     6.2374     2.4532    41.0841 </r>
       <r>     6.3402     2.4865    41.3397 </r>
       <r>     6.4430     2.5262    41.5995 </r>
       <r>     6.5459     2.9153    41.8992 </r>
       <r>     6.6487     3.3981    42.2487 </r>
       <r>     6.7515     4.0842    42.6686 </r>
       <r>     6.8543     3.6201    43.0408 </r>
       <r>     6.9572     3.5227    43.4031 </r>
       <r>     7.0600     3.2061    43.7327 </r>
       <r>     7.1628     3.5193    44.0946 </r>
       <r>     7.2656     4.1576    44.5221 </r>
       <r>     7.3685     5.1479    45.0514 </r>
       <r>     7.4713     5.2873    45.5951 </r>
       <r>     7.5741     4.0090    46.0073 </r>
       <r>     7.6769     3.5222    46.3695 </r>
       <r>     7.7798     4.5915    46.8416 </r>
       <r>     7.8826     4.3523    47.2891 </r>
       <r>     7.9854     3.1520    47.6132 </r>
       <r>     8.0882     2.3060    47.8504 </r>
       <r>     8.1911     1.2106    47.9748 </r>
       <r>     8.2939     0.1927    47.9946 </r>
       <r>     8.3967     0.0401    47.9988 </r>
       <r>     8.4995     0.0114    47.9999 </r>
       <r>     8.6024     0.0006    48.0000 </r>
       <r>     8.7052     0.0000    48.0000 </r>
       <r>     8.8080     0.0000    48.0000 </r>
       <r>     8.9108     0.0000    48.0000 </r>
       <r>     9.0137     0.0000    48.0000 </r>
       <r>     9.1165     0.0000    48.0000 </r>
       <r>     9.2193     0.0000    48.0000 </r>
       <r>     9.3221     0.0000    48.0000 </r>
       <r>     9.4250     0.0000    48.0000 </r>
       <r>     9.5278     0.0000    48.0000 </r>
       <r>     9.6306     0.0000    48.0000 </r>
       <r>     9.7334     0.0000    48.0000 </r>
      </set>
      <set comment="spin 2">
       <r>   -21.1139     0.0000     0.0000 </r>
       <r>   -21.0110     0.0000     0.0000 </r>
       <r>   -20.9082     0.0000     0.0000 </r>
       <r>   -20.8054     0.0000     0.0000 </r>
       <r>   -20.7026     0.0000     0.0000 </r>
       <r>   -20.5997     0.0000     0.0000 </r>
       <r>   -20.4969     0.0000     0.0000 </r>
       <r>   -20.3941     0.0000     0.0000 </r>
       <r>   -20.2913     0.0000     0.0000 </r>
       <r>   -20.1884     0.0000     0.0000 </r>
       <r>   -20.0856     0.0000     0.0000 </r>
       <r>   -19.9828     0.0000     0.0000 </r>
       <r>   -19.8800     0.0012     0.0001 </r>
       <r>   -19.7772     0.0399     0.0042 </r>
       <r>   -19.6743     0.2660     0.0316 </r>
       <r>   -19.5715     0.5504     0.0882 </r>
       <r>   -19.4687     0.6092     0.1508 </r>
       <r>   -19.3659     0.6536     0.2180 </r>
       <r>   -19.2630     0.5684     0.2765 </r>
       <r>   -19.1602     0.7129     0.3498 </r>
       <r>   -19.0574     0.5596     0.4073 </r>
       <r>   -18.9546     0.5944     0.4684 </r>
       <r>   -18.8517     0.7854     0.5492 </r>
       <r>   -18.7489     0.4978     0.6004 </r>
       <r>   -18.6461     0.5578     0.6577 </r>
       <r>   -18.5433     0.8141     0.7415 </r>
       <r>   -18.4404     0.6660     0.8099 </r>
       <r>   -18.3376     0.3909     0.8501 </r>
       <r>   -18.2348     0.6592     0.9179 </r>
       <r>   -18.1320     0.8908     1.0095 </r>
       <r>   -18.0291     0.5869     1.0698 </r>
       <r>   -17.9263     0.4832     1.1195 </r>
       <r>   -17.8235     0.4627     1.1671 </r>
       <r>   -17.7207     0.9409     1.2639 </r>
       <r>   -17.6178     0.8049     1.3466 </r>
       <r>   -17.5150     0.4315     1.3910 </r>
       <r>   -17.4122     0.4795     1.4403 </r>
       <r>   -17.3094     0.5906     1.5010 </r>
       <r>   -17.2065     0.9012     1.5937 </r>
       <r>   -17.1037     0.8334     1.6794 </r>
       <r>   -17.0009     0.5647     1.7374 </r>
       <r>   -16.8981     0.2960     1.7679 </r>
       <r>   -16.7952     0.5900     1.8285 </r>
       <r>   -16.6924     0.9240     1.9236 </r>
       <r>   -16.5896     0.8259     2.0085 </r>
       <r>   -16.4868     0.6797     2.0784 </r>
       <r>   -16.3839     0.5746     2.1375 </r>
       <r>   -16.2811     0.3439     2.1728 </r>
       <r>   -16.1783     0.4752     2.2217 </r>
       <r>   -16.0755     1.1736     2.3423 </r>
       <r>   -15.9727     1.0203     2.4473 </r>
       <r>   -15.8698     1.1617     2.5667 </r>
       <r>   -15.7670     1.3016     2.7006 </r>
       <r>   -15.6642     1.3511     2.8395 </r>
       <r>   -15.5614     1.2758     2.9707 </r>
       <r>   -15.4585     1.6621     3.1416 </r>
       <r>   -15.3557     2.1517     3.3628 </r>
       <r>   -15.2529     1.6974     3.5373 </r>
       <r>   -15.1501     1.7118     3.7134 </r>
       <r>   -15.0472     1.7252     3.8907 </r>
       <r>   -14.9444     1.3093     4.0254 </r>
       <r>   -14.8416     1.1622     4.1449 </r>
       <r>   -14.7388     1.3188     4.2805 </r>
       <r>   -14.6359     1.4013     4.4246 </r>
       <r>   -14.5331     1.1115     4.5389 </r>
       <r>   -14.4303     1.2759     4.6700 </r>
       <r>   -14.3275     1.0432     4.7773 </r>
       <r>   -14.2246     1.2518     4.9060 </r>
       <r>   -14.1218     1.9047     5.1019 </r>
       <r>   -14.0190     1.5996     5.2664 </r>
       <r>   -13.9162     0.8686     5.3557 </r>
       <r>   -13.8133     0.6633     5.4239 </r>
       <r>   -13.7105     0.4962     5.4749 </r>
       <r>   -13.6077     0.5523     5.5317 </r>
       <r>   -13.5049     0.9812     5.6326 </r>
       <r>   -13.4020     1.0844     5.7441 </r>
       <r>   -13.2992     0.8495     5.8314 </r>
       <r>   -13.1964     0.7968     5.9133 </r>
       <r>   -13.0936     0.9728     6.0134 </r>
       <r>   -12.9907     1.0555     6.1219 </r>
       <r>   -12.8879     0.7583     6.1999 </r>
       <r>   -12.7851     1.0635     6.3092 </r>
       <r>   -12.6823     1.2086     6.4335 </r>
       <r>   -12.5794     1.3942     6.5769 </r>
       <r>   -12.4766     1.8408     6.7661 </r>
       <r>   -12.3738     1.5045     6.9208 </r>
       <r>   -12.2710     1.7645     7.1023 </r>
       <r>   -12.1682     1.6971     7.2768 </r>
       <r>   -12.0653     1.6742     7.4489 </r>
       <r>   -11.9625     2.5725     7.7134 </r>
       <r>   -11.8597     2.1854     7.9382 </r>
       <r>   -11.7569     1.4296     8.0852 </r>
       <r>   -11.6540     1.3240     8.2213 </r>
       <r>   -11.5512     1.1247     8.3369 </r>
       <r>   -11.4484     0.9942     8.4392 </r>
       <r>   -11.3456     0.6266     8.5036 </r>
       <r>   -11.2427     0.4560     8.5505 </r>
       <r>   -11.1399     0.6416     8.6165 </r>
       <r>   -11.0371     0.6588     8.6842 </r>
       <r>   -10.9343     0.7370     8.7600 </r>
       <r>   -10.8314     1.0017     8.8630 </r>
       <r>   -10.7286     1.3257     8.9993 </r>
       <r>   -10.6258     1.1622     9.1188 </r>
       <r>   -10.5230     1.7352     9.2972 </r>
       <r>   -10.4201     2.6678     9.5715 </r>
       <r>   -10.3173     1.8349     9.7602 </r>
       <r>   -10.2145     0.9160     9.8544 </r>
       <r>   -10.1117     0.6178     9.9179 </r>
       <r>   -10.0088     1.3763    10.0594 </r>
       <r>    -9.9060     2.0938    10.2747 </r>
       <r>    -9.8032     1.3649    10.4151 </r>
       <r>    -9.7004     0.6647    10.4834 </r>
       <r>    -9.5975     1.0521    10.5916 </r>
       <r>    -9.4947     1.9941    10.7966 </r>
       <r>    -9.3919     2.1723    11.0200 </r>
       <r>    -9.2891     2.0102    11.2267 </r>
       <r>    -9.1862     2.4503    11.4786 </r>
       <r>    -9.0834     1.8580    11.6697 </r>
       <r>    -8.9806     1.1299    11.7859 </r>
       <r>    -8.8778     2.0318    11.9948 </r>
       <r>    -8.7749     2.6969    12.2721 </r>
       <r>    -8.6721     1.5394    12.4304 </r>
       <r>    -8.5693     0.9083    12.5238 </r>
       <r>    -8.4665     1.9086    12.7200 </r>
       <r>    -8.3637     2.6884    12.9965 </r>
       <r>    -8.2608     2.0450    13.2067 </r>
       <r>    -8.1580     1.0651    13.3163 </r>
       <r>    -8.0552     1.8883    13.5104 </r>
       <r>    -7.9524     1.6493    13.6800 </r>
       <r>    -7.8495     1.9872    13.8844 </r>
       <r>    -7.7467     3.3842    14.2323 </r>
       <r>    -7.6439     2.5340    14.4929 </r>
       <r>    -7.5411     1.7637    14.6742 </r>
       <r>    -7.4382     1.7428    14.8534 </r>
       <r>    -7.3354     2.3709    15.0972 </r>
       <r>    -7.2326     2.5551    15.3599 </r>
       <r>    -7.1298     2.0406    15.5698 </r>
       <r>    -7.0269     1.9192    15.7671 </r>
       <r>    -6.9241     2.3223    16.0059 </r>
       <r>    -6.8213     2.9048    16.3046 </r>
       <r>    -6.7185     3.1566    16.6292 </r>
       <r>    -6.6156     3.6593    17.0054 </r>
       <r>    -6.5128     3.7228    17.3882 </r>
       <r>    -6.4100     3.4745    17.7455 </r>
       <r>    -6.3072     3.1320    18.0675 </r>
       <r>    -6.2043     2.7693    18.3523 </r>
       <r>    -6.1015     2.1464    18.5730 </r>
       <r>    -5.9987     2.1173    18.7907 </r>
       <r>    -5.8959     1.9379    18.9900 </r>
       <r>    -5.7930     1.9945    19.1950 </r>
       <r>    -5.6902     2.5883    19.4612 </r>
       <r>    -5.5874     1.9486    19.6615 </r>
       <r>    -5.4846     0.9439    19.7586 </r>
       <r>    -5.3817     1.5736    19.9204 </r>
       <r>    -5.2789     2.5110    20.1786 </r>
       <r>    -5.1761     2.3421    20.4194 </r>
       <r>    -5.0733     1.5180    20.5755 </r>
       <r>    -4.9705     1.7335    20.7537 </r>
       <r>    -4.8676     2.4504    21.0057 </r>
       <r>    -4.7648     1.8513    21.1961 </r>
       <r>    -4.6620     1.1076    21.3100 </r>
       <r>    -4.5592     1.5717    21.4716 </r>
       <r>    -4.4563     2.4969    21.7283 </r>
       <r>    -4.3535     2.5616    21.9917 </r>
       <r>    -4.2507     2.3153    22.2298 </r>
       <r>    -4.1479     2.4322    22.4799 </r>
       <r>    -4.0450     2.4973    22.7366 </r>
       <r>    -3.9422     2.8343    23.0281 </r>
       <r>    -3.8394     3.2318    23.3604 </r>
       <r>    -3.7366     3.5730    23.7278 </r>
       <r>    -3.6337     3.5954    24.0975 </r>
       <r>    -3.5309     2.8960    24.3952 </r>
       <r>    -3.4281     2.0320    24.6042 </r>
       <r>    -3.3253     1.6071    24.7694 </r>
       <r>    -3.2224     1.6274    24.9368 </r>
       <r>    -3.1196     1.2993    25.0704 </r>
       <r>    -3.0168     1.6728    25.2424 </r>
       <r>    -2.9140     2.0879    25.4571 </r>
       <r>    -2.8111     1.5335    25.6147 </r>
       <r>    -2.7083     1.1994    25.7381 </r>
       <r>    -2.6055     1.1581    25.8571 </r>
       <r>    -2.5027     1.9592    26.0586 </r>
       <r>    -2.3998     2.3361    26.2988 </r>
       <r>    -2.2970     1.1850    26.4207 </r>
       <r>    -2.1942     0.8977    26.5130 </r>
       <r>    -2.0914     1.2797    26.6445 </r>
       <r>    -1.9885     1.0649    26.7540 </r>
       <r>    -1.8857     1.0337    26.8603 </r>
       <r>    -1.7829     1.0360    26.9669 </r>
       <r>    -1.6801     1.0579    27.0756 </r>
       <r>    -1.5772     0.9373    27.1720 </r>
       <r>    -1.4744     1.2529    27.3008 </r>
       <r>    -1.3716     0.9687    27.4004 </r>
       <r>    -1.2688     0.5828    27.4604 </r>
       <r>    -1.1660     0.8091    27.5436 </r>
       <r>    -1.0631     0.8776    27.6338 </r>
       <r>    -0.9603     0.8857    27.7249 </r>
       <r>    -0.8575     0.7329    27.8002 </r>
       <r>    -0.7547     0.3425    27.8355 </r>
       <r>    -0.6518     0.1483    27.8507 </r>
       <r>    -0.5490     0.3246    27.8841 </r>
       <r>    -0.4462     0.5340    27.9390 </r>
       <r>    -0.3434     0.3609    27.9761 </r>
       <r>    -0.2405     0.3570    28.0128 </r>
       <r>    -0.1377     0.4288    28.0569 </r>
       <r>    -0.0349     0.4399    28.1021 </r>
       <r>     0.0679     0.3502    28.1381 </r>
       <r>     0.1708     0.6308    28.2030 </r>
       <r>     0.2736     1.1240    28.3186 </r>
       <r>     0.3764     1.3794    28.4604 </r>
       <r>     0.4792     1.3908    28.6034 </r>
       <r>     0.5821     1.0375    28.7101 </r>
       <r>     0.6849     0.6149    28.7733 </r>
       <r>     0.7877     1.1647    28.8931 </r>
       <r>     0.8905     1.4010    29.0371 </r>
       <r>     0.9934     0.7334    29.1126 </r>
       <r>     1.0962     0.6952    29.1840 </r>
       <r>     1.1990     1.6329    29.3519 </r>
       <r>     1.3018     2.2529    29.5836 </r>
       <r>     1.4047     1.9787    29.7870 </r>
       <r>     1.5075     1.5880    29.9503 </r>
       <r>     1.6103     1.0824    30.0616 </r>
       <r>     1.7131     0.8245    30.1464 </r>
       <r>     1.8160     1.2669    30.2767 </r>
       <r>     1.9188     1.4172    30.4224 </r>
       <r>     2.0216     1.7697    30.6044 </r>
       <r>     2.1244     1.6546    30.7745 </r>
       <r>     2.2273     1.1058    30.8882 </r>
       <r>     2.3301     1.2868    31.0205 </r>
       <r>     2.4329     0.8228    31.1051 </r>
       <r>     2.5357     1.0366    31.2117 </r>
       <r>     2.6385     1.9003    31.4071 </r>
       <r>     2.7414     1.9474    31.6074 </r>
       <r>     2.8442     1.5100    31.7626 </r>
       <r>     2.9470     1.1796    31.8839 </r>
       <r>     3.0498     1.0807    31.9950 </r>
       <r>     3.1527     1.9943    32.2001 </r>
       <r>     3.2555     2.6748    32.4751 </r>
       <r>     3.3583     2.2576    32.7073 </r>
       <r>     3.4611     1.7884    32.8911 </r>
       <r>     3.5640     2.3238    33.1301 </r>
       <r>     3.6668     3.0160    33.4402 </r>
       <r>     3.7696     2.4191    33.6890 </r>
       <r>     3.8724     2.3788    33.9336 </r>
       <r>     3.9753     2.4282    34.1832 </r>
       <r>     4.0781     2.4914    34.4394 </r>
       <r>     4.1809     2.7368    34.7208 </r>
       <r>     4.2837     3.1660    35.0464 </r>
       <r>     4.3866     3.1422    35.3695 </r>
       <r>     4.4894     2.3950    35.6157 </r>
       <r>     4.5922     2.5968    35.8827 </r>
       <r>     4.6950     3.7056    36.2637 </r>
       <r>     4.7979     2.6962    36.5410 </r>
       <r>     4.9007     2.4777    36.7957 </r>
       <r>     5.0035     3.4288    37.1483 </r>
       <r>     5.1063     3.9778    37.5573 </r>
       <r>     5.2092     3.9036    37.9587 </r>
       <r>     5.3120     3.4207    38.3104 </r>
       <r>     5.4148     2.7315    38.5913 </r>
       <r>     5.5176     2.9975    38.8995 </r>
       <r>     5.6205     3.5133    39.2608 </r>
       <r>     5.7233     3.5929    39.6302 </r>
       <r>     5.8261     2.9048    39.9289 </r>
       <r>     5.9289     2.7489    40.2116 </r>
       <r>     6.0318     2.8555    40.5052 </r>
       <r>     6.1346     3.1767    40.8318 </r>
       <r>     6.2374     2.4532    41.0841 </r>
       <r>     6.3402     2.4864    41.3397 </r>
       <r>     6.4430     2.5262    41.5995 </r>
       <r>     6.5459     2.9153    41.8993 </r>
       <r>     6.6487     3.3981    42.2487 </r>
       <r>     6.7515     4.0841    42.6686 </r>
       <r>     6.8543     3.6201    43.0408 </r>
       <r>     6.9572     3.5227    43.4031 </r>
       <r>     7.0600     3.2061    43.7327 </r>
       <r>     7.1628     3.5194    44.0946 </r>
       <r>     7.2656     4.1576    44.5221 </r>
       <r>     7.3685     5.1480    45.0514 </r>
       <r>     7.4713     5.2873    45.5951 </r>
       <r>     7.5741     4.0090    46.0073 </r>
       <r>     7.6769     3.5222    46.3695 </r>
       <r>     7.7798     4.5915    46.8416 </r>
       <r>     7.8826     4.3523    47.2891 </r>
       <r>     7.9854     3.1520    47.6132 </r>
       <r>     8.0882     2.3060    47.8504 </r>
       <r>     8.1911     1.2106    47.9748 </r>
       <r>     8.2939     0.1927    47.9946 </r>
       <r>     8.3967     0.0401    47.9988 </r>
       <r>     8.4995     0.0114    47.9999 </r>
       <r>     8.6024     0.0006    48.0000 </r>
       <r>     8.7052     0.0000    48.0000 </r>
       <r>     8.8080     0.0000    48.0000 </r>
       <r>     8.9108     0.0000    48.0000 </r>
       <r>     9.0137     0.0000    48.0000 </r>
       <r>     9.1165     0.0000    48.0000 </r>
       <r>     9.2193     0.0000    48.0000 </r>
       <r>     9.3221     0.0000    48.0000 </r>
       <r>     9.4250     0.0000    48.0000 </r>
       <r>     9.5278     0.0000    48.0000 </r>
       <r>     9.6306     0.0000    48.0000 </r>
       <r>     9.7334     0.0000    48.0000 </r>
      </set>
     </set>
    </array>
   </total>
  </dos>
 </calculation>
 <structure name="finalpos" >
  <crystal>
   <varray name="basis" >
    <v>       4.31020843       2.48850000       0.00000000 </v>
    <v>      -4.31020843       2.48850000       0.00000000 </v>
    <v>       0.00000000       0.00000000      15.00000000 </v>
   </varray>
   <i name="volume">    321.77861069 </i>
   <varray name="rec_basis" >
    <v>       0.11600367       0.20092425       0.00000000 </v>
    <v>      -0.11600367       0.20092425       0.00000000 </v>
    <v>       0.00000000       0.00000000       0.06666667 </v>
   </varray>
  </crystal>
  <varray name="positions" >
   <v>       0.67704955      -0.00794399       0.16810402 </v>
   <v>       0.33968471      -0.00785985       0.16889295 </v>
   <v>       0.00794399       0.32294945       0.16810402 </v>
   <v>       0.00785985       0.66031429       0.16889295 </v>
   <v>       0.33933728       0.32298989       0.16708714 </v>
   <v>       0.67700911       0.66066172       0.16708714 </v>
   <v>       0.67430748       0.32569152       0.15500692 </v>
   <v>       0.34110710       0.65889190       0.17886478 </v>
   <v>       0.24197410       0.25807507       0.40142940 </v>
   <v>       0.40864507       0.09137153       0.40132969 </v>
   <v>       0.24184431       0.75815469       0.40122692 </v>
   <v>       0.40865113       0.59134787       0.40132325 </v>
   <v>       0.74200827       0.25799073       0.40116305 </v>
   <v>       0.90868633       0.09131267       0.40126201 </v>
   <v>       0.74192393       0.75802490       0.40142940 </v>
   <v>       0.90862747       0.59135393       0.40132969 </v>
  </varray>
 </structure>
</modeling>
