       N       E                     dE             d eps       ncg     rms          rms(c)
DAV:   1     0.203454640088E+03    0.20345E+03   -0.25705E+04 14208   0.859E+02
DAV:   2    -0.116705831966E+03   -0.32016E+03   -0.31862E+03 20304   0.163E+02
DAV:   3    -0.129563830513E+03   -0.12858E+02   -0.12833E+02 26496   0.428E+01
DAV:   4    -0.129589533740E+03   -0.25703E-01   -0.25702E-01 20016   0.184E+00
DAV:   5    -0.129589603077E+03   -0.69336E-04   -0.69337E-04 25824   0.934E-02    0.246E+01
DAV:   6    -0.922030665025E+02    0.37387E+02   -0.71668E+01 25392   0.255E+01    0.140E+01
DAV:   7    -0.100671178154E+03   -0.84681E+01   -0.10007E+01 21888   0.102E+01    0.815E+00
DAV:   8    -0.110479664796E+03   -0.98085E+01   -0.88288E+00 25056   0.897E+00    0.437E+00
DAV:   9    -0.117349984932E+03   -0.68703E+01   -0.40947E+00 20112   0.625E+00    0.279E+00
DAV:  10    -0.123639167117E+03   -0.62892E+01   -0.83232E+00 24288   0.706E+00    0.161E+00
DAV:  11    -0.125268055245E+03   -0.16289E+01   -0.23584E+00 25200   0.367E+00    0.987E-01
DAV:  12    -0.125426643269E+03   -0.15859E+00   -0.23513E-01 19968   0.142E+00    0.444E-01
DAV:  13    -0.125461309747E+03   -0.34666E-01   -0.24313E-02 17808   0.568E-01    0.181E-01
DAV:  14    -0.125484274048E+03   -0.22964E-01   -0.66624E-03 20544   0.286E-01    0.818E-02
DAV:  15    -0.125491026958E+03   -0.67529E-02   -0.29157E-03 18720   0.153E-01    0.427E-02
DAV:  16    -0.125493037716E+03   -0.20108E-02   -0.59276E-04 15888   0.807E-02    0.223E-02
DAV:  17    -0.125494302536E+03   -0.12648E-02   -0.15345E-04 17952   0.510E-02    0.170E-02
DAV:  18    -0.125495077721E+03   -0.77519E-03   -0.82597E-05 17712   0.389E-02    0.119E-02
DAV:  19    -0.125495505809E+03   -0.42809E-03   -0.40662E-05 20208   0.252E-02    0.699E-03
DAV:  20    -0.125495539967E+03   -0.34157E-04   -0.17954E-05 22848   0.171E-02    0.412E-03
DAV:  21    -0.125495566993E+03   -0.27027E-04   -0.57978E-06 21072   0.970E-03    0.217E-03
DAV:  22    -0.125495590532E+03   -0.23538E-04   -0.26501E-06 22800   0.572E-03    0.133E-03
DAV:  23    -0.125495602219E+03   -0.11687E-04   -0.14164E-06 21504   0.383E-03    0.696E-04
DAV:  24    -0.125495604680E+03   -0.24613E-05   -0.27199E-07 23424   0.200E-03    0.366E-04
DAV:  25    -0.125495605707E+03   -0.10264E-05   -0.11263E-07 21072   0.113E-03    0.186E-04
DAV:  26    -0.125495606210E+03   -0.50364E-06   -0.28580E-08 22800   0.580E-04    0.795E-05
DAV:  27    -0.125495606400E+03   -0.19006E-06   -0.87958E-09 22848   0.259E-04    0.460E-05
DAV:  28    -0.125495606537E+03   -0.13688E-06   -0.31161E-09 20208   0.147E-04    0.155E-05
DAV:  29    -0.125495606592E+03   -0.54482E-07   -0.90609E-10 22656   0.691E-05    0.831E-06
DAV:  30    -0.125495606599E+03   -0.73360E-08   -0.16364E-10 23808   0.267E-05
   1 F= -.12710108E+03 E0= -.12710031E+03  d E =-.127101E+03  mag=     0.0000
       N       E                     dE             d eps       ncg     rms          rms(c)
DAV:   1    -0.125502008653E+03   -0.64021E-02   -0.27880E+00 14208   0.538E+00    0.457E-01
DAV:   2    -0.125494467967E+03    0.75407E-02   -0.55133E-02 26400   0.708E-01    0.203E-01
DAV:   3    -0.125493593112E+03    0.87485E-03   -0.49112E-03 22368   0.208E-01    0.786E-02
DAV:   4    -0.125493554127E+03    0.38985E-04   -0.54469E-04 26112   0.715E-02    0.224E-02
DAV:   5    -0.125493556597E+03   -0.24700E-05   -0.16686E-05 25392   0.142E-02    0.753E-03
DAV:   6    -0.125493556612E+03   -0.15321E-07   -0.31058E-06 19248   0.561E-03    0.322E-03
DAV:   7    -0.125493556886E+03   -0.27366E-06   -0.35074E-07 24864   0.190E-03    0.110E-03
DAV:   8    -0.125493557215E+03   -0.32945E-06   -0.69403E-08 22128   0.908E-04    0.416E-04
DAV:   9    -0.125493557552E+03   -0.33676E-06   -0.21968E-08 19920   0.462E-04    0.167E-04
DAV:  10    -0.125493557931E+03   -0.37944E-06   -0.21837E-08 21792   0.370E-04    0.125E-04
DAV:  11    -0.125493558246E+03   -0.31444E-06   -0.18924E-08 21216   0.303E-04    0.920E-05
DAV:  12    -0.125493558391E+03   -0.14510E-06   -0.46271E-09 22464   0.136E-04    0.467E-05
DAV:  13    -0.125493558467E+03   -0.76330E-07   -0.21384E-09 21984   0.746E-05    0.308E-05
DAV:  14    -0.125493558491E+03   -0.23750E-07   -0.34164E-10 24432   0.313E-05    0.163E-05
DAV:  15    -0.125493558511E+03   -0.20393E-07   -0.47855E-10 20688   0.353E-05    0.684E-06
DAV:  16    -0.125493558518E+03   -0.62255E-08   -0.14882E-10 24912   0.218E-05
   2 F= -.12709854E+03 E0= -.12709776E+03  d E =0.254725E-02  mag=     0.0000
       N       E                     dE             d eps       ncg     rms          rms(c)
DAV:   1    -0.125503858789E+03   -0.10300E-01   -0.83847E-01 14208   0.295E+00    0.251E-01
DAV:   2    -0.125501560143E+03    0.22986E-02   -0.16624E-02 26112   0.388E-01    0.111E-01
DAV:   3    -0.125501303885E+03    0.25626E-03   -0.14633E-03 24000   0.114E-01    0.436E-02
DAV:   4    -0.125501292423E+03    0.11462E-04   -0.16116E-04 22848   0.387E-02    0.122E-02
DAV:   5    -0.125501293051E+03   -0.62783E-06   -0.57023E-06 24720   0.818E-03    0.393E-03
DAV:   6    -0.125501293057E+03   -0.56361E-08   -0.12349E-06 20880   0.345E-03    0.118E-03
DAV:   7    -0.125501293211E+03   -0.15392E-06   -0.89216E-08 23280   0.101E-03    0.422E-04
DAV:   8    -0.125501293419E+03   -0.20838E-06   -0.20212E-08 20256   0.432E-04    0.185E-04
DAV:   9    -0.125501293554E+03   -0.13515E-06   -0.39274E-09 22752   0.169E-04    0.889E-05
DAV:  10    -0.125501293791E+03   -0.23677E-06   -0.11887E-08 20448   0.215E-04    0.739E-05
DAV:  11    -0.125501293973E+03   -0.18199E-06   -0.88025E-09 21456   0.164E-04    0.370E-05
DAV:  12    -0.125501294076E+03   -0.10335E-06   -0.34589E-09 21408   0.962E-05    0.226E-05
DAV:  13    -0.125501294113E+03   -0.36182E-07   -0.67945E-10 22368   0.466E-05    0.119E-05
DAV:  14    -0.125501294127E+03   -0.13999E-07   -0.23023E-10 23232   0.248E-05    0.582E-06
DAV:  15    -0.125501294133E+03   -0.60209E-08   -0.13713E-10 22992   0.204E-05
   3 F= -.12710655E+03 E0= -.12710578E+03  d E =-.546263E-02  mag=     0.0000
       N       E                     dE             d eps       ncg     rms          rms(c)
DAV:   1    -0.125505015203E+03   -0.37211E-02   -0.21895E-01 14208   0.180E+00    0.103E-01
DAV:   2    -0.125505014136E+03    0.10673E-05   -0.20119E-03 27360   0.192E-01    0.593E-02
DAV:   3    -0.125505001678E+03    0.12458E-04   -0.21916E-04 22656   0.551E-02    0.204E-02
DAV:   4    -0.125505002122E+03   -0.44463E-06   -0.42538E-05 24192   0.231E-02    0.854E-03
DAV:   5    -0.125505002765E+03   -0.64277E-06   -0.21142E-06 22320   0.608E-03    0.293E-03
DAV:   6    -0.125505002751E+03    0.14387E-07   -0.54721E-07 23040   0.283E-03    0.983E-04
DAV:   7    -0.125505002808E+03   -0.57225E-07   -0.16180E-07 22464   0.147E-03    0.360E-04
DAV:   8    -0.125505002983E+03   -0.17498E-06   -0.71073E-08 21408   0.882E-04    0.235E-04
DAV:   9    -0.125505003110E+03   -0.12718E-06   -0.16669E-08 23568   0.402E-04    0.152E-04
DAV:  10    -0.125505003222E+03   -0.11140E-06   -0.62551E-09 23232   0.225E-04    0.635E-05
DAV:  11    -0.125505003342E+03   -0.12012E-06   -0.30821E-09 22656   0.125E-04    0.429E-05
DAV:  12    -0.125505003561E+03   -0.21933E-06   -0.56856E-09 20640   0.135E-04    0.222E-05
DAV:  13    -0.125505003654E+03   -0.93274E-07   -0.17420E-09 21888   0.776E-05    0.146E-05
DAV:  14    -0.125505003691E+03   -0.37146E-07   -0.54100E-10 21168   0.500E-05    0.842E-06
DAV:  15    -0.125505003700E+03   -0.86857E-08   -0.15681E-10 24480   0.270E-05
   4 F= -.12711016E+03 E0= -.12710939E+03  d E =-.361797E-02  mag=     0.0000
       N       E                     dE             d eps       ncg     rms          rms(c)
DAV:   1    -0.125506702810E+03   -0.16991E-02   -0.31365E-01 14208   0.216E+00    0.123E-01
DAV:   2    -0.125506704744E+03   -0.19346E-05   -0.28727E-03 27360   0.229E-01    0.708E-02
DAV:   3    -0.125506687134E+03    0.17611E-04   -0.31351E-04 22848   0.658E-02    0.243E-02
DAV:   4    -0.125506687744E+03   -0.61000E-06   -0.60801E-05 24960   0.276E-02    0.103E-02
DAV:   5    -0.125506688688E+03   -0.94410E-06   -0.28902E-06 21504   0.714E-03    0.349E-03
DAV:   6    -0.125506688693E+03   -0.49040E-08   -0.74507E-07 22656   0.332E-03    0.118E-03
DAV:   7    -0.125506688784E+03   -0.91354E-07   -0.20857E-07 22656   0.167E-03    0.414E-04
DAV:   8    -0.125506689017E+03   -0.23250E-06   -0.91336E-08 21264   0.100E-03    0.264E-04
DAV:   9    -0.125506689191E+03   -0.17474E-06   -0.24252E-08 23664   0.478E-04    0.167E-04
DAV:  10    -0.125506689322E+03   -0.13046E-06   -0.76285E-09 23232   0.247E-04    0.745E-05
DAV:  11    -0.125506689450E+03   -0.12828E-06   -0.36111E-09 23040   0.136E-04    0.488E-05
DAV:  12    -0.125506689683E+03   -0.23322E-06   -0.60451E-09 20496   0.138E-04    0.266E-05
DAV:  13    -0.125506689799E+03   -0.11567E-06   -0.22777E-09 22080   0.887E-05    0.174E-05
DAV:  14    -0.125506689850E+03   -0.50904E-07   -0.77841E-10 20112   0.581E-05    0.995E-06
DAV:  15    -0.125506689863E+03   -0.13550E-07   -0.25862E-10 24240   0.335E-05    0.558E-06
DAV:  16    -0.125506689864E+03   -0.10305E-08   -0.93404E-12 20640   0.106E-05
   5 F= -.12711172E+03 E0= -.12711095E+03  d E =-.517466E-02  mag=     0.0000
       N       E                     dE             d eps       ncg     rms          rms(c)
DAV:   1    -0.125507785728E+03   -0.10959E-02   -0.13405E-02 14208   0.415E-01    0.246E-02
DAV:   2    -0.125507786963E+03   -0.12352E-05   -0.98485E-05 26976   0.411E-02    0.144E-02
DAV:   3    -0.125507786749E+03    0.21414E-06   -0.11059E-05 16224   0.124E-02    0.367E-03
DAV:   4    -0.125507786862E+03   -0.11355E-06   -0.19361E-06 26880   0.513E-03    0.158E-03
DAV:   5    -0.125507786909E+03   -0.47230E-07   -0.62076E-08 21744   0.105E-03    0.700E-04
DAV:   6    -0.125507786907E+03    0.25884E-08   -0.32152E-08 20736   0.646E-04
   6 F= -.12711280E+03 E0= -.12711202E+03  d E =-.107570E-02  mag=     0.0000
       N       E                     dE             d eps       ncg     rms          rms(c)
DAV:   1    -0.125510569648E+03   -0.27827E-02   -0.12085E-01 14208   0.125E+00    0.738E-02
DAV:   2    -0.125510584810E+03   -0.15162E-04   -0.88788E-04 22752   0.123E-01    0.431E-02
DAV:   3    -0.125510579612E+03    0.51976E-05   -0.10733E-04 21600   0.385E-02    0.112E-02
DAV:   4    -0.125510579677E+03   -0.64805E-07   -0.17332E-05 24576   0.153E-02    0.490E-03
DAV:   5    -0.125510579953E+03   -0.27599E-06   -0.65625E-07 21600   0.344E-03    0.205E-03
DAV:   6    -0.125510579920E+03    0.33380E-07   -0.28830E-07 22656   0.195E-03    0.499E-04
DAV:   7    -0.125510579914E+03    0.59590E-08   -0.78321E-08 21312   0.983E-04
   7 F= -.12711552E+03 E0= -.12711475E+03  d E =-.380230E-02  mag=     0.0000
       N       E                     dE             d eps       ncg     rms          rms(c)
DAV:   1    -0.125513923865E+03   -0.33439E-02   -0.48497E-01 14208   0.249E+00    0.147E-01
DAV:   2    -0.125513992983E+03   -0.69118E-04   -0.36133E-03 23808   0.248E-01    0.859E-02
DAV:   3    -0.125513968383E+03    0.24599E-04   -0.42021E-04 22368   0.760E-02    0.225E-02
DAV:   4    -0.125513968341E+03    0.42322E-07   -0.67443E-05 24912   0.301E-02    0.970E-03
DAV:   5    -0.125513969261E+03   -0.92019E-06   -0.24679E-06 22512   0.668E-03    0.409E-03
DAV:   6    -0.125513969216E+03    0.45499E-07   -0.10927E-06 22752   0.378E-03    0.986E-04
DAV:   7    -0.125513969354E+03   -0.13813E-06   -0.26285E-07 22944   0.181E-03    0.521E-04
DAV:   8    -0.125513969534E+03   -0.18017E-06   -0.10334E-07 23424   0.105E-03    0.352E-04
DAV:   9    -0.125513969664E+03   -0.12977E-06   -0.26729E-08 23328   0.538E-04    0.188E-04
DAV:  10    -0.125513969837E+03   -0.17305E-06   -0.18735E-08 23472   0.421E-04    0.748E-05
DAV:  11    -0.125513969978E+03   -0.14085E-06   -0.56242E-09 23952   0.202E-04    0.539E-05
DAV:  12    -0.125513970208E+03   -0.23041E-06   -0.67391E-09 20832   0.181E-04    0.300E-05
DAV:  13    -0.125513970320E+03   -0.11208E-06   -0.22977E-09 22992   0.139E-04    0.213E-05
DAV:  14    -0.125513970394E+03   -0.74038E-07   -0.14630E-09 19392   0.931E-05    0.117E-05
DAV:  15    -0.125513970414E+03   -0.19681E-07   -0.31623E-10 25344   0.454E-05    0.652E-06
DAV:  16    -0.125513970417E+03   -0.31205E-08   -0.39378E-11 20112   0.172E-05
   8 F= -.12711877E+03 E0= -.12711800E+03  d E =-.704973E-02  mag=    -0.0000
       N       E                     dE             d eps       ncg     rms          rms(c)
DAV:   1    -0.125512025557E+03    0.19449E-02   -0.19512E+00 14208   0.498E+00    0.294E-01
DAV:   2    -0.125512334300E+03   -0.30874E-03   -0.15002E-02 27168   0.503E-01    0.171E-01
DAV:   3    -0.125512227554E+03    0.10675E-03   -0.15822E-03 21888   0.146E-01    0.455E-02
DAV:   4    -0.125512231869E+03   -0.43149E-05   -0.25297E-04 25632   0.584E-02    0.188E-02
DAV:   5    -0.125512235943E+03   -0.40739E-05   -0.82839E-06 23328   0.123E-02    0.795E-03
DAV:   6    -0.125512235613E+03    0.32924E-06   -0.38868E-06 23040   0.715E-03    0.181E-03
DAV:   7    -0.125512235751E+03   -0.13765E-06   -0.84585E-07 23088   0.329E-03    0.893E-04
DAV:   8    -0.125512236027E+03   -0.27593E-06   -0.37875E-07 22608   0.201E-03    0.455E-04
DAV:   9    -0.125512236260E+03   -0.23304E-06   -0.75477E-08 24240   0.904E-04    0.310E-04
DAV:  10    -0.125512236475E+03   -0.21546E-06   -0.27353E-08 24000   0.511E-04    0.138E-04
DAV:  11    -0.125512236708E+03   -0.23269E-06   -0.13568E-08 23760   0.310E-04    0.885E-05
DAV:  12    -0.125512236942E+03   -0.23374E-06   -0.76557E-09 23040   0.179E-04    0.442E-05
DAV:  13    -0.125512237142E+03   -0.20053E-06   -0.46524E-09 22272   0.119E-04    0.320E-05
DAV:  14    -0.125512237279E+03   -0.13675E-06   -0.29393E-09 22320   0.990E-05    0.187E-05
DAV:  15    -0.125512237344E+03   -0.64761E-07   -0.13267E-09 20928   0.710E-05    0.104E-05
DAV:  16    -0.125512237352E+03   -0.85065E-08   -0.10515E-10 24240   0.246E-05
   9 F= -.12711671E+03 E0= -.12711594E+03  d E =-.499078E-02  mag=     0.0000
       N       E                     dE             d eps       ncg     rms          rms(c)
DAV:   1    -0.125514559188E+03   -0.23218E-02   -0.90313E-01 14208   0.339E+00    0.200E-01
DAV:   2    -0.125514684005E+03   -0.12482E-03   -0.69485E-03 27936   0.342E-01    0.116E-01
DAV:   3    -0.125514631162E+03    0.52843E-04   -0.71490E-04 20880   0.990E-02    0.312E-02
DAV:   4    -0.125514633785E+03   -0.26233E-05   -0.11697E-04 24672   0.399E-02    0.127E-02
DAV:   5    -0.125514635554E+03   -0.17690E-05   -0.39254E-06 22992   0.843E-03    0.544E-03
DAV:   6    -0.125514635262E+03    0.29219E-06   -0.16941E-06 22272   0.473E-03    0.123E-03
DAV:   7    -0.125514635221E+03    0.40786E-07   -0.35348E-07 23712   0.216E-03    0.594E-04
DAV:   8    -0.125514635262E+03   -0.40729E-07   -0.14376E-07 20064   0.127E-03    0.323E-04
DAV:   9    -0.125514635323E+03   -0.60645E-07   -0.28743E-08 25632   0.567E-04    0.220E-04
DAV:  10    -0.125514635419E+03   -0.96092E-07   -0.14716E-08 23424   0.386E-04    0.915E-05
DAV:  11    -0.125514635540E+03   -0.12134E-06   -0.59605E-09 19776   0.221E-04    0.586E-05
DAV:  12    -0.125514635678E+03   -0.13770E-06   -0.26891E-09 19776   0.113E-04    0.286E-05
DAV:  13    -0.125514635748E+03   -0.70322E-07   -0.99061E-10 22128   0.590E-05    0.206E-05
DAV:  14    -0.125514635782E+03   -0.34128E-07   -0.44820E-10 21744   0.418E-05    0.130E-05
DAV:  15    -0.125514635797E+03   -0.15276E-07   -0.24239E-10 22800   0.308E-05    0.786E-06
DAV:  16    -0.125514635801E+03   -0.34270E-08   -0.38960E-11 23616   0.141E-05
  10 F= -.12711934E+03 E0= -.12711856E+03  d E =-.761667E-02  mag=    -0.0000
       N       E                     dE             d eps       ncg     rms          rms(c)
DAV:   1    -0.125516206415E+03   -0.15706E-02   -0.57547E-02 14208   0.801E-01    0.471E-02
DAV:   2    -0.125516213873E+03   -0.74579E-05   -0.34497E-04 26688   0.695E-02    0.278E-02
DAV:   3    -0.125516211525E+03    0.23477E-05   -0.41506E-05 19392   0.209E-02    0.532E-03
DAV:   4    -0.125516211702E+03   -0.17698E-06   -0.35737E-06 21696   0.741E-03    0.246E-03
DAV:   5    -0.125516211575E+03    0.12663E-06   -0.35804E-07 22320   0.231E-03    0.930E-04
DAV:   6    -0.125516211456E+03    0.11899E-06   -0.16225E-07 24480   0.141E-03    0.320E-04
DAV:   7    -0.125516211425E+03    0.31150E-07   -0.95568E-08 22512   0.968E-04    0.211E-04
DAV:   8    -0.125516211470E+03   -0.45417E-07   -0.24956E-08 19680   0.493E-04    0.128E-04
DAV:   9    -0.125516211531E+03   -0.60915E-07   -0.50263E-09 19200   0.219E-04    0.791E-05
DAV:  10    -0.125516211596E+03   -0.64550E-07   -0.27132E-09 18000   0.129E-04    0.376E-05
DAV:  11    -0.125516211652E+03   -0.55772E-07   -0.19401E-09 16608   0.782E-05    0.198E-05
DAV:  12    -0.125516211680E+03   -0.28272E-07   -0.11286E-09 19680   0.499E-05    0.118E-05
DAV:  13    -0.125516211688E+03   -0.79781E-08   -0.27923E-10 21216   0.271E-05
  11 F= -.12712081E+03 E0= -.12712004E+03  d E =-.147530E-02  mag=     0.0000
       N       E                     dE             d eps       ncg     rms          rms(c)
DAV:   1    -0.125519771356E+03   -0.35597E-02   -0.51856E-01 14208   0.240E+00    0.140E-01
DAV:   2    -0.125519851103E+03   -0.79746E-04   -0.30236E-03 27360   0.207E-01    0.829E-02
DAV:   3    -0.125519824348E+03    0.26755E-04   -0.37696E-04 21888   0.626E-02    0.153E-02
DAV:   4    -0.125519824657E+03   -0.30901E-06   -0.29882E-05 23760   0.217E-02    0.734E-03
DAV:   5    -0.125519823388E+03    0.12689E-05   -0.28758E-06 21408   0.661E-03    0.277E-03
DAV:   6    -0.125519822383E+03    0.10042E-05   -0.13665E-06 23280   0.411E-03    0.930E-04
DAV:   7    -0.125519822155E+03    0.22873E-06   -0.89470E-07 22464   0.292E-03    0.586E-04
DAV:   8    -0.125519822556E+03   -0.40085E-06   -0.19589E-07 20352   0.139E-03    0.328E-04
DAV:   9    -0.125519823245E+03   -0.68895E-06   -0.66151E-08 18000   0.756E-04    0.181E-04
DAV:  10    -0.125519823565E+03   -0.32089E-06   -0.10810E-08 19248   0.277E-04    0.110E-04
DAV:  11    -0.125519824017E+03   -0.45111E-06   -0.16813E-08 16992   0.215E-04    0.550E-05
DAV:  12    -0.125519824198E+03   -0.18145E-06   -0.69217E-09 20208   0.129E-04    0.337E-05
DAV:  13    -0.125519824263E+03   -0.64921E-07   -0.27358E-09 18768   0.821E-05    0.196E-05
DAV:  14    -0.125519824277E+03   -0.13680E-07   -0.45724E-10 24816   0.395E-05    0.921E-06
DAV:  15    -0.125519824281E+03   -0.41418E-08   -0.11269E-10 21744   0.188E-05
  12 F= -.12712412E+03 E0= -.12712335E+03  d E =-.478554E-02  mag=    -0.0000
       N       E                     dE             d eps       ncg     rms          rms(c)
DAV:   1    -0.125522347630E+03   -0.25234E-02   -0.20773E+00 14208   0.481E+00    0.277E-01
DAV:   2    -0.125522742031E+03   -0.39440E-03   -0.11816E-02 28128   0.411E-01    0.164E-01
DAV:   3    -0.125522641105E+03    0.10093E-03   -0.15242E-03 22080   0.125E-01    0.284E-02
DAV:   4    -0.125522640146E+03    0.95851E-06   -0.11429E-04 24096   0.427E-02    0.145E-02
DAV:   5    -0.125522635877E+03    0.42693E-05   -0.10787E-05 22368   0.129E-02    0.549E-03
DAV:   6    -0.125522632829E+03    0.30480E-05   -0.47472E-06 24960   0.770E-03    0.178E-03
DAV:   7    -0.125522632270E+03    0.55856E-06   -0.30127E-06 20784   0.536E-03    0.111E-03
DAV:   8    -0.125522633796E+03   -0.15258E-05   -0.74635E-07 22464   0.266E-03    0.644E-04
DAV:   9    -0.125522636334E+03   -0.25384E-05   -0.28953E-07 20064   0.156E-03    0.323E-04
DAV:  10    -0.125522637306E+03   -0.97113E-06   -0.38055E-08 21696   0.540E-04    0.218E-04
DAV:  11    -0.125522638652E+03   -0.13462E-05   -0.50407E-08 16752   0.383E-04    0.109E-04
DAV:  12    -0.125522639286E+03   -0.63406E-06   -0.24874E-08 20160   0.248E-04    0.644E-05
DAV:  13    -0.125522639526E+03   -0.24023E-06   -0.11115E-08 18960   0.165E-04    0.324E-05
DAV:  14    -0.125522639568E+03   -0.41519E-07   -0.13553E-09 24720   0.842E-05    0.168E-05
DAV:  15    -0.125522639580E+03   -0.12825E-07   -0.28493E-10 20928   0.464E-05    0.885E-06
DAV:  16    -0.125522639588E+03   -0.78244E-08   -0.15868E-10 24288   0.330E-05
  13 F= -.12712633E+03 E0= -.12712556E+03  d E =-.699396E-02  mag=    -0.0000
       N       E                     dE             d eps       ncg     rms          rms(c)
DAV:   1    -0.125524202348E+03   -0.15628E-02   -0.11055E-01 14208   0.121E+00    0.654E-02
DAV:   2    -0.125524218072E+03   -0.15724E-04   -0.75327E-04 27744   0.114E-01    0.395E-02
DAV:   3    -0.125524207902E+03    0.10169E-04   -0.10444E-04 20208   0.371E-02    0.779E-03
DAV:   4    -0.125524207996E+03   -0.94269E-07   -0.10556E-05 22080   0.130E-02    0.439E-03
DAV:   5    -0.125524207894E+03    0.10234E-06   -0.70115E-07 24000   0.341E-03    0.187E-03
DAV:   6    -0.125524207704E+03    0.19062E-06   -0.30549E-07 23568   0.210E-03    0.464E-04
DAV:   7    -0.125524207683E+03    0.20825E-07   -0.11404E-07 24576   0.118E-03    0.316E-04
DAV:   8    -0.125524207812E+03   -0.12926E-06   -0.79990E-08 20400   0.876E-04    0.187E-04
DAV:   9    -0.125524207947E+03   -0.13529E-06   -0.14652E-08 20640   0.402E-04    0.124E-04
DAV:  10    -0.125524208082E+03   -0.13434E-06   -0.59190E-09 20880   0.227E-04    0.591E-05
DAV:  11    -0.125524208200E+03   -0.11874E-06   -0.35177E-09 20304   0.118E-04    0.380E-05
DAV:  12    -0.125524208279E+03   -0.78789E-07   -0.26741E-09 19104   0.881E-05    0.184E-05
DAV:  13    -0.125524208303E+03   -0.23722E-07   -0.70683E-10 23664   0.580E-05    0.133E-05
DAV:  14    -0.125524208312E+03   -0.88839E-08   -0.28097E-10 21408   0.379E-05
  14 F= -.12712776E+03 E0= -.12712699E+03  d E =-.143092E-02  mag=     0.0000
       N       E                     dE             d eps       ncg     rms          rms(c)
DAV:   1    -0.125525694532E+03   -0.14862E-02   -0.47680E-01 14208   0.252E+00    0.135E-01
DAV:   2    -0.125525771360E+03   -0.76828E-04   -0.32067E-03 27648   0.237E-01    0.818E-02
DAV:   3    -0.125525724152E+03    0.47208E-04   -0.45696E-04 21504   0.776E-02    0.158E-02
DAV:   4    -0.125525723879E+03    0.27316E-06   -0.44958E-05 23616   0.270E-02    0.916E-03
DAV:   5    -0.125525723430E+03    0.44868E-06   -0.27788E-06 22704   0.688E-03    0.391E-03
DAV:   6    -0.125525722747E+03    0.68338E-06   -0.12491E-06 23808   0.428E-03    0.938E-04
DAV:   7    -0.125525722717E+03    0.29519E-07   -0.47653E-07 23664   0.242E-03    0.638E-04
DAV:   8    -0.125525723254E+03   -0.53664E-06   -0.32521E-07 19872   0.177E-03    0.354E-04
DAV:   9    -0.125525723905E+03   -0.65156E-06   -0.78679E-08 20400   0.890E-04    0.198E-04
DAV:  10    -0.125525724309E+03   -0.40366E-06   -0.15550E-08 20736   0.349E-04    0.124E-04
DAV:  11    -0.125525724673E+03   -0.36426E-06   -0.98929E-09 20640   0.192E-04    0.735E-05
DAV:  12    -0.125525724946E+03   -0.27274E-06   -0.96884E-09 17808   0.155E-04    0.345E-05
DAV:  13    -0.125525725034E+03   -0.87990E-07   -0.28129E-09 22992   0.935E-05    0.248E-05
DAV:  14    -0.125525725059E+03   -0.25051E-07   -0.70335E-10 22272   0.594E-05    0.126E-05
DAV:  15    -0.125525725066E+03   -0.71896E-08   -0.13666E-10 24144   0.291E-05
  15 F= -.12712899E+03 E0= -.12712821E+03  d E =-.265435E-02  mag=    -0.0000
       N       E                     dE             d eps       ncg     rms          rms(c)
DAV:   1    -0.125525734255E+03   -0.91959E-05   -0.37102E-04 14208   0.704E-02    0.374E-03
DAV:   2    -0.125525734313E+03   -0.58300E-07   -0.26953E-06 24336   0.681E-03    0.229E-03
DAV:   3    -0.125525734313E+03   -0.41837E-10   -0.36123E-07 16992   0.221E-03    0.443E-04
DAV:   4    -0.125525734315E+03   -0.15598E-08   -0.39155E-08 25584   0.787E-04
  16 F= -.12712899E+03 E0= -.12712821E+03  d E =-.265529E-02  mag=    -0.0000
       N       E                     dE             d eps       ncg     rms          rms(c)
DAV:   1    -0.125525960936E+03   -0.22662E-03   -0.60271E-03 14208   0.314E-01    0.163E-02
DAV:   2    -0.125525960121E+03    0.81492E-06   -0.58906E-05 27072   0.320E-02    0.940E-03
DAV:   3    -0.125525959930E+03    0.19154E-06   -0.52763E-06 18240   0.851E-03    0.319E-03
DAV:   4    -0.125525960053E+03   -0.12353E-06   -0.91262E-07 25152   0.345E-03    0.126E-03
DAV:   5    -0.125525960090E+03   -0.36238E-07   -0.38859E-08 21744   0.840E-04    0.465E-04
DAV:   6    -0.125525960088E+03    0.13924E-08   -0.11423E-08 27072   0.418E-04
  17 F= -.12712917E+03 E0= -.12712839E+03  d E =-.182272E-03  mag=    -0.0000
       N       E                     dE             d eps       ncg     rms          rms(c)
DAV:   1    -0.125526265180E+03   -0.30509E-03   -0.37569E-02 14208   0.785E-01    0.407E-02
DAV:   2    -0.125526261636E+03    0.35431E-05   -0.36357E-04 27264   0.797E-02    0.234E-02
DAV:   3    -0.125526259056E+03    0.25807E-05   -0.32852E-05 18240   0.212E-02    0.791E-03
DAV:   4    -0.125526259486E+03   -0.43068E-06   -0.56240E-06 26112   0.856E-03    0.312E-03
DAV:   5    -0.125526259660E+03   -0.17338E-06   -0.22987E-07 21312   0.205E-03    0.115E-03
DAV:   6    -0.125526259650E+03    0.10132E-07   -0.66156E-08 26400   0.101E-03    0.348E-04
DAV:   7    -0.125526259658E+03   -0.80063E-08   -0.18898E-08 20640   0.531E-04
  18 F= -.12712936E+03 E0= -.12712858E+03  d E =-.372052E-03  mag=     0.0000
       N       E                     dE             d eps       ncg     rms          rms(c)
DAV:   1    -0.125526484218E+03   -0.22457E-03   -0.10384E-02 14208   0.423E-01    0.216E-02
DAV:   2    -0.125526483009E+03    0.12093E-05   -0.11331E-04 27696   0.447E-02    0.124E-02
DAV:   3    -0.125526482338E+03    0.67083E-06   -0.94792E-06 14688   0.116E-02    0.438E-03
DAV:   4    -0.125526482595E+03   -0.25683E-06   -0.16970E-06 22032   0.481E-03    0.185E-03
DAV:   5    -0.125526482682E+03   -0.86483E-07   -0.70191E-08 15360   0.118E-03    0.710E-04
DAV:   6    -0.125526482704E+03   -0.22636E-07   -0.28554E-08 21408   0.764E-04    0.254E-04
DAV:   7    -0.125526482712E+03   -0.79444E-08   -0.10015E-08 21312   0.500E-04
  19 F= -.12712952E+03 E0= -.12712874E+03  d E =-.158547E-03  mag=     0.0000
       N       E                     dE             d eps       ncg     rms          rms(c)
DAV:   1    -0.125526564986E+03   -0.82281E-04   -0.55167E-03 14208   0.309E-01    0.157E-02
DAV:   2    -0.125526564199E+03    0.78702E-06   -0.60320E-05 27120   0.327E-02    0.902E-03
DAV:   3    -0.125526563943E+03    0.25572E-06   -0.51437E-06 16464   0.857E-03    0.321E-03
DAV:   4    -0.125526564097E+03   -0.15382E-06   -0.90520E-07 22848   0.350E-03    0.137E-03
DAV:   5    -0.125526564147E+03   -0.50289E-07   -0.37191E-08 15648   0.858E-04    0.506E-04
DAV:   6    -0.125526564155E+03   -0.81709E-08   -0.14110E-08 22656   0.526E-04
  20 F= -.12712955E+03 E0= -.12712877E+03  d E =-.192599E-03  mag=    -0.0000
       N       E                     dE             d eps       ncg     rms          rms(c)
DAV:   1    -0.125526648911E+03   -0.84764E-04   -0.22639E-03 14400   0.194E-01    0.111E-02
DAV:   2    -0.125526647525E+03    0.13861E-05   -0.30747E-05 20640   0.230E-02    0.618E-03
DAV:   3    -0.125526646940E+03    0.58560E-06   -0.38274E-06 21552   0.752E-03    0.169E-03
DAV:   4    -0.125526646995E+03   -0.54973E-07   -0.41033E-07 21312   0.250E-03    0.782E-04
DAV:   5    -0.125526647014E+03   -0.19852E-07   -0.18691E-08 23712   0.630E-04    0.306E-04
DAV:   6    -0.125526647018E+03   -0.34261E-08   -0.88607E-09 20928   0.483E-04
  21 F= -.12712959E+03 E0= -.12712882E+03  d E =-.422410E-04  mag=    -0.0000
       N       E                     dE             d eps       ncg     rms          rms(c)
DAV:   1    -0.125526688950E+03   -0.41936E-04   -0.13215E-03 14304   0.148E-01    0.849E-03
DAV:   2    -0.125526688134E+03    0.81580E-06   -0.18041E-05 20160   0.176E-02    0.472E-03
DAV:   3    -0.125526687809E+03    0.32524E-06   -0.22400E-06 20928   0.576E-03    0.130E-03
DAV:   4    -0.125526687844E+03   -0.34594E-07   -0.24341E-07 21840   0.190E-03    0.602E-04
DAV:   5    -0.125526687854E+03   -0.10218E-07   -0.93056E-09 24576   0.414E-04    0.239E-04
DAV:   6    -0.125526687855E+03   -0.11751E-08   -0.24308E-09 22416   0.241E-04
  22 F= -.12712960E+03 E0= -.12712883E+03  d E =-.519741E-04  mag=    -0.0000
       N       E                     dE             d eps       ncg     rms          rms(c)
DAV:   1    -0.125526795290E+03   -0.10744E-03   -0.25525E-03 14208   0.207E-01    0.993E-03
DAV:   2    -0.125526794724E+03    0.56660E-06   -0.27749E-05 16224   0.217E-02    0.569E-03
DAV:   3    -0.125526794663E+03    0.61093E-07   -0.33839E-06 26208   0.688E-03    0.178E-03
DAV:   4    -0.125526794727E+03   -0.64429E-07   -0.39625E-07 18912   0.237E-03    0.855E-04
DAV:   5    -0.125526794769E+03   -0.42326E-07   -0.17794E-08 24192   0.552E-04    0.288E-04
DAV:   6    -0.125526794773E+03   -0.33879E-08   -0.41102E-09 21360   0.235E-04
  23 F= -.12712964E+03 E0= -.12712886E+03  d E =-.385915E-04  mag=    -0.0000
       N       E                     dE             d eps       ncg     rms          rms(c)
DAV:   1    -0.125526876569E+03   -0.81800E-04   -0.25518E-03 14208   0.207E-01    0.991E-03
DAV:   2    -0.125526876016E+03    0.55352E-06   -0.27801E-05 16176   0.217E-02    0.569E-03
DAV:   3    -0.125526875955E+03    0.60693E-07   -0.33833E-06 27072   0.687E-03    0.178E-03
DAV:   4    -0.125526876018E+03   -0.63429E-07   -0.38805E-07 18912   0.235E-03    0.854E-04
DAV:   5    -0.125526876061E+03   -0.42719E-07   -0.17891E-08 24768   0.557E-04    0.287E-04
DAV:   6    -0.125526876065E+03   -0.42355E-08   -0.42524E-09 21408   0.250E-04
  24 F= -.12712965E+03 E0= -.12712888E+03  d E =-.514966E-04  mag=     0.0000
       N       E                     dE             d eps       ncg     rms          rms(c)
DAV:   1    -0.125526994925E+03   -0.11886E-03   -0.19348E-03 14208   0.170E-01    0.936E-03
DAV:   2    -0.125526994040E+03    0.88536E-06   -0.25929E-05 19296   0.198E-02    0.525E-03
DAV:   3    -0.125526993865E+03    0.17464E-06   -0.27126E-06 26256   0.597E-03    0.171E-03
DAV:   4    -0.125526993917E+03   -0.52120E-07   -0.31108E-07 15648   0.207E-03    0.719E-04
DAV:   5    -0.125526993945E+03   -0.27133E-07   -0.17253E-08 21504   0.524E-04    0.226E-04
DAV:   6    -0.125526993948E+03   -0.33970E-08   -0.35598E-09 19584   0.230E-04
  25 F= -.12712968E+03 E0= -.12712890E+03  d E =-.263266E-04  mag=    -0.0000
       N       E                     dE             d eps       ncg     rms          rms(c)
DAV:   1    -0.125527097839E+03   -0.10389E-03   -0.20126E-03 14208   0.173E-01    0.954E-03
DAV:   2    -0.125527096897E+03    0.94275E-06   -0.26735E-05 17856   0.202E-02    0.535E-03
DAV:   3    -0.125527096715E+03    0.18144E-06   -0.29120E-06 26256   0.620E-03    0.175E-03
DAV:   4    -0.125527096768E+03   -0.52652E-07   -0.32497E-07 16224   0.212E-03    0.747E-04
DAV:   5    -0.125527096797E+03   -0.29171E-07   -0.18033E-08 22656   0.530E-04    0.229E-04
DAV:   6    -0.125527096802E+03   -0.50331E-08   -0.36757E-09 25200   0.222E-04
  26 F= -.12712969E+03 E0= -.12712891E+03  d E =-.357937E-04  mag=    -0.0000
       N       E                     dE             d eps       ncg     rms          rms(c)
DAV:   1    -0.125527227422E+03   -0.13063E-03   -0.19554E-03 14208   0.173E-01    0.884E-03
DAV:   2    -0.125527227051E+03    0.37170E-06   -0.18853E-05 16128   0.184E-02    0.530E-03
DAV:   3    -0.125527226904E+03    0.14703E-06   -0.26110E-06 23088   0.614E-03    0.111E-03
DAV:   4    -0.125527226941E+03   -0.37596E-07   -0.29063E-07 19248   0.197E-03    0.546E-04
DAV:   5    -0.125527226962E+03   -0.21185E-07   -0.16952E-08 20400   0.457E-04    0.166E-04
DAV:   6    -0.125527226966E+03   -0.32542E-08   -0.27224E-09 25392   0.211E-04
  27 F= -.12712971E+03 E0= -.12712894E+03  d E =-.236831E-04  mag=    -0.0000
       N       E                     dE             d eps       ncg     rms          rms(c)
DAV:   1    -0.125527414253E+03   -0.18729E-03   -0.50586E-03 14208   0.278E-01    0.142E-02
DAV:   2    -0.125527413396E+03    0.85760E-06   -0.48583E-05 17568   0.295E-02    0.852E-03
DAV:   3    -0.125527412886E+03    0.50989E-06   -0.67211E-06 24864   0.980E-03    0.176E-03
DAV:   4    -0.125527412963E+03   -0.77400E-07   -0.70783E-07 17664   0.311E-03    0.867E-04
DAV:   5    -0.125527413005E+03   -0.41693E-07   -0.46678E-08 20016   0.755E-04    0.247E-04
DAV:   6    -0.125527413012E+03   -0.66248E-08   -0.73564E-09 26256   0.327E-04
  28 F= -.12712973E+03 E0= -.12712895E+03  d E =-.384969E-04  mag=    -0.0000
       N       E                     dE             d eps       ncg     rms          rms(c)
DAV:   1    -0.125527487291E+03   -0.74286E-04   -0.52259E-04 14208   0.867E-02    0.425E-03
DAV:   2    -0.125527487216E+03    0.75272E-07   -0.44336E-06 14208   0.891E-03    0.258E-03
DAV:   3    -0.125527487250E+03   -0.34296E-07   -0.57374E-07 15168   0.280E-03    0.587E-04
DAV:   4    -0.125527487276E+03   -0.25426E-07   -0.93576E-08 18240   0.106E-03    0.272E-04
DAV:   5    -0.125527487291E+03   -0.15792E-07   -0.52042E-09 23040   0.261E-04    0.112E-04
DAV:   6    -0.125527487300E+03   -0.86557E-08   -0.85825E-10 23808   0.114E-04
  29 F= -.12712974E+03 E0= -.12712897E+03  d E =-.143240E-04  mag=    -0.0000
       N       E                     dE             d eps       ncg     rms          rms(c)
DAV:   1    -0.125527705181E+03   -0.21789E-03   -0.47044E-03 14208   0.260E-01    0.127E-02
DAV:   2    -0.125527704890E+03    0.29053E-06   -0.39654E-05 14640   0.265E-02    0.774E-03
DAV:   3    -0.125527704895E+03   -0.46621E-08   -0.52661E-06 23328   0.835E-03    0.173E-03
DAV:   4    -0.125527704972E+03   -0.76970E-07   -0.65397E-07 18336   0.290E-03    0.796E-04
DAV:   5    -0.125527705009E+03   -0.37302E-07   -0.43947E-08 17952   0.744E-04    0.229E-04
DAV:   6    -0.125527705015E+03   -0.59417E-08   -0.79250E-09 25488   0.319E-04
  30 F= -.12712978E+03 E0= -.12712900E+03  d E =-.522219E-04  mag=    -0.0000
       N       E                     dE             d eps       ncg     rms          rms(c)
DAV:   1    -0.125528119785E+03   -0.41478E-03   -0.18822E-02 14208   0.520E-01    0.255E-02
DAV:   2    -0.125528119332E+03    0.45243E-06   -0.15648E-04 15024   0.529E-02    0.155E-02
DAV:   3    -0.125528118558E+03    0.77391E-06   -0.21195E-05 26256   0.167E-02    0.342E-03
DAV:   4    -0.125528118740E+03   -0.18160E-06   -0.24143E-06 16560   0.565E-03    0.158E-03
DAV:   5    -0.125528118832E+03   -0.92114E-07   -0.18627E-07 19680   0.155E-03    0.448E-04
DAV:   6    -0.125528118839E+03   -0.73005E-08   -0.29140E-08 23712   0.627E-04
  31 F= -.12712984E+03 E0= -.12712906E+03  d E =-.106504E-03  mag=    -0.0000
       N       E                     dE             d eps       ncg     rms          rms(c)
DAV:   1    -0.125528862173E+03   -0.74334E-03   -0.75315E-02 14208   0.104E+00    0.510E-02
DAV:   2    -0.125528863258E+03   -0.10846E-05   -0.62978E-04 18528   0.106E-01    0.308E-02
DAV:   3    -0.125528857792E+03    0.54652E-05   -0.81134E-05 27936   0.323E-02    0.677E-03
DAV:   4    -0.125528858197E+03   -0.40470E-06   -0.88994E-06 15216   0.110E-02    0.306E-03
DAV:   5    -0.125528858420E+03   -0.22268E-06   -0.78363E-07 20448   0.318E-03    0.860E-04
DAV:   6    -0.125528858436E+03   -0.16079E-07   -0.11433E-07 22032   0.126E-03    0.389E-04
DAV:   7    -0.125528858495E+03   -0.59656E-07   -0.24590E-08 23520   0.580E-04    0.236E-04
DAV:   8    -0.125528858637E+03   -0.14104E-06   -0.30195E-08 22368   0.542E-04    0.159E-04
DAV:   9    -0.125528858779E+03   -0.14254E-06   -0.60136E-09 19584   0.226E-04    0.997E-05
DAV:  10    -0.125528859022E+03   -0.24268E-06   -0.11186E-08 17040   0.241E-04    0.438E-05
DAV:  11    -0.125528859129E+03   -0.10767E-06   -0.19949E-09 24048   0.122E-04    0.315E-05
DAV:  12    -0.125528859227E+03   -0.97113E-07   -0.22035E-09 19680   0.110E-04    0.166E-05
DAV:  13    -0.125528859258E+03   -0.31817E-07   -0.56795E-10 23808   0.640E-05    0.106E-05
DAV:  14    -0.125528859270E+03   -0.11998E-07   -0.20477E-10 21792   0.414E-05    0.609E-06
DAV:  15    -0.125528859274E+03   -0.36616E-08   -0.72373E-11 24000   0.251E-05
  32 F= -.12712986E+03 E0= -.12712908E+03  d E =-.128553E-03  mag=    -0.0000
       N       E                     dE             d eps       ncg     rms          rms(c)
DAV:   1    -0.125528642767E+03    0.21650E-03   -0.72287E-03 14256   0.323E-01    0.158E-02
DAV:   2    -0.125528642564E+03    0.20267E-06   -0.62150E-05 22464   0.329E-02    0.956E-03
DAV:   3    -0.125528642373E+03    0.19137E-06   -0.72338E-06 22368   0.962E-03    0.210E-03
DAV:   4    -0.125528642465E+03   -0.92178E-07   -0.93745E-07 18480   0.353E-03    0.920E-04
DAV:   5    -0.125528642514E+03   -0.49440E-07   -0.68542E-08 19584   0.917E-04    0.266E-04
DAV:   6    -0.125528642496E+03    0.18411E-07   -0.99075E-09 21072   0.371E-04    0.116E-04
DAV:   7    -0.125528642489E+03    0.65720E-08   -0.20250E-09 23760   0.160E-04
  33 F= -.12712986E+03 E0= -.12712908E+03  d E =-.134252E-03  mag=    -0.0000
       N       E                     dE             d eps       ncg     rms          rms(c)
DAV:   1    -0.125528878686E+03   -0.23619E-03   -0.52880E-03 14208   0.275E-01    0.136E-02
DAV:   2    -0.125528878636E+03    0.50823E-07   -0.46479E-05 18816   0.286E-02    0.843E-03
DAV:   3    -0.125528878583E+03    0.52859E-07   -0.61377E-06 26256   0.892E-03    0.195E-03
DAV:   4    -0.125528878612E+03   -0.29249E-07   -0.82115E-07 16128   0.328E-03    0.101E-03
DAV:   5    -0.125528878662E+03   -0.49628E-07   -0.51376E-08 21120   0.874E-04    0.332E-04
DAV:   6    -0.125528878659E+03    0.26475E-08   -0.11093E-08 24192   0.363E-04
  34 F= -.12712990E+03 E0= -.12712913E+03  d E =-.414200E-04  mag=    -0.0000
       N       E                     dE             d eps       ncg     rms          rms(c)
DAV:   1    -0.125529413109E+03   -0.53445E-03   -0.32400E-02 14208   0.680E-01    0.337E-02
DAV:   2    -0.125529413430E+03   -0.32143E-06   -0.28007E-04 20688   0.701E-02    0.208E-02
DAV:   3    -0.125529411155E+03    0.22757E-05   -0.37212E-05 26976   0.219E-02    0.474E-03
DAV:   4    -0.125529411229E+03   -0.74384E-07   -0.49371E-06 17760   0.808E-03    0.244E-03
DAV:   5    -0.125529411371E+03   -0.14196E-06   -0.29507E-07 20448   0.209E-03    0.805E-04
DAV:   6    -0.125529411364E+03    0.69767E-08   -0.74097E-08 22656   0.938E-04
  35 F= -.12712996E+03 E0= -.12712918E+03  d E =-.921844E-04  mag=    -0.0000
       N       E                     dE             d eps       ncg     rms          rms(c)
DAV:   1    -0.125529752049E+03   -0.34068E-03   -0.10360E-02 14208   0.388E-01    0.188E-02
DAV:   2    -0.125529751322E+03    0.72701E-06   -0.86197E-05 15360   0.391E-02    0.114E-02
DAV:   3    -0.125529750911E+03    0.41104E-06   -0.11849E-05 24864   0.126E-02    0.247E-03
DAV:   4    -0.125529751069E+03   -0.15858E-06   -0.14264E-06 18240   0.426E-03    0.112E-03
DAV:   5    -0.125529751177E+03   -0.10773E-06   -0.10017E-07 24480   0.110E-03    0.335E-04
DAV:   6    -0.125529751221E+03   -0.43753E-07   -0.13124E-08 23088   0.417E-04    0.187E-04
DAV:   7    -0.125529751267E+03   -0.46017E-07   -0.42234E-09 23664   0.222E-04    0.882E-05
DAV:   8    -0.125529751357E+03   -0.90142E-07   -0.70740E-09 17280   0.243E-04    0.658E-05
DAV:   9    -0.125529751439E+03   -0.82257E-07   -0.28281E-09 19728   0.130E-04    0.306E-05
DAV:  10    -0.125529751493E+03   -0.53915E-07   -0.11443E-09 19968   0.679E-05    0.207E-05
DAV:  11    -0.125529751517E+03   -0.23765E-07   -0.22267E-10 23616   0.292E-05    0.139E-05
DAV:  12    -0.125529751547E+03   -0.29954E-07   -0.64148E-10 18864   0.402E-05    0.651E-06
DAV:  13    -0.125529751553E+03   -0.63683E-08   -0.92816E-11 24864   0.188E-05
  36 F= -.12713002E+03 E0= -.12712925E+03  d E =-.684887E-04  mag=     0.0000
       N       E                     dE             d eps       ncg     rms          rms(c)
DAV:   1    -0.125530496983E+03   -0.74544E-03   -0.60154E-02 14208   0.936E-01    0.454E-02
DAV:   2    -0.125530496801E+03    0.18202E-06   -0.50856E-04 19728   0.943E-02    0.275E-02
DAV:   3    -0.125530492183E+03    0.46185E-05   -0.65064E-05 28080   0.289E-02    0.584E-03
DAV:   4    -0.125530492501E+03   -0.31813E-06   -0.70328E-06 16944   0.974E-03    0.262E-03
DAV:   5    -0.125530492700E+03   -0.19944E-06   -0.57234E-07 19392   0.266E-03    0.666E-04
DAV:   6    -0.125530492679E+03    0.21384E-07   -0.80715E-08 24720   0.105E-03    0.270E-04
DAV:   7    -0.125530492694E+03   -0.15328E-07   -0.28868E-08 19488   0.595E-04    0.148E-04
DAV:   8    -0.125530492741E+03   -0.46363E-07   -0.56844E-09 22176   0.241E-04    0.117E-04
DAV:   9    -0.125530492828E+03   -0.86910E-07   -0.43846E-09 19536   0.184E-04    0.586E-05
DAV:  10    -0.125530492920E+03   -0.92029E-07   -0.33731E-09 18672   0.137E-04    0.348E-05
DAV:  11    -0.125530493004E+03   -0.84580E-07   -0.15704E-09 18528   0.722E-05    0.192E-05
DAV:  12    -0.125530493054E+03   -0.49513E-07   -0.83412E-10 22128   0.450E-05    0.126E-05
DAV:  13    -0.125530493071E+03   -0.17634E-07   -0.20561E-10 21984   0.266E-05    0.798E-06
DAV:  14    -0.125530493081E+03   -0.10039E-07   -0.20800E-10 21216   0.274E-05    0.379E-06
DAV:  15    -0.125530493083E+03   -0.11823E-08   -0.12226E-11 25056   0.112E-05
  37 F= -.12713011E+03 E0= -.12712933E+03  d E =-.155776E-03  mag=     0.0000
       N       E                     dE             d eps       ncg     rms          rms(c)
DAV:   1    -0.125530705433E+03   -0.21235E-03   -0.60068E-03 14208   0.296E-01    0.143E-02
DAV:   2    -0.125530705038E+03    0.39452E-06   -0.50801E-05 18384   0.298E-02    0.869E-03
DAV:   3    -0.125530704907E+03    0.13153E-06   -0.65500E-06 26016   0.922E-03    0.186E-03
DAV:   4    -0.125530704977E+03   -0.70473E-07   -0.75839E-07 16752   0.315E-03    0.831E-04
DAV:   5    -0.125530705020E+03   -0.43003E-07   -0.56800E-08 17472   0.841E-04    0.216E-04
DAV:   6    -0.125530705019E+03    0.12915E-08   -0.85027E-09 26304   0.338E-04
  38 F= -.12713012E+03 E0= -.12712934E+03  d E =-.161134E-03  mag=    -0.0000
       N       E                     dE             d eps       ncg     rms          rms(c)
DAV:   1    -0.125531099238E+03   -0.39422E-03   -0.16722E-02 14208   0.496E-01    0.237E-02
DAV:   2    -0.125531098189E+03    0.10490E-05   -0.14295E-04 18048   0.503E-02    0.144E-02
DAV:   3    -0.125531097439E+03    0.75024E-06   -0.20022E-05 25728   0.163E-02    0.328E-03
DAV:   4    -0.125531097588E+03   -0.14892E-06   -0.25058E-06 17376   0.582E-03    0.163E-03
DAV:   5    -0.125531097711E+03   -0.12358E-06   -0.14807E-07 16704   0.144E-03    0.466E-04
DAV:   6    -0.125531097727E+03   -0.15815E-07   -0.26490E-08 27120   0.567E-04    0.177E-04
DAV:   7    -0.125531097741E+03   -0.14234E-07   -0.33912E-09 21696   0.227E-04    0.998E-05
DAV:   8    -0.125531097769E+03   -0.27901E-07   -0.33945E-09 22032   0.186E-04    0.644E-05
DAV:   9    -0.125531097798E+03   -0.29184E-07   -0.98121E-10 19008   0.899E-05    0.466E-05
DAV:  10    -0.125531097858E+03   -0.59283E-07   -0.25185E-09 17856   0.116E-04    0.189E-05
DAV:  11    -0.125531097885E+03   -0.27696E-07   -0.45477E-10 22320   0.484E-05    0.126E-05
DAV:  12    -0.125531097905E+03   -0.19539E-07   -0.33029E-10 20256   0.399E-05    0.722E-06
DAV:  13    -0.125531097911E+03   -0.64683E-08   -0.87736E-11 24432   0.258E-05
  39 F= -.12713017E+03 E0= -.12712939E+03  d E =-.509531E-04  mag=     0.0000
       N       E                     dE             d eps       ncg     rms          rms(c)
DAV:   1    -0.125531497316E+03   -0.39941E-03   -0.20486E-02 14208   0.549E-01    0.262E-02
DAV:   2    -0.125531496435E+03    0.88036E-06   -0.17787E-04 18384   0.560E-02    0.160E-02
DAV:   3    -0.125531495504E+03    0.93099E-06   -0.24199E-05 26160   0.178E-02    0.364E-03
DAV:   4    -0.125531495661E+03   -0.15699E-06   -0.30170E-06 16896   0.640E-03    0.180E-03
DAV:   5    -0.125531495798E+03   -0.13619E-06   -0.18165E-07 18624   0.159E-03    0.516E-04
DAV:   6    -0.125531495799E+03   -0.12787E-08   -0.30619E-08 24480   0.612E-04
  40 F= -.12713019E+03 E0= -.12712941E+03  d E =-.704173E-04  mag=     0.0000
       N       E                     dE             d eps       ncg     rms          rms(c)
DAV:   1    -0.125531755538E+03   -0.25974E-03   -0.72278E-03 14208   0.328E-01    0.156E-02
DAV:   2    -0.125531754783E+03    0.75440E-06   -0.62788E-05 15360   0.332E-02    0.937E-03
DAV:   3    -0.125531754660E+03    0.12376E-06   -0.83579E-06 25008   0.106E-02    0.231E-03
DAV:   4    -0.125531754821E+03   -0.16131E-06   -0.10304E-06 17472   0.364E-03    0.102E-03
DAV:   5    -0.125531754910E+03   -0.89590E-07   -0.53276E-08 21840   0.850E-04    0.301E-04
DAV:   6    -0.125531754939E+03   -0.28691E-07   -0.10885E-08 23472   0.360E-04    0.120E-04
DAV:   7    -0.125531754958E+03   -0.18656E-07   -0.15107E-09 23280   0.167E-04    0.667E-05
DAV:   8    -0.125531754987E+03   -0.28719E-07   -0.12275E-09 20064   0.116E-04    0.390E-05
DAV:   9    -0.125531755013E+03   -0.26693E-07   -0.54967E-10 20496   0.642E-05    0.281E-05
DAV:  10    -0.125531755057E+03   -0.43513E-07   -0.13823E-09 18384   0.816E-05    0.136E-05
DAV:  11    -0.125531755071E+03   -0.14194E-07   -0.26090E-10 24528   0.534E-05    0.993E-06
DAV:  12    -0.125531755081E+03   -0.99735E-08   -0.19991E-10 20256   0.485E-05
  41 F= -.12713023E+03 E0= -.12712945E+03  d E =-.392090E-04  mag=    -0.0000
       N       E                     dE             d eps       ncg     rms          rms(c)
DAV:   1    -0.125532093387E+03   -0.33832E-03   -0.14396E-02 14208   0.462E-01    0.219E-02
DAV:   2    -0.125532092562E+03    0.82478E-06   -0.12763E-04 17376   0.470E-02    0.132E-02
DAV:   3    -0.125532091996E+03    0.56604E-06   -0.15787E-05 26016   0.144E-02    0.325E-03
DAV:   4    -0.125532092235E+03   -0.23905E-06   -0.19190E-06 17184   0.502E-03    0.141E-03
DAV:   5    -0.125532092357E+03   -0.12181E-06   -0.10316E-07 17088   0.118E-03    0.399E-04
DAV:   6    -0.125532092363E+03   -0.63010E-08   -0.19543E-08 25920   0.479E-04
  42 F= -.12713025E+03 E0= -.12712947E+03  d E =-.660108E-04  mag=    -0.0000
       N       E                     dE             d eps       ncg     rms          rms(c)
DAV:   1    -0.125532198255E+03   -0.10590E-03   -0.16156E-03 14208   0.155E-01    0.735E-03
DAV:   2    -0.125532198000E+03    0.25442E-06   -0.14069E-05 15360   0.157E-02    0.443E-03
DAV:   3    -0.125532198038E+03   -0.37372E-07   -0.18609E-06 22896   0.502E-03    0.110E-03
DAV:   4    -0.125532198095E+03   -0.57104E-07   -0.24720E-07 18192   0.176E-03    0.485E-04
DAV:   5    -0.125532198128E+03   -0.32746E-07   -0.11984E-08 25344   0.401E-04    0.146E-04
DAV:   6    -0.125532198142E+03   -0.14189E-07   -0.25491E-09 21888   0.180E-04    0.571E-05
DAV:   7    -0.125532198151E+03   -0.93132E-08   -0.50355E-10 24144   0.101E-04
  43 F= -.12713025E+03 E0= -.12712948E+03  d E =-.678561E-04  mag=    -0.0000
       N       E                     dE             d eps       ncg     rms          rms(c)
DAV:   1    -0.125532495999E+03   -0.29786E-03   -0.10475E-02 14208   0.399E-01    0.188E-02
DAV:   2    -0.125532495472E+03    0.52675E-06   -0.94351E-05 16224   0.406E-02    0.115E-02
DAV:   3    -0.125532494889E+03    0.58320E-06   -0.12480E-05 25632   0.131E-02    0.250E-03
DAV:   4    -0.125532495056E+03   -0.16726E-06   -0.14432E-06 17664   0.434E-03    0.120E-03
DAV:   5    -0.125532495161E+03   -0.10537E-06   -0.82803E-08 16608   0.102E-03    0.326E-04
DAV:   6    -0.125532495173E+03   -0.11308E-07   -0.12406E-08 26496   0.417E-04    0.111E-04
DAV:   7    -0.125532495185E+03   -0.11859E-07   -0.23055E-09 21840   0.208E-04    0.477E-05
DAV:   8    -0.125532495197E+03   -0.12259E-07   -0.85513E-10 23328   0.126E-04    0.395E-05
DAV:   9    -0.125532495212E+03   -0.15241E-07   -0.49790E-10 19872   0.887E-05    0.232E-05
DAV:  10    -0.125532495237E+03   -0.25057E-07   -0.81085E-10 19536   0.766E-05    0.141E-05
DAV:  11    -0.125532495253E+03   -0.16263E-07   -0.33797E-10 19488   0.529E-05    0.796E-06
DAV:  12    -0.125532495260E+03   -0.62755E-08   -0.13674E-10 24480   0.453E-05
  44 F= -.12713029E+03 E0= -.12712951E+03  d E =-.348781E-04  mag=    -0.0000
       N       E                     dE             d eps       ncg     rms          rms(c)
DAV:   1    -0.125532626269E+03   -0.13102E-03   -0.24467E-03 14208   0.193E-01    0.906E-03
DAV:   2    -0.125532626041E+03    0.22792E-06   -0.22298E-05 14736   0.197E-02    0.558E-03
DAV:   3    -0.125532626032E+03    0.92641E-08   -0.29398E-06 24672   0.637E-03    0.122E-03
DAV:   4    -0.125532626085E+03   -0.53302E-07   -0.35158E-07 17376   0.213E-03    0.586E-04
DAV:   5    -0.125532626118E+03   -0.33211E-07   -0.19608E-08 20592   0.498E-04    0.162E-04
DAV:   6    -0.125532626120E+03   -0.17271E-08   -0.27178E-09 24000   0.195E-04
  45 F= -.12713029E+03 E0= -.12712951E+03  d E =-.390253E-04  mag=     0.0000
       N       E                     dE             d eps       ncg     rms          rms(c)
DAV:   1    -0.125532773415E+03   -0.14730E-03   -0.25271E-03 14208   0.194E-01    0.988E-03
DAV:   2    -0.125532772380E+03    0.10346E-05   -0.25971E-05 15360   0.211E-02    0.568E-03
DAV:   3    -0.125532772229E+03    0.15133E-06   -0.38569E-06 25968   0.712E-03    0.160E-03
DAV:   4    -0.125532772280E+03   -0.51518E-07   -0.45173E-07 16320   0.247E-03    0.799E-04
DAV:   5    -0.125532772318E+03   -0.37192E-07   -0.22573E-08 16176   0.595E-04    0.237E-04
DAV:   6    -0.125532772325E+03   -0.72614E-08   -0.59746E-09 25920   0.258E-04
  46 F= -.12713031E+03 E0= -.12712953E+03  d E =-.179620E-04  mag=     0.0000
       N       E                     dE             d eps       ncg     rms          rms(c)
DAV:   1    -0.125532962518E+03   -0.19020E-03   -0.49180E-03 14208   0.271E-01    0.138E-02
DAV:   2    -0.125532960626E+03    0.18919E-05   -0.50742E-05 15360   0.294E-02    0.792E-03
DAV:   3    -0.125532960269E+03    0.35736E-06   -0.75059E-06 26688   0.992E-03    0.223E-03
DAV:   4    -0.125532960354E+03   -0.85566E-07   -0.86574E-07 16608   0.342E-03    0.112E-03
DAV:   5    -0.125532960418E+03   -0.63586E-07   -0.43397E-08 15648   0.826E-04    0.331E-04
DAV:   6    -0.125532960431E+03   -0.13350E-07   -0.11976E-08 26016   0.370E-04    0.116E-04
DAV:   7    -0.125532960440E+03   -0.83373E-08   -0.16387E-09 22272   0.181E-04
  47 F= -.12713032E+03 E0= -.12712954E+03  d E =-.271979E-04  mag=    -0.0000
       N       E                     dE             d eps       ncg     rms          rms(c)
DAV:   1    -0.125533101553E+03   -0.14112E-03   -0.25862E-03 14208   0.202E-01    0.993E-03
DAV:   2    -0.125533100984E+03    0.56891E-06   -0.26537E-05 14784   0.219E-02    0.593E-03
DAV:   3    -0.125533100859E+03    0.12505E-06   -0.39981E-06 22464   0.747E-03    0.163E-03
DAV:   4    -0.125533100901E+03   -0.42607E-07   -0.57386E-07 20496   0.272E-03    0.843E-04
DAV:   5    -0.125533100943E+03   -0.41863E-07   -0.22340E-08 17328   0.623E-04    0.265E-04
DAV:   6    -0.125533100955E+03   -0.12259E-07   -0.91628E-09 25872   0.343E-04    0.880E-05
DAV:   7    -0.125533100964E+03   -0.86893E-08   -0.17418E-09 21744   0.201E-04
  48 F= -.12713033E+03 E0= -.12712956E+03  d E =-.134293E-04  mag=    -0.0000
       N       E                     dE             d eps       ncg     rms          rms(c)
DAV:   1    -0.125533156208E+03   -0.55252E-04   -0.46081E-04 14592   0.855E-02    0.418E-03
DAV:   2    -0.125533156083E+03    0.12481E-06   -0.48131E-06 14400   0.930E-03    0.250E-03
DAV:   3    -0.125533156085E+03   -0.19454E-08   -0.69734E-07 14880   0.316E-03    0.690E-04
DAV:   4    -0.125533156104E+03   -0.19009E-07   -0.11973E-07 20016   0.124E-03    0.354E-04
DAV:   5    -0.125533156119E+03   -0.14963E-07   -0.50360E-09 25584   0.318E-04    0.114E-04
DAV:   6    -0.125533156126E+03   -0.72787E-08   -0.24730E-09 21888   0.225E-04
  49 F= -.12713034E+03 E0= -.12712956E+03  d E =-.149305E-04  mag=     0.0000
       N       E                     dE             d eps       ncg     rms          rms(c)
DAV:   1    -0.125533277965E+03   -0.12185E-03   -0.19824E-03 14208   0.176E-01    0.915E-03
DAV:   2    -0.125533277370E+03    0.59561E-06   -0.21521E-05 15264   0.195E-02    0.544E-03
DAV:   3    -0.125533277230E+03    0.13953E-06   -0.27391E-06 24528   0.630E-03    0.143E-03
DAV:   4    -0.125533277282E+03   -0.51659E-07   -0.35178E-07 16704   0.217E-03    0.650E-04
DAV:   5    -0.125533277307E+03   -0.25745E-07   -0.20025E-08 19008   0.555E-04    0.227E-04
DAV:   6    -0.125533277313E+03   -0.52914E-08   -0.67476E-09 25392   0.331E-04
  50 F= -.12713035E+03 E0= -.12712957E+03  d E =-.921119E-05  mag=     0.0000
       N       E                     dE             d eps       ncg     rms          rms(c)
DAV:   1    -0.125533294265E+03   -0.16958E-04   -0.44566E-05 14496   0.264E-02    0.136E-03
DAV:   2    -0.125533294246E+03    0.19037E-07   -0.50938E-07 15456   0.301E-03    0.815E-04
DAV:   3    -0.125533294251E+03   -0.49504E-08   -0.61811E-08 18192   0.995E-04
  51 F= -.12713035E+03 E0= -.12712957E+03  d E =-.937204E-05  mag=    -0.0000
       N       E                     dE             d eps       ncg     rms          rms(c)
DAV:   1    -0.125533366879E+03   -0.72633E-04   -0.66830E-04 14208   0.103E-01    0.522E-03
DAV:   2    -0.125533366662E+03    0.21735E-06   -0.77793E-06 14976   0.119E-02    0.317E-03
DAV:   3    -0.125533366642E+03    0.19429E-07   -0.12678E-06 17280   0.427E-03    0.936E-04
DAV:   4    -0.125533366652E+03   -0.92778E-08   -0.23447E-07 17232   0.180E-03    0.558E-04
DAV:   5    -0.125533366669E+03   -0.17424E-07   -0.14336E-08 16320   0.606E-04    0.178E-04
DAV:   6    -0.125533366674E+03   -0.52105E-08   -0.91489E-09 20976   0.471E-04
  52 F= -.12713035E+03 E0= -.12712957E+03  d E =-.426500E-05  mag=    -0.0000
       N       E                     dE             d eps       ncg     rms          rms(c)
DAV:   1    -0.125533397229E+03   -0.30560E-04   -0.13001E-04 14256   0.454E-02    0.228E-03
DAV:   2    -0.125533397182E+03    0.47513E-07   -0.15423E-06 15552   0.531E-03    0.139E-03
DAV:   3    -0.125533397183E+03   -0.14024E-08   -0.24239E-07 16512   0.188E-03    0.414E-04
DAV:   4    -0.125533397190E+03   -0.66748E-08   -0.45903E-08 20208   0.796E-04
  53 F= -.12713035E+03 E0= -.12712957E+03  d E =-.470147E-05  mag=    -0.0000
       N       E                     dE             d eps       ncg     rms          rms(c)
DAV:   1    -0.125533456550E+03   -0.59367E-04   -0.39185E-04 14208   0.776E-02    0.379E-03
DAV:   2    -0.125533456408E+03    0.14228E-06   -0.42194E-06 14592   0.854E-03    0.227E-03
DAV:   3    -0.125533456412E+03   -0.47294E-08   -0.60462E-07 18336   0.287E-03    0.547E-04
DAV:   4    -0.125533456426E+03   -0.13491E-07   -0.88022E-08 17472   0.111E-03    0.284E-04
DAV:   5    -0.125533456437E+03   -0.10712E-07   -0.61265E-09 20256   0.375E-04    0.938E-05
DAV:   6    -0.125533456440E+03   -0.35880E-08   -0.40010E-09 18960   0.306E-04
  54 F= -.12713035E+03 E0= -.12712957E+03  d E =-.390407E-05  mag=    -0.0000
       N       E                     dE             d eps       ncg     rms          rms(c)
DAV:   1    -0.125533602572E+03   -0.14614E-03   -0.25488E-03 14208   0.198E-01    0.970E-03
DAV:   2    -0.125533601724E+03    0.84795E-06   -0.26930E-05 14784   0.216E-02    0.576E-03
DAV:   3    -0.125533601585E+03    0.13967E-06   -0.40851E-06 25536   0.734E-03    0.138E-03
DAV:   4    -0.125533601627E+03   -0.41973E-07   -0.47432E-07 16896   0.253E-03    0.722E-04
DAV:   5    -0.125533601661E+03   -0.34277E-07   -0.22699E-08 15456   0.604E-04    0.198E-04
DAV:   6    -0.125533601666E+03   -0.53687E-08   -0.67668E-09 27456   0.286E-04
  55 F= -.12713036E+03 E0= -.12712958E+03  d E =-.803517E-05  mag=    -0.0000
       N       E                     dE             d eps       ncg     rms          rms(c)
DAV:   1    -0.125533669816E+03   -0.68155E-04   -0.54862E-04 14208   0.924E-02    0.447E-03
DAV:   2    -0.125533669651E+03    0.16515E-06   -0.58133E-06 14688   0.102E-02    0.279E-03
DAV:   3    -0.125533669631E+03    0.20307E-07   -0.89807E-07 20304   0.360E-03    0.648E-04
DAV:   4    -0.125533669653E+03   -0.22316E-07   -0.13946E-07 19296   0.137E-03    0.395E-04
DAV:   5    -0.125533669672E+03   -0.19072E-07   -0.60698E-09 22800   0.366E-04    0.145E-04
DAV:   6    -0.125533669683E+03   -0.10756E-07   -0.29217E-09 21792   0.256E-04    0.630E-05
DAV:   7    -0.125533669687E+03   -0.43283E-08   -0.88775E-10 25248   0.151E-04
  56 F= -.12713036E+03 E0= -.12712958E+03  d E =-.297874E-05  mag=    -0.0000
       N       E                     dE             d eps       ncg     rms          rms(c)
DAV:   1    -0.125533701629E+03   -0.31946E-04   -0.12904E-04 14592   0.448E-02    0.215E-03
DAV:   2    -0.125533701591E+03    0.38384E-07   -0.14276E-06 14400   0.498E-03    0.136E-03
DAV:   3    -0.125533701594E+03   -0.32060E-08   -0.20907E-07 15744   0.175E-03    0.320E-04
DAV:   4    -0.125533701603E+03   -0.89740E-08   -0.36044E-08 20496   0.676E-04
  57 F= -.12713036E+03 E0= -.12712958E+03  d E =-.334509E-05  mag=    -0.0000
       N       E                     dE             d eps       ncg     rms          rms(c)
DAV:   1    -0.125533764200E+03   -0.62606E-04   -0.43062E-04 14208   0.805E-02    0.372E-03
DAV:   2    -0.125533764035E+03    0.16445E-06   -0.41140E-06 14208   0.840E-03    0.226E-03
DAV:   3    -0.125533764060E+03   -0.24478E-07   -0.60143E-07 19632   0.283E-03    0.543E-04
DAV:   4    -0.125533764081E+03   -0.20837E-07   -0.87046E-08 17664   0.104E-03    0.269E-04
DAV:   5    -0.125533764094E+03   -0.13792E-07   -0.33343E-09 23328   0.241E-04    0.741E-05
DAV:   6    -0.125533764098E+03   -0.33497E-08   -0.12335E-09 22800   0.156E-04
  58 F= -.12713036E+03 E0= -.12712959E+03  d E =-.329625E-05  mag=     0.0000
       N       E                     dE             d eps       ncg     rms          rms(c)
DAV:   1    -0.125533949362E+03   -0.18527E-03   -0.38761E-03 14208   0.242E-01    0.112E-02
DAV:   2    -0.125533948185E+03    0.11769E-05   -0.36342E-05 16128   0.250E-02    0.672E-03
DAV:   3    -0.125533948042E+03    0.14313E-06   -0.53651E-06 23568   0.836E-03    0.159E-03
DAV:   4    -0.125533948138E+03   -0.96057E-07   -0.68353E-07 17760   0.296E-03    0.776E-04
DAV:   5    -0.125533948204E+03   -0.65937E-07   -0.25639E-08 17712   0.629E-04    0.197E-04
DAV:   6    -0.125533948212E+03   -0.78635E-08   -0.60636E-09 25824   0.282E-04
  59 F= -.12713037E+03 E0= -.12712959E+03  d E =-.984898E-05  mag=     0.0000
       N       E                     dE             d eps       ncg     rms          rms(c)
DAV:   1    -0.125534306091E+03   -0.35789E-03   -0.15505E-02 14208   0.483E-01    0.224E-02
DAV:   2    -0.125534302096E+03    0.39954E-05   -0.14524E-04 16656   0.499E-02    0.134E-02
DAV:   3    -0.125534300992E+03    0.11036E-05   -0.21411E-05 25824   0.166E-02    0.316E-03
DAV:   4    -0.125534301261E+03   -0.26900E-06   -0.25355E-06 17568   0.578E-03    0.155E-03
DAV:   5    -0.125534301449E+03   -0.18799E-06   -0.10160E-07 15360   0.126E-03    0.384E-04
DAV:   6    -0.125534301470E+03   -0.20897E-07   -0.23606E-08 26016   0.558E-04    0.152E-04
DAV:   7    -0.125534301479E+03   -0.86420E-08   -0.30981E-09 20304   0.284E-04
  60 F= -.12713037E+03 E0= -.12712959E+03  d E =-.814734E-05  mag=     0.0000
       N       E                     dE             d eps       ncg     rms          rms(c)
DAV:   1    -0.125534099374E+03    0.20210E-03   -0.52645E-03 14208   0.282E-01    0.130E-02
DAV:   2    -0.125534098175E+03    0.11989E-05   -0.50926E-05 20640   0.293E-02    0.783E-03
DAV:   3    -0.125534097913E+03    0.26238E-06   -0.68797E-06 21216   0.939E-03    0.183E-03
DAV:   4    -0.125534097997E+03   -0.84324E-07   -0.92707E-07 17376   0.349E-03    0.876E-04
DAV:   5    -0.125534098067E+03   -0.69511E-07   -0.35737E-08 22464   0.744E-04    0.236E-04
DAV:   6    -0.125534098067E+03   -0.67212E-09   -0.67172E-09 22896   0.324E-04
  61 F= -.12713037E+03 E0= -.12712959E+03  d E =-.115967E-04  mag=     0.0000
       N       E                     dE             d eps       ncg     rms          rms(c)
DAV:   1    -0.125534148768E+03   -0.50701E-04   -0.27238E-04 14208   0.641E-02    0.296E-03
DAV:   2    -0.125534148665E+03    0.10324E-06   -0.26525E-06 14208   0.677E-03    0.183E-03
DAV:   3    -0.125534148692E+03   -0.26938E-07   -0.39245E-07 19008   0.230E-03    0.437E-04
DAV:   4    -0.125534148701E+03   -0.95934E-08   -0.59277E-08 17760   0.863E-04
  62 F= -.12713038E+03 E0= -.12712960E+03  d E =-.251521E-05  mag=     0.0000
       N       E                     dE             d eps       ncg     rms          rms(c)
DAV:   1    -0.125534298499E+03   -0.14981E-03   -0.24535E-03 14208   0.192E-01    0.891E-03
DAV:   2    -0.125534297878E+03    0.62056E-06   -0.23555E-05 18000   0.201E-02    0.544E-03
DAV:   3    -0.125534297812E+03    0.66230E-07   -0.33994E-06 23856   0.668E-03    0.127E-03
DAV:   4    -0.125534297866E+03   -0.53786E-07   -0.45569E-07 17856   0.245E-03    0.645E-04
DAV:   5    -0.125534297908E+03   -0.42350E-07   -0.18190E-08 16704   0.550E-04    0.181E-04
DAV:   6    -0.125534297912E+03   -0.37535E-08   -0.43298E-09 24864   0.255E-04
  63 F= -.12713038E+03 E0= -.12712960E+03  d E =-.738850E-05  mag=    -0.0000
       N       E                     dE             d eps       ncg     rms          rms(c)
DAV:   1    -0.125534586766E+03   -0.28886E-03   -0.98156E-03 14208   0.385E-01    0.178E-02
DAV:   2    -0.125534584427E+03    0.23396E-05   -0.92913E-05 18144   0.400E-02    0.108E-02
DAV:   3    -0.125534583835E+03    0.59204E-06   -0.13709E-05 25344   0.134E-02    0.250E-03
DAV:   4    -0.125534583990E+03   -0.15526E-06   -0.17500E-06 17424   0.483E-03    0.126E-03
DAV:   5    -0.125534584117E+03   -0.12721E-06   -0.71901E-08 15456   0.106E-03    0.332E-04
DAV:   6    -0.125534584133E+03   -0.16049E-07   -0.15957E-08 26448   0.407E-04    0.131E-04
DAV:   7    -0.125534584140E+03   -0.67967E-08   -0.10827E-09 21456   0.145E-04
  64 F= -.12713038E+03 E0= -.12712960E+03  d E =-.504508E-05  mag=    -0.0000
       N       E                     dE             d eps       ncg     rms          rms(c)
DAV:   1    -0.125534402469E+03    0.18166E-03   -0.40740E-03 14208   0.248E-01    0.115E-02
DAV:   2    -0.125534401661E+03    0.80734E-06   -0.39720E-05 20736   0.260E-02    0.699E-03
DAV:   3    -0.125534401468E+03    0.19272E-06   -0.54891E-06 21504   0.845E-03    0.161E-03
DAV:   4    -0.125534401530E+03   -0.61969E-07   -0.77140E-07 17280   0.320E-03    0.806E-04
DAV:   5    -0.125534401586E+03   -0.55789E-07   -0.30620E-08 22416   0.684E-04    0.221E-04
DAV:   6    -0.125534401585E+03    0.96588E-09   -0.51953E-09 23904   0.238E-04
  65 F= -.12713038E+03 E0= -.12712960E+03  d E =-.842732E-05  mag=    -0.0000
       N       E                     dE             d eps       ncg     rms          rms(c)
DAV:   1    -0.125534460752E+03   -0.59166E-04   -0.33763E-04 14208   0.708E-02    0.343E-03
DAV:   2    -0.125534460624E+03    0.12818E-06   -0.34663E-06 14208   0.767E-03    0.210E-03
DAV:   3    -0.125534460652E+03   -0.28163E-07   -0.48289E-07 21072   0.255E-03    0.523E-04
DAV:   4    -0.125534460663E+03   -0.10817E-07   -0.68508E-08 17376   0.923E-04    0.249E-04
DAV:   5    -0.125534460670E+03   -0.75424E-08   -0.27304E-09 20352   0.207E-04
  66 F= -.12713038E+03 E0= -.12712960E+03  d E =-.265823E-05  mag=    -0.0000
       N       E                     dE             d eps       ncg     rms          rms(c)
DAV:   1    -0.125534556237E+03   -0.95575E-04   -0.90799E-04 14208   0.116E-01    0.562E-03
DAV:   2    -0.125534555952E+03    0.28533E-06   -0.92181E-06 17952   0.125E-02    0.341E-03
DAV:   3    -0.125534555953E+03   -0.10350E-08   -0.12390E-06 23136   0.406E-03    0.830E-04
DAV:   4    -0.125534555976E+03   -0.23399E-07   -0.16918E-07 16608   0.147E-03    0.394E-04
DAV:   5    -0.125534555993E+03   -0.16073E-07   -0.80764E-09 17616   0.352E-04    0.113E-04
DAV:   6    -0.125534555994E+03   -0.12915E-08   -0.17815E-09 24000   0.153E-04
  67 F= -.12713039E+03 E0= -.12712961E+03  d E =-.545888E-05  mag=    -0.0000
       N       E                     dE             d eps       ncg     rms          rms(c)
DAV:   1    -0.125534742117E+03   -0.18612E-03   -0.36302E-03 14208   0.232E-01    0.113E-02
DAV:   2    -0.125534741081E+03    0.10359E-05   -0.36295E-05 17280   0.249E-02    0.681E-03
DAV:   3    -0.125534740927E+03    0.15395E-06   -0.50561E-06 24480   0.820E-03    0.165E-03
DAV:   4    -0.125534741004E+03   -0.77259E-07   -0.65996E-07 16656   0.291E-03    0.787E-04
DAV:   5    -0.125534741055E+03   -0.50245E-07   -0.31733E-08 15456   0.693E-04    0.206E-04
DAV:   6    -0.125534741061E+03   -0.65620E-08   -0.82301E-09 27216   0.294E-04
  68 F= -.12713039E+03 E0= -.12712961E+03  d E =-.551990E-05  mag=    -0.0000
       N       E                     dE             d eps       ncg     rms          rms(c)
DAV:   1    -0.125534652317E+03    0.88737E-04   -0.85527E-04 14208   0.113E-01    0.547E-03
DAV:   2    -0.125534652108E+03    0.20854E-06   -0.88052E-06 20352   0.122E-02    0.332E-03
DAV:   3    -0.125534652121E+03   -0.12308E-07   -0.11161E-06 17472   0.386E-03    0.806E-04
DAV:   4    -0.125534652141E+03   -0.20304E-07   -0.17524E-07 17616   0.148E-03    0.370E-04
DAV:   5    -0.125534652153E+03   -0.12104E-07   -0.67650E-09 21936   0.315E-04    0.110E-04
DAV:   6    -0.125534652156E+03   -0.23456E-08   -0.10950E-09 22176   0.120E-04
  69 F= -.12713039E+03 E0= -.12712961E+03  d E =-.644383E-05  mag=    -0.0000
       N       E                     dE             d eps       ncg     rms          rms(c)
DAV:   1    -0.125534732360E+03   -0.80207E-04   -0.59221E-04 14208   0.932E-02    0.448E-03
DAV:   2    -0.125534732203E+03    0.15711E-06   -0.58071E-06 14208   0.998E-03    0.277E-03
DAV:   3    -0.125534732242E+03   -0.39304E-07   -0.83347E-07 21696   0.331E-03    0.656E-04
DAV:   4    -0.125534732257E+03   -0.14678E-07   -0.12065E-07 17376   0.122E-03    0.339E-04
DAV:   5    -0.125534732269E+03   -0.12756E-07   -0.51677E-09 19056   0.275E-04    0.943E-05
DAV:   6    -0.125534732270E+03   -0.92859E-09   -0.12846E-09 25056   0.116E-04
  70 F= -.12713039E+03 E0= -.12712961E+03  d E =-.346804E-05  mag=    -0.0000
       N       E                     dE             d eps       ncg     rms          rms(c)
DAV:   1    -0.125534969159E+03   -0.23689E-03   -0.53330E-03 14208   0.280E-01    0.135E-02
DAV:   2    -0.125534968258E+03    0.90160E-06   -0.51811E-05 18288   0.298E-02    0.825E-03
DAV:   3    -0.125534968077E+03    0.18062E-06   -0.72315E-06 24864   0.965E-03    0.191E-03
DAV:   4    -0.125534968142E+03   -0.64860E-07   -0.98430E-07 16512   0.355E-03    0.966E-04
DAV:   5    -0.125534968206E+03   -0.64236E-07   -0.49616E-08 15840   0.858E-04    0.262E-04
DAV:   6    -0.125534968209E+03   -0.28849E-08   -0.12359E-08 26016   0.358E-04
  71 F= -.12713040E+03 E0= -.12712962E+03  d E =-.946243E-05  mag=    -0.0000
       N       E                     dE             d eps       ncg     rms          rms(c)
DAV:   1    -0.125535073416E+03   -0.10521E-03   -0.10997E-03 14208   0.127E-01    0.611E-03
DAV:   2    -0.125535073142E+03    0.27413E-06   -0.10586E-05 14208   0.136E-02    0.375E-03
DAV:   3    -0.125535073154E+03   -0.12232E-07   -0.15440E-06 21504   0.453E-03    0.889E-04
DAV:   4    -0.125535073189E+03   -0.35338E-07   -0.22922E-07 18576   0.168E-03    0.462E-04
DAV:   5    -0.125535073219E+03   -0.29437E-07   -0.10561E-08 22848   0.394E-04    0.148E-04
DAV:   6    -0.125535073232E+03   -0.13360E-07   -0.25807E-09 23136   0.183E-04    0.805E-05
DAV:   7    -0.125535073242E+03   -0.10011E-07   -0.54571E-10 22704   0.938E-05    0.359E-05
DAV:   8    -0.125535073268E+03   -0.26064E-07   -0.14184E-09 16896   0.103E-04    0.297E-05
DAV:   9    -0.125535073282E+03   -0.14088E-07   -0.28857E-10 22704   0.433E-05    0.225E-05
DAV:  10    -0.125535073300E+03   -0.17864E-07   -0.43164E-10 18336   0.508E-05    0.882E-06
DAV:  11    -0.125535073305E+03   -0.46048E-08   -0.78367E-11 25680   0.356E-05
  72 F= -.12713040E+03 E0= -.12712962E+03  d E =-.101899E-04  mag=     0.0000
       N       E                     dE             d eps       ncg     rms          rms(c)
DAV:   1    -0.125535181804E+03   -0.10850E-03   -0.11304E-03 14208   0.129E-01    0.624E-03
DAV:   2    -0.125535181544E+03    0.25976E-06   -0.11472E-05 14208   0.140E-02    0.384E-03
DAV:   3    -0.125535181568E+03   -0.24020E-07   -0.15928E-06 21984   0.459E-03    0.914E-04
DAV:   4    -0.125535181596E+03   -0.27831E-07   -0.22078E-07 17232   0.167E-03    0.454E-04
DAV:   5    -0.125535181614E+03   -0.18204E-07   -0.10157E-08 15072   0.385E-04    0.124E-04
DAV:   6    -0.125535181615E+03   -0.57389E-09   -0.26212E-09 26736   0.170E-04
  73 F= -.12713040E+03 E0= -.12712962E+03  d E =-.426163E-05  mag=     0.0000
       N       E                     dE             d eps       ncg     rms          rms(c)
DAV:   1    -0.125535409312E+03   -0.22770E-03   -0.51963E-03 14208   0.276E-01    0.134E-02
DAV:   2    -0.125535408245E+03    0.10675E-05   -0.51184E-05 16704   0.297E-02    0.818E-03
DAV:   3    -0.125535408058E+03    0.18626E-06   -0.71286E-06 24480   0.967E-03    0.192E-03
DAV:   4    -0.125535408148E+03   -0.89178E-07   -0.94013E-07 16224   0.348E-03    0.941E-04
DAV:   5    -0.125535408208E+03   -0.60045E-07   -0.49582E-08 15744   0.856E-04    0.251E-04
DAV:   6    -0.125535408212E+03   -0.43883E-08   -0.11898E-08 26400   0.380E-04
  74 F= -.12713041E+03 E0= -.12712963E+03  d E =-.787920E-05  mag=     0.0000
       N       E                     dE             d eps       ncg     rms          rms(c)
DAV:   1    -0.125535457519E+03   -0.49311E-04   -0.28226E-04 14208   0.661E-02    0.318E-03
DAV:   2    -0.125535457418E+03    0.10052E-06   -0.29662E-06 14880   0.721E-03    0.196E-03
DAV:   3    -0.125535457415E+03    0.36480E-08   -0.42681E-07 17328   0.249E-03    0.450E-04
DAV:   4    -0.125535457438E+03   -0.23682E-07   -0.70402E-08 18000   0.985E-04    0.237E-04
DAV:   5    -0.125535457457E+03   -0.18240E-07   -0.50037E-09 22992   0.354E-04    0.101E-04
DAV:   6    -0.125535457467E+03   -0.10345E-07   -0.20387E-09 22032   0.219E-04    0.452E-05
DAV:   7    -0.125535457477E+03   -0.98717E-08   -0.50470E-10 22704   0.101E-04
  75 F= -.12713041E+03 E0= -.12712963E+03  d E =-.158822E-05  mag=     0.0000
       N       E                     dE             d eps       ncg     rms          rms(c)
DAV:   1    -0.125535480914E+03   -0.23447E-04   -0.66502E-05 19824   0.320E-02    0.157E-03
DAV:   2    -0.125535480877E+03    0.37055E-07   -0.62278E-07 16512   0.324E-03    0.942E-04
DAV:   3    -0.125535480883E+03   -0.61627E-08   -0.10101E-07 23616   0.118E-03    0.205E-04
DAV:   4    -0.125535480890E+03   -0.70095E-08   -0.13864E-08 20640   0.443E-04
  76 F= -.12713041E+03 E0= -.12712963E+03  d E =-.187638E-05  mag=    -0.0000
       N       E                     dE             d eps       ncg     rms          rms(c)
DAV:   1    -0.125535513305E+03   -0.32422E-04   -0.14200E-04 14208   0.466E-02    0.221E-03
DAV:   2    -0.125535513235E+03    0.69910E-07   -0.15524E-06 14208   0.506E-03    0.131E-03
DAV:   3    -0.125535513239E+03   -0.45620E-08   -0.22075E-07 15024   0.172E-03    0.346E-04
DAV:   4    -0.125535513249E+03   -0.91759E-08   -0.34655E-08 18192   0.693E-04
  77 F= -.12713041E+03 E0= -.12712963E+03  d E =-.142732E-05  mag=     0.0000
       N       E                     dE             d eps       ncg     rms          rms(c)
DAV:   1    -0.125535592008E+03   -0.78769E-04   -0.87745E-04 14208   0.116E-01    0.552E-03
DAV:   2    -0.125535591601E+03    0.40668E-06   -0.93658E-06 14592   0.125E-02    0.326E-03
DAV:   3    -0.125535591570E+03    0.30965E-07   -0.14003E-06 22656   0.426E-03    0.852E-04
DAV:   4    -0.125535591602E+03   -0.31187E-07   -0.17492E-07 17472   0.157E-03    0.443E-04
DAV:   5    -0.125535591624E+03   -0.21834E-07   -0.11373E-08 20256   0.543E-04    0.135E-04
DAV:   6    -0.125535591627E+03   -0.32196E-08   -0.82688E-09 18720   0.451E-04
  78 F= -.12713041E+03 E0= -.12712963E+03  d E =-.291534E-05  mag=    -0.0000
       N       E                     dE             d eps       ncg     rms          rms(c)
DAV:   1    -0.125535629614E+03   -0.37991E-04   -0.22277E-04 14208   0.595E-02    0.279E-03
DAV:   2    -0.125535629510E+03    0.10472E-06   -0.24575E-06 15600   0.658E-03    0.171E-03
DAV:   3    -0.125535629509E+03    0.39836E-09   -0.39273E-07 21408   0.234E-03    0.443E-04
DAV:   4    -0.125535629519E+03   -0.97834E-08   -0.58781E-08 18432   0.887E-04
  79 F= -.12713041E+03 E0= -.12712963E+03  d E =-.621617E-06  mag=    -0.0000
       N       E                     dE             d eps       ncg     rms          rms(c)
DAV:   1    -0.125535631429E+03   -0.19199E-05   -0.57292E-07 24528   0.301E-03    0.193E-04
DAV:   2    -0.125535631430E+03   -0.78671E-09   -0.49454E-09 24864   0.298E-04
  80 F= -.12713041E+03 E0= -.12712963E+03  d E =-.631893E-06  mag=    -0.0000
       N       E                     dE             d eps       ncg     rms          rms(c)
DAV:   1    -0.125535654391E+03   -0.22961E-04   -0.69964E-05 14208   0.330E-02    0.160E-03
DAV:   2    -0.125535654352E+03    0.38781E-07   -0.78875E-07 14256   0.365E-03    0.975E-04
DAV:   3    -0.125535654359E+03   -0.75133E-08   -0.95374E-08 14208   0.117E-03
  81 F= -.12713041E+03 E0= -.12712963E+03  d E =-.462075E-06  mag=    -0.0000
       N       E                     dE             d eps       ncg     rms          rms(c)
DAV:   1    -0.125535673762E+03   -0.19410E-04   -0.51888E-05 14208   0.284E-02    0.143E-03
DAV:   2    -0.125535673731E+03    0.31158E-07   -0.58335E-07 14208   0.316E-03    0.876E-04
DAV:   3    -0.125535673742E+03   -0.10606E-07   -0.74238E-08 14592   0.104E-03    0.231E-04
DAV:   4    -0.125535673747E+03   -0.50968E-08   -0.13128E-08 18816   0.429E-04
  82 F= -.12713041E+03 E0= -.12712963E+03  d E =-.622750E-06  mag=     0.0000
       N       E                     dE             d eps       ncg     rms          rms(c)
DAV:   1    -0.125535700600E+03   -0.26858E-04   -0.86660E-05 14208   0.370E-02    0.181E-03
DAV:   2    -0.125535700567E+03    0.32667E-07   -0.10476E-06 14928   0.431E-03    0.112E-03
DAV:   3    -0.125535700570E+03   -0.35934E-08   -0.14075E-07 17952   0.143E-03    0.359E-04
DAV:   4    -0.125535700574E+03   -0.38626E-08   -0.25534E-08 16176   0.631E-04
  83 F= -.12713041E+03 E0= -.12712963E+03  d E =-.438974E-06  mag=     0.0000
       N       E                     dE             d eps       ncg     rms          rms(c)
DAV:   1    -0.125535710847E+03   -0.10276E-04   -0.12998E-05 14688   0.144E-02    0.720E-04
DAV:   2    -0.125535710841E+03    0.62328E-08   -0.16102E-07 14592   0.171E-03    0.451E-04
DAV:   3    -0.125535710842E+03   -0.16489E-08   -0.22446E-08 14784   0.617E-04
  84 F= -.12713041E+03 E0= -.12712963E+03  d E =-.475932E-06  mag=     0.0000
       N       E                     dE             d eps       ncg     rms          rms(c)
DAV:   1    -0.125535739513E+03   -0.28673E-04   -0.83996E-05 14208   0.354E-02    0.181E-03
DAV:   2    -0.125535739476E+03    0.37042E-07   -0.94582E-07 14448   0.405E-03    0.110E-03
DAV:   3    -0.125535739484E+03   -0.73906E-08   -0.13193E-07 19152   0.138E-03    0.275E-04
DAV:   4    -0.125535739488E+03   -0.36998E-08   -0.23078E-08 15504   0.650E-04
  85 F= -.12713041E+03 E0= -.12712963E+03  d E =-.206081E-06  mag=    -0.0000
       N       E                     dE             d eps       ncg     rms          rms(c)
DAV:   1    -0.125535777429E+03   -0.37945E-04   -0.14745E-04 14208   0.470E-02    0.237E-03
DAV:   2    -0.125535777369E+03    0.59922E-07   -0.16617E-06 14544   0.538E-03    0.144E-03
DAV:   3    -0.125535777378E+03   -0.92987E-08   -0.23084E-07 21648   0.182E-03    0.367E-04
DAV:   4    -0.125535777384E+03   -0.54251E-08   -0.36994E-08 15120   0.822E-04
  86 F= -.12713041E+03 E0= -.12712963E+03  d E =-.373906E-06  mag=    -0.0000
       N       E                     dE             d eps       ncg     rms          rms(c)
DAV:   1    -0.125535804286E+03   -0.26908E-04   -0.72242E-05 14208   0.329E-02    0.160E-03
DAV:   2    -0.125535804264E+03    0.22284E-07   -0.78396E-07 14208   0.375E-03    0.100E-03
DAV:   3    -0.125535804275E+03   -0.11074E-07   -0.10269E-07 15936   0.130E-03    0.251E-04
DAV:   4    -0.125535804280E+03   -0.52041E-08   -0.25629E-08 14640   0.757E-04
  87 F= -.12713041E+03 E0= -.12712963E+03  d E =-.367737E-06  mag=    -0.0000
       N       E                     dE             d eps       ncg     rms          rms(c)
DAV:   1    -0.125535840881E+03   -0.36606E-04   -0.13598E-04 14208   0.452E-02    0.220E-03
DAV:   2    -0.125535840839E+03    0.42444E-07   -0.14443E-06 14208   0.507E-03    0.137E-03
DAV:   3    -0.125535840855E+03   -0.16740E-07   -0.19269E-07 20016   0.168E-03    0.325E-04
DAV:   4    -0.125535840863E+03   -0.75725E-08   -0.33191E-08 16176   0.766E-04
  88 F= -.12713041E+03 E0= -.12712963E+03  d E =-.552785E-06  mag=    -0.0000
       N       E                     dE             d eps       ncg     rms          rms(c)
DAV:   1    -0.125535868661E+03   -0.27806E-04   -0.80715E-05 14208   0.350E-02    0.167E-03
DAV:   2    -0.125535868630E+03    0.31311E-07   -0.86245E-07 14208   0.392E-03    0.103E-03
DAV:   3    -0.125535868642E+03   -0.11762E-07   -0.11121E-07 14208   0.134E-03    0.277E-04
DAV:   4    -0.125535868649E+03   -0.77525E-08   -0.27980E-08 14496   0.775E-04
  89 F= -.12713041E+03 E0= -.12712963E+03  d E =-.405809E-06  mag=    -0.0000
       N       E                     dE             d eps       ncg     rms          rms(c)
DAV:   1    -0.125535922071E+03   -0.53430E-04   -0.30269E-04 14208   0.678E-02    0.325E-03
DAV:   2    -0.125535921961E+03    0.11090E-06   -0.31337E-06 14208   0.743E-03    0.198E-03
DAV:   3    -0.125535921985E+03   -0.24971E-07   -0.41919E-07 20016   0.243E-03    0.505E-04
DAV:   4    -0.125535922002E+03   -0.16134E-07   -0.67092E-08 16368   0.103E-03    0.240E-04
DAV:   5    -0.125535922011E+03   -0.92341E-08   -0.98906E-09 18096   0.506E-04
  90 F= -.12713041E+03 E0= -.12712963E+03  d E =-.719813E-06  mag=    -0.0000
       N       E                     dE             d eps       ncg     rms          rms(c)
DAV:   1    -0.125535957965E+03   -0.35963E-04   -0.14111E-04 14208   0.461E-02    0.213E-03
DAV:   2    -0.125535957906E+03    0.58675E-07   -0.14395E-06 14736   0.503E-03    0.130E-03
DAV:   3    -0.125535957915E+03   -0.95788E-08   -0.20561E-07 19392   0.169E-03    0.323E-04
DAV:   4    -0.125535957925E+03   -0.94024E-08   -0.33472E-08 17376   0.728E-04
  91 F= -.12713041E+03 E0= -.12712963E+03  d E =-.463597E-06  mag=     0.0000
       N       E                     dE             d eps       ncg     rms          rms(c)
DAV:   1    -0.125536041164E+03   -0.83249E-04   -0.76501E-04 14208   0.107E-01    0.500E-03
DAV:   2    -0.125536040884E+03    0.28019E-06   -0.76560E-06 14304   0.115E-02    0.304E-03
DAV:   3    -0.125536040896E+03   -0.12255E-07   -0.11283E-06 21216   0.391E-03    0.749E-04
DAV:   4    -0.125536040925E+03   -0.28443E-07   -0.16464E-07 17040   0.157E-03    0.383E-04
DAV:   5    -0.125536040945E+03   -0.20619E-07   -0.17136E-08 18048   0.677E-04    0.138E-04
DAV:   6    -0.125536040947E+03   -0.17926E-08   -0.98209E-09 15648   0.492E-04
  92 F= -.12713042E+03 E0= -.12712964E+03  d E =-.905447E-06  mag=     0.0000
       N       E                     dE             d eps       ncg     rms          rms(c)
DAV:   1    -0.125536072971E+03   -0.32026E-04   -0.11303E-04 14208   0.413E-02    0.190E-03
DAV:   2    -0.125536072922E+03    0.49257E-07   -0.11354E-06 14256   0.444E-03    0.116E-03
DAV:   3    -0.125536072930E+03   -0.77353E-08   -0.16020E-07 16896   0.149E-03    0.287E-04
DAV:   4    -0.125536072939E+03   -0.90249E-08   -0.25852E-08 17088   0.566E-04
  93 F= -.12713042E+03 E0= -.12712964E+03  d E =-.379802E-06  mag=     0.0000
       N       E                     dE             d eps       ncg     rms          rms(c)
DAV:   1    -0.125536139374E+03   -0.66445E-04   -0.49188E-04 14208   0.862E-02    0.396E-03
DAV:   2    -0.125536139189E+03    0.18509E-06   -0.48493E-06 14208   0.910E-03    0.242E-03
DAV:   3    -0.125536139206E+03   -0.16504E-07   -0.69882E-07 19920   0.307E-03    0.592E-04
DAV:   4    -0.125536139227E+03   -0.21471E-07   -0.10087E-07 17376   0.114E-03    0.296E-04
DAV:   5    -0.125536139242E+03   -0.14391E-07   -0.41279E-09 22704   0.287E-04    0.908E-05
DAV:   6    -0.125536139245E+03   -0.32105E-08   -0.13814E-09 22272   0.173E-04
  94 F= -.12713042E+03 E0= -.12712964E+03  d E =-.703156E-06  mag=     0.0000
       N       E                     dE             d eps       ncg     rms          rms(c)
DAV:   1    -0.125536165945E+03   -0.26704E-04   -0.77878E-05 14208   0.342E-02    0.159E-03
DAV:   2    -0.125536165910E+03    0.35691E-07   -0.80222E-07 14352   0.370E-03    0.974E-04
DAV:   3    -0.125536165917E+03   -0.74078E-08   -0.10318E-07 14784   0.119E-03    0.248E-04
DAV:   4    -0.125536165924E+03   -0.75270E-08   -0.17311E-08 17232   0.449E-04
  95 F= -.12713042E+03 E0= -.12712964E+03  d E =-.334179E-06  mag=    -0.0000
       N       E                     dE             d eps       ncg     rms          rms(c)
DAV:   1    -0.125536243057E+03   -0.77140E-04   -0.65751E-04 14208   0.994E-02    0.464E-03
DAV:   2    -0.125536242832E+03    0.22438E-06   -0.66514E-06 14208   0.106E-02    0.283E-03
DAV:   3    -0.125536242850E+03   -0.17450E-07   -0.88860E-07 21120   0.343E-03    0.708E-04
DAV:   4    -0.125536242879E+03   -0.29266E-07   -0.11924E-07 17376   0.121E-03    0.326E-04
DAV:   5    -0.125536242895E+03   -0.15959E-07   -0.46697E-09 22992   0.264E-04    0.102E-04
DAV:   6    -0.125536242898E+03   -0.24866E-08   -0.74451E-10 23856   0.100E-04
  96 F= -.12713042E+03 E0= -.12712964E+03  d E =-.742911E-06  mag=    -0.0000
       N       E                     dE             d eps       ncg     rms          rms(c)
DAV:   1    -0.125536274219E+03   -0.31324E-04   -0.10686E-04 14208   0.402E-02    0.190E-03
DAV:   2    -0.125536274172E+03    0.47018E-07   -0.11268E-06 14400   0.439E-03    0.117E-03
DAV:   3    -0.125536274181E+03   -0.90795E-08   -0.15694E-07 19152   0.146E-03    0.307E-04
DAV:   4    -0.125536274188E+03   -0.72996E-08   -0.24986E-08 17664   0.555E-04
  97 F= -.12713042E+03 E0= -.12712964E+03  d E =-.329047E-06  mag=    -0.0000
       N       E                     dE             d eps       ncg     rms          rms(c)
DAV:   1    -0.125536309433E+03   -0.35252E-04   -0.13705E-04 14208   0.456E-02    0.215E-03
DAV:   2    -0.125536309380E+03    0.53263E-07   -0.14637E-06 14208   0.502E-03    0.133E-03
DAV:   3    -0.125536309393E+03   -0.13065E-07   -0.19886E-07 18432   0.165E-03    0.355E-04
DAV:   4    -0.125536309401E+03   -0.80927E-08   -0.32381E-08 17424   0.630E-04
  98 F= -.12713042E+03 E0= -.12712964E+03  d E =-.455346E-06  mag=    -0.0000
       N       E                     dE             d eps       ncg     rms          rms(c)
DAV:   1    -0.125536326657E+03   -0.17264E-04   -0.28918E-05 14304   0.207E-02    0.102E-03
DAV:   2    -0.125536326648E+03    0.84165E-08   -0.31902E-07 14304   0.234E-03    0.629E-04
DAV:   3    -0.125536326654E+03   -0.53096E-08   -0.38261E-08 14640   0.728E-04
  99 F= -.12713042E+03 E0= -.12712964E+03  d E =-.192246E-06  mag=     0.0000
       N       E                     dE             d eps       ncg     rms          rms(c)
DAV:   1    -0.125536362660E+03   -0.36011E-04   -0.12782E-04 14208   0.436E-02    0.218E-03
DAV:   2    -0.125536362613E+03    0.46842E-07   -0.13646E-06 14208   0.482E-03    0.133E-03
DAV:   3    -0.125536362630E+03   -0.17603E-07   -0.17958E-07 19056   0.155E-03    0.321E-04
DAV:   4    -0.125536362637E+03   -0.61609E-08   -0.26530E-08 17424   0.566E-04
 100 F= -.12713042E+03 E0= -.12712964E+03  d E =-.397805E-06  mag=    -0.0000
       N       E                     dE             d eps       ncg     rms          rms(c)
DAV:   1    -0.125536374577E+03   -0.11947E-04   -0.14178E-05 14592   0.145E-02    0.712E-04
DAV:   2    -0.125536374573E+03    0.38117E-08   -0.15647E-07 14352   0.165E-03    0.439E-04
DAV:   3    -0.125536374577E+03   -0.30377E-08   -0.18358E-08 17280   0.509E-04
 101 F= -.12713042E+03 E0= -.12712964E+03  d E =-.414006E-06  mag=    -0.0000
       N       E                     dE             d eps       ncg     rms          rms(c)
DAV:   1    -0.125536392426E+03   -0.17852E-04   -0.36813E-05 14208   0.239E-02    0.121E-03
DAV:   2    -0.125536392412E+03    0.13732E-07   -0.41918E-07 14208   0.269E-03    0.745E-04
DAV:   3    -0.125536392417E+03   -0.47858E-08   -0.50764E-08 14400   0.868E-04
 102 F= -.12713042E+03 E0= -.12712964E+03  d E =-.120136E-06  mag=    -0.0000
       N       E                     dE             d eps       ncg     rms          rms(c)
DAV:   1    -0.125536393808E+03   -0.13960E-05   -0.26039E-07 19344   0.200E-03    0.162E-04
DAV:   2    -0.125536393809E+03   -0.93587E-09   -0.25432E-09 26112   0.228E-04
 103 F= -.12713042E+03 E0= -.12712964E+03  d E =-.126471E-06  mag=    -0.0000
       N       E                     dE             d eps       ncg     rms          rms(c)
DAV:   1    -0.125536404371E+03   -0.10563E-04   -0.17157E-05 14400   0.165E-02    0.853E-04
DAV:   2    -0.125536404359E+03    0.12585E-07   -0.20610E-07 14400   0.186E-03    0.503E-04
DAV:   3    -0.125536404361E+03   -0.21319E-08   -0.26181E-08 16032   0.613E-04
 104 F= -.12713042E+03 E0= -.12712964E+03  d E =-.973360E-07  mag=    -0.0000
