  15  15   0   0
  0.2033749E+02  0.4846000E-09  0.4846000E-09  0.1500000E-08  0.5000000E-15
  1.000000000000000E-004
  CAR 
 DF                                      
     48.47715423    -23.51311349 4000     -0.57622931      1.00000000
    -23.513  0.0000E+00  0.0000E+00
    -23.495  0.0000E+00  0.0000E+00
    -23.477  0.0000E+00  0.0000E+00
    -23.459  0.0000E+00  0.0000E+00
    -23.441  0.0000E+00  0.0000E+00
    -23.423  0.0000E+00  0.0000E+00
    -23.405  0.0000E+00  0.0000E+00
    -23.387  0.0000E+00  0.0000E+00
    -23.369  0.0000E+00  0.0000E+00
    -23.351  0.0000E+00  0.0000E+00
    -23.333  0.0000E+00  0.0000E+00
    -23.315  0.0000E+00  0.0000E+00
    -23.297  0.0000E+00  0.0000E+00
    -23.279  0.0000E+00  0.0000E+00
    -23.261  0.0000E+00  0.0000E+00
    -23.243  0.0000E+00  0.0000E+00
    -23.225  0.0000E+00  0.0000E+00
    -23.207  0.0000E+00  0.0000E+00
    -23.189  0.0000E+00  0.0000E+00
    -23.171  0.0000E+00  0.0000E+00
    -23.153  0.0000E+00  0.0000E+00
    -23.135  0.0000E+00  0.0000E+00
    -23.117  0.0000E+00  0.0000E+00
    -23.099  0.0000E+00  0.0000E+00
    -23.081  0.0000E+00  0.0000E+00
    -23.063  0.0000E+00  0.0000E+00
    -23.045  0.0000E+00  0.0000E+00
    -23.027  0.0000E+00  0.0000E+00
    -23.009  0.0000E+00  0.0000E+00
    -22.991  0.0000E+00  0.0000E+00
    -22.973  0.0000E+00  0.0000E+00
    -22.955  0.0000E+00  0.0000E+00
    -22.937  0.0000E+00  0.0000E+00
    -22.919  0.0000E+00  0.0000E+00
    -22.901  0.0000E+00  0.0000E+00
    -22.883  0.0000E+00  0.0000E+00
    -22.865  0.0000E+00  0.0000E+00
    -22.847  0.0000E+00  0.0000E+00
    -22.829  0.0000E+00  0.0000E+00
    -22.811  0.0000E+00  0.0000E+00
    -22.793  0.0000E+00  0.0000E+00
    -22.775  0.0000E+00  0.0000E+00
    -22.757  0.0000E+00  0.0000E+00
    -22.739  0.0000E+00  0.0000E+00
    -22.721  0.0000E+00  0.0000E+00
    -22.703  0.0000E+00  0.0000E+00
    -22.685  0.0000E+00  0.0000E+00
    -22.667  0.0000E+00  0.0000E+00
    -22.649  0.0000E+00  0.0000E+00
    -22.631  0.0000E+00  0.0000E+00
    -22.613  0.0000E+00  0.0000E+00
    -22.595  0.0000E+00  0.0000E+00
    -22.577  0.0000E+00  0.0000E+00
    -22.559  0.0000E+00  0.0000E+00
    -22.541  0.0000E+00  0.0000E+00
    -22.523  0.0000E+00  0.0000E+00
    -22.505  0.0000E+00  0.0000E+00
    -22.487  0.0000E+00  0.0000E+00
    -22.469  0.0000E+00  0.0000E+00
    -22.451  0.0000E+00  0.0000E+00
    -22.433  0.0000E+00  0.0000E+00
    -22.415  0.0000E+00  0.0000E+00
    -22.397  0.0000E+00  0.0000E+00
    -22.379  0.0000E+00  0.0000E+00
    -22.361  0.0000E+00  0.0000E+00
    -22.343  0.0000E+00  0.0000E+00
    -22.325  0.0000E+00  0.0000E+00
    -22.307  0.0000E+00  0.0000E+00
    -22.289  0.0000E+00  0.0000E+00
    -22.271  0.0000E+00  0.0000E+00
    -22.253  0.0000E+00  0.0000E+00
    -22.235  0.0000E+00  0.0000E+00
    -22.217  0.0000E+00  0.0000E+00
    -22.199  0.0000E+00  0.0000E+00
    -22.181  0.0000E+00  0.0000E+00
    -22.163  0.0000E+00  0.0000E+00
    -22.145  0.0000E+00  0.0000E+00
    -22.127  0.0000E+00  0.0000E+00
    -22.109  0.0000E+00  0.0000E+00
    -22.091  0.0000E+00  0.0000E+00
    -22.073  0.0000E+00  0.0000E+00
    -22.055  0.0000E+00  0.0000E+00
    -22.037  0.0000E+00  0.0000E+00
    -22.019  0.0000E+00  0.0000E+00
    -22.001  0.0000E+00  0.0000E+00
    -21.983  0.0000E+00  0.0000E+00
    -21.965  0.0000E+00  0.0000E+00
    -21.947  0.0000E+00  0.0000E+00
    -21.929  0.0000E+00  0.0000E+00
    -21.911  0.0000E+00  0.0000E+00
    -21.893  0.0000E+00  0.0000E+00
    -21.875  0.0000E+00  0.0000E+00
    -21.857  0.0000E+00  0.0000E+00
    -21.839  0.0000E+00  0.0000E+00
    -21.821  0.0000E+00  0.0000E+00
    -21.803  0.0000E+00  0.0000E+00
    -21.785  0.0000E+00  0.0000E+00
    -21.767  0.0000E+00  0.0000E+00
    -21.749  0.0000E+00  0.0000E+00
    -21.731  0.0000E+00  0.0000E+00
    -21.713  0.0000E+00  0.0000E+00
    -21.695  0.0000E+00  0.0000E+00
    -21.677  0.0000E+00  0.0000E+00
    -21.659  0.0000E+00  0.0000E+00
    -21.641  0.0000E+00  0.0000E+00
    -21.623  0.0000E+00  0.0000E+00
    -21.605  0.0000E+00  0.0000E+00
    -21.587  0.0000E+00  0.0000E+00
    -21.569  0.0000E+00  0.0000E+00
    -21.551  0.0000E+00  0.0000E+00
    -21.533  0.0000E+00  0.0000E+00
    -21.515  0.0000E+00  0.0000E+00
    -21.497  0.0000E+00  0.0000E+00
    -21.479  0.0000E+00  0.0000E+00
    -21.461  0.0000E+00  0.0000E+00
    -21.443  0.0000E+00  0.0000E+00
    -21.425  0.0000E+00  0.0000E+00
    -21.407  0.0000E+00  0.0000E+00
    -21.389  0.0000E+00  0.0000E+00
    -21.371  0.0000E+00  0.0000E+00
    -21.353  0.0000E+00  0.0000E+00
    -21.335  0.0000E+00  0.0000E+00
    -21.317  0.0000E+00  0.0000E+00
    -21.299  0.0000E+00  0.0000E+00
    -21.281  0.0000E+00  0.0000E+00
    -21.263  0.0000E+00  0.0000E+00
    -21.245  0.0000E+00  0.0000E+00
    -21.227  0.0000E+00  0.0000E+00
    -21.209  0.0000E+00  0.0000E+00
    -21.191  0.0000E+00  0.0000E+00
    -21.173  0.0000E+00  0.0000E+00
    -21.155  0.0000E+00  0.0000E+00
    -21.137  0.0000E+00  0.0000E+00
    -21.119  0.0000E+00  0.0000E+00
    -21.101  0.0000E+00  0.0000E+00
    -21.083  0.0000E+00  0.0000E+00
    -21.065  0.0000E+00  0.0000E+00
    -21.047  0.0000E+00  0.0000E+00
    -21.029  0.0000E+00  0.0000E+00
    -21.011  0.0000E+00  0.0000E+00
    -20.993  0.0000E+00  0.0000E+00
    -20.975  0.0000E+00  0.0000E+00
    -20.957  0.0000E+00  0.0000E+00
    -20.939  0.0000E+00  0.0000E+00
    -20.921  0.0000E+00  0.0000E+00
    -20.903  0.0000E+00  0.0000E+00
    -20.885  0.0000E+00  0.0000E+00
    -20.867  0.0000E+00  0.0000E+00
    -20.849  0.0000E+00  0.0000E+00
    -20.831  0.0000E+00  0.0000E+00
    -20.813  0.0000E+00  0.0000E+00
    -20.795  0.0000E+00  0.0000E+00
    -20.777  0.0000E+00  0.0000E+00
    -20.759  0.0000E+00  0.0000E+00
    -20.741  0.0000E+00  0.0000E+00
    -20.723  0.0000E+00  0.0000E+00
    -20.705  0.0000E+00  0.0000E+00
    -20.687  0.0000E+00  0.0000E+00
    -20.669  0.0000E+00  0.0000E+00
    -20.651  0.0000E+00  0.0000E+00
    -20.633  0.0000E+00  0.0000E+00
    -20.615  0.0000E+00  0.0000E+00
    -20.597  0.0000E+00  0.0000E+00
    -20.579  0.0000E+00  0.0000E+00
    -20.561  0.0000E+00  0.0000E+00
    -20.543  0.0000E+00  0.0000E+00
    -20.525  0.0000E+00  0.0000E+00
    -20.507  0.0000E+00  0.0000E+00
    -20.489  0.0000E+00  0.0000E+00
    -20.471  0.0000E+00  0.0000E+00
    -20.453  0.0000E+00  0.0000E+00
    -20.435  0.0000E+00  0.0000E+00
    -20.417  0.0000E+00  0.0000E+00
    -20.399  0.0000E+00  0.0000E+00
    -20.381  0.0000E+00  0.0000E+00
    -20.363  0.0000E+00  0.0000E+00
    -20.345  0.0000E+00  0.0000E+00
    -20.327  0.0000E+00  0.0000E+00
    -20.309  0.0000E+00  0.0000E+00
    -20.291  0.3223E-12  0.5802E-14
    -20.273  0.1228E-05  0.2210E-07
    -20.255  0.9447E-02  0.1701E-03
    -20.237  0.2855E+00  0.5309E-02
    -20.219  0.1372E+01  0.3001E-01
    -20.201  0.1017E+01  0.4831E-01
    -20.183  0.5426E+00  0.5808E-01
    -20.165  0.1970E+01  0.9354E-01
    -20.147  0.1913E+01  0.1280E+00
    -20.129  0.1948E+00  0.1315E+00
    -20.111  0.3083E-01  0.1320E+00
    -20.093  0.2406E+01  0.1754E+00
    -20.075  0.2157E+01  0.2142E+00
    -20.057  0.5114E+00  0.2234E+00
    -20.039  0.1722E+01  0.2544E+00
    -20.021  0.9225E-01  0.2561E+00
    -20.003  0.4185E-01  0.2568E+00
    -19.985  0.1540E+01  0.2845E+00
    -19.967  0.3069E+01  0.3398E+00
    -19.949  0.2245E+01  0.3802E+00
    -19.931  0.2373E-01  0.3806E+00
    -19.913  0.2365E+00  0.3849E+00
    -19.895  0.1838E+01  0.4180E+00
    -19.877  0.2315E+00  0.4221E+00
    -19.859  0.2508E-01  0.4226E+00
    -19.841  0.2276E+01  0.4636E+00
    -19.823  0.2288E+01  0.5048E+00
    -19.805  0.9293E+00  0.5215E+00
    -19.787  0.3498E+01  0.5845E+00
    -19.769  0.2095E+00  0.5882E+00
    -19.751  0.5270E-04  0.5882E+00
    -19.733  0.1235E-01  0.5885E+00
    -19.715  0.1135E+01  0.6089E+00
    -19.697  0.1147E+01  0.6295E+00
    -19.679  0.4697E+00  0.6380E+00
    -19.661  0.2216E+01  0.6779E+00
    -19.643  0.3780E+01  0.7459E+00
    -19.625  0.4656E+00  0.7543E+00
    -19.607  0.2663E-01  0.7548E+00
    -19.589  0.2310E+01  0.7964E+00
    -19.571  0.2253E+01  0.8369E+00
    -19.553  0.2401E-01  0.8374E+00
    -19.535  0.7517E-06  0.8374E+00
    -19.517  0.4504E-05  0.8374E+00
    -19.499  0.4429E-01  0.8382E+00
    -19.481  0.1561E+01  0.8663E+00
    -19.463  0.3130E+01  0.9226E+00
    -19.445  0.2166E+01  0.9616E+00
    -19.427  0.1047E+01  0.9804E+00
    -19.409  0.3413E+01  0.1042E+01
    -19.391  0.1719E+00  0.1045E+01
    -19.373  0.3616E-04  0.1045E+01
    -19.355  0.3652E-01  0.1046E+01
    -19.337  0.2514E+01  0.1091E+01
    -19.319  0.2045E+01  0.1128E+01
    -19.301  0.1703E-01  0.1128E+01
    -19.283  0.4018E-06  0.1128E+01
    -19.265  0.1019E-04  0.1128E+01
    -19.247  0.6654E-01  0.1129E+01
    -19.229  0.1716E+01  0.1160E+01
    -19.211  0.4626E+01  0.1243E+01
    -19.193  0.2799E+01  0.1294E+01
    -19.175  0.1970E-01  0.1294E+01
    -19.157  0.7531E+00  0.1308E+01
    -19.139  0.3588E+01  0.1372E+01
    -19.121  0.2708E+00  0.1377E+01
    -19.103  0.9069E-04  0.1377E+01
    -19.085  0.6870E-07  0.1377E+01
    -19.067  0.6289E-02  0.1377E+01
    -19.049  0.1497E+01  0.1404E+01
    -19.031  0.3026E+01  0.1459E+01
    -19.013  0.8347E-01  0.1460E+01
    -18.995  0.1943E-04  0.1460E+01
    -18.977  0.9980E-01  0.1462E+01
    -18.959  0.3130E+01  0.1518E+01
    -18.941  0.1389E+01  0.1543E+01
    -18.923  0.1804E+01  0.1576E+01
    -18.905  0.3313E+01  0.1635E+01
    -18.887  0.1723E+01  0.1666E+01
    -18.869  0.7361E-01  0.1668E+01
    -18.851  0.1448E+00  0.1670E+01
    -18.833  0.3331E+01  0.1730E+01
    -18.815  0.1135E+01  0.1751E+01
    -18.797  0.2844E-02  0.1751E+01
    -18.779  0.1754E-07  0.1751E+01
    -18.761  0.8765E-10  0.1751E+01
    -18.743  0.9315E-04  0.1751E+01
    -18.725  0.2425E+00  0.1755E+01
    -18.707  0.3459E+01  0.1817E+01
    -18.689  0.9293E+00  0.1834E+01
    -18.671  0.1289E+01  0.1857E+01
    -18.653  0.2867E+01  0.1909E+01
    -18.635  0.2698E+01  0.1958E+01
    -18.617  0.4855E-01  0.1958E+01
    -18.599  0.3989E+00  0.1966E+01
    -18.581  0.3596E+01  0.2030E+01
    -18.563  0.6486E+00  0.2042E+01
    -18.545  0.1426E+01  0.2068E+01
    -18.527  0.8452E+00  0.2083E+01
    -18.509  0.6564E-02  0.2083E+01
    -18.491  0.9973E+00  0.2101E+01
    -18.473  0.3434E+01  0.2163E+01
    -18.455  0.1799E+00  0.2166E+01
    -18.437  0.3798E-04  0.2166E+01
    -18.419  0.1656E-10  0.2166E+01
    -18.401  0.2561E-15  0.2166E+01
    -18.383  0.2537E-07  0.2166E+01
    -18.365  0.4000E-02  0.2166E+01
    -18.347  0.1870E+01  0.2200E+01
    -18.329  0.6920E+01  0.2324E+01
    -18.311  0.7066E+00  0.2337E+01
    -18.293  0.3592E+01  0.2402E+01
    -18.275  0.7459E+00  0.2415E+01
    -18.257  0.9494E-03  0.2415E+01
    -18.239  0.5077E-02  0.2415E+01
    -18.221  0.1393E+01  0.2440E+01
    -18.203  0.3118E+01  0.2497E+01
    -18.185  0.9769E-01  0.2498E+01
    -18.166  0.1076E+00  0.2500E+01
    -18.148  0.1754E+01  0.2532E+01
    -18.130  0.4439E+00  0.2540E+01
    -18.112  0.1499E-01  0.2540E+01
    -18.094  0.1941E+01  0.2575E+01
    -18.076  0.2615E+01  0.2622E+01
    -18.058  0.4288E-01  0.2623E+01
    -18.040  0.2216E-05  0.2623E+01
    -18.022  0.1150E-04  0.2623E+01
    -18.004  0.7060E-01  0.2624E+01
    -17.986  0.1728E+01  0.2655E+01
    -17.968  0.3354E+01  0.2716E+01
    -17.950  0.1759E+01  0.2747E+01
    -17.932  0.1360E+01  0.2772E+01
    -17.914  0.4154E+01  0.2847E+01
    -17.896  0.3540E+01  0.2910E+01
    -17.878  0.1804E+00  0.2913E+01
    -17.860  0.3819E-04  0.2913E+01
    -17.842  0.6682E-06  0.2913E+01
    -17.824  0.2251E-01  0.2914E+01
    -17.806  0.2214E+01  0.2954E+01
    -17.788  0.2349E+01  0.2996E+01
    -17.770  0.2804E-01  0.2997E+01
    -17.752  0.5695E-04  0.2997E+01
    -17.734  0.1491E+00  0.2999E+01
    -17.716  0.1807E+01  0.3032E+01
    -17.698  0.3495E+00  0.3038E+01
    -17.680  0.2890E-01  0.3039E+01
    -17.662  0.2359E+01  0.3081E+01
    -17.644  0.2203E+01  0.3121E+01
    -17.626  0.2415E-01  0.3121E+01
    -17.608  0.9975E+00  0.3139E+01
    -17.590  0.3434E+01  0.3201E+01
    -17.572  0.4970E+00  0.3210E+01
    -17.554  0.3630E+01  0.3275E+01
    -17.536  0.6653E+00  0.3287E+01
    -17.518  0.7154E-03  0.3287E+01
    -17.500  0.1851E-01  0.3288E+01
    -17.482  0.3189E+01  0.3345E+01
    -17.464  0.5858E+01  0.3450E+01
    -17.446  0.1613E+00  0.3453E+01
    -17.428  0.1725E-04  0.3453E+01
    -17.410  0.2520E-03  0.3453E+01
    -17.392  0.1046E+00  0.3455E+01
    -17.374  0.1321E+01  0.3479E+01
    -17.356  0.4042E+01  0.3552E+01
    -17.338  0.4029E+01  0.3624E+01
    -17.320  0.2253E+01  0.3665E+01
    -17.302  0.3072E+00  0.3670E+01
    -17.284  0.3318E+01  0.3730E+01
    -17.266  0.1936E+01  0.3765E+01
    -17.248  0.3445E+01  0.3827E+01
    -17.230  0.6744E+00  0.3839E+01
    -17.212  0.3425E+01  0.3901E+01
    -17.194  0.7369E+01  0.4033E+01
    -17.176  0.5755E+01  0.4137E+01
    -17.158  0.3825E+01  0.4206E+01
    -17.140  0.9338E+00  0.4223E+01
    -17.122  0.4713E+01  0.4308E+01
    -17.104  0.7351E+01  0.4440E+01
    -17.086  0.9388E+00  0.4457E+01
    -17.068  0.5360E+00  0.4466E+01
    -17.050  0.2022E+01  0.4503E+01
    -17.032  0.3461E+01  0.4565E+01
    -17.014  0.6100E+01  0.4675E+01
    -16.996  0.5842E+01  0.4780E+01
    -16.978  0.4900E+01  0.4868E+01
    -16.960  0.5744E+00  0.4879E+01
    -16.942  0.2646E+01  0.4926E+01
    -16.924  0.5888E+01  0.5032E+01
    -16.906  0.2841E+01  0.5083E+01
    -16.888  0.3613E+01  0.5148E+01
    -16.870  0.3358E+01  0.5209E+01
    -16.852  0.4580E+01  0.5291E+01
    -16.834  0.7961E+01  0.5435E+01
    -16.816  0.5324E+01  0.5531E+01
    -16.798  0.3886E+01  0.5600E+01
    -16.780  0.6677E+01  0.5721E+01
    -16.762  0.9598E+01  0.5893E+01
    -16.744  0.6849E+01  0.6017E+01
    -16.726  0.5816E+01  0.6121E+01
    -16.708  0.7799E+01  0.6262E+01
    -16.690  0.5767E+01  0.6366E+01
    -16.672  0.2348E+01  0.6408E+01
    -16.654  0.2600E-01  0.6408E+01
    -16.636  0.1393E+01  0.6433E+01
    -16.618  0.3118E+01  0.6490E+01
    -16.600  0.9768E-01  0.6491E+01
    -16.582  0.1094E-04  0.6491E+01
    -16.564  0.3070E-11  0.6491E+01
    -16.546  0.4358E-05  0.6491E+01
    -16.528  0.6109E-01  0.6492E+01
    -16.510  0.2836E+01  0.6544E+01
    -16.492  0.1713E+01  0.6574E+01
    -16.474  0.1521E+01  0.6602E+01
    -16.456  0.3013E+01  0.6656E+01
    -16.438  0.8169E-01  0.6657E+01
    -16.420  0.7678E-05  0.6657E+01
    -16.402  0.1008E-10  0.6657E+01
    -16.384  0.2490E-04  0.6657E+01
    -16.366  0.1468E+00  0.6660E+01
    -16.348  0.3337E+01  0.6720E+01
    -16.330  0.1126E+01  0.6740E+01
    -16.312  0.3270E-01  0.6741E+01
    -16.294  0.1441E+01  0.6767E+01
    -16.276  0.3230E+01  0.6825E+01
    -16.258  0.2197E+01  0.6865E+01
    -16.240  0.2429E-01  0.6865E+01
    -16.222  0.1328E+01  0.6889E+01
    -16.204  0.5227E+01  0.6983E+01
    -16.186  0.3615E+00  0.6990E+01
    -16.168  0.1716E+00  0.6993E+01
    -16.150  0.3358E+01  0.7053E+01
    -16.132  0.1182E+01  0.7074E+01
    -16.114  0.3139E+01  0.7131E+01
    -16.096  0.1371E+01  0.7156E+01
    -16.078  0.4854E-02  0.7156E+01
    -16.060  0.4381E-07  0.7156E+01
    -16.042  0.1024E-14  0.7156E+01
    -16.024  0.1228E-08  0.7156E+01
    -16.006  0.5741E-03  0.7156E+01
    -15.988  0.6078E+00  0.7167E+01
    -15.970  0.3651E+01  0.7232E+01
    -15.952  0.3532E+00  0.7239E+01
    -15.934  0.1442E+00  0.7241E+01
    -15.916  0.3328E+01  0.7301E+01
    -15.898  0.1138E+01  0.7322E+01
    -15.880  0.2869E-02  0.7322E+01
    -15.862  0.1780E-07  0.7322E+01
    -15.844  0.4595E-06  0.7322E+01
    -15.826  0.2211E-01  0.7322E+01
    -15.808  0.3467E+01  0.7385E+01
    -15.790  0.5615E+01  0.7486E+01
    -15.772  0.1331E+01  0.7510E+01
    -15.754  0.3262E+01  0.7568E+01
    -15.736  0.1419E+00  0.7571E+01
    -15.718  0.2290E-03  0.7571E+01
    -15.700  0.3639E+00  0.7577E+01
    -15.682  0.3618E+01  0.7643E+01
    -15.664  0.7481E+00  0.7656E+01
    -15.646  0.1771E+01  0.7688E+01
    -15.628  0.4176E+00  0.7695E+01
    -15.610  0.8563E-01  0.7697E+01
    -15.592  0.3074E+01  0.7752E+01
    -15.574  0.3947E+01  0.7823E+01
    -15.556  0.2100E+01  0.7861E+01
    -15.538  0.2067E-01  0.7862E+01
    -15.520  0.6742E-06  0.7862E+01
    -15.502  0.4592E-13  0.7862E+01
    -15.484  0.1280E-15  0.7862E+01
    -15.466  0.1185E-07  0.7862E+01
    -15.448  0.2041E-02  0.7862E+01
    -15.430  0.9573E+00  0.7879E+01
    -15.412  0.3446E+01  0.7941E+01
    -15.394  0.2074E+00  0.7945E+01
    -15.376  0.7938E-02  0.7945E+01
    -15.358  0.1552E+01  0.7973E+01
    -15.340  0.2969E+01  0.8026E+01
    -15.322  0.1169E+00  0.8028E+01
    -15.304  0.1489E+01  0.8055E+01
    -15.286  0.3539E+01  0.8119E+01
    -15.268  0.1848E+01  0.8152E+01
    -15.250  0.7029E+00  0.8165E+01
    -15.232  0.5882E+01  0.8271E+01
    -15.214  0.2627E+01  0.8318E+01
    -15.196  0.2563E-01  0.8318E+01
    -15.178  0.1166E-05  0.8318E+01
    -15.160  0.1522E-01  0.8319E+01
    -15.142  0.1979E+01  0.8354E+01
    -15.124  0.2579E+01  0.8401E+01
    -15.106  0.1858E+00  0.8404E+01
    -15.088  0.1804E+01  0.8436E+01
    -15.070  0.3567E+00  0.8443E+01
    -15.052  0.2041E+00  0.8447E+01
    -15.034  0.3506E+01  0.8510E+01
    -15.016  0.3769E+01  0.8578E+01
    -14.998  0.1737E+01  0.8609E+01
    -14.980  0.2958E-01  0.8609E+01
    -14.962  0.2092E+01  0.8647E+01
    -14.944  0.2466E+01  0.8691E+01
    -14.926  0.3366E+00  0.8697E+01
    -14.908  0.6246E+01  0.8810E+01
    -14.890  0.2727E+01  0.8859E+01
    -14.872  0.3659E+01  0.8925E+01
    -14.854  0.5326E+01  0.9021E+01
    -14.836  0.5243E+01  0.9115E+01
    -14.818  0.6809E+01  0.9238E+01
    -14.800  0.2070E+01  0.9275E+01
    -14.782  0.5375E+01  0.9372E+01
    -14.764  0.6409E+01  0.9487E+01
    -14.746  0.7746E+01  0.9627E+01
    -14.728  0.9538E+01  0.9798E+01
    -14.710  0.6046E+01  0.9907E+01
    -14.692  0.4326E+01  0.9985E+01
    -14.674  0.6299E+01  0.1010E+02
    -14.656  0.5182E+01  0.1019E+02
    -14.638  0.3129E+01  0.1025E+02
    -14.620  0.7304E-01  0.1025E+02
    -14.602  0.1708E+01  0.1028E+02
    -14.584  0.2847E+01  0.1033E+02
    -14.566  0.2345E+01  0.1037E+02
    -14.548  0.6554E+01  0.1049E+02
    -14.530  0.3667E+01  0.1056E+02
    -14.512  0.5531E+01  0.1066E+02
    -14.494  0.4030E+00  0.1066E+02
    -14.476  0.2169E-03  0.1066E+02
    -14.458  0.2712E+00  0.1067E+02
    -14.440  0.5927E+01  0.1078E+02
    -14.422  0.2987E+01  0.1083E+02
    -14.404  0.2181E+00  0.1083E+02
    -14.386  0.1826E+01  0.1087E+02
    -14.368  0.3379E+00  0.1087E+02
    -14.350  0.2488E+01  0.1092E+02
    -14.332  0.2098E+01  0.1096E+02
    -14.314  0.2314E+01  0.1100E+02
    -14.296  0.2539E+01  0.1104E+02
    -14.278  0.4053E+01  0.1112E+02
    -14.260  0.4531E+01  0.1120E+02
    -14.242  0.4579E+01  0.1128E+02
    -14.224  0.4195E+01  0.1136E+02
    -14.206  0.6230E+01  0.1147E+02
    -14.188  0.3966E+01  0.1154E+02
    -14.170  0.3995E+01  0.1161E+02
    -14.152  0.5555E+01  0.1171E+02
    -14.134  0.1850E+01  0.1174E+02
    -14.116  0.3357E-01  0.1174E+02
    -14.098  0.2254E+01  0.1178E+02
    -14.080  0.2386E+01  0.1183E+02
    -14.062  0.3010E+01  0.1188E+02
    -14.044  0.1544E+01  0.1191E+02
    -14.026  0.1214E+00  0.1191E+02
    -14.008  0.4175E+01  0.1199E+02
    -13.990  0.6863E+01  0.1211E+02
    -13.972  0.3086E+01  0.1217E+02
    -13.954  0.1895E+01  0.1220E+02
    -13.936  0.4118E+00  0.1221E+02
    -13.918  0.5096E+01  0.1230E+02
    -13.900  0.2427E+01  0.1234E+02
    -13.882  0.3847E+01  0.1241E+02
    -13.864  0.6045E+01  0.1252E+02
    -13.846  0.5903E+01  0.1263E+02
    -13.828  0.9928E+01  0.1281E+02
    -13.810  0.4789E+01  0.1289E+02
    -13.792  0.3366E+01  0.1295E+02
    -13.774  0.6614E+01  0.1307E+02
    -13.756  0.7998E+01  0.1322E+02
    -13.738  0.7532E+01  0.1335E+02
    -13.720  0.7412E+01  0.1349E+02
    -13.702  0.3278E+01  0.1354E+02
    -13.684  0.1277E+01  0.1357E+02
    -13.666  0.3498E+01  0.1363E+02
    -13.648  0.7090E+01  0.1376E+02
    -13.630  0.5794E+01  0.1386E+02
    -13.612  0.1458E+01  0.1389E+02
    -13.594  0.2416E+01  0.1393E+02
    -13.576  0.3833E+01  0.1400E+02
    -13.558  0.2488E+01  0.1405E+02
    -13.540  0.3670E+01  0.1411E+02
    -13.522  0.1293E+01  0.1414E+02
    -13.504  0.2053E+01  0.1417E+02
    -13.486  0.2126E+01  0.1421E+02
    -13.468  0.9994E+00  0.1423E+02
    -13.450  0.2377E+00  0.1423E+02
    -13.432  0.3507E+01  0.1430E+02
    -13.414  0.5706E+01  0.1440E+02
    -13.396  0.2273E+01  0.1444E+02
    -13.378  0.1841E+01  0.1447E+02
    -13.360  0.2806E+00  0.1448E+02
    -13.342  0.2371E-03  0.1448E+02
    -13.324  0.2723E-07  0.1448E+02
    -13.306  0.4105E-02  0.1448E+02
    -13.288  0.1649E+01  0.1451E+02
    -13.270  0.5031E+01  0.1460E+02
    -13.252  0.2359E+00  0.1460E+02
    -13.234  0.4519E-04  0.1460E+02
    -13.216  0.2789E-10  0.1460E+02
    -13.198  0.2464E-04  0.1460E+02
    -13.180  0.1406E+00  0.1460E+02
    -13.162  0.3289E+01  0.1466E+02
    -13.144  0.1184E+01  0.1469E+02
    -13.126  0.1272E+01  0.1471E+02
    -13.108  0.3223E+01  0.1477E+02
    -13.090  0.1191E+00  0.1477E+02
    -13.072  0.1006E+01  0.1479E+02
    -13.054  0.5415E+01  0.1488E+02
    -13.036  0.2024E+01  0.1492E+02
    -13.018  0.3005E+01  0.1497E+02
    -13.000  0.8056E-01  0.1498E+02
    -12.982  0.7472E-05  0.1498E+02
    -12.964  0.1380E-11  0.1498E+02
    -12.946  0.0000E+00  0.1498E+02
    -12.928  0.0000E+00  0.1498E+02
    -12.910  0.9145E-09  0.1498E+02
    -12.892  0.4789E-03  0.1498E+02
    -12.874  0.5639E+00  0.1499E+02
    -12.856  0.4031E+01  0.1506E+02
    -12.838  0.4875E+01  0.1515E+02
    -12.820  0.3499E+01  0.1521E+02
    -12.802  0.3476E+01  0.1527E+02
    -12.784  0.3755E+01  0.1534E+02
    -12.766  0.5582E+00  0.1535E+02
    -12.748  0.9949E-02  0.1535E+02
    -12.730  0.1712E+01  0.1538E+02
    -12.712  0.2831E+01  0.1543E+02
    -12.694  0.6060E-01  0.1543E+02
    -12.676  0.6161E-04  0.1543E+02
    -12.658  0.2009E+00  0.1544E+02
    -12.640  0.3419E+01  0.1550E+02
    -12.622  0.9907E+00  0.1552E+02
    -12.604  0.2381E+00  0.1552E+02
    -12.586  0.3543E+01  0.1558E+02
    -12.568  0.9045E+00  0.1560E+02
    -12.550  0.2930E+01  0.1565E+02
    -12.532  0.1605E+01  0.1568E+02
    -12.514  0.7769E-02  0.1568E+02
    -12.496  0.2066E-01  0.1568E+02
    -12.478  0.2161E+01  0.1572E+02
    -12.460  0.2401E+01  0.1576E+02
    -12.442  0.3090E-01  0.1576E+02
    -12.424  0.5431E+00  0.1577E+02
    -12.406  0.3670E+01  0.1584E+02
    -12.388  0.1347E+01  0.1586E+02
    -12.370  0.3470E+01  0.1593E+02
    -12.352  0.4606E+00  0.1594E+02
    -12.334  0.3582E+01  0.1600E+02
    -12.316  0.7655E+00  0.1601E+02
    -12.298  0.1013E-02  0.1601E+02
    -12.280  0.3116E-08  0.1601E+02
    -12.262  0.0000E+00  0.1601E+02
    -12.244  0.1418E-08  0.1601E+02
    -12.226  0.5541E-03  0.1601E+02
    -12.208  0.5591E+00  0.1602E+02
    -12.190  0.3631E+01  0.1609E+02
    -12.172  0.4663E+00  0.1610E+02
    -12.154  0.3479E+01  0.1616E+02
    -12.136  0.3556E+01  0.1622E+02
    -12.118  0.1874E+01  0.1626E+02
    -12.100  0.2862E+00  0.1626E+02
    -12.082  0.1853E+01  0.1630E+02
    -12.064  0.2696E+01  0.1635E+02
    -12.046  0.5167E-01  0.1635E+02
    -12.028  0.3470E-05  0.1635E+02
    -12.010  0.9131E-11  0.1635E+02
    -11.992  0.2490E-04  0.1635E+02
    -11.974  0.1469E+00  0.1635E+02
    -11.956  0.3713E+01  0.1642E+02
    -11.938  0.4787E+01  0.1650E+02
    -11.920  0.5792E+00  0.1651E+02
    -11.902  0.5053E-03  0.1651E+02
    -11.884  0.9977E-09  0.1651E+02
    -11.866  0.2891E-07  0.1651E+02
    -11.848  0.3812E-02  0.1651E+02
    -11.830  0.1260E+01  0.1653E+02
    -11.812  0.3229E+01  0.1659E+02
    -11.794  0.1193E+00  0.1660E+02
    -11.776  0.3836E-04  0.1660E+02
    -11.758  0.1872E+00  0.1660E+02
    -11.740  0.6107E+01  0.1671E+02
    -11.722  0.2919E+01  0.1676E+02
    -11.704  0.1282E-01  0.1676E+02
    -11.686  0.1020E-03  0.1676E+02
    -11.668  0.2856E+00  0.1677E+02
    -11.650  0.3603E+01  0.1683E+02
    -11.632  0.7231E+00  0.1684E+02
    -11.614  0.8784E-03  0.1684E+02
    -11.596  0.2201E-06  0.1684E+02
    -11.578  0.1211E-01  0.1684E+02
    -11.560  0.1847E+01  0.1688E+02
    -11.542  0.2704E+01  0.1693E+02
    -11.524  0.4956E-01  0.1693E+02
    -11.506  0.3274E+00  0.1693E+02
    -11.488  0.3637E+01  0.1700E+02
    -11.470  0.6480E+00  0.1701E+02
    -11.452  0.6707E-03  0.1701E+02
    -11.434  0.1583E-08  0.1701E+02
    -11.416  0.1774E-07  0.1701E+02
    -11.398  0.2178E-02  0.1701E+02
    -11.380  0.7721E+00  0.1702E+02
    -11.362  0.3360E+01  0.1708E+02
    -11.344  0.9101E+00  0.1710E+02
    -11.326  0.3718E+01  0.1717E+02
    -11.308  0.3033E+01  0.1722E+02
    -11.290  0.2025E+01  0.1726E+02
    -11.272  0.1908E-01  0.1726E+02
    -11.254  0.8884E-06  0.1726E+02
    -11.236  0.1398E-01  0.1726E+02
    -11.218  0.1930E+01  0.1729E+02
    -11.200  0.2669E+01  0.1734E+02
    -11.182  0.1566E+01  0.1737E+02
    -11.164  0.7377E+00  0.1738E+02
    -11.146  0.3009E-02  0.1738E+02
    -11.128  0.3179E-07  0.1738E+02
    -11.110  0.7682E-15  0.1738E+02
    -11.092  0.2416E-07  0.1738E+02
    -11.074  0.3433E-02  0.1738E+02
    -11.056  0.1214E+01  0.1741E+02
    -11.038  0.3267E+01  0.1746E+02
    -11.020  0.1307E+00  0.1747E+02
    -11.002  0.1004E+01  0.1749E+02
    -10.984  0.6796E+01  0.1761E+02
    -10.966  0.3665E+01  0.1767E+02
    -10.948  0.6466E-01  0.1767E+02
    -10.930  0.4299E+00  0.1768E+02
    -10.912  0.4642E+01  0.1777E+02
    -10.894  0.3959E+01  0.1784E+02
    -10.876  0.1955E+00  0.1784E+02
    -10.858  0.4809E-04  0.1784E+02
    -10.840  0.2618E-10  0.1784E+02
    -10.822  0.1344E-10  0.1784E+02
    -10.804  0.3318E-04  0.1784E+02
    -10.786  0.1686E+00  0.1784E+02
    -10.768  0.3404E+01  0.1791E+02
    -10.750  0.1038E+01  0.1792E+02
    -10.732  0.2232E-02  0.1792E+02
    -10.714  0.1583E-06  0.1792E+02
    -10.696  0.7248E-02  0.1792E+02
    -10.678  0.1256E+01  0.1795E+02
    -10.660  0.4910E+01  0.1804E+02
    -10.642  0.1222E+01  0.1806E+02
    -10.624  0.1735E+01  0.1809E+02
    -10.606  0.8558E+00  0.1810E+02
    -10.588  0.3448E+01  0.1817E+02
    -10.570  0.2869E+01  0.1822E+02
    -10.552  0.9050E+01  0.1838E+02
    -10.534  0.4531E+01  0.1846E+02
    -10.516  0.1091E+01  0.1848E+02
    -10.498  0.2066E+01  0.1852E+02
    -10.480  0.5927E+01  0.1863E+02
    -10.462  0.7277E+01  0.1876E+02
    -10.444  0.2183E+01  0.1880E+02
    -10.426  0.1315E+00  0.1880E+02
    -10.408  0.5945E+00  0.1881E+02
    -10.390  0.4913E+01  0.1890E+02
    -10.372  0.2993E+01  0.1895E+02
    -10.354  0.8280E+01  0.1910E+02
    -10.336  0.2094E+01  0.1914E+02
    -10.318  0.3403E+01  0.1920E+02
    -10.300  0.1045E+01  0.1922E+02
    -10.282  0.6162E+00  0.1923E+02
    -10.264  0.9081E+01  0.1939E+02
    -10.246  0.8995E+01  0.1955E+02
    -10.228  0.2034E+01  0.1959E+02
    -10.210  0.3455E+00  0.1960E+02
    -10.192  0.3633E+01  0.1966E+02
    -10.174  0.1658E+01  0.1969E+02
    -10.156  0.2881E+01  0.1974E+02
    -10.138  0.1142E+02  0.1995E+02
    -10.120  0.5438E+01  0.2005E+02
    -10.102  0.3436E-01  0.2005E+02
    -10.084  0.1309E-01  0.2005E+02
    -10.066  0.2581E+01  0.2010E+02
    -10.048  0.9225E+01  0.2026E+02
    -10.030  0.7314E+01  0.2039E+02
    -10.012  0.6893E+01  0.2052E+02
     -9.994  0.5780E+01  0.2062E+02
     -9.976  0.9689E+00  0.2064E+02
     -9.958  0.4065E+01  0.2071E+02
     -9.940  0.2637E+01  0.2076E+02
     -9.922  0.3422E+01  0.2082E+02
     -9.904  0.3883E+01  0.2089E+02
     -9.886  0.1647E+01  0.2092E+02
     -9.868  0.3246E-01  0.2092E+02
     -9.850  0.1345E+01  0.2095E+02
     -9.832  0.9339E+00  0.2096E+02
     -9.814  0.6771E+00  0.2097E+02
     -9.796  0.1788E+01  0.2101E+02
     -9.778  0.5015E+01  0.2110E+02
     -9.760  0.1745E+01  0.2113E+02
     -9.742  0.3857E+00  0.2113E+02
     -9.724  0.7261E+01  0.2127E+02
     -9.706  0.1344E+02  0.2151E+02
     -9.688  0.5264E+01  0.2160E+02
     -9.670  0.5811E+01  0.2171E+02
     -9.652  0.6508E+00  0.2172E+02
     -9.634  0.6800E+01  0.2184E+02
     -9.616  0.4353E+01  0.2192E+02
     -9.598  0.1917E+01  0.2195E+02
     -9.580  0.2553E+00  0.2196E+02
     -9.562  0.1896E-03  0.2196E+02
     -9.544  0.6763E-02  0.2196E+02
     -9.526  0.9555E+00  0.2198E+02
     -9.508  0.1620E+01  0.2200E+02
     -9.490  0.1851E+01  0.2204E+02
     -9.472  0.1015E+01  0.2206E+02
     -9.453  0.8727E+01  0.2221E+02
     -9.435  0.2269E+01  0.2225E+02
     -9.417  0.2246E+01  0.2229E+02
     -9.399  0.8717E+01  0.2245E+02
     -9.381  0.7156E+01  0.2258E+02
     -9.363  0.7009E+01  0.2271E+02
     -9.345  0.7749E+01  0.2285E+02
     -9.327  0.3773E+01  0.2291E+02
     -9.309  0.5593E+01  0.2301E+02
     -9.291  0.6221E+01  0.2313E+02
     -9.273  0.9803E+00  0.2314E+02
     -9.255  0.1690E+01  0.2318E+02
     -9.237  0.7991E-01  0.2318E+02
     -9.219  0.1484E-04  0.2318E+02
     -9.201  0.5663E-11  0.2318E+02
     -9.183  0.6994E-11  0.2318E+02
     -9.165  0.2189E-04  0.2318E+02
     -9.147  0.1673E+00  0.2318E+02
     -9.129  0.5822E+01  0.2328E+02
     -9.111  0.3218E+01  0.2334E+02
     -9.093  0.1601E+00  0.2335E+02
     -9.075  0.6445E+01  0.2346E+02
     -9.057  0.9133E+01  0.2363E+02
     -9.039  0.7125E+01  0.2375E+02
     -9.021  0.1772E+01  0.2379E+02
     -9.003  0.7551E+01  0.2392E+02
     -8.985  0.7992E+01  0.2407E+02
     -8.967  0.2200E+01  0.2411E+02
     -8.949  0.3540E+01  0.2417E+02
     -8.931  0.2329E+00  0.2417E+02
     -8.913  0.3317E+00  0.2418E+02
     -8.895  0.8082E+01  0.2432E+02
     -8.877  0.8307E+01  0.2447E+02
     -8.859  0.1723E+01  0.2451E+02
     -8.841  0.3631E+00  0.2451E+02
     -8.823  0.5268E+01  0.2461E+02
     -8.805  0.4260E+01  0.2468E+02
     -8.787  0.1642E+01  0.2471E+02
     -8.769  0.8290E-02  0.2471E+02
     -8.751  0.9533E-03  0.2471E+02
     -8.733  0.7672E+00  0.2473E+02
     -8.715  0.4884E+01  0.2481E+02
     -8.697  0.1562E+01  0.2484E+02
     -8.679  0.3724E+01  0.2491E+02
     -8.661  0.3918E+01  0.2498E+02