   8   8   0   0
  0.4338553E+02  0.5169000E-09  0.5169000E-09  0.1500000E-08  0.5000000E-15
  1.000000000000000E-004
  CAR 
 BC3                                     
      9.53239903    -21.28316028  301     -3.47710664      1.00000000
    -21.283  0.0000E+00  0.0000E+00
    -21.180  0.0000E+00  0.0000E+00
    -21.078  0.0000E+00  0.0000E+00
    -20.975  0.0000E+00  0.0000E+00
    -20.872  0.0000E+00  0.0000E+00
    -20.770  0.0000E+00  0.0000E+00
    -20.667  0.0000E+00  0.0000E+00
    -20.564  0.0000E+00  0.0000E+00
    -20.461  0.6005E-18  0.6168E-19
    -20.359  0.4432E-13  0.4552E-14
    -20.256  0.3449E-09  0.3544E-10
    -20.153  0.3481E-06  0.3579E-07
    -20.051  0.4850E-04  0.5018E-05
    -19.948  0.1155E-02  0.1237E-03
    -19.845  0.7898E-02  0.9350E-03
    -19.742  0.1870E-01  0.2856E-02
    -19.640  0.1689E-01  0.4591E-02
    -19.537  0.2752E-01  0.7418E-02
    -19.434  0.2852E-01  0.1035E-01
    -19.332  0.3611E-01  0.1406E-01
    -19.229  0.4272E-01  0.1845E-01
    -19.126  0.1363E-01  0.1985E-01
    -19.023  0.1458E-02  0.2000E-01
    -18.921  0.4238E-04  0.2000E-01
    -18.818  0.2044E-06  0.2000E-01
    -18.715  0.1346E-09  0.2000E-01
    -18.612  0.1143E-13  0.2000E-01
    -18.510  0.0000E+00  0.2000E-01
    -18.407  0.0000E+00  0.2000E-01
    -18.304  0.0000E+00  0.2000E-01
    -18.202  0.9007E-18  0.2000E-01
    -18.099  0.5803E-13  0.2000E-01
    -17.996  0.5349E-09  0.2000E-01
    -17.893  0.6355E-06  0.2000E-01
    -17.791  0.1011E-03  0.2001E-01
    -17.688  0.2317E-02  0.2025E-01
    -17.585  0.9503E-02  0.2122E-01
    -17.483  0.2119E-01  0.2340E-01
    -17.380  0.3704E-01  0.2721E-01
    -17.277  0.2843E-01  0.3013E-01
    -17.174  0.2674E-01  0.3287E-01
    -17.072  0.1005E-01  0.3391E-01
    -16.969  0.9805E-02  0.3491E-01
    -16.866  0.2214E-01  0.3719E-01
    -16.764  0.3408E-01  0.4069E-01
    -16.661  0.2710E-01  0.4347E-01
    -16.558  0.1020E-01  0.4452E-01
    -16.455  0.3710E-01  0.4833E-01
    -16.353  0.4904E-01  0.5337E-01
    -16.250  0.2052E-01  0.5548E-01
    -16.147  0.1370E-01  0.5688E-01
    -16.045  0.1771E-01  0.5870E-01
    -15.942  0.9343E-02  0.5966E-01
    -15.839  0.3041E-02  0.5997E-01
    -15.736  0.2430E-03  0.6000E-01
    -15.634  0.2982E-05  0.6000E-01
    -15.531  0.5007E-08  0.6000E-01
    -15.428  0.1095E-11  0.6000E-01
    -15.325  0.3062E-16  0.6000E-01
    -15.223  0.0000E+00  0.6000E-01
    -15.120  0.0000E+00  0.6000E-01
    -15.017  0.0000E+00  0.6000E-01
    -14.915  0.0000E+00  0.6000E-01
    -14.812  0.0000E+00  0.6000E-01
    -14.709  0.1108E-14  0.6000E-01
    -14.606  0.2216E-10  0.6000E-01
    -14.504  0.5662E-07  0.6000E-01
    -14.401  0.1909E-04  0.6000E-01
    -14.298  0.9125E-03  0.6010E-01
    -14.196  0.7618E-02  0.6088E-01
    -14.093  0.1866E-01  0.6279E-01
    -13.990  0.1754E-01  0.6460E-01
    -13.887  0.6999E-02  0.6531E-01
    -13.785  0.1921E-01  0.6729E-01
    -13.682  0.4850E-01  0.7227E-01
    -13.579  0.5551E-01  0.7797E-01
    -13.477  0.1383E-01  0.7939E-01
    -13.374  0.2841E-02  0.7968E-01
    -13.271  0.1383E-01  0.8110E-01
    -13.168  0.1575E-01  0.8272E-01
    -13.066  0.1514E-01  0.8428E-01
    -12.963  0.1586E-01  0.8591E-01
    -12.860  0.1070E-01  0.8701E-01
    -12.758  0.1053E-01  0.8809E-01
    -12.655  0.3038E-02  0.8840E-01
    -12.552  0.6169E-02  0.8903E-01
    -12.449  0.3246E-01  0.9237E-01
    -12.347  0.4884E-01  0.9738E-01
    -12.244  0.1409E-01  0.9883E-01
    -12.141  0.4093E-02  0.9925E-01
    -12.038  0.1560E-01  0.1009E+00
    -11.936  0.1376E-01  0.1023E+00
    -11.833  0.9462E-02  0.1032E+00
    -11.730  0.5652E-02  0.1038E+00
    -11.628  0.6555E-03  0.1039E+00
    -11.525  0.1177E-04  0.1039E+00
    -11.422  0.4098E-04  0.1039E+00
    -11.319  0.8675E-03  0.1040E+00
    -11.217  0.3865E-02  0.1044E+00
    -11.114  0.1189E-01  0.1056E+00
    -11.011  0.1825E-01  0.1075E+00
    -10.909  0.1911E-01  0.1094E+00
    -10.806  0.2223E-01  0.1117E+00
    -10.703  0.1343E-01  0.1131E+00
    -10.600  0.1739E-01  0.1149E+00
    -10.498  0.6413E-02  0.1155E+00
    -10.395  0.7628E-02  0.1163E+00
    -10.292  0.3153E-01  0.1196E+00
    -10.190  0.2308E-01  0.1219E+00
    -10.087  0.4720E-02  0.1224E+00
     -9.984  0.8131E-02  0.1233E+00
     -9.881  0.8548E-02  0.1241E+00
     -9.779  0.2293E-01  0.1265E+00
     -9.676  0.4708E-01  0.1313E+00
     -9.573  0.3521E-01  0.1349E+00
     -9.471  0.1455E-01  0.1364E+00
     -9.368  0.3048E-01  0.1396E+00
     -9.265  0.3909E-01  0.1436E+00
     -9.162  0.2692E-01  0.1464E+00
     -9.060  0.7854E-02  0.1472E+00
     -8.957  0.6180E-03  0.1472E+00
     -8.854  0.4516E-03  0.1473E+00
     -8.751  0.8177E-02  0.1481E+00
     -8.649  0.3417E-01  0.1516E+00
     -8.546  0.5526E-01  0.1573E+00
     -8.443  0.3862E-01  0.1613E+00
     -8.341  0.1952E-01  0.1633E+00
     -8.238  0.1627E-01  0.1649E+00
     -8.135  0.2204E-01  0.1672E+00
     -8.032  0.2755E-01  0.1700E+00
     -7.930  0.4139E-01  0.1743E+00
     -7.827  0.5262E-01  0.1797E+00
     -7.724  0.3179E-01  0.1830E+00
     -7.622  0.4377E-01  0.1874E+00
     -7.519  0.3318E-01  0.1909E+00
     -7.416  0.1185E-01  0.1921E+00
     -7.313  0.2022E-01  0.1942E+00
     -7.211  0.3196E-01  0.1974E+00
     -7.108  0.1312E-01  0.1988E+00
     -7.005  0.1095E-02  0.1989E+00
     -6.903  0.3951E-02  0.1993E+00
     -6.800  0.3387E-01  0.2028E+00
     -6.697  0.5248E-01  0.2082E+00
     -6.594  0.3198E-01  0.2115E+00
     -6.492  0.2167E-01  0.2137E+00
     -6.389  0.3361E-01  0.2171E+00
     -6.286  0.1037E+00  0.2278E+00
     -6.184  0.8628E-01  0.2366E+00
     -6.081  0.3339E-01  0.2401E+00
     -5.978  0.1963E-01  0.2421E+00
     -5.875  0.1824E-01  0.2440E+00
     -5.773  0.1224E-01  0.2452E+00
     -5.670  0.1788E-01  0.2471E+00
     -5.567  0.1336E-01  0.2484E+00
     -5.465  0.2093E-01  0.2506E+00
     -5.362  0.4030E-01  0.2547E+00
     -5.259  0.6959E-01  0.2619E+00
     -5.156  0.4487E-01  0.2665E+00
     -5.054  0.2169E-01  0.2687E+00
     -4.951  0.3842E-01  0.2727E+00
     -4.848  0.3123E-01  0.2759E+00
     -4.745  0.2088E-01  0.2780E+00
     -4.643  0.4724E-01  0.2829E+00
     -4.540  0.5779E-01  0.2888E+00
     -4.437  0.3100E-01  0.2920E+00
     -4.335  0.1958E-01  0.2940E+00
     -4.232  0.1344E-01  0.2954E+00
     -4.129  0.6268E-02  0.2960E+00
     -4.026  0.1643E-01  0.2977E+00
     -3.924  0.1075E-01  0.2988E+00
     -3.821  0.4383E-02  0.2993E+00
     -3.718  0.5565E-02  0.2998E+00
     -3.616  0.1581E-02  0.3000E+00
     -3.513  0.7117E-04  0.3000E+00
     -3.410  0.3299E-05  0.3000E+00
     -3.307  0.2718E-03  0.3000E+00
     -3.205  0.3879E-02  0.3004E+00
     -3.102  0.1120E-01  0.3016E+00
     -2.999  0.1764E-01  0.3034E+00
     -2.897  0.1356E-01  0.3048E+00
     -2.794  0.2274E-02  0.3050E+00
     -2.691  0.4819E-02  0.3055E+00
     -2.588  0.2374E-01  0.3079E+00
     -2.486  0.4832E-01  0.3129E+00
     -2.383  0.4316E-01  0.3173E+00
     -2.280  0.9270E-02  0.3183E+00
     -2.178  0.3566E-03  0.3183E+00
     -2.075  0.3154E-03  0.3184E+00
     -1.972  0.2150E-02  0.3186E+00
     -1.869  0.2454E-02  0.3188E+00
     -1.767  0.4698E-03  0.3189E+00
     -1.664  0.1425E-04  0.3189E+00
     -1.561  0.7501E-04  0.3189E+00
     -1.458  0.2226E-02  0.3191E+00
     -1.356  0.1029E-01  0.3202E+00
     -1.253  0.7996E-02  0.3210E+00
     -1.150  0.1030E-02  0.3211E+00
     -1.048  0.2005E-04  0.3211E+00
     -0.945  0.5410E-07  0.3211E+00
     -0.842  0.1918E-10  0.3211E+00
     -0.739  0.1757E-11  0.3211E+00
     -0.637  0.1068E-07  0.3211E+00
     -0.534  0.8465E-05  0.3211E+00
     -0.431  0.9247E-03  0.3212E+00
     -0.329  0.1557E-01  0.3228E+00
     -0.226  0.4907E-01  0.3278E+00
     -0.123  0.3726E-01  0.3317E+00
     -0.020  0.1802E-01  0.3335E+00
      0.082  0.1600E-01  0.3352E+00
      0.185  0.3640E-02  0.3355E+00
      0.288  0.4355E-03  0.3356E+00
      0.390  0.6236E-02  0.3362E+00
      0.493  0.2567E-01  0.3389E+00
      0.596  0.2918E-01  0.3419E+00
      0.699  0.1498E-01  0.3434E+00
      0.801  0.9913E-02  0.3444E+00
      0.904  0.5586E-02  0.3450E+00
      1.007  0.1489E-01  0.3465E+00
      1.109  0.3558E-01  0.3502E+00
      1.212  0.2684E-01  0.3529E+00
      1.315  0.1730E-01  0.3547E+00
      1.418  0.1213E-01  0.3560E+00
      1.520  0.2141E-01  0.3582E+00
      1.623  0.2336E-01  0.3606E+00
      1.726  0.2585E-01  0.3632E+00
      1.829  0.2457E-01  0.3657E+00
      1.931  0.1699E-01  0.3675E+00
      2.034  0.2551E-01  0.3701E+00
      2.137  0.3114E-01  0.3733E+00
      2.239  0.2786E-01  0.3762E+00
      2.342  0.3882E-01  0.3801E+00
      2.445  0.3256E-01  0.3835E+00
      2.548  0.6512E-01  0.3902E+00
      2.650  0.7103E-01  0.3975E+00
      2.753  0.3173E-01  0.4007E+00
      2.856  0.1768E-01  0.4026E+00
      2.958  0.1704E-01  0.4043E+00
      3.061  0.1958E-01  0.4063E+00
      3.164  0.4852E-01  0.4113E+00
      3.267  0.6089E-01  0.4176E+00
      3.369  0.3246E-01  0.4209E+00
      3.472  0.3264E-01  0.4242E+00
      3.575  0.5019E-01  0.4294E+00
      3.677  0.4122E-01  0.4336E+00
      3.780  0.3371E-01  0.4371E+00
      3.883  0.1655E-01  0.4388E+00
      3.986  0.3874E-01  0.4428E+00
      4.088  0.6378E-01  0.4493E+00
      4.191  0.4383E-01  0.4538E+00
      4.294  0.1453E-01  0.4553E+00
      4.396  0.3696E-01  0.4591E+00
      4.499  0.5360E-01  0.4646E+00
      4.602  0.2171E-01  0.4668E+00
      4.705  0.4776E-01  0.4718E+00
      4.807  0.6773E-01  0.4787E+00
      4.910  0.6670E-01  0.4856E+00
      5.013  0.8449E-01  0.4942E+00
      5.116  0.9000E-01  0.5035E+00
      5.218  0.5318E-01  0.5090E+00
      5.321  0.3324E-01  0.5124E+00
      5.424  0.5465E-01  0.5180E+00
      5.526  0.8469E-01  0.5267E+00
      5.629  0.6644E-01  0.5335E+00
      5.732  0.6946E-01  0.5406E+00
      5.835  0.5595E-01  0.5464E+00
      5.937  0.5995E-01  0.5525E+00
      6.040  0.7910E-01  0.5607E+00
      6.143  0.1005E+00  0.5710E+00
      6.245  0.9664E-01  0.5809E+00
      6.348  0.7972E-01  0.5891E+00
      6.451  0.7480E-01  0.5968E+00
      6.554  0.8210E-01  0.6052E+00
      6.656  0.7596E-01  0.6130E+00
      6.759  0.5601E-01  0.6188E+00
      6.862  0.5785E-01  0.6247E+00
      6.964  0.4881E-01  0.6297E+00
      7.067  0.2736E-01  0.6325E+00
      7.170  0.2004E-01  0.6346E+00
      7.273  0.1655E-01  0.6363E+00
      7.375  0.1601E-01  0.6379E+00
      7.478  0.3652E-02  0.6383E+00
      7.581  0.1320E-03  0.6383E+00
      7.683  0.1964E-04  0.6383E+00
      7.786  0.5608E-03  0.6384E+00
      7.889  0.2639E-02  0.6387E+00
      7.992  0.3172E-02  0.6390E+00
      8.094  0.4611E-02  0.6395E+00
      8.197  0.4163E-02  0.6399E+00
      8.300  0.1013E-02  0.6400E+00
      8.402  0.4793E-04  0.6400E+00
      8.505  0.3482E-06  0.6400E+00
      8.608  0.3451E-09  0.6400E+00
      8.711  0.4432E-13  0.6400E+00
      8.813  0.6005E-18  0.6400E+00
      8.916  0.0000E+00  0.6400E+00
      9.019  0.0000E+00  0.6400E+00
      9.122  0.0000E+00  0.6400E+00
      9.224  0.0000E+00  0.6400E+00
      9.327  0.0000E+00  0.6400E+00
      9.430  0.0000E+00  0.6400E+00
      9.532  0.0000E+00  0.6400E+00
