       N       E                     dE             d eps       ncg     rms          rms(c)
DAV:   1     0.191697675821E+03    0.19170E+03   -0.25776E+04  3648   0.867E+02
DAV:   2    -0.119437828795E+03   -0.31114E+03   -0.31048E+03  5712   0.161E+02
DAV:   3    -0.129118030300E+03   -0.96802E+01   -0.96540E+01  6096   0.373E+01
DAV:   4    -0.129137571797E+03   -0.19541E-01   -0.19541E-01  5952   0.158E+00
DAV:   5    -0.129137609219E+03   -0.37422E-04   -0.37422E-04  5616   0.656E-02    0.236E+01
DAV:   6    -0.948846910020E+02    0.34253E+02   -0.55180E+01  4944   0.216E+01    0.130E+01
DAV:   7    -0.105625315150E+03   -0.10741E+02   -0.15161E+01  5424   0.116E+01    0.688E+00
DAV:   8    -0.111325191714E+03   -0.56999E+01   -0.50632E+00  5280   0.652E+00    0.388E+00
DAV:   9    -0.116474563181E+03   -0.51494E+01   -0.26141E+00  5520   0.460E+00    0.257E+00
DAV:  10    -0.120700258548E+03   -0.42257E+01   -0.33270E+00  5088   0.481E+00    0.136E+00
DAV:  11    -0.122443590646E+03   -0.17433E+01   -0.13316E+00  5232   0.278E+00    0.842E-01
DAV:  12    -0.123455071908E+03   -0.10115E+01   -0.83206E-01  6048   0.199E+00    0.403E-01
DAV:  13    -0.123759290651E+03   -0.30422E+00   -0.18812E-01  5088   0.966E-01    0.197E-01
DAV:  14    -0.123811549185E+03   -0.52259E-01   -0.26376E-02  4944   0.388E-01    0.108E-01
DAV:  15    -0.123834706790E+03   -0.23158E-01   -0.15423E-02  4416   0.291E-01    0.576E-02
DAV:  16    -0.123836780489E+03   -0.20737E-02   -0.22869E-03  4032   0.173E-01    0.388E-02
DAV:  17    -0.123836932111E+03   -0.15162E-03   -0.76015E-04  3888   0.108E-01    0.149E-02
DAV:  18    -0.123837019896E+03   -0.87785E-04   -0.15681E-04  4032   0.489E-02    0.943E-03
DAV:  19    -0.123837093265E+03   -0.73368E-04   -0.40564E-05  3936   0.295E-02    0.563E-03
DAV:  20    -0.123837133620E+03   -0.40356E-04   -0.19176E-05  4224   0.174E-02    0.394E-03
DAV:  21    -0.123837182503E+03   -0.48882E-04   -0.13117E-05  3936   0.139E-02    0.261E-03
DAV:  22    -0.123837206689E+03   -0.24186E-04   -0.46184E-06  4224   0.810E-03    0.140E-03
DAV:  23    -0.123837212044E+03   -0.53548E-05   -0.11050E-06  5232   0.386E-03    0.610E-04
DAV:  24    -0.123837214933E+03   -0.28897E-05   -0.16985E-07  4752   0.130E-03    0.352E-04
DAV:  25    -0.123837216593E+03   -0.16601E-05   -0.11590E-07  4608   0.900E-04    0.180E-04
DAV:  26    -0.123837216972E+03   -0.37868E-06   -0.33716E-08  5376   0.563E-04
   1 F= -.12536034E+03 E0= -.12535734E+03  d E =-.125360E+03  mag=     0.0000
       N       E                     dE             d eps       ncg     rms          rms(c)
DAV:   1    -0.123852969338E+03   -0.15753E-01   -0.34488E+00  3648   0.438E+00    0.649E-01
DAV:   2    -0.123834394441E+03    0.18575E-01   -0.85094E-02  5280   0.679E-01    0.282E-01
DAV:   3    -0.123831622194E+03    0.27722E-02   -0.14558E-02  5280   0.252E-01    0.778E-02
DAV:   4    -0.123831519285E+03    0.10291E-03   -0.11451E-03  5424   0.787E-02    0.283E-02
DAV:   5    -0.123831519260E+03    0.24520E-07   -0.75418E-05  5424   0.205E-02    0.914E-03
DAV:   6    -0.123831522671E+03   -0.34110E-05   -0.15353E-05  3936   0.889E-03    0.308E-03
DAV:   7    -0.123831527018E+03   -0.43469E-05   -0.89028E-07  5376   0.247E-03    0.157E-03
DAV:   8    -0.123831533270E+03   -0.62520E-05   -0.42257E-07  3840   0.120E-03    0.777E-04
DAV:   9    -0.123831539472E+03   -0.62016E-05   -0.53058E-07  4464   0.118E-03    0.471E-04
DAV:  10    -0.123831543418E+03   -0.39463E-05   -0.33469E-07  4176   0.884E-04    0.324E-04
DAV:  11    -0.123831545436E+03   -0.20175E-05   -0.18304E-07  4416   0.667E-04    0.157E-04
DAV:  12    -0.123831545861E+03   -0.42549E-06   -0.31574E-08  5280   0.313E-04
   2 F= -.12535513E+03 E0= -.12535222E+03  d E =0.520791E-02  mag=    -0.0000
       N       E                     dE             d eps       ncg     rms          rms(c)
DAV:   1    -0.123853430965E+03   -0.21886E-01   -0.10572E+00  3648   0.241E+00    0.358E-01
DAV:   2    -0.123847814119E+03    0.56168E-02   -0.26205E-02  5328   0.377E-01    0.156E-01
DAV:   3    -0.123846968942E+03    0.84518E-03   -0.43539E-03  5808   0.138E-01    0.429E-02
DAV:   4    -0.123846938334E+03    0.30608E-04   -0.30007E-04  4896   0.412E-02    0.157E-02
DAV:   5    -0.123846938472E+03   -0.13727E-06   -0.18585E-05  6240   0.108E-02    0.486E-03
DAV:   6    -0.123846938874E+03   -0.40287E-06   -0.46386E-06  4176   0.480E-03
   3 F= -.12537028E+03 E0= -.12536730E+03  d E =-.993363E-02  mag=    -0.0000
       N       E                     dE             d eps       ncg     rms          rms(c)
DAV:   1    -0.123846939601E+03   -0.11296E-05   -0.45087E-07  4944   0.194E-03    0.863E-04
DAV:   2    -0.123846940227E+03   -0.62639E-06   -0.32374E-08  4128   0.490E-04
   4 F= -.12537028E+03 E0= -.12536730E+03  d E =-.993516E-02  mag=    -0.0000
       N       E                     dE             d eps       ncg     rms          rms(c)
DAV:   1    -0.123846940868E+03   -0.12667E-05   -0.11175E-07  4752   0.825E-04    0.405E-04
DAV:   2    -0.123846941238E+03   -0.36976E-06   -0.11349E-08  4608   0.258E-04
   5 F= -.12537028E+03 E0= -.12536730E+03  d E =-.993610E-02  mag=    -0.0000
       N       E                     dE             d eps       ncg     rms          rms(c)
DAV:   1    -0.123846941652E+03   -0.78382E-06   -0.48478E-08  4464   0.548E-04    0.243E-04
DAV:   2    -0.123846941850E+03   -0.19861E-06   -0.52285E-09  4656   0.164E-04
   6 F= -.12537028E+03 E0= -.12536730E+03  d E =-.993666E-02  mag=    -0.0000
       N       E                     dE             d eps       ncg     rms          rms(c)
DAV:   1    -0.123846954449E+03   -0.12797E-04   -0.49060E-03  3744   0.260E-01    0.133E-02
DAV:   2    -0.123846952536E+03    0.19124E-05   -0.56755E-05  4224   0.294E-02    0.799E-03
DAV:   3    -0.123846951819E+03    0.71758E-06   -0.80109E-06  4176   0.968E-03
   7 F= -.12537034E+03 E0= -.12536736E+03  d E =-.572899E-04  mag=    -0.0000
       N       E                     dE             d eps       ncg     rms          rms(c)
DAV:   1    -0.123847006236E+03   -0.53700E-04   -0.44326E-02  3648   0.781E-01    0.406E-02
DAV:   2    -0.123846987740E+03    0.18496E-04   -0.50795E-04  3936   0.888E-02    0.244E-02
DAV:   3    -0.123846979928E+03    0.78118E-05   -0.72651E-05  4944   0.293E-02    0.580E-03
DAV:   4    -0.123846980358E+03   -0.43020E-06   -0.87178E-06  4992   0.103E-02
   8 F= -.12537051E+03 E0= -.12536753E+03  d E =-.228017E-03  mag=    -0.0000
       N       E                     dE             d eps       ncg     rms          rms(c)
DAV:   1    -0.123847140128E+03   -0.16020E-03   -0.17675E-01  3648   0.156E+00    0.799E-02
DAV:   2    -0.123847068133E+03    0.71995E-04   -0.20297E-03  3840   0.177E-01    0.479E-02
DAV:   3    -0.123847034466E+03    0.33668E-04   -0.28663E-04  4704   0.582E-02    0.115E-02
DAV:   4    -0.123847035639E+03   -0.11734E-05   -0.34202E-05  4608   0.202E-02    0.480E-03
DAV:   5    -0.123847035928E+03   -0.28911E-06   -0.15396E-06  3840   0.408E-03
   9 F= -.12537085E+03 E0= -.12536787E+03  d E =-.568817E-03  mag=    -0.0000
       N       E                     dE             d eps       ncg     rms          rms(c)
DAV:   1    -0.123847561407E+03   -0.52577E-03   -0.70686E-01  3648   0.312E+00    0.160E-01
DAV:   2    -0.123847292529E+03    0.26888E-03   -0.81483E-03  4128   0.354E-01    0.958E-02
DAV:   3    -0.123847146685E+03    0.14584E-03   -0.11499E-03  4704   0.116E-01    0.231E-02
DAV:   4    -0.123847148264E+03   -0.15789E-05   -0.12931E-04  5424   0.396E-02    0.970E-03
DAV:   5    -0.123847146889E+03    0.13757E-05   -0.56937E-06  4032   0.750E-03    0.199E-03
DAV:   6    -0.123847147008E+03   -0.11893E-06   -0.94689E-07  5616   0.288E-03
  10 F= -.12537153E+03 E0= -.12536856E+03  d E =-.125378E-02  mag=     0.0000
       N       E                     dE             d eps       ncg     rms          rms(c)
DAV:   1    -0.123849069547E+03   -0.19227E-02   -0.28265E+00  3648   0.624E+00    0.320E-01
DAV:   2    -0.123847967330E+03    0.11022E-02   -0.32633E-02  4608   0.709E-01    0.191E-01
DAV:   3    -0.123847383776E+03    0.58355E-03   -0.45332E-03  4032   0.230E-01    0.458E-02
DAV:   4    -0.123847387273E+03   -0.34969E-05   -0.55430E-04  5760   0.830E-02    0.190E-02
DAV:   5    -0.123847380460E+03    0.68127E-05   -0.20882E-05  4224   0.145E-02    0.371E-03
DAV:   6    -0.123847380573E+03   -0.11266E-06   -0.47301E-06  5184   0.612E-03
  11 F= -.12537293E+03 E0= -.12536995E+03  d E =-.264882E-02  mag=     0.0000
       N       E                     dE             d eps       ncg     rms          rms(c)
DAV:   1    -0.123854544349E+03   -0.71639E-02   -0.11298E+01  3648   0.125E+01    0.640E-01
DAV:   2    -0.123850326068E+03    0.42183E-02   -0.13105E-01  5088   0.142E+00    0.381E-01
DAV:   3    -0.123847901537E+03    0.24245E-02   -0.18158E-02  5184   0.454E-01    0.903E-02
DAV:   4    -0.123847899882E+03    0.16552E-05   -0.18959E-03  5472   0.158E-01    0.392E-02
DAV:   5    -0.123847862253E+03    0.37629E-04   -0.93798E-05  4704   0.318E-02    0.763E-03
DAV:   6    -0.123847860755E+03    0.14974E-05   -0.16823E-05  4800   0.135E-02    0.475E-03
DAV:   7    -0.123847867585E+03   -0.68301E-05   -0.47624E-06  4128   0.854E-03    0.247E-03
DAV:   8    -0.123847882475E+03   -0.14890E-04   -0.36609E-06  4080   0.624E-03    0.185E-03
DAV:   9    -0.123847893327E+03   -0.10851E-04   -0.20295E-06  4656   0.513E-03    0.998E-04
DAV:  10    -0.123847902957E+03   -0.96305E-05   -0.27247E-06  4080   0.663E-03    0.535E-04
DAV:  11    -0.123847908465E+03   -0.55081E-05   -0.20669E-06  4464   0.580E-03    0.449E-04
DAV:  12    -0.123847913651E+03   -0.51855E-05   -0.14824E-06  4224   0.452E-03    0.231E-04
DAV:  13    -0.123847914371E+03   -0.72030E-06   -0.60411E-07  4944   0.318E-03
  12 F= -.12537584E+03 E0= -.12537285E+03  d E =-.556294E-02  mag=    -0.0000
       N       E                     dE             d eps       ncg     rms          rms(c)
DAV:   1    -0.123874174567E+03   -0.26261E-01   -0.45084E+01  3648   0.249E+01    0.127E+00
DAV:   2    -0.123858493462E+03    0.15681E-01   -0.53349E-01  4512   0.287E+00    0.766E-01
DAV:   3    -0.123849009693E+03    0.94838E-02   -0.73381E-02  6288   0.914E-01    0.184E-01
DAV:   4    -0.123848931651E+03    0.78042E-04   -0.66089E-03  5376   0.295E-01    0.816E-02
DAV:   5    -0.123848811414E+03    0.12024E-03   -0.37007E-04  5088   0.602E-02    0.159E-02
DAV:   6    -0.123848796854E+03    0.14561E-04   -0.65364E-05  5616   0.216E-02    0.816E-03
DAV:   7    -0.123848810067E+03   -0.13213E-04   -0.66952E-06  4416   0.781E-03    0.459E-03
DAV:   8    -0.123848834537E+03   -0.24470E-04   -0.58465E-06  3936   0.577E-03    0.352E-03
DAV:   9    -0.123848858074E+03   -0.23537E-04   -0.28379E-06  4320   0.350E-03    0.173E-03
DAV:  10    -0.123848880027E+03   -0.21953E-04   -0.25400E-06  4368   0.360E-03    0.949E-04
DAV:  11    -0.123848888777E+03   -0.87505E-05   -0.86925E-07  4416   0.288E-03    0.738E-04
DAV:  12    -0.123848898706E+03   -0.99285E-05   -0.15811E-06  4176   0.301E-03    0.274E-04
DAV:  13    -0.123848900952E+03   -0.22462E-05   -0.41589E-07  4848   0.222E-03    0.143E-04
DAV:  14    -0.123848901284E+03   -0.33174E-06   -0.11942E-07  5088   0.142E-03
  13 F= -.12538183E+03 E0= -.12537880E+03  d E =-.115507E-01  mag=    -0.0000
       N       E                     dE             d eps       ncg     rms          rms(c)
DAV:   1    -0.123941240955E+03   -0.92340E-01   -0.17884E+02  3648   0.496E+01    0.253E+00
DAV:   2    -0.123886623034E+03    0.54618E-01   -0.22061E+00  4320   0.590E+00    0.154E+00
DAV:   3    -0.123850088260E+03    0.36535E-01   -0.28521E-01  6624   0.180E+00    0.392E-01
DAV:   4    -0.123849970038E+03    0.11822E-03   -0.23529E-02  5424   0.556E-01    0.169E-01
DAV:   5    -0.123849380723E+03    0.58932E-03   -0.16197E-03  5952   0.116E-01    0.340E-02
DAV:   6    -0.123849315449E+03    0.65275E-04   -0.26039E-04  5472   0.432E-02    0.161E-02
DAV:   7    -0.123849375717E+03   -0.60268E-04   -0.47067E-05  4320   0.197E-02    0.828E-03
DAV:   8    -0.123849419838E+03   -0.44121E-04   -0.10850E-05  4896   0.810E-03    0.737E-03
DAV:   9    -0.123849471277E+03   -0.51439E-04   -0.80740E-06  4464   0.631E-03    0.347E-03
DAV:  10    -0.123849521366E+03   -0.50089E-04   -0.78081E-06  4896   0.600E-03    0.179E-03
DAV:  11    -0.123849549141E+03   -0.27774E-04   -0.42880E-06  4416   0.519E-03    0.118E-03
DAV:  12    -0.123849559483E+03   -0.10343E-04   -0.20933E-06  4800   0.479E-03    0.534E-04
DAV:  13    -0.123849563766E+03   -0.42826E-05   -0.76507E-07  4800   0.310E-03    0.223E-04
DAV:  14    -0.123849565518E+03   -0.17518E-05   -0.30149E-07  4752   0.198E-03    0.100E-04
DAV:  15    -0.123849565853E+03   -0.33579E-06   -0.87678E-08  4848   0.122E-03
  14 F= -.12539356E+03 E0= -.12539006E+03  d E =-.232849E-01  mag=     0.0000
       N       E                     dE             d eps       ncg     rms          rms(c)
DAV:   1    -0.124093283550E+03   -0.24372E+00   -0.69230E+02  3648   0.971E+01    0.498E+00
DAV:   2    -0.123988239665E+03    0.10504E+00   -0.98235E+00  5232   0.127E+01    0.309E+00
DAV:   3    -0.123837265762E+03    0.15097E+00   -0.94671E-01  6288   0.330E+00    0.965E-01
DAV:   4    -0.123837320650E+03   -0.54888E-04   -0.83250E-02  5856   0.106E+00    0.341E-01
DAV:   5    -0.123835598679E+03    0.17220E-02   -0.66997E-03  6048   0.219E-01    0.685E-02
DAV:   6    -0.123835298536E+03    0.30014E-03   -0.97961E-04  6384   0.845E-02    0.345E-02
DAV:   7    -0.123835446875E+03   -0.14834E-03   -0.21624E-04  4032   0.439E-02    0.165E-02
DAV:   8    -0.123835562187E+03   -0.11531E-03   -0.42899E-05  4608   0.169E-02    0.156E-02
DAV:   9    -0.123835670617E+03   -0.10843E-03   -0.24844E-05  4704   0.117E-02    0.785E-03
DAV:  10    -0.123835776035E+03   -0.10542E-03   -0.26344E-05  4512   0.118E-02    0.416E-03
DAV:  11    -0.123835835823E+03   -0.59788E-04   -0.12448E-05  4992   0.745E-03    0.250E-03
DAV:  12    -0.123835853867E+03   -0.18045E-04   -0.23673E-06  5568   0.348E-03    0.118E-03
DAV:  13    -0.123835861452E+03   -0.75842E-05   -0.62593E-07  4368   0.174E-03    0.535E-04
DAV:  14    -0.123835865096E+03   -0.36440E-05   -0.20960E-07  5328   0.975E-04    0.278E-04
DAV:  15    -0.123835867636E+03   -0.25407E-05   -0.16456E-07  4800   0.688E-04    0.102E-04
DAV:  16    -0.123835868745E+03   -0.11087E-05   -0.93147E-08  4896   0.433E-04    0.457E-05
DAV:  17    -0.123835868820E+03   -0.75248E-07   -0.34311E-09  6048   0.122E-04
  15 F= -.12540724E+03 E0= -.12540425E+03  d E =-.369645E-01  mag=    -0.0000
       N       E                     dE             d eps       ncg     rms          rms(c)
DAV:   1    -0.123857999477E+03   -0.22131E-01   -0.28439E+01  3648   0.198E+01    0.102E+00
DAV:   2    -0.123847117499E+03    0.10882E-01   -0.33876E-01  4512   0.230E+00    0.611E-01
DAV:   3    -0.123841700816E+03    0.54167E-02   -0.45979E-02  6816   0.720E-01    0.150E-01
DAV:   4    -0.123841710597E+03   -0.97806E-05   -0.39765E-03  5856   0.227E-01    0.658E-02
DAV:   5    -0.123841673061E+03    0.37536E-04   -0.21866E-04  5088   0.475E-02    0.118E-02
DAV:   6    -0.123841661925E+03    0.11135E-04   -0.45486E-05  6432   0.182E-02    0.600E-03
DAV:   7    -0.123841665520E+03   -0.35946E-05   -0.62114E-06  3840   0.748E-03    0.266E-03
DAV:   8    -0.123841672171E+03   -0.66514E-05   -0.11916E-06  4416   0.266E-03    0.228E-03
DAV:   9    -0.123841680541E+03   -0.83695E-05   -0.58034E-07  5232   0.173E-03    0.130E-03
DAV:  10    -0.123841691376E+03   -0.10835E-04   -0.80578E-07  5088   0.193E-03    0.711E-04
DAV:  11    -0.123841698542E+03   -0.71657E-05   -0.53307E-07  4608   0.151E-03    0.423E-04
DAV:  12    -0.123841700262E+03   -0.17201E-05   -0.10405E-07  5856   0.101E-03    0.203E-04
DAV:  13    -0.123841700788E+03   -0.52577E-06   -0.39785E-08  5040   0.734E-04
  16 F= -.12540697E+03 E0= -.12540330E+03  d E =-.366949E-01  mag=     0.0000
       N       E                     dE             d eps       ncg     rms          rms(c)
DAV:   1    -0.123844047904E+03   -0.23476E-02   -0.93192E+00  3648   0.113E+01    0.585E-01
DAV:   2    -0.123840503503E+03    0.35444E-02   -0.11148E-01  4176   0.131E+00    0.351E-01
DAV:   3    -0.123838702909E+03    0.18006E-02   -0.15313E-02  5856   0.419E-01    0.863E-02
DAV:   4    -0.123838711246E+03   -0.83374E-05   -0.15323E-03  6144   0.138E-01    0.379E-02
DAV:   5    -0.123838693260E+03    0.17986E-04   -0.66283E-05  5088   0.274E-02    0.723E-03
DAV:   6    -0.123838688957E+03    0.43030E-05   -0.16148E-05  5952   0.110E-02    0.367E-03
DAV:   7    -0.123838693451E+03   -0.44931E-05   -0.21317E-06  4752   0.463E-03    0.169E-03
DAV:   8    -0.123838697805E+03   -0.43544E-05   -0.62520E-07  4992   0.256E-03    0.144E-03
DAV:   9    -0.123838703703E+03   -0.58978E-05   -0.48759E-07  4560   0.175E-03    0.786E-04
DAV:  10    -0.123838710773E+03   -0.70701E-05   -0.70759E-07  5040   0.183E-03    0.415E-04
DAV:  11    -0.123838715896E+03   -0.51237E-05   -0.62552E-07  4416   0.228E-03    0.285E-04
DAV:  12    -0.123838718047E+03   -0.21500E-05   -0.34843E-07  5088   0.211E-03    0.147E-04
DAV:  13    -0.123838719071E+03   -0.10244E-05   -0.11939E-07  4704   0.103E-03    0.556E-05
DAV:  14    -0.123838719201E+03   -0.12991E-06   -0.15046E-08  5904   0.456E-04
  17 F= -.12540744E+03 E0= -.12540416E+03  d E =-.371610E-01  mag=     0.0000
       N       E                     dE             d eps       ncg     rms          rms(c)
DAV:   1    -0.123838718454E+03    0.61650E-06   -0.60944E-06  4944   0.917E-03    0.466E-04
DAV:   2    -0.123838718453E+03    0.10714E-08   -0.72872E-08  6432   0.105E-03
  18 F= -.12540744E+03 E0= -.12540416E+03  d E =-.210154E-05  mag=     0.0000
       N       E                     dE             d eps       ncg     rms          rms(c)
DAV:   1    -0.123838716158E+03    0.22960E-05   -0.53914E-05  4320   0.274E-02    0.146E-03
DAV:   2    -0.123838716127E+03    0.31577E-07   -0.61432E-07  5280   0.304E-03
  19 F= -.12540745E+03 E0= -.12540417E+03  d E =-.832259E-05  mag=     0.0000
       N       E                     dE             d eps       ncg     rms          rms(c)
DAV:   1    -0.123838711568E+03    0.45908E-05   -0.21400E-04  3744   0.546E-02    0.297E-03
DAV:   2    -0.123838711441E+03    0.12701E-06   -0.24421E-06  4416   0.618E-03
  20 F= -.12540746E+03 E0= -.12540418E+03  d E =-.207335E-04  mag=     0.0000
       N       E                     dE             d eps       ncg     rms          rms(c)
DAV:   1    -0.123838702504E+03    0.90632E-05   -0.85687E-04  3744   0.109E-01    0.594E-03
DAV:   2    -0.123838701986E+03    0.51845E-06   -0.97956E-06  3936   0.124E-02
  21 F= -.12540749E+03 E0= -.12540421E+03  d E =-.454874E-04  mag=     0.0000
       N       E                     dE             d eps       ncg     rms          rms(c)
DAV:   1    -0.123838684849E+03    0.17655E-04   -0.34282E-03  3744   0.219E-01    0.119E-02
DAV:   2    -0.123838683011E+03    0.18377E-05   -0.39238E-05  4368   0.249E-02    0.718E-03
DAV:   3    -0.123838682762E+03    0.24973E-06   -0.53763E-06  3744   0.808E-03
  22 F= -.12540754E+03 E0= -.12540427E+03  d E =-.947020E-04  mag=     0.0000
       N       E                     dE             d eps       ncg     rms          rms(c)
DAV:   1    -0.123838651964E+03    0.31047E-04   -0.14124E-02  3648   0.441E-01    0.233E-02
DAV:   2    -0.123838645068E+03    0.68967E-05   -0.16587E-04  4608   0.507E-02    0.139E-02
DAV:   3    -0.123838643209E+03    0.18588E-05   -0.22164E-05  4896   0.160E-02    0.344E-03
DAV:   4    -0.123838643573E+03   -0.36364E-06   -0.29077E-06  4128   0.589E-03
  23 F= -.12540763E+03 E0= -.12540438E+03  d E =-.192514E-03  mag=    -0.0000
       N       E                     dE             d eps       ncg     rms          rms(c)
DAV:   1    -0.123838594470E+03    0.48739E-04   -0.56154E-02  3648   0.880E-01    0.454E-02
DAV:   2    -0.123838569992E+03    0.24477E-04   -0.66439E-04  4512   0.101E-01    0.271E-02
DAV:   3    -0.123838560177E+03    0.98156E-05   -0.88253E-05  5376   0.318E-02    0.672E-03
DAV:   4    -0.123838560991E+03   -0.81436E-06   -0.10302E-05  4128   0.113E-02    0.281E-03
DAV:   5    -0.123838561477E+03   -0.48539E-06   -0.66568E-07  4080   0.324E-03
  24 F= -.12540783E+03 E0= -.12540461E+03  d E =-.384975E-03  mag=     0.0000
       N       E                     dE             d eps       ncg     rms          rms(c)
DAV:   1    -0.123838513118E+03    0.47874E-04   -0.22456E-01  3648   0.176E+00    0.908E-02
DAV:   2    -0.123838421180E+03    0.91938E-04   -0.26586E-03  3648   0.203E-01    0.545E-02
DAV:   3    -0.123838380034E+03    0.41146E-04   -0.37352E-04  5088   0.666E-02    0.136E-02
DAV:   4    -0.123838381532E+03   -0.14982E-05   -0.45091E-05  4752   0.232E-02    0.569E-03
DAV:   5    -0.123838382347E+03   -0.81507E-06   -0.24443E-06  3648   0.638E-03
  25 F= -.12540820E+03 E0= -.12540504E+03  d E =-.757127E-03  mag=    -0.0000
       N       E                     dE             d eps       ncg     rms          rms(c)
DAV:   1    -0.123838480313E+03   -0.98781E-04   -0.89798E-01  3648   0.352E+00    0.181E-01
DAV:   2    -0.123838120139E+03    0.36017E-03   -0.10650E-02  3648   0.406E-01    0.109E-01
DAV:   3    -0.123837961942E+03    0.15820E-03   -0.14823E-03  4896   0.133E-01    0.272E-02
DAV:   4    -0.123837964395E+03   -0.24534E-05   -0.18332E-04  6048   0.463E-02    0.113E-02
DAV:   5    -0.123837963876E+03    0.51901E-06   -0.80719E-06  4272   0.109E-02
  26 F= -.12540889E+03 E0= -.12540585E+03  d E =-.145000E-02  mag=     0.0000
       N       E                     dE             d eps       ncg     rms          rms(c)
DAV:   1    -0.123838942843E+03   -0.97845E-03   -0.35899E+00  3648   0.704E+00    0.363E-01
DAV:   2    -0.123837546520E+03    0.13963E-02   -0.42749E-02  4368   0.810E-01    0.217E-01
DAV:   3    -0.123836878295E+03    0.66823E-03   -0.57606E-03  5760   0.257E-01    0.536E-02
DAV:   4    -0.123836874907E+03    0.33886E-05   -0.60184E-04  6336   0.866E-02    0.231E-02
DAV:   5    -0.123836869418E+03    0.54885E-05   -0.30866E-05  4704   0.208E-02    0.507E-03
DAV:   6    -0.123836867509E+03    0.19095E-05   -0.97226E-06  5136   0.128E-02    0.313E-03
DAV:   7    -0.123836868780E+03   -0.12708E-05   -0.31954E-06  4272   0.738E-03    0.152E-03
DAV:   8    -0.123836873983E+03   -0.52040E-05   -0.16036E-06  4896   0.478E-03    0.103E-03
DAV:   9    -0.123836878770E+03   -0.47867E-05   -0.14542E-06  4944   0.512E-03    0.619E-04
DAV:  10    -0.123836883011E+03   -0.42405E-05   -0.17457E-06  4656   0.564E-03    0.351E-04
DAV:  11    -0.123836885715E+03   -0.27039E-05   -0.69208E-07  4944   0.339E-03    0.256E-04
DAV:  12    -0.123836888229E+03   -0.25149E-05   -0.27685E-07  4416   0.144E-03    0.129E-04
DAV:  13    -0.123836889274E+03   -0.10442E-05   -0.98888E-08  5040   0.624E-04    0.536E-05
DAV:  14    -0.123836889386E+03   -0.11195E-06   -0.58471E-09  5808   0.141E-04
  27 F= -.12541007E+03 E0= -.12540727E+03  d E =-.263234E-02  mag=     0.0000
       N       E                     dE             d eps       ncg     rms          rms(c)
DAV:   1    -0.123841692962E+03   -0.48037E-02   -0.14324E+01  3648   0.141E+01    0.726E-01
DAV:   2    -0.123836212497E+03    0.54805E-02   -0.17232E-01  4128   0.163E+00    0.435E-01
DAV:   3    -0.123833534298E+03    0.26782E-02   -0.23482E-02  6432   0.518E-01    0.108E-01
DAV:   4    -0.123833532940E+03    0.13584E-05   -0.22051E-03  6144   0.165E-01    0.472E-02
DAV:   5    -0.123833502549E+03    0.30390E-04   -0.10341E-04  5376   0.341E-02    0.902E-03
DAV:   6    -0.123833497066E+03    0.54838E-05   -0.24087E-05  5712   0.134E-02    0.465E-03
DAV:   7    -0.123833504165E+03   -0.70993E-05   -0.39466E-06  4128   0.582E-03    0.188E-03
DAV:   8    -0.123833512216E+03   -0.80511E-05   -0.89674E-07  4656   0.213E-03    0.157E-03
DAV:   9    -0.123833521807E+03   -0.95914E-05   -0.86292E-07  4752   0.194E-03    0.825E-04
DAV:  10    -0.123833527900E+03   -0.60930E-05   -0.45633E-07  4896   0.126E-03    0.550E-04
DAV:  11    -0.123833534144E+03   -0.62439E-05   -0.65209E-07  4368   0.143E-03    0.229E-04
DAV:  12    -0.123833536946E+03   -0.28017E-05   -0.24564E-07  4848   0.811E-04    0.123E-04
DAV:  13    -0.123833537857E+03   -0.91079E-06   -0.60524E-08  5088   0.439E-04
  28 F= -.12541138E+03 E0= -.12540898E+03  d E =-.393932E-02  mag=    -0.0000
       N       E                     dE             d eps       ncg     rms          rms(c)
DAV:   1    -0.123834805560E+03   -0.12686E-02   -0.12979E-02  3648   0.427E-01    0.220E-02
DAV:   2    -0.123834800003E+03    0.55564E-05   -0.16901E-04  4224   0.510E-02    0.135E-02
DAV:   3    -0.123834798232E+03    0.17711E-05   -0.24118E-05  5952   0.170E-02    0.397E-03
DAV:   4    -0.123834798389E+03   -0.15626E-06   -0.31758E-06  4512   0.625E-03
  29 F= -.12541279E+03 E0= -.12541041E+03  d E =-.140893E-02  mag=    -0.0000
       N       E                     dE             d eps       ncg     rms          rms(c)
DAV:   1    -0.123838502241E+03   -0.37040E-02   -0.11684E-01  3648   0.128E+00    0.668E-02
DAV:   2    -0.123838453752E+03    0.48490E-04   -0.14708E-03  4512   0.152E-01    0.405E-02
DAV:   3    -0.123838432114E+03    0.21638E-04   -0.20720E-04  5088   0.501E-02    0.117E-02
DAV:   4    -0.123838432501E+03   -0.38660E-06   -0.31279E-05  4128   0.195E-02    0.614E-03
DAV:   5    -0.123838433272E+03   -0.77177E-06   -0.11883E-06  3840   0.452E-03
  30 F= -.12541687E+03 E0= -.12541454E+03  d E =-.548840E-02  mag=     0.0000
       N       E                     dE             d eps       ncg     rms          rms(c)
DAV:   1    -0.123845316747E+03   -0.68842E-02   -0.46772E-01  3648   0.256E+00    0.133E-01
DAV:   2    -0.123845136951E+03    0.17980E-03   -0.59429E-03  4800   0.304E-01    0.808E-02
DAV:   3    -0.123845046360E+03    0.90591E-04   -0.84002E-04  4992   0.101E-01    0.233E-02
DAV:   4    -0.123845045903E+03    0.45716E-06   -0.12405E-04  6048   0.386E-02    0.126E-02
DAV:   5    -0.123845046370E+03   -0.46732E-06   -0.34867E-06  4224   0.769E-03
  31 F= -.12542437E+03 E0= -.12542215E+03  d E =-.129905E-01  mag=    -0.0000
       N       E                     dE             d eps       ncg     rms          rms(c)
DAV:   1    -0.123856714113E+03   -0.11668E-01   -0.18701E+00  3648   0.512E+00    0.266E-01
DAV:   2    -0.123855995011E+03    0.71910E-03   -0.23824E-02  4992   0.607E-01    0.161E-01
DAV:   3    -0.123855650894E+03    0.34412E-03   -0.33449E-03  5664   0.200E-01    0.465E-02
DAV:   4    -0.123855642934E+03    0.79605E-05   -0.46748E-04  6528   0.755E-02    0.253E-02
DAV:   5    -0.123855641113E+03    0.18209E-05   -0.13331E-05  4464   0.151E-02    0.755E-03
DAV:   6    -0.123855639856E+03    0.12570E-05   -0.63557E-06  5952   0.742E-03    0.252E-03
DAV:   7    -0.123855640884E+03   -0.10280E-05   -0.56604E-07  4704   0.301E-03    0.132E-03
DAV:   8    -0.123855643175E+03   -0.22908E-05   -0.57468E-07  4848   0.302E-03    0.830E-04
DAV:   9    -0.123855644956E+03   -0.17807E-05   -0.23924E-07  4944   0.200E-03    0.779E-04
DAV:  10    -0.123855648975E+03   -0.40193E-05   -0.43251E-07  4320   0.185E-03    0.237E-04
DAV:  11    -0.123855650724E+03   -0.17491E-05   -0.20885E-07  5280   0.174E-03    0.198E-04
DAV:  12    -0.123855652177E+03   -0.14530E-05   -0.17442E-07  4464   0.146E-03    0.139E-04
DAV:  13    -0.123855653066E+03   -0.88899E-06   -0.10210E-07  4848   0.771E-04
  32 F= -.12543675E+03 E0= -.12543472E+03  d E =-.253722E-01  mag=    -0.0000
       N       E                     dE             d eps       ncg     rms          rms(c)
DAV:   1    -0.123870550560E+03   -0.14898E-01   -0.74674E+00  3648   0.102E+01    0.532E-01
DAV:   2    -0.123867789641E+03    0.27609E-02   -0.95984E-02  5376   0.122E+00    0.323E-01
DAV:   3    -0.123866324245E+03    0.14654E-02   -0.13213E-02  6576   0.393E-01    0.924E-02
DAV:   4    -0.123866287534E+03    0.36711E-04   -0.16907E-03  6096   0.145E-01    0.498E-02
DAV:   5    -0.123866276558E+03    0.10976E-04   -0.54302E-05  4608   0.307E-02    0.151E-02
DAV:   6    -0.123866269530E+03    0.70279E-05   -0.25020E-05  6720   0.146E-02    0.489E-03
DAV:   7    -0.123866270224E+03   -0.69398E-06   -0.14415E-06  3696   0.419E-03
  33 F= -.12545091E+03 E0= -.12544918E+03  d E =-.395263E-01  mag=    -0.0000
       N       E                     dE             d eps       ncg     rms          rms(c)
DAV:   1    -0.123867400544E+03   -0.11310E-02   -0.18670E+00  3648   0.512E+00    0.267E-01
DAV:   2    -0.123866672513E+03    0.72803E-03   -0.23866E-02  6144   0.606E-01    0.161E-01
DAV:   3    -0.123866297723E+03    0.37479E-03   -0.30334E-03  4800   0.189E-01    0.454E-02
DAV:   4    -0.123866291913E+03    0.58103E-05   -0.46696E-04  6576   0.755E-02    0.232E-02
DAV:   5    -0.123866289750E+03    0.21622E-05   -0.11286E-05  4224   0.137E-02    0.778E-03
DAV:   6    -0.123866290367E+03   -0.61692E-06   -0.59411E-06  5280   0.713E-03
  34 F= -.12545269E+03 E0= -.12545108E+03  d E =-.413095E-01  mag=    -0.0000
       N       E                     dE             d eps       ncg     rms          rms(c)
DAV:   1    -0.123866929680E+03   -0.63993E-03   -0.65938E-03  3648   0.298E-01    0.215E-02
DAV:   2    -0.123866917382E+03    0.12298E-04   -0.11820E-04  6528   0.390E-02    0.108E-02
DAV:   3    -0.123866916564E+03    0.81768E-06   -0.17185E-05  5376   0.125E-02    0.287E-03
DAV:   4    -0.123866918395E+03   -0.18306E-05   -0.16454E-06  5136   0.438E-03    0.134E-03
DAV:   5    -0.123866919800E+03   -0.14058E-05   -0.97311E-08  5376   0.991E-04    0.671E-04
DAV:   6    -0.123866921773E+03   -0.19721E-05   -0.10932E-07  4464   0.750E-04    0.344E-04
DAV:   7    -0.123866923550E+03   -0.17770E-05   -0.80513E-08  4896   0.572E-04    0.237E-04
DAV:   8    -0.123866927045E+03   -0.34958E-05   -0.37078E-07  4032   0.891E-04    0.152E-04
DAV:   9    -0.123866927827E+03   -0.78172E-06   -0.42309E-08  5472   0.307E-04
  35 F= -.12545340E+03 E0= -.12545181E+03  d E =-.713230E-03  mag=     0.0000
       N       E                     dE             d eps       ncg     rms          rms(c)
DAV:   1    -0.123868465962E+03   -0.15389E-02   -0.59214E-02  3648   0.893E-01    0.647E-02
DAV:   2    -0.123868333460E+03    0.13250E-03   -0.10400E-03  4320   0.115E-01    0.331E-02
DAV:   3    -0.123868308018E+03    0.25443E-04   -0.18194E-04  6816   0.408E-02    0.877E-03
DAV:   4    -0.123868308293E+03   -0.27553E-06   -0.14422E-05  4512   0.128E-02    0.401E-03
DAV:   5    -0.123868308673E+03   -0.37982E-06   -0.66047E-07  5376   0.297E-03
  36 F= -.12545501E+03 E0= -.12545348E+03  d E =-.232136E-02  mag=     0.0000
       N       E                     dE             d eps       ncg     rms          rms(c)
DAV:   1    -0.123869534619E+03   -0.12263E-02   -0.23735E-01  3648   0.179E+00    0.130E-01
DAV:   2    -0.123869004185E+03    0.53043E-03   -0.41229E-03  6000   0.230E-01    0.660E-02
DAV:   3    -0.123868894781E+03    0.10940E-03   -0.67104E-04  5088   0.780E-02    0.173E-02
DAV:   4    -0.123868895212E+03   -0.43094E-06   -0.59782E-05  4800   0.264E-02    0.732E-03
DAV:   5    -0.123868896100E+03   -0.88877E-06   -0.21351E-06  4848   0.523E-03
  37 F= -.12545605E+03 E0= -.12545461E+03  d E =-.336316E-02  mag=     0.0000
       N       E                     dE             d eps       ncg     rms          rms(c)
DAV:   1    -0.123869009732E+03   -0.11452E-03   -0.53005E-03  3648   0.268E-01    0.195E-02
DAV:   2    -0.123868997164E+03    0.12568E-04   -0.94792E-05  4656   0.349E-02    0.997E-03
DAV:   3    -0.123868994857E+03    0.23071E-05   -0.16344E-05  4848   0.123E-02    0.267E-03
DAV:   4    -0.123868994898E+03   -0.40796E-07   -0.15001E-06  4032   0.418E-03
  38 F= -.12545608E+03 E0= -.12545463E+03  d E =-.339350E-02  mag=     0.0000
       N       E                     dE             d eps       ncg     rms          rms(c)
DAV:   1    -0.123869367979E+03   -0.37312E-03   -0.63223E-03  3648   0.300E-01    0.153E-02
DAV:   2    -0.123869365057E+03    0.29225E-05   -0.65541E-05  4272   0.322E-02    0.907E-03
DAV:   3    -0.123869364340E+03    0.71631E-06   -0.96189E-06  5376   0.105E-02
  39 F= -.12545654E+03 E0= -.12545509E+03  d E =-.461133E-03  mag=    -0.0000
       N       E                     dE             d eps       ncg     rms          rms(c)
DAV:   1    -0.123870414658E+03   -0.10496E-02   -0.57060E-02  3648   0.901E-01    0.467E-02
DAV:   2    -0.123870392549E+03    0.22109E-04   -0.58379E-04  4800   0.957E-02    0.278E-02
DAV:   3    -0.123870383393E+03    0.91557E-05   -0.84867E-05  5664   0.307E-02    0.694E-03
DAV:   4    -0.123870383889E+03   -0.49526E-06   -0.97664E-06  4944   0.113E-02
  40 F= -.12545784E+03 E0= -.12545635E+03  d E =-.175561E-02  mag=    -0.0000
       N       E                     dE             d eps       ncg     rms          rms(c)
DAV:   1    -0.123872151678E+03   -0.17683E-02   -0.22777E-01  3648   0.180E+00    0.923E-02
DAV:   2    -0.123872070857E+03    0.80821E-04   -0.23637E-03  6288   0.192E-01    0.547E-02
DAV:   3    -0.123872030517E+03    0.40341E-04   -0.32112E-04  4896   0.592E-02    0.138E-02
DAV:   4    -0.123872030789E+03   -0.27207E-06   -0.36790E-05  5664   0.220E-02    0.618E-03
DAV:   5    -0.123872031165E+03   -0.37675E-06   -0.19147E-06  4032   0.574E-03
  41 F= -.12546004E+03 E0= -.12545848E+03  d E =-.395265E-02  mag=     0.0000
       N       E                     dE             d eps       ncg     rms          rms(c)
DAV:   1    -0.123874325016E+03   -0.22942E-02   -0.91233E-01  3648   0.360E+00    0.184E-01
DAV:   2    -0.123874000085E+03    0.32493E-03   -0.93983E-03  5952   0.384E-01    0.109E-01
DAV:   3    -0.123873834275E+03    0.16581E-03   -0.13143E-03  5664   0.120E-01    0.274E-02
DAV:   4    -0.123873833473E+03    0.80170E-06   -0.14012E-04  5808   0.431E-02    0.125E-02
DAV:   5    -0.123873833593E+03   -0.11986E-06   -0.72360E-06  4656   0.111E-02
  42 F= -.12546294E+03 E0= -.12546118E+03  d E =-.685458E-02  mag=    -0.0000
       N       E                     dE             d eps       ncg     rms          rms(c)
DAV:   1    -0.123874041649E+03   -0.20818E-03   -0.36570E+00  3648   0.720E+00    0.369E-01
DAV:   2    -0.123872763623E+03    0.12780E-02   -0.37812E-02  6912   0.768E-01    0.218E-01
DAV:   3    -0.123872089577E+03    0.67405E-03   -0.49949E-03  5472   0.231E-01    0.548E-02
DAV:   4    -0.123872083680E+03    0.58969E-05   -0.52054E-04  6720   0.843E-02    0.244E-02
DAV:   5    -0.123872083279E+03    0.40112E-06   -0.27655E-05  4944   0.215E-02    0.724E-03
DAV:   6    -0.123872086961E+03   -0.36819E-05   -0.15818E-05  4416   0.181E-02    0.346E-03
DAV:   7    -0.123872084408E+03    0.25527E-05   -0.67469E-06  4512   0.125E-02    0.168E-03
DAV:   8    -0.123872089501E+03   -0.50934E-05   -0.14405E-06  5232   0.489E-03    0.869E-04
DAV:   9    -0.123872093237E+03   -0.37359E-05   -0.57706E-07  5328   0.311E-03    0.723E-04
DAV:  10    -0.123872098909E+03   -0.56716E-05   -0.12386E-06  4896   0.459E-03    0.540E-04
DAV:  11    -0.123872101370E+03   -0.24616E-05   -0.75670E-07  5184   0.370E-03    0.248E-04
DAV:  12    -0.123872104393E+03   -0.30229E-05   -0.25923E-07  4128   0.942E-04    0.114E-04
DAV:  13    -0.123872105489E+03   -0.10953E-05   -0.81217E-08  5376   0.473E-04    0.640E-05
DAV:  14    -0.123872105735E+03   -0.24680E-06   -0.13877E-08  4656   0.236E-04
  43 F= -.12546341E+03 E0= -.12546099E+03  d E =-.732524E-02  mag=    -0.0000
       N       E                     dE             d eps       ncg     rms          rms(c)
DAV:   1    -0.123873965143E+03   -0.18597E-02   -0.62489E-01  3648   0.298E+00    0.152E-01
DAV:   2    -0.123873733834E+03    0.23131E-03   -0.64008E-03  6144   0.315E-01    0.902E-02
DAV:   3    -0.123873621127E+03    0.11271E-03   -0.88120E-04  6336   0.972E-02    0.226E-02
DAV:   4    -0.123873620940E+03    0.18755E-06   -0.86231E-05  5664   0.338E-02    0.102E-02
DAV:   5    -0.123873621370E+03   -0.42981E-06   -0.38849E-06  5568   0.713E-03
  44 F= -.12546402E+03 E0= -.12546192E+03  d E =-.793236E-02  mag=    -0.0000
       N       E                     dE             d eps       ncg     rms          rms(c)
DAV:   1    -0.123874061305E+03   -0.44037E-03   -0.13360E-02  3648   0.447E-01    0.232E-02
DAV:   2    -0.123874056610E+03    0.46952E-05   -0.16473E-04  5760   0.516E-02    0.141E-02
DAV:   3    -0.123874054852E+03    0.17575E-05   -0.21830E-05  4704   0.164E-02    0.447E-03
DAV:   4    -0.123874055184E+03   -0.33152E-06   -0.34330E-06  6624   0.655E-03
  45 F= -.12546458E+03 E0= -.12546245E+03  d E =-.566319E-03  mag=     0.0000
       N       E                     dE             d eps       ncg     rms          rms(c)
DAV:   1    -0.123875054963E+03   -0.10001E-02   -0.12105E-01  3648   0.134E+00    0.696E-02
DAV:   2    -0.123875010490E+03    0.44473E-04   -0.14849E-03  5472   0.155E-01    0.421E-02
DAV:   3    -0.123874989487E+03    0.21003E-04   -0.19392E-04  5280   0.490E-02    0.136E-02
DAV:   4    -0.123874989507E+03   -0.19283E-07   -0.30718E-05  5520   0.194E-02    0.704E-03
DAV:   5    -0.123874990112E+03   -0.60553E-06   -0.11538E-06  4368   0.451E-03
  46 F= -.12546591E+03 E0= -.12546366E+03  d E =-.189657E-02  mag=    -0.0000
       N       E                     dE             d eps       ncg     rms          rms(c)
DAV:   1    -0.123875485562E+03   -0.49606E-03   -0.48487E-01  3648   0.269E+00    0.139E-01
DAV:   2    -0.123875315542E+03    0.17002E-03   -0.59846E-03  6720   0.310E-01    0.840E-02
DAV:   3    -0.123875222222E+03    0.93320E-04   -0.73224E-04  4992   0.950E-02    0.268E-02
DAV:   4    -0.123875220535E+03    0.16874E-05   -0.11515E-04  6048   0.377E-02    0.137E-02
DAV:   5    -0.123875220719E+03   -0.18465E-06   -0.37537E-06  4416   0.796E-03
  47 F= -.12546692E+03 E0= -.12546440E+03  d E =-.290776E-02  mag=     0.0000
       N       E                     dE             d eps       ncg     rms          rms(c)
DAV:   1    -0.123875245012E+03   -0.24477E-04   -0.41369E-04  4224   0.792E-02    0.438E-03
DAV:   2    -0.123875245167E+03   -0.15467E-06   -0.59195E-06  5568   0.973E-03
  48 F= -.12546692E+03 E0= -.12546441E+03  d E =-.290933E-02  mag=     0.0000
       N       E                     dE             d eps       ncg     rms          rms(c)
DAV:   1    -0.123875262670E+03   -0.17658E-04   -0.20110E-03  3648   0.169E-01    0.984E-03
DAV:   2    -0.123875260938E+03    0.17317E-05   -0.34202E-05  6144   0.220E-02    0.525E-03
DAV:   3    -0.123875261188E+03   -0.24944E-06   -0.28601E-06  4944   0.594E-03
  49 F= -.12546700E+03 E0= -.12546448E+03  d E =-.723777E-04  mag=    -0.0000
       N       E                     dE             d eps       ncg     rms          rms(c)
DAV:   1    -0.123875271765E+03   -0.10827E-04   -0.17791E-02  3648   0.504E-01    0.308E-02
DAV:   2    -0.123875250966E+03    0.20799E-04   -0.28596E-04  4224   0.639E-02    0.166E-02
DAV:   3    -0.123875247966E+03    0.29999E-05   -0.32336E-05  5568   0.199E-02    0.560E-03
DAV:   4    -0.123875248605E+03   -0.63829E-06   -0.44106E-06  4464   0.726E-03
  50 F= -.12546715E+03 E0= -.12546463E+03  d E =-.228943E-03  mag=    -0.0000
       N       E                     dE             d eps       ncg     rms          rms(c)
DAV:   1    -0.123875058801E+03    0.18917E-03   -0.71050E-02  3648   0.101E+00    0.609E-02
DAV:   2    -0.123874976448E+03    0.82352E-04   -0.11302E-03  4224   0.127E-01    0.326E-02
DAV:   3    -0.123874962770E+03    0.13679E-04   -0.12907E-04  4944   0.398E-02    0.110E-02
DAV:   4    -0.123874963411E+03   -0.64079E-06   -0.17861E-05  3648   0.143E-02    0.402E-03
DAV:   5    -0.123874963830E+03   -0.41938E-06   -0.13984E-06  3648   0.521E-03
  51 F= -.12546721E+03 E0= -.12546468E+03  d E =-.282469E-03  mag=     0.0000
       N       E                     dE             d eps       ncg     rms          rms(c)
DAV:   1    -0.123875114776E+03   -0.15137E-03   -0.86431E-03  3648   0.352E-01    0.212E-02
DAV:   2    -0.123875104776E+03    0.99998E-05   -0.14421E-04  4368   0.452E-02    0.114E-02
DAV:   3    -0.123875103335E+03    0.14412E-05   -0.15513E-05  6432   0.137E-02    0.386E-03
DAV:   4    -0.123875103729E+03   -0.39462E-06   -0.21015E-06  4704   0.590E-03
  52 F= -.12546723E+03 E0= -.12546470E+03  d E =-.303930E-03  mag=     0.0000
       N       E                     dE             d eps       ncg     rms          rms(c)
DAV:   1    -0.123875106233E+03   -0.28986E-05   -0.58324E-03  3648   0.284E-01    0.147E-02
DAV:   2    -0.123875102929E+03    0.33048E-05   -0.72070E-05  3648   0.335E-02    0.880E-03
DAV:   3    -0.123875102288E+03    0.64011E-06   -0.10821E-05  4848   0.117E-02    0.235E-03
DAV:   4    -0.123875102697E+03   -0.40883E-06   -0.16954E-06  4656   0.569E-03
  53 F= -.12546733E+03 E0= -.12546481E+03  d E =-.106243E-03  mag=     0.0000
       N       E                     dE             d eps       ncg     rms          rms(c)
DAV:   1    -0.123875107049E+03   -0.47603E-05   -0.52545E-02  3648   0.852E-01    0.452E-02
DAV:   2    -0.123875079648E+03    0.27400E-04   -0.62670E-04  4320   0.983E-02    0.268E-02
DAV:   3    -0.123875070581E+03    0.90670E-05   -0.89833E-05  4368   0.325E-02    0.671E-03
DAV:   4    -0.123875071514E+03   -0.93244E-06   -0.12580E-05  3888   0.126E-02    0.290E-03
DAV:   5    -0.123875071867E+03   -0.35302E-06   -0.88537E-07  3696   0.434E-03
  54 F= -.12546763E+03 E0= -.12546509E+03  d E =-.397693E-03  mag=    -0.0000
       N       E                     dE             d eps       ncg     rms          rms(c)
DAV:   1    -0.123875031869E+03    0.39645E-04   -0.21019E-01  3648   0.170E+00    0.896E-02
DAV:   2    -0.123874930380E+03    0.10149E-03   -0.25100E-03  3648   0.197E-01    0.533E-02
DAV:   3    -0.123874891227E+03    0.39153E-04   -0.38061E-04  5328   0.669E-02    0.132E-02
DAV:   4    -0.123874892506E+03   -0.12793E-05   -0.41975E-05  4848   0.227E-02    0.595E-03
DAV:   5    -0.123874893106E+03   -0.59924E-06   -0.19207E-06  3840   0.544E-03
  55 F= -.12546809E+03 E0= -.12546554E+03  d E =-.865102E-03  mag=     0.0000
       N       E                     dE             d eps       ncg     rms          rms(c)
DAV:   1    -0.123874625613E+03    0.26689E-03   -0.84114E-01  3648   0.341E+00    0.179E-01
DAV:   2    -0.123874237783E+03    0.38783E-03   -0.10085E-02  3840   0.394E-01    0.106E-01
DAV:   3    -0.123874070555E+03    0.16723E-03   -0.14932E-03  5472   0.133E-01    0.264E-02
DAV:   4    -0.123874072571E+03   -0.20167E-05   -0.17208E-04  6288   0.457E-02    0.118E-02
DAV:   5    -0.123874072822E+03   -0.25105E-06   -0.66649E-06  4224   0.101E-02
  56 F= -.12546857E+03 E0= -.12546599E+03  d E =-.134557E-02  mag=    -0.0000
       N       E                     dE             d eps       ncg     rms          rms(c)
DAV:   1    -0.123874085105E+03   -0.12534E-04   -0.67055E-03  3648   0.303E-01    0.155E-02
DAV:   2    -0.123874082965E+03    0.21404E-05   -0.82519E-05  4080   0.367E-02    0.929E-03
DAV:   3    -0.123874082922E+03    0.42638E-07   -0.11723E-05  4320   0.134E-02    0.274E-03
DAV:   4    -0.123874083821E+03   -0.89894E-06   -0.36996E-06  5232   0.910E-03
  57 F= -.12546870E+03 E0= -.12546611E+03  d E =-.130411E-03  mag=    -0.0000
       N       E                     dE             d eps       ncg     rms          rms(c)
DAV:   1    -0.123874132651E+03   -0.49729E-04   -0.59392E-02  3648   0.903E-01    0.473E-02
DAV:   2    -0.123874107093E+03    0.25558E-04   -0.70747E-04  4080   0.105E-01    0.284E-02
DAV:   3    -0.123874096937E+03    0.10156E-04   -0.98141E-05  3840   0.347E-02    0.737E-03
DAV:   4    -0.123874098199E+03   -0.12622E-05   -0.15500E-05  4080   0.139E-02    0.322E-03
DAV:   5    -0.123874099172E+03   -0.97291E-06   -0.13257E-06  4512   0.541E-03
  58 F= -.12546908E+03 E0= -.12546646E+03  d E =-.504445E-03  mag=     0.0000
       N       E                     dE             d eps       ncg     rms          rms(c)
DAV:   1    -0.123874200617E+03   -0.10242E-03   -0.23747E-01  3648   0.181E+00    0.937E-02
DAV:   2    -0.123874100394E+03    0.10022E-03   -0.28197E-03  3840   0.209E-01    0.562E-02
DAV:   3    -0.123874054883E+03    0.45511E-04   -0.39740E-04  3840   0.695E-02    0.145E-02
DAV:   4    -0.123874057173E+03   -0.22898E-05   -0.56927E-05  4320   0.258E-02    0.630E-03
DAV:   5    -0.123874057764E+03   -0.59078E-06   -0.25808E-06  3840   0.680E-03
  59 F= -.12546976E+03 E0= -.12546707E+03  d E =-.118265E-02  mag=    -0.0000
       N       E                     dE             d eps       ncg     rms          rms(c)
DAV:   1    -0.123874277765E+03   -0.22059E-03   -0.95011E-01  3648   0.361E+00    0.187E-01
DAV:   2    -0.123873891499E+03    0.38627E-03   -0.11355E-02  3840   0.419E-01    0.112E-01
DAV:   3    -0.123873709595E+03    0.18190E-03   -0.16067E-03  4464   0.139E-01    0.288E-02
DAV:   4    -0.123873712660E+03   -0.30651E-05   -0.21177E-04  6576   0.500E-02    0.129E-02
DAV:   5    -0.123873712232E+03    0.42771E-06   -0.77866E-06  4128   0.116E-02
  60 F= -.12547086E+03 E0= -.12546806E+03  d E =-.228554E-02  mag=     0.0000
       N       E                     dE             d eps       ncg     rms          rms(c)
DAV:   1    -0.123874244929E+03   -0.53227E-03   -0.38014E+00  3648   0.723E+00    0.375E-01
DAV:   2    -0.123872746193E+03    0.14987E-02   -0.45835E-02  4992   0.838E-01    0.224E-01
DAV:   3    -0.123872014282E+03    0.73191E-03   -0.61857E-03  5760   0.265E-01    0.562E-02
DAV:   4    -0.123871999192E+03    0.15090E-04   -0.66816E-04  6624   0.928E-02    0.256E-02
DAV:   5    -0.123871992358E+03    0.68335E-05   -0.32246E-05  5232   0.232E-02    0.560E-03
DAV:   6    -0.123871991480E+03    0.87872E-06   -0.17142E-05  4656   0.180E-02    0.354E-03
DAV:   7    -0.123871990388E+03    0.10911E-05   -0.52839E-06  4416   0.109E-02    0.187E-03
DAV:   8    -0.123871998144E+03   -0.77553E-05   -0.22665E-06  4608   0.550E-03    0.111E-03
DAV:   9    -0.123872001815E+03   -0.36711E-05   -0.70140E-07  5664   0.362E-03    0.992E-04
DAV:  10    -0.123872007149E+03   -0.53342E-05   -0.10558E-06  5136   0.443E-03    0.561E-04
DAV:  11    -0.123872011176E+03   -0.40271E-05   -0.82206E-07  4992   0.346E-03    0.328E-04
DAV:  12    -0.123872013694E+03   -0.25182E-05   -0.19833E-07  4656   0.874E-04    0.147E-04
DAV:  13    -0.123872014701E+03   -0.10063E-05   -0.67217E-08  5232   0.413E-04    0.623E-05
DAV:  14    -0.123872015004E+03   -0.30366E-06   -0.15195E-08  4944   0.204E-04
  61 F= -.12547210E+03 E0= -.12546904E+03  d E =-.352107E-02  mag=     0.0000
       N       E                     dE             d eps       ncg     rms          rms(c)
DAV:   1    -0.123871262663E+03    0.75204E-03   -0.77355E-01  3648   0.326E+00    0.169E-01
DAV:   2    -0.123870950973E+03    0.31169E-03   -0.93283E-03  5088   0.378E-01    0.101E-01
DAV:   3    -0.123870793370E+03    0.15760E-03   -0.12295E-03  5184   0.118E-01    0.255E-02
DAV:   4    -0.123870794797E+03   -0.14268E-05   -0.14837E-04  5664   0.426E-02    0.112E-02
DAV:   5    -0.123870794315E+03    0.48254E-06   -0.51140E-06  4272   0.796E-03
  62 F= -.12547221E+03 E0= -.12546904E+03  d E =-.363970E-02  mag=     0.0000
       N       E                     dE             d eps       ncg     rms          rms(c)
DAV:   1    -0.123870734694E+03    0.60103E-04   -0.72150E-02  3744   0.994E-01    0.513E-02
DAV:   2    -0.123870704716E+03    0.29978E-04   -0.86412E-04  3648   0.116E-01    0.308E-02
DAV:   3    -0.123870691378E+03    0.13339E-04   -0.11769E-04  3888   0.380E-02    0.793E-03
DAV:   4    -0.123870692272E+03   -0.89367E-06   -0.17043E-05  4512   0.137E-02    0.323E-03
DAV:   5    -0.123870693134E+03   -0.86224E-06   -0.65394E-07  3840   0.272E-03
  63 F= -.12547253E+03 E0= -.12546932E+03  d E =-.314861E-03  mag=     0.0000
       N       E                     dE             d eps       ncg     rms          rms(c)
DAV:   1    -0.123870748893E+03   -0.56621E-04   -0.64651E-01  3648   0.298E+00    0.154E-01
DAV:   2    -0.123870486500E+03    0.26239E-03   -0.77070E-03  4032   0.345E-01    0.924E-02
DAV:   3    -0.123870357057E+03    0.12944E-03   -0.10429E-03  3936   0.112E-01    0.236E-02
DAV:   4    -0.123870359825E+03   -0.27683E-05   -0.14463E-04  5712   0.404E-02    0.935E-03
DAV:   5    -0.123870359701E+03    0.12449E-06   -0.43637E-06  3984   0.695E-03
  64 F= -.12547345E+03 E0= -.12547013E+03  d E =-.123638E-02  mag=    -0.0000
       N       E                     dE             d eps       ncg     rms          rms(c)
DAV:   1    -0.123871105849E+03   -0.74602E-03   -0.25875E+00  3648   0.596E+00    0.308E-01
DAV:   2    -0.123870053100E+03    0.10527E-02   -0.31112E-02  4464   0.690E-01    0.184E-01
DAV:   3    -0.123869571860E+03    0.48124E-03   -0.41399E-03  5184   0.218E-01    0.461E-02
DAV:   4    -0.123869566288E+03    0.55714E-05   -0.45718E-04  5952   0.743E-02    0.194E-02
DAV:   5    -0.123869558892E+03    0.73966E-05   -0.19426E-05  5376   0.144E-02    0.383E-03
DAV:   6    -0.123869559561E+03   -0.66943E-06   -0.45242E-06  4992   0.580E-03
  65 F= -.12547519E+03 E0= -.12547166E+03  d E =-.297604E-02  mag=    -0.0000
       N       E                     dE             d eps       ncg     rms          rms(c)
DAV:   1    -0.123873669263E+03   -0.41104E-02   -0.10343E+01  3648   0.119E+01    0.616E-01
DAV:   2    -0.123869674934E+03    0.39943E-02   -0.12489E-01  5472   0.138E+00    0.368E-01
DAV:   3    -0.123867518106E+03    0.21568E-02   -0.15842E-02  5808   0.419E-01    0.914E-02
DAV:   4    -0.123867506477E+03    0.11628E-04   -0.16109E-03  6144   0.142E-01    0.386E-02
DAV:   5    -0.123867474411E+03    0.32066E-04   -0.79570E-05  5808   0.284E-02    0.747E-03
DAV:   6    -0.123867475198E+03   -0.78710E-06   -0.14651E-05  4416   0.105E-02    0.422E-03
DAV:   7    -0.123867484341E+03   -0.91436E-05   -0.21545E-06  4560   0.442E-03    0.248E-03
DAV:   8    -0.123867497062E+03   -0.12721E-04   -0.18268E-06  4896   0.338E-03    0.187E-03
DAV:   9    -0.123867508118E+03   -0.11056E-04   -0.10710E-06  5184   0.206E-03    0.763E-04
DAV:  10    -0.123867517288E+03   -0.91700E-05   -0.98887E-07  5376   0.187E-03    0.556E-04
DAV:  11    -0.123867521129E+03   -0.38407E-05   -0.28855E-07  5088   0.143E-03    0.347E-04
DAV:  12    -0.123867524125E+03   -0.29957E-05   -0.26844E-07  4800   0.121E-03    0.145E-04
DAV:  13    -0.123867525004E+03   -0.87899E-06   -0.51068E-08  5568   0.593E-04
  66 F= -.12547836E+03 E0= -.12547446E+03  d E =-.614984E-02  mag=     0.0000
       N       E                     dE             d eps       ncg     rms          rms(c)
DAV:   1    -0.123884866880E+03   -0.17343E-01   -0.41323E+01  3648   0.238E+01    0.123E+00
DAV:   2    -0.123870143811E+03    0.14723E-01   -0.50605E-01  4704   0.279E+00    0.739E-01
DAV:   3    -0.123861846852E+03    0.82970E-02   -0.66250E-02  6288   0.865E-01    0.184E-01
DAV:   4    -0.123861749531E+03    0.97320E-04   -0.61805E-03  6192   0.278E-01    0.796E-02
DAV:   5    -0.123861646982E+03    0.10255E-03   -0.32279E-04  6048   0.562E-02    0.157E-02
DAV:   6    -0.123861640834E+03    0.61485E-05   -0.64059E-05  4608   0.220E-02    0.763E-03
DAV:   7    -0.123861666880E+03   -0.26046E-04   -0.96874E-06  4224   0.929E-03    0.412E-03
DAV:   8    -0.123861685894E+03   -0.19014E-04   -0.24351E-06  4944   0.391E-03    0.349E-03
DAV:   9    -0.123861709500E+03   -0.23606E-04   -0.27116E-06  4752   0.336E-03    0.154E-03
DAV:  10    -0.123861727781E+03   -0.18280E-04   -0.23861E-06  5280   0.290E-03    0.106E-03
DAV:  11    -0.123861734423E+03   -0.66427E-05   -0.46480E-07  5904   0.139E-03    0.727E-04
DAV:  12    -0.123861741271E+03   -0.68476E-05   -0.76354E-07  4848   0.158E-03    0.275E-04
DAV:  13    -0.123861743203E+03   -0.19325E-05   -0.10633E-07  5664   0.653E-04    0.138E-04
DAV:  14    -0.123861744032E+03   -0.82897E-06   -0.35901E-08  4848   0.348E-04
  67 F= -.12548352E+03 E0= -.12547924E+03  d E =-.113090E-01  mag=     0.0000
       N       E                     dE             d eps       ncg     rms          rms(c)
DAV:   1    -0.123926878668E+03   -0.65135E-01   -0.16452E+02  3648   0.475E+01    0.243E+00
DAV:   2    -0.123877852673E+03    0.49026E-01   -0.20764E+00  4704   0.571E+00    0.149E+00
DAV:   3    -0.123844093325E+03    0.33759E-01   -0.26127E-01  6672   0.172E+00    0.385E-01
DAV:   4    -0.123844094195E+03   -0.86974E-06   -0.21428E-02  5856   0.527E-01    0.165E-01
DAV:   5    -0.123843572791E+03    0.52140E-03   -0.15318E-03  6240   0.112E-01    0.332E-02
DAV:   6    -0.123843546532E+03    0.26259E-04   -0.22385E-04  4416   0.416E-02    0.153E-02
DAV:   7    -0.123843622330E+03   -0.75798E-04   -0.50116E-05  4608   0.212E-02    0.844E-03
DAV:   8    -0.123843670068E+03   -0.47737E-04   -0.80913E-06  5088   0.711E-03    0.751E-03
DAV:   9    -0.123843721904E+03   -0.51836E-04   -0.81330E-06  4944   0.629E-03    0.321E-03
DAV:  10    -0.123843763576E+03   -0.41672E-04   -0.77650E-06  5280   0.556E-03    0.199E-03
DAV:  11    -0.123843780784E+03   -0.17208E-04   -0.22427E-06  5856   0.304E-03    0.133E-03
DAV:  12    -0.123843788387E+03   -0.76032E-05   -0.82173E-07  6048   0.186E-03    0.587E-04
DAV:  13    -0.123843791606E+03   -0.32189E-05   -0.20161E-07  5184   0.916E-04    0.238E-04
DAV:  14    -0.123843793013E+03   -0.14066E-05   -0.59571E-08  5472   0.516E-04    0.121E-04
DAV:  15    -0.123843793888E+03   -0.87579E-06   -0.49651E-08  4800   0.361E-04
  68 F= -.12548971E+03 E0= -.12548610E+03  d E =-.174951E-01  mag=    -0.0000
       N       E                     dE             d eps       ncg     rms          rms(c)
DAV:   1    -0.123844380306E+03   -0.58729E-03   -0.20988E+00  3648   0.536E+00    0.276E-01
DAV:   2    -0.123843533481E+03    0.84683E-03   -0.24687E-02  3840   0.619E-01    0.167E-01
DAV:   3    -0.123843158885E+03    0.37460E-03   -0.36213E-03  5520   0.206E-01    0.398E-02
DAV:   4    -0.123843161355E+03   -0.24693E-05   -0.37652E-04  6528   0.671E-02    0.175E-02
DAV:   5    -0.123843157389E+03    0.39658E-05   -0.14919E-05  5136   0.125E-02    0.340E-03
DAV:   6    -0.123843156794E+03    0.59453E-06   -0.33453E-06  5232   0.500E-03
  69 F= -.12549198E+03 E0= -.12548844E+03  d E =-.227290E-02  mag=    -0.0000
       N       E                     dE             d eps       ncg     rms          rms(c)
DAV:   1    -0.123851551848E+03   -0.83945E-02   -0.18882E+01  3648   0.161E+01    0.825E-01
DAV:   2    -0.123844847685E+03    0.67042E-02   -0.22646E-01  5376   0.186E+00    0.496E-01
DAV:   3    -0.123840894200E+03    0.39535E-02   -0.29710E-02  5856   0.574E-01    0.120E-01
DAV:   4    -0.123840869247E+03    0.24953E-04   -0.28957E-03  6240   0.191E-01    0.521E-02
DAV:   5    -0.123840818928E+03    0.50319E-04   -0.15265E-04  6048   0.384E-02    0.977E-03
DAV:   6    -0.123840819152E+03   -0.22446E-06   -0.24485E-05  3936   0.135E-02    0.476E-03
DAV:   7    -0.123840833126E+03   -0.13974E-04   -0.34438E-06  5184   0.557E-03    0.290E-03
DAV:   8    -0.123840845755E+03   -0.12629E-04   -0.14828E-06  4992   0.306E-03    0.243E-03
DAV:   9    -0.123840860247E+03   -0.14492E-04   -0.16549E-06  5424   0.251E-03    0.876E-04
DAV:  10    -0.123840869887E+03   -0.96399E-05   -0.10731E-06  5904   0.185E-03    0.708E-04
DAV:  11    -0.123840874090E+03   -0.42036E-05   -0.30355E-07  6000   0.113E-03    0.453E-04
DAV:  12    -0.123840876812E+03   -0.27219E-05   -0.19342E-07  5568   0.880E-04    0.173E-04
DAV:  13    -0.123840877792E+03   -0.98000E-06   -0.44803E-08  5472   0.435E-04
  70 F= -.12549869E+03 E0= -.12549533E+03  d E =-.897925E-02  mag=     0.0000
       N       E                     dE             d eps       ncg     rms          rms(c)
DAV:   1    -0.123874285435E+03   -0.33409E-01   -0.75369E+01  3648   0.321E+01    0.164E+00
DAV:   2    -0.123849896500E+03    0.24389E-01   -0.92289E-01  4992   0.378E+00    0.997E-01
DAV:   3    -0.123834459339E+03    0.15437E-01   -0.12007E-01  6144   0.116E+00    0.246E-01
DAV:   4    -0.123834408916E+03    0.50422E-04   -0.11235E-02  6048   0.376E-01    0.107E-01
DAV:   5    -0.123834215594E+03    0.19332E-03   -0.65913E-04  6240   0.772E-02    0.212E-02
DAV:   6    -0.123834206701E+03    0.88925E-05   -0.99688E-05  4704   0.274E-02    0.913E-03
DAV:   7    -0.123834247892E+03   -0.41191E-04   -0.18682E-05  4560   0.129E-02    0.561E-03
DAV:   8    -0.123834283044E+03   -0.35152E-04   -0.51356E-06  4992   0.550E-03    0.366E-03
DAV:   9    -0.123834307748E+03   -0.24705E-04   -0.31649E-06  5376   0.403E-03    0.170E-03
DAV:  10    -0.123834323950E+03   -0.16202E-04   -0.20097E-06  5616   0.282E-03    0.129E-03
DAV:  11    -0.123834334299E+03   -0.10348E-04   -0.13663E-06  6048   0.237E-03    0.637E-04
DAV:  12    -0.123834338424E+03   -0.41257E-05   -0.39869E-07  5664   0.165E-03    0.251E-04
DAV:  13    -0.123834339376E+03   -0.95207E-06   -0.73182E-08  6144   0.108E-03
  71 F= -.12551132E+03 E0= -.12550821E+03  d E =-.216089E-01  mag=     0.0000
       N       E                     dE             d eps       ncg     rms          rms(c)
DAV:   1    -0.123950884516E+03   -0.11655E+00   -0.29870E+02  3648   0.639E+01    0.325E+00
DAV:   2    -0.123877041153E+03    0.73843E-01   -0.38545E+00  4704   0.785E+00    0.201E+00
DAV:   3    -0.123812884135E+03    0.64157E-01   -0.45113E-01  6528   0.226E+00    0.546E-01
DAV:   4    -0.123813448149E+03   -0.56401E-03   -0.37402E-02  5568   0.695E-01    0.221E-01
DAV:   5    -0.123812533422E+03    0.91473E-03   -0.32366E-03  6528   0.151E-01    0.444E-02
DAV:   6    -0.123812483265E+03    0.50157E-04   -0.31909E-04  4320   0.513E-02    0.195E-02
DAV:   7    -0.123812608783E+03   -0.12552E-03   -0.11307E-04  4608   0.309E-02    0.128E-02
DAV:   8    -0.123812697339E+03   -0.88556E-04   -0.22619E-05  4704   0.129E-02    0.701E-03
DAV:   9    -0.123812748518E+03   -0.51179E-04   -0.10244E-05  5472   0.885E-03    0.346E-03
DAV:  10    -0.123812778756E+03   -0.30238E-04   -0.52183E-06  5376   0.578E-03    0.245E-03
DAV:  11    -0.123812799029E+03   -0.20273E-04   -0.41818E-06  5328   0.460E-03    0.171E-03
DAV:  12    -0.123812805499E+03   -0.64701E-05   -0.10837E-06  5952   0.367E-03    0.591E-04
DAV:  13    -0.123812806910E+03   -0.14109E-05   -0.36499E-07  5856   0.262E-03    0.393E-04
DAV:  14    -0.123812808048E+03   -0.11378E-05   -0.10024E-07  5424   0.125E-03    0.121E-04
DAV:  15    -0.123812808746E+03   -0.69786E-06   -0.38092E-08  5568   0.559E-04
  72 F= -.12553329E+03 E0= -.12553036E+03  d E =-.435840E-01  mag=    -0.0000
       N       E                     dE             d eps       ncg     rms          rms(c)
DAV:   1    -0.124006323180E+03   -0.19352E+00   -0.11468E+03  3648   0.124E+02    0.632E+00
DAV:   2    -0.123983049399E+03    0.23274E-01   -0.17384E+01  3840   0.173E+01    0.403E+00
DAV:   3    -0.123731569927E+03    0.25148E+00   -0.15033E+00  6624   0.427E+00    0.145E+00
DAV:   4    -0.123726814242E+03    0.47557E-02   -0.13312E-01  5184   0.139E+00    0.437E-01
DAV:   5    -0.123723829661E+03    0.29846E-02   -0.16891E-02  6048   0.345E-01    0.756E-02
DAV:   6    -0.123723544643E+03    0.28502E-03   -0.10026E-03  6144   0.954E-02    0.344E-02
DAV:   7    -0.123723772923E+03   -0.22828E-03   -0.40982E-04  4992   0.576E-02    0.212E-02
DAV:   8    -0.123723964447E+03   -0.19152E-03   -0.94091E-05  4320   0.233E-02    0.126E-02
DAV:   9    -0.123724086630E+03   -0.12218E-03   -0.44121E-05  4608   0.173E-02    0.843E-03
DAV:  10    -0.123724132166E+03   -0.45537E-04   -0.11003E-05  5664   0.747E-03    0.675E-03
DAV:  11    -0.123724159033E+03   -0.26866E-04   -0.11213E-05  5088   0.780E-03    0.235E-03
DAV:  12    -0.123724170772E+03   -0.11739E-04   -0.21760E-06  5568   0.390E-03    0.140E-03
DAV:  13    -0.123724174779E+03   -0.40075E-05   -0.33850E-07  6048   0.172E-03    0.773E-04
DAV:  14    -0.123724176560E+03   -0.17810E-05   -0.11684E-07  5376   0.123E-03    0.363E-04
DAV:  15    -0.123724177700E+03   -0.11395E-05   -0.84501E-08  4896   0.866E-04    0.123E-04
DAV:  16    -0.123724177926E+03   -0.22570E-06   -0.69216E-09  5952   0.281E-04
  73 F= -.12555460E+03 E0= -.12555192E+03  d E =-.648896E-01  mag=    -0.0000
       N       E                     dE             d eps       ncg     rms          rms(c)
DAV:   1    -0.123721891795E+03    0.22859E-02   -0.71576E+00  3648   0.993E+00    0.508E-01
DAV:   2    -0.123719059562E+03    0.28322E-02   -0.84033E-02  4992   0.114E+00    0.303E-01
DAV:   3    -0.123717671640E+03    0.13879E-02   -0.11135E-02  5280   0.355E-01    0.745E-02
DAV:   4    -0.123717668335E+03    0.33045E-05   -0.12551E-03  6432   0.123E-01    0.308E-02
DAV:   5    -0.123717655599E+03    0.12737E-04   -0.47198E-05  5856   0.225E-02    0.563E-03
DAV:   6    -0.123717654269E+03    0.13301E-05   -0.70655E-06  5328   0.738E-03    0.282E-03
DAV:   7    -0.123717657706E+03   -0.34370E-05   -0.11298E-06  4896   0.321E-03    0.151E-03
DAV:   8    -0.123717661375E+03   -0.36693E-05   -0.38544E-07  4896   0.157E-03    0.137E-03
DAV:   9    -0.123717667550E+03   -0.61754E-05   -0.61997E-07  5184   0.151E-03    0.468E-04
DAV:  10    -0.123717671542E+03   -0.39913E-05   -0.34955E-07  5760   0.106E-03    0.411E-04
DAV:  11    -0.123717673693E+03   -0.21518E-05   -0.16594E-07  5856   0.913E-04    0.202E-04
DAV:  12    -0.123717674415E+03   -0.72201E-06   -0.44553E-08  5856   0.689E-04
  74 F= -.12555787E+03 E0= -.12555523E+03  d E =-.326797E-02  mag=     0.0000
       N       E                     dE             d eps       ncg     rms          rms(c)
DAV:   1    -0.123729865771E+03   -0.12192E-01   -0.64235E+01  3648   0.297E+01    0.152E+00
DAV:   2    -0.123707509075E+03    0.22357E-01   -0.77895E-01  5376   0.348E+00    0.911E-01
DAV:   3    -0.123694580970E+03    0.12928E-01   -0.96968E-02  6240   0.104E+00    0.230E-01
DAV:   4    -0.123694432029E+03    0.14894E-03   -0.93485E-03  6144   0.345E-01    0.950E-02
DAV:   5    -0.123694305138E+03    0.12689E-03   -0.48725E-04  6336   0.681E-02    0.176E-02
DAV:   6    -0.123694296645E+03    0.84926E-05   -0.57457E-05  4800   0.214E-02    0.853E-03
DAV:   7    -0.123694327709E+03   -0.31063E-04   -0.17886E-05  4416   0.121E-02    0.472E-03
DAV:   8    -0.123694358234E+03   -0.30525E-04   -0.48286E-06  4992   0.590E-03    0.310E-03
DAV:   9    -0.123694376806E+03   -0.18572E-04   -0.28030E-06  5472   0.480E-03    0.153E-03
DAV:  10    -0.123694389106E+03   -0.12300E-04   -0.19139E-06  5424   0.326E-03    0.124E-03
DAV:  11    -0.123694395444E+03   -0.63386E-05   -0.89966E-07  5472   0.251E-03    0.504E-04
DAV:  12    -0.123694398075E+03   -0.26306E-05   -0.35104E-07  6000   0.220E-03    0.308E-04
DAV:  13    -0.123694398841E+03   -0.76570E-06   -0.13071E-07  5712   0.156E-03
  75 F= -.12556499E+03 E0= -.12556252E+03  d E =-.103911E-01  mag=     0.0000
       N       E                     dE             d eps       ncg     rms          rms(c)
DAV:   1    -0.123749079240E+03   -0.54681E-01   -0.25462E+02  3648   0.591E+01    0.302E+00
DAV:   2    -0.123677500171E+03    0.71579E-01   -0.32632E+00  5664   0.723E+00    0.183E+00
DAV:   3    -0.123624069907E+03    0.53430E-01   -0.35346E-01  6528   0.199E+00    0.507E-01
DAV:   4    -0.123623908074E+03    0.16183E-03   -0.32614E-02  6144   0.650E-01    0.195E-01
DAV:   5    -0.123623167053E+03    0.74102E-03   -0.22977E-03  6240   0.136E-01    0.390E-02
DAV:   6    -0.123623110645E+03    0.56408E-04   -0.26092E-04  5280   0.484E-02    0.179E-02
DAV:   7    -0.123623199827E+03   -0.89182E-04   -0.12027E-04  5184   0.332E-02    0.122E-02
DAV:   8    -0.123623267657E+03   -0.67830E-04   -0.18149E-05  4848   0.122E-02    0.637E-03
DAV:   9    -0.123623325724E+03   -0.58067E-04   -0.14995E-05  4800   0.110E-02    0.342E-03
DAV:  10    -0.123623344238E+03   -0.18514E-04   -0.39974E-06  5424   0.638E-03    0.256E-03
DAV:  11    -0.123623361098E+03   -0.16860E-04   -0.47456E-06  4752   0.541E-03    0.110E-03
DAV:  12    -0.123623364392E+03   -0.32938E-05   -0.64177E-07  5952   0.310E-03    0.661E-04
DAV:  13    -0.123623366323E+03   -0.19314E-05   -0.52608E-07  5280   0.324E-03    0.356E-04
DAV:  14    -0.123623367018E+03   -0.69443E-06   -0.23626E-07  4992   0.211E-03
  76 F= -.12555927E+03 E0= -.12555688E+03  d E =-.467076E-02  mag=    -0.0000
       N       E                     dE             d eps       ncg     rms          rms(c)
DAV:   1    -0.123755418095E+03   -0.13205E+00   -0.13635E+02  3648   0.434E+01    0.222E+00
DAV:   2    -0.123705653642E+03    0.49764E-01   -0.16345E+00  4416   0.517E+00    0.134E+00
DAV:   3    -0.123678847422E+03    0.26806E-01   -0.21084E-01  6432   0.155E+00    0.354E-01
DAV:   4    -0.123679012632E+03   -0.16521E-03   -0.17936E-02  4800   0.487E-01    0.144E-01
DAV:   5    -0.123678816925E+03    0.19571E-03   -0.12403E-03  4608   0.108E-01    0.275E-02
DAV:   6    -0.123678793322E+03    0.23603E-04   -0.16152E-04  4704   0.391E-02    0.123E-02
DAV:   7    -0.123678814704E+03   -0.21382E-04   -0.33201E-05  3936   0.203E-02    0.863E-03
DAV:   8    -0.123678837976E+03   -0.23272E-04   -0.51361E-06  3648   0.701E-03    0.580E-03
DAV:   9    -0.123678868505E+03   -0.30529E-04   -0.37710E-06  4032   0.611E-03    0.224E-03
DAV:  10    -0.123678892552E+03   -0.24047E-04   -0.22083E-06  4704   0.420E-03    0.207E-03
DAV:  11    -0.123678915429E+03   -0.22877E-04   -0.13793E-06  4416   0.342E-03    0.141E-03
DAV:  12    -0.123678926102E+03   -0.10673E-04   -0.36104E-07  4992   0.235E-03    0.418E-04
DAV:  13    -0.123678930204E+03   -0.41019E-05   -0.16058E-07  5472   0.174E-03    0.284E-04
DAV:  14    -0.123678932712E+03   -0.25079E-05   -0.71485E-08  5424   0.101E-03    0.204E-04
DAV:  15    -0.123678933305E+03   -0.59282E-06   -0.16658E-08  5376   0.487E-04
  77 F= -.12556663E+03 E0= -.12556427E+03  d E =-.120319E-01  mag=     0.0000
       N       E                     dE             d eps       ncg     rms          rms(c)
DAV:   1    -0.123686183538E+03   -0.72508E-02   -0.50001E-02  3840   0.860E-01    0.487E-02
DAV:   2    -0.123686150405E+03    0.33133E-04   -0.80325E-04  5952   0.113E-01    0.294E-02
DAV:   3    -0.123686139049E+03    0.11356E-04   -0.10516E-04  5088   0.366E-02    0.112E-02
DAV:   4    -0.123686139096E+03   -0.47045E-07   -0.21594E-05  4224   0.156E-02    0.635E-03
DAV:   5    -0.123686139392E+03   -0.29555E-06   -0.11568E-06  4032   0.460E-03
  78 F= -.12557455E+03 E0= -.12557219E+03  d E =-.791706E-02  mag=    -0.0000
       N       E                     dE             d eps       ncg     rms          rms(c)
DAV:   1    -0.123705011808E+03   -0.18873E-01   -0.45026E-01  3648   0.258E+00    0.147E-01
DAV:   2    -0.123704703329E+03    0.30848E-03   -0.69753E-03  5184   0.337E-01    0.878E-02
DAV:   3    -0.123704602878E+03    0.10045E-03   -0.10790E-03  5856   0.116E-01    0.343E-02
DAV:   4    -0.123704598496E+03    0.43820E-05   -0.20864E-04  5424   0.483E-02    0.202E-02
DAV:   5    -0.123704598214E+03    0.28169E-06   -0.12648E-05  4992   0.147E-02    0.552E-03
DAV:   6    -0.123704598134E+03    0.79535E-07   -0.30362E-06  6336   0.617E-03
  79 F= -.12559511E+03 E0= -.12559277E+03  d E =-.284835E-01  mag=     0.0000
       N       E                     dE             d eps       ncg     rms          rms(c)
DAV:   1    -0.123728936664E+03   -0.24338E-01   -0.18024E+00  3648   0.516E+00    0.294E-01
DAV:   2    -0.123727770627E+03    0.11660E-02   -0.28393E-02  6624   0.676E-01    0.177E-01
DAV:   3    -0.123727313064E+03    0.45756E-03   -0.36860E-03  5376   0.216E-01    0.652E-02
DAV:   4    -0.123727301565E+03    0.11499E-04   -0.73481E-04  6240   0.908E-02    0.377E-02
DAV:   5    -0.123727297192E+03    0.43728E-05   -0.30413E-05  5184   0.231E-02    0.129E-02
DAV:   6    -0.123727296719E+03    0.47291E-06   -0.12403E-05  6096   0.120E-02    0.498E-03
DAV:   7    -0.123727296939E+03   -0.21971E-06   -0.75897E-07  4128   0.328E-03
  80 F= -.12562192E+03 E0= -.12561955E+03  d E =-.552860E-01  mag=     0.0000
       N       E                     dE             d eps       ncg     rms          rms(c)
DAV:   1    -0.123722441951E+03    0.48548E-02   -0.72158E+00  3648   0.103E+01    0.589E-01
DAV:   2    -0.123717766365E+03    0.46756E-02   -0.11438E-01  6816   0.136E+00    0.354E-01
DAV:   3    -0.123715900170E+03    0.18662E-02   -0.14702E-02  5376   0.432E-01    0.129E-01
DAV:   4    -0.123715847897E+03    0.52273E-04   -0.29481E-03  6528   0.182E-01    0.741E-02
DAV:   5    -0.123715826611E+03    0.21286E-04   -0.12395E-04  5376   0.463E-02    0.257E-02
DAV:   6    -0.123715823593E+03    0.30179E-05   -0.49269E-05  6240   0.241E-02    0.960E-03
DAV:   7    -0.123715823959E+03   -0.36654E-06   -0.30414E-06  4176   0.669E-03
  81 F= -.12561820E+03 E0= -.12561559E+03  d E =-.515695E-01  mag=    -0.0000
       N       E                     dE             d eps       ncg     rms          rms(c)
DAV:   1    -0.123733509222E+03   -0.17686E-01   -0.21778E+00  3648   0.567E+00    0.322E-01
DAV:   2    -0.123732071142E+03    0.14381E-02   -0.34443E-02  5856   0.744E-01    0.194E-01
DAV:   3    -0.123731530791E+03    0.54035E-03   -0.47508E-03  5664   0.245E-01    0.733E-02
DAV:   4    -0.123731522229E+03    0.85622E-05   -0.94054E-04  4464   0.103E-01    0.419E-02
DAV:   5    -0.123731520752E+03    0.14770E-05   -0.53657E-05  5280   0.309E-02    0.133E-02
DAV:   6    -0.123731521432E+03   -0.68018E-06   -0.16238E-05  4512   0.148E-02    0.593E-03
DAV:   7    -0.123731521740E+03   -0.30730E-06   -0.14706E-06  5760   0.553E-03
  82 F= -.12562971E+03 E0= -.12562727E+03  d E =-.630823E-01  mag=     0.0000
       N       E                     dE             d eps       ncg     rms          rms(c)
DAV:   1    -0.123736369099E+03   -0.48477E-02   -0.68228E-02  3648   0.101E+00    0.574E-02
DAV:   2    -0.123736305184E+03    0.63915E-04   -0.77234E-04  5184   0.109E-01    0.313E-02
DAV:   3    -0.123736289791E+03    0.15393E-04   -0.10953E-04  4608   0.358E-02    0.961E-03
DAV:   4    -0.123736290627E+03   -0.83653E-06   -0.14114E-05  4896   0.144E-02    0.411E-03
DAV:   5    -0.123736290989E+03   -0.36170E-06   -0.98513E-07  5184   0.507E-03
  83 F= -.12563492E+03 E0= -.12563244E+03  d E =-.520838E-02  mag=    -0.0000
       N       E                     dE             d eps       ncg     rms          rms(c)
DAV:   1    -0.123747395238E+03   -0.11105E-01   -0.61425E-01  3648   0.302E+00    0.173E-01
DAV:   2    -0.123746806265E+03    0.58897E-03   -0.68491E-03  6816   0.325E-01    0.936E-02
DAV:   3    -0.123746655844E+03    0.15042E-03   -0.88875E-04  5376   0.100E-01    0.280E-02
DAV:   4    -0.123746658429E+03   -0.25848E-05   -0.10170E-04  4032   0.378E-02    0.113E-02
DAV:   5    -0.123746659933E+03   -0.15040E-05   -0.44321E-06  4224   0.100E-02    0.470E-03
DAV:   6    -0.123746660974E+03   -0.10418E-05   -0.25667E-06  3840   0.765E-03    0.175E-03
DAV:   7    -0.123746660410E+03    0.56430E-06   -0.10508E-06  4464   0.507E-03
  84 F= -.12564661E+03 E0= -.12564398E+03  d E =-.168982E-01  mag=     0.0000
       N       E                     dE             d eps       ncg     rms          rms(c)
DAV:   1    -0.123752824234E+03   -0.61633E-02   -0.24554E+00  3648   0.604E+00    0.347E-01
DAV:   2    -0.123750451043E+03    0.23732E-02   -0.27088E-02  7152   0.645E-01    0.188E-01
DAV:   3    -0.123749795355E+03    0.65569E-03   -0.36983E-03  5088   0.204E-01    0.549E-02
DAV:   4    -0.123749799517E+03   -0.41624E-05   -0.41635E-04  5088   0.750E-02    0.231E-02
DAV:   5    -0.123749804520E+03   -0.50035E-05   -0.11665E-05  4800   0.142E-02    0.970E-03
DAV:   6    -0.123749805576E+03   -0.10559E-05   -0.44229E-06  4224   0.737E-03    0.247E-03
DAV:   7    -0.123749805801E+03   -0.22451E-06   -0.41488E-07  5424   0.290E-03
  85 F= -.12565241E+03 E0= -.12564949E+03  d E =-.226993E-01  mag=    -0.0000
       N       E                     dE             d eps       ncg     rms          rms(c)
DAV:   1    -0.123751397340E+03   -0.15918E-02   -0.15405E-01  3648   0.152E+00    0.873E-02
DAV:   2    -0.123751242641E+03    0.15470E-03   -0.17003E-03  5088   0.162E-01    0.473E-02
DAV:   3    -0.123751204885E+03    0.37756E-04   -0.25561E-04  5952   0.538E-02    0.140E-02
DAV:   4    -0.123751206690E+03   -0.18053E-05   -0.28128E-05  4800   0.193E-02    0.607E-03
DAV:   5    -0.123751207245E+03   -0.55439E-06   -0.96780E-07  4944   0.450E-03
  86 F= -.12565315E+03 E0= -.12565028E+03  d E =-.234340E-01  mag=     0.0000
       N       E                     dE             d eps       ncg     rms          rms(c)
DAV:   1    -0.123755481625E+03   -0.42749E-02   -0.17677E-01  3648   0.159E+00    0.830E-02
DAV:   2    -0.123755383225E+03    0.98400E-04   -0.13215E-03  4080   0.146E-01    0.465E-02
DAV:   3    -0.123755360003E+03    0.23222E-04   -0.22100E-04  5136   0.506E-02    0.102E-02
DAV:   4    -0.123755361038E+03   -0.10346E-05   -0.20744E-05  5088   0.170E-02    0.422E-03
DAV:   5    -0.123755361854E+03   -0.81643E-06   -0.12814E-06  4656   0.572E-03
  87 F= -.12565777E+03 E0= -.12565494E+03  d E =-.462163E-02  mag=    -0.0000
       N       E                     dE             d eps       ncg     rms          rms(c)
DAV:   1    -0.123761853726E+03   -0.64927E-02   -0.15913E+00  3648   0.476E+00    0.249E-01
DAV:   2    -0.123761046341E+03    0.80739E-03   -0.11887E-02  5472   0.435E-01    0.138E-01
DAV:   3    -0.123760763951E+03    0.28239E-03   -0.18327E-03  6384   0.143E-01    0.303E-02
DAV:   4    -0.123760773260E+03   -0.93086E-05   -0.14204E-04  4944   0.447E-02    0.122E-02
DAV:   5    -0.123760775707E+03   -0.24474E-05   -0.64323E-06  5376   0.122E-02    0.368E-03
DAV:   6    -0.123760776084E+03   -0.37614E-06   -0.45844E-06  3936   0.103E-02
  88 F= -.12566462E+03 E0= -.12566192E+03  d E =-.114728E-01  mag=    -0.0000
       N       E                     dE             d eps       ncg     rms          rms(c)
DAV:   1    -0.123760696932E+03    0.78775E-04   -0.36457E-02  3648   0.720E-01    0.375E-02
DAV:   2    -0.123760679195E+03    0.17738E-04   -0.28632E-04  5376   0.676E-02    0.210E-02
DAV:   3    -0.123760673694E+03    0.55009E-05   -0.42033E-05  4272   0.220E-02    0.467E-03
DAV:   4    -0.123760674469E+03   -0.77513E-06   -0.44492E-06  5280   0.815E-03
  89 F= -.12566474E+03 E0= -.12566206E+03  d E =-.115933E-01  mag=    -0.0000
       N       E                     dE             d eps       ncg     rms          rms(c)
DAV:   1    -0.123761274577E+03   -0.60088E-03   -0.30912E-02  3648   0.655E-01    0.309E-02
DAV:   2    -0.123761273573E+03    0.10040E-05   -0.21273E-04  4944   0.602E-02    0.190E-02
DAV:   3    -0.123761273642E+03   -0.68708E-07   -0.31325E-05  3888   0.204E-02    0.381E-03
DAV:   4    -0.123761273813E+03   -0.17103E-06   -0.52494E-06  4704   0.103E-02
  90 F= -.12566541E+03 E0= -.12566271E+03  d E =-.667500E-03  mag=    -0.0000
       N       E                     dE             d eps       ncg     rms          rms(c)
DAV:   1    -0.123762038445E+03   -0.76480E-03   -0.27828E-01  3648   0.196E+00    0.934E-02
DAV:   2    -0.123762045036E+03   -0.65903E-05   -0.18779E-03  5664   0.178E-01    0.568E-02
DAV:   3    -0.123762016600E+03    0.28436E-04   -0.27104E-04  4512   0.567E-02    0.111E-02
DAV:   4    -0.123762016736E+03   -0.13639E-06   -0.34834E-05  5712   0.232E-02    0.588E-03
DAV:   5    -0.123762017663E+03   -0.92670E-06   -0.23840E-06  3696   0.810E-03
  91 F= -.12566636E+03 E0= -.12566362E+03  d E =-.162037E-02  mag=     0.0000
       N       E                     dE             d eps       ncg     rms          rms(c)
DAV:   1    -0.123762344966E+03   -0.32823E-03   -0.50378E-02  3648   0.882E-01    0.457E-02
DAV:   2    -0.123762334909E+03    0.10058E-04   -0.62588E-04  4944   0.104E-01    0.276E-02
DAV:   3    -0.123762330315E+03    0.45935E-05   -0.76778E-05  5232   0.333E-02    0.117E-02
DAV:   4    -0.123762330696E+03   -0.38128E-06   -0.16519E-05  4128   0.172E-02    0.637E-03
DAV:   5    -0.123762331042E+03   -0.34595E-06   -0.40236E-06  3840   0.106E-02
  92 F= -.12566675E+03 E0= -.12566399E+03  d E =-.389331E-03  mag=    -0.0000
       N       E                     dE             d eps       ncg     rms          rms(c)
DAV:   1    -0.123762328929E+03    0.17676E-05   -0.85493E-05  3936   0.388E-02    0.213E-03
DAV:   2    -0.123762328419E+03    0.50954E-06   -0.33247E-06  4416   0.972E-03
  93 F= -.12566675E+03 E0= -.12566399E+03  d E =-.389657E-03  mag=    -0.0000
       N       E                     dE             d eps       ncg     rms          rms(c)
DAV:   1    -0.123762436558E+03   -0.10763E-03   -0.48409E-03  3648   0.253E-01    0.137E-02
DAV:   2    -0.123762435040E+03    0.15180E-05   -0.39111E-05  5280   0.253E-02    0.775E-03
DAV:   3    -0.123762434766E+03    0.27362E-06   -0.52387E-06  3840   0.902E-03
  94 F= -.12566689E+03 E0= -.12566411E+03  d E =-.137601E-03  mag=     0.0000
       N       E                     dE             d eps       ncg     rms          rms(c)
DAV:   1    -0.123762709269E+03   -0.27423E-03   -0.43585E-02  3648   0.759E-01    0.406E-02
DAV:   2    -0.123762697896E+03    0.11373E-04   -0.33827E-04  5904   0.736E-02    0.230E-02
DAV:   3    -0.123762692872E+03    0.50239E-05   -0.38646E-05  3840   0.217E-02    0.592E-03
DAV:   4    -0.123762693677E+03   -0.80513E-06   -0.73195E-06  3744   0.128E-02
  95 F= -.12566724E+03 E0= -.12566442E+03  d E =-.490328E-03  mag=     0.0000
       N       E                     dE             d eps       ncg     rms          rms(c)
DAV:   1    -0.123762985060E+03   -0.29219E-03   -0.17436E-01  3648   0.152E+00    0.810E-02
DAV:   2    -0.123762941598E+03    0.43462E-04   -0.13551E-03  6912   0.146E-01    0.458E-02
DAV:   3    -0.123762917589E+03    0.24009E-04   -0.14007E-04  4320   0.392E-02    0.118E-02
DAV:   4    -0.123762919857E+03   -0.22672E-05   -0.18616E-05  4128   0.191E-02    0.420E-03
DAV:   5    -0.123762919901E+03   -0.44547E-07   -0.51749E-06  4320   0.112E-02
  96 F= -.12566765E+03 E0= -.12566475E+03  d E =-.904424E-03  mag=    -0.0000
       N       E                     dE             d eps       ncg     rms          rms(c)
DAV:   1    -0.123762469144E+03    0.45071E-03   -0.69656E-01  3648   0.303E+00    0.162E-01
DAV:   2    -0.123762292635E+03    0.17651E-03   -0.53877E-03  7008   0.291E-01    0.914E-02
DAV:   3    -0.123762183480E+03    0.10915E-03   -0.55277E-04  4848   0.764E-02    0.237E-02
DAV:   4    -0.123762190500E+03   -0.70193E-05   -0.60764E-05  4128   0.322E-02    0.823E-03
DAV:   5    -0.123762191499E+03   -0.99942E-06   -0.10342E-05  4512   0.160E-02    0.357E-03
DAV:   6    -0.123762193877E+03   -0.23781E-05   -0.11357E-05  4128   0.161E-02    0.165E-03
DAV:   7    -0.123762188934E+03    0.49437E-05   -0.44862E-06  5280   0.998E-03    0.465E-04
DAV:   8    -0.123762188860E+03    0.73132E-07   -0.83976E-08  6048   0.140E-03
  97 F= -.12566730E+03 E0= -.12566423E+03  d E =-.550027E-03  mag=     0.0000
       N       E                     dE             d eps       ncg     rms          rms(c)
DAV:   1    -0.123763025191E+03   -0.83626E-03   -0.36550E-01  3648   0.220E+00    0.118E-01
DAV:   2    -0.123762927168E+03    0.98023E-04   -0.28204E-03  6864   0.210E-01    0.662E-02
DAV:   3    -0.123762871221E+03    0.55947E-04   -0.28941E-04  4464   0.546E-02    0.172E-02
DAV:   4    -0.123762874912E+03   -0.36903E-05   -0.30131E-05  5616   0.197E-02    0.598E-03
DAV:   5    -0.123762875622E+03   -0.71013E-06   -0.10790E-06  5184   0.406E-03
  98 F= -.12566771E+03 E0= -.12566476E+03  d E =-.963767E-03  mag=     0.0000
       N       E                     dE             d eps       ncg     rms          rms(c)
DAV:   1    -0.123762905832E+03   -0.30921E-04   -0.30489E-04  4992   0.595E-02    0.321E-03
DAV:   2    -0.123762905687E+03    0.14512E-06   -0.15217E-06  5664   0.461E-03
  99 F= -.12566775E+03 E0= -.12566480E+03  d E =-.384873E-04  mag=     0.0000
       N       E                     dE             d eps       ncg     rms          rms(c)
DAV:   1    -0.123762995466E+03   -0.89634E-04   -0.27834E-03  3648   0.180E-01    0.989E-03
DAV:   2    -0.123762994999E+03    0.46711E-06   -0.17071E-05  5616   0.159E-02    0.575E-03
DAV:   3    -0.123762994741E+03    0.25783E-06   -0.25457E-06  3984   0.474E-03
 100 F= -.12566787E+03 E0= -.12566490E+03  d E =-.152813E-03  mag=    -0.0000
       N       E                     dE             d eps       ncg     rms          rms(c)
DAV:   1    -0.123763173329E+03   -0.17833E-03   -0.11273E-02  3648   0.361E-01    0.197E-02
DAV:   2    -0.123763171965E+03    0.13643E-05   -0.68137E-05  5472   0.320E-02    0.114E-02
DAV:   3    -0.123763170707E+03    0.12575E-05   -0.10102E-05  3840   0.927E-03    0.179E-03
DAV:   4    -0.123763170796E+03   -0.88717E-07   -0.81378E-07  4320   0.390E-03
 101 F= -.12566809E+03 E0= -.12566510E+03  d E =-.379438E-03  mag=    -0.0000
       N       E                     dE             d eps       ncg     rms          rms(c)
DAV:   1    -0.123763525712E+03   -0.35500E-03   -0.45055E-02  3648   0.721E-01    0.393E-02
DAV:   2    -0.123763519778E+03    0.59337E-05   -0.27116E-04  6480   0.636E-02    0.227E-02
DAV:   3    -0.123763514072E+03    0.57060E-05   -0.39960E-05  4128   0.180E-02    0.352E-03
DAV:   4    -0.123763514358E+03   -0.28579E-06   -0.26030E-06  4176   0.700E-03
 102 F= -.12566854E+03 E0= -.12566550E+03  d E =-.824249E-03  mag=    -0.0000
       N       E                     dE             d eps       ncg     rms          rms(c)
DAV:   1    -0.123764215458E+03   -0.70139E-03   -0.18001E-01  3648   0.144E+00    0.789E-02
DAV:   2    -0.123764193385E+03    0.22072E-04   -0.10801E-03  6816   0.127E-01    0.455E-02
DAV:   3    -0.123764169167E+03    0.24218E-04   -0.15884E-04  4320   0.357E-02    0.708E-03
DAV:   4    -0.123764170031E+03   -0.86439E-06   -0.97042E-06  4320   0.135E-02
 103 F= -.12566940E+03 E0= -.12566627E+03  d E =-.168280E-02  mag=    -0.0000
       N       E                     dE             d eps       ncg     rms          rms(c)
DAV:   1    -0.123765565360E+03   -0.13962E-02   -0.71806E-01  3648   0.289E+00    0.159E-01
DAV:   2    -0.123765482202E+03    0.83159E-04   -0.42998E-03  6768   0.253E-01    0.917E-02
DAV:   3    -0.123765379913E+03    0.10229E-03   -0.63491E-04  4752   0.715E-02    0.144E-02
DAV:   4    -0.123765382977E+03   -0.30642E-05   -0.37416E-05  4896   0.266E-02    0.676E-03
DAV:   5    -0.123765385595E+03   -0.26179E-05   -0.11575E-05  4800   0.164E-02    0.258E-03
DAV:   6    -0.123765382449E+03    0.31463E-05   -0.75290E-06  5280   0.133E-02    0.109E-03
DAV:   7    -0.123765381305E+03    0.11438E-05   -0.11422E-06  4896   0.515E-03    0.349E-04
DAV:   8    -0.123765381386E+03   -0.81516E-07   -0.48925E-08  6000   0.101E-03
 104 F= -.12567102E+03 E0= -.12566780E+03  d E =-.330154E-02  mag=     0.0000
       N       E                     dE             d eps       ncg     rms          rms(c)
DAV:   1    -0.123768116300E+03   -0.27350E-02   -0.28519E+00  3648   0.576E+00    0.319E-01
DAV:   2    -0.123767747402E+03    0.36890E-03   -0.16834E-02  6816   0.501E-01    0.184E-01
DAV:   3    -0.123767313092E+03    0.43431E-03   -0.25078E-03  4896   0.141E-01    0.292E-02
DAV:   4    -0.123767324379E+03   -0.11287E-04   -0.12244E-04  5856   0.425E-02    0.135E-02
DAV:   5    -0.123767324808E+03   -0.42863E-06   -0.12505E-05  5952   0.117E-02    0.357E-03
DAV:   6    -0.123767325163E+03   -0.35513E-06   -0.12997E-06  6192   0.463E-03
 105 F= -.12567378E+03 E0= -.12567109E+03  d E =-.606709E-02  mag=    -0.0000
       N       E                     dE             d eps       ncg     rms          rms(c)
DAV:   1    -0.123762663480E+03    0.46613E-02   -0.11186E+01  3648   0.115E+01    0.628E-01
DAV:   2    -0.123760875455E+03    0.17880E-02   -0.67468E-02  7056   0.101E+00    0.359E-01
DAV:   3    -0.123759193755E+03    0.16817E-02   -0.93322E-03  5712   0.280E-01    0.646E-02
DAV:   4    -0.123759242317E+03   -0.48561E-04   -0.44967E-04  5568   0.850E-02    0.282E-02
DAV:   5    -0.123759242735E+03   -0.41886E-06   -0.51993E-05  5856   0.246E-02    0.737E-03
DAV:   6    -0.123759244276E+03   -0.15406E-05   -0.57741E-06  4800   0.108E-02    0.280E-03
DAV:   7    -0.123759246316E+03   -0.20398E-05   -0.32089E-06  5088   0.876E-03    0.126E-03
DAV:   8    -0.123759246281E+03    0.34982E-07   -0.20860E-06  4608   0.706E-03
 106 F= -.12566736E+03 E0= -.12566569E+03  d E =0.351381E-03  mag=    -0.0000
       N       E                     dE             d eps       ncg     rms          rms(c)
DAV:   1    -0.123769498520E+03   -0.10252E-01   -0.79592E+00  3648   0.970E+00    0.527E-01
DAV:   2    -0.123768728656E+03    0.76986E-03   -0.49222E-02  6816   0.860E-01    0.303E-01
DAV:   3    -0.123767528595E+03    0.12001E-02   -0.66996E-03  5472   0.238E-01    0.536E-02
DAV:   4    -0.123767554667E+03   -0.26072E-04   -0.37024E-04  6528   0.752E-02    0.234E-02
DAV:   5    -0.123767553376E+03    0.12913E-05   -0.47919E-05  5616   0.235E-02    0.631E-03
DAV:   6    -0.123767552472E+03    0.90421E-06   -0.68996E-06  5232   0.998E-03
 107 F= -.12567427E+03 E0= -.12567189E+03  d E =-.655451E-02  mag=    -0.0000
       N       E                     dE             d eps       ncg     rms          rms(c)
DAV:   1    -0.123767484261E+03    0.69115E-04   -0.23572E-01  3648   0.167E+00    0.910E-02
DAV:   2    -0.123767460235E+03    0.24027E-04   -0.14731E-03  6384   0.148E-01    0.527E-02
DAV:   3    -0.123767427988E+03    0.32246E-04   -0.20181E-04  4752   0.414E-02    0.894E-03
DAV:   4    -0.123767430064E+03   -0.20759E-05   -0.12090E-05  4800   0.144E-02    0.413E-03
DAV:   5    -0.123767430937E+03   -0.87258E-06   -0.21159E-06  5424   0.684E-03
 108 F= -.12567439E+03 E0= -.12567226E+03  d E =-.667185E-02  mag=     0.0000
       N       E                     dE             d eps       ncg     rms          rms(c)
DAV:   1    -0.123767930995E+03   -0.50093E-03   -0.69490E-02  3648   0.841E-01    0.492E-02
DAV:   2    -0.123767924343E+03    0.66527E-05   -0.42726E-04  6624   0.751E-02    0.286E-02
DAV:   3    -0.123767914501E+03    0.98414E-05   -0.58940E-05  4416   0.215E-02    0.475E-03
DAV:   4    -0.123767914989E+03   -0.48752E-06   -0.34540E-06  5904   0.748E-03
 109 F= -.12567500E+03 E0= -.12567300E+03  d E =-.612642E-03  mag=     0.0000
       N       E                     dE             d eps       ncg     rms          rms(c)
DAV:   1    -0.123768770509E+03   -0.85601E-03   -0.62303E-01  3648   0.252E+00    0.147E-01
DAV:   2    -0.123768691767E+03    0.78742E-04   -0.37447E-03  6816   0.224E-01    0.849E-02
DAV:   3    -0.123768596725E+03    0.95042E-04   -0.51472E-04  4752   0.642E-02    0.146E-02
DAV:   4    -0.123768600048E+03   -0.33231E-05   -0.27718E-05  5376   0.208E-02    0.649E-03
DAV:   5    -0.123768600539E+03   -0.49072E-06   -0.46534E-06  5760   0.948E-03
 110 F= -.12567607E+03 E0= -.12567433E+03  d E =-.168409E-02  mag=    -0.0000
       N       E                     dE             d eps       ncg     rms          rms(c)
DAV:   1    -0.123769717130E+03   -0.11171E-02   -0.69123E-03  3840   0.325E-01    0.165E-02
DAV:   2    -0.123769714134E+03    0.29961E-05   -0.61768E-05  6048   0.335E-02    0.954E-03
DAV:   3    -0.123769714222E+03   -0.87570E-07   -0.95310E-06  3984   0.126E-02
 111 F= -.12567718E+03 E0= -.12567545E+03  d E =-.111097E-02  mag=     0.0000
       N       E                     dE             d eps       ncg     rms          rms(c)
DAV:   1    -0.123772645122E+03   -0.29310E-02   -0.62300E-02  3648   0.974E-01    0.502E-02
DAV:   2    -0.123772622738E+03    0.22384E-04   -0.54475E-04  6720   0.987E-02    0.290E-02
DAV:   3    -0.123772615316E+03    0.74217E-05   -0.79431E-05  4272   0.326E-02    0.783E-03
DAV:   4    -0.123772615462E+03   -0.14608E-06   -0.13165E-05  4320   0.162E-02    0.421E-03
DAV:   5    -0.123772615666E+03   -0.20345E-06   -0.21750E-06  4032   0.782E-03
 112 F= -.12568007E+03 E0= -.12567836E+03  d E =-.400439E-02  mag=    -0.0000
       N       E                     dE             d eps       ncg     rms          rms(c)
DAV:   1    -0.123776548349E+03   -0.39329E-02   -0.24888E-01  3648   0.195E+00    0.991E-02
DAV:   2    -0.123776458597E+03    0.89751E-04   -0.21517E-03  7296   0.195E-01    0.570E-02
DAV:   3    -0.123776423221E+03    0.35377E-04   -0.29944E-04  4656   0.617E-02    0.153E-02
DAV:   4    -0.123776423210E+03    0.11116E-07   -0.44032E-05  5184   0.271E-02    0.803E-03
DAV:   5    -0.123776424119E+03   -0.90892E-06   -0.35395E-06  4656   0.992E-03
 113 F= -.12568387E+03 E0= -.12568219E+03  d E =-.779743E-02  mag=     0.0000
       N       E                     dE             d eps       ncg     rms          rms(c)
DAV:   1    -0.123776561313E+03   -0.13810E-03   -0.99513E-01  3648   0.389E+00    0.198E-01
DAV:   2    -0.123776213576E+03    0.34774E-03   -0.85395E-03  7296   0.389E-01    0.114E-01
DAV:   3    -0.123776056837E+03    0.15674E-03   -0.12005E-03  4992   0.123E-01    0.304E-02
DAV:   4    -0.123776054907E+03    0.19299E-05   -0.16740E-04  5376   0.519E-02    0.158E-02
DAV:   5    -0.123776057073E+03   -0.21663E-05   -0.11485E-05  5280   0.177E-02    0.671E-03
DAV:   6    -0.123776062381E+03   -0.53079E-05   -0.94572E-06  3888   0.158E-02    0.247E-03
DAV:   7    -0.123776056572E+03    0.58090E-05   -0.55696E-06  4608   0.118E-02    0.989E-04
DAV:   8    -0.123776056215E+03    0.35690E-06   -0.29640E-07  5808   0.280E-03
 114 F= -.12568347E+03 E0= -.12568182E+03  d E =-.740161E-02  mag=     0.0000
       N       E                     dE             d eps       ncg     rms          rms(c)
DAV:   1    -0.123777729396E+03   -0.16728E-02   -0.28802E-01  3648   0.209E+00    0.107E-01
DAV:   2    -0.123777623598E+03    0.10580E-03   -0.24425E-03  7296   0.207E-01    0.611E-02
DAV:   3    -0.123777577492E+03    0.46105E-04   -0.35201E-04  5424   0.657E-02    0.162E-02
DAV:   4    -0.123777577384E+03    0.10886E-06   -0.46716E-05  6384   0.254E-02    0.844E-03
DAV:   5    -0.123777578866E+03   -0.14821E-05   -0.12775E-06  4992   0.498E-03    0.343E-03
DAV:   6    -0.123777579239E+03   -0.37303E-06   -0.34822E-07  5472   0.239E-03
 115 F= -.12568501E+03 E0= -.12568334E+03  d E =-.893901E-02  mag=     0.0000
       N       E                     dE             d eps       ncg     rms          rms(c)
DAV:   1    -0.123779662582E+03   -0.20837E-02   -0.84006E-02  3648   0.109E+00    0.556E-02
DAV:   2    -0.123779663254E+03   -0.67259E-06   -0.67594E-04  6816   0.106E-01    0.317E-02
DAV:   3    -0.123779654516E+03    0.87378E-05   -0.82333E-05  4512   0.316E-02    0.923E-03
DAV:   4    -0.123779654842E+03   -0.32546E-06   -0.13822E-05  5472   0.130E-02    0.501E-03
DAV:   5    -0.123779655482E+03   -0.64023E-06   -0.52589E-07  4032   0.307E-03
 116 F= -.12568713E+03 E0= -.12568546E+03  d E =-.211729E-02  mag=    -0.0000
       N       E                     dE             d eps       ncg     rms          rms(c)
DAV:   1    -0.123781141324E+03   -0.14865E-02   -0.28134E-01  3648   0.199E+00    0.102E-01
DAV:   2    -0.123781140087E+03    0.12371E-05   -0.22453E-03  6816   0.193E-01    0.580E-02
DAV:   3    -0.123781114563E+03    0.25524E-04   -0.27523E-04  4608   0.579E-02    0.169E-02
DAV:   4    -0.123781113985E+03    0.57791E-06   -0.47026E-05  6048   0.239E-02    0.924E-03
DAV:   5    -0.123781115825E+03   -0.18397E-05   -0.14027E-06  3840   0.512E-03    0.391E-03
DAV:   6    -0.123781115863E+03   -0.37559E-07   -0.77968E-07  4752   0.362E-03
 117 F= -.12568865E+03 E0= -.12568699E+03  d E =-.364520E-02  mag=    -0.0000
       N       E                     dE             d eps       ncg     rms          rms(c)
DAV:   1    -0.123781721759E+03   -0.60593E-03   -0.23577E-02  3648   0.603E-01    0.373E-02
DAV:   2    -0.123781686462E+03    0.35297E-04   -0.32718E-04  4848   0.711E-02    0.196E-02
DAV:   3    -0.123781679608E+03    0.68535E-05   -0.51034E-05  6000   0.236E-02    0.586E-03
DAV:   4    -0.123781679808E+03   -0.19973E-06   -0.50318E-06  5280   0.838E-03
 118 F= -.12568926E+03 E0= -.12568759E+03  d E =-.606865E-03  mag=    -0.0000
       N       E                     dE             d eps       ncg     rms          rms(c)
DAV:   1    -0.123782007146E+03   -0.32754E-03   -0.45427E-02  3648   0.838E-01    0.519E-02
DAV:   2    -0.123781941866E+03    0.65279E-04   -0.62853E-04  4704   0.983E-02    0.273E-02
DAV:   3    -0.123781927757E+03    0.14109E-04   -0.96156E-05  6096   0.323E-02    0.824E-03
DAV:   4    -0.123781928130E+03   -0.37268E-06   -0.94494E-06  5520   0.114E-02
 119 F= -.12568957E+03 E0= -.12568789E+03  d E =-.914547E-03  mag=     0.0000
       N       E                     dE             d eps       ncg     rms          rms(c)
DAV:   1    -0.123782123968E+03   -0.19621E-03   -0.90552E-03  3648   0.370E-01    0.174E-02
DAV:   2    -0.123782122938E+03    0.10300E-05   -0.65050E-05  3888   0.343E-02    0.105E-02
DAV:   3    -0.123782122772E+03    0.16570E-06   -0.94766E-06  4464   0.115E-02
 120 F= -.12568979E+03 E0= -.12568811E+03  d E =-.219476E-03  mag=     0.0000
       N       E                     dE             d eps       ncg     rms          rms(c)
DAV:   1    -0.123782406200E+03   -0.28326E-03   -0.81728E-02  3648   0.111E+00    0.526E-02
DAV:   2    -0.123782398337E+03    0.78628E-05   -0.57172E-04  5472   0.101E-01    0.314E-02
DAV:   3    -0.123782391706E+03    0.66310E-05   -0.78020E-05  4416   0.314E-02    0.615E-03
DAV:   4    -0.123782392350E+03   -0.64459E-06   -0.94785E-06  6576   0.125E-02
 121 F= -.12569013E+03 E0= -.12568846E+03  d E =-.565144E-03  mag=     0.0000
       N       E                     dE             d eps       ncg     rms          rms(c)
DAV:   1    -0.123782387564E+03    0.41423E-05   -0.46896E-03  3648   0.266E-01    0.126E-02
DAV:   2    -0.123782387145E+03    0.41811E-06   -0.34727E-05  4800   0.254E-02    0.769E-03
DAV:   3    -0.123782387646E+03   -0.50065E-06   -0.50072E-06  3936   0.954E-03
 122 F= -.12569015E+03 E0= -.12568848E+03  d E =-.579035E-03  mag=    -0.0000
       N       E                     dE             d eps       ncg     rms          rms(c)
DAV:   1    -0.123782486910E+03   -0.99764E-04   -0.21711E-02  3648   0.600E-01    0.340E-02
DAV:   2    -0.123782466545E+03    0.20365E-04   -0.32849E-04  5424   0.753E-02    0.185E-02
DAV:   3    -0.123782463211E+03    0.33335E-05   -0.34217E-05  4944   0.230E-02    0.768E-03
DAV:   4    -0.123782463496E+03   -0.28447E-06   -0.67836E-06  3840   0.111E-02
 123 F= -.12569028E+03 E0= -.12568861E+03  d E =-.128932E-03  mag=    -0.0000
       N       E                     dE             d eps       ncg     rms          rms(c)
DAV:   1    -0.123782470146E+03   -0.69351E-05   -0.18507E-04  3840   0.558E-02    0.316E-03
DAV:   2    -0.123782469830E+03    0.31673E-06   -0.38435E-06  5232   0.944E-03
 124 F= -.12569028E+03 E0= -.12568861E+03  d E =-.130519E-03  mag=    -0.0000
       N       E                     dE             d eps       ncg     rms          rms(c)
DAV:   1    -0.123782499009E+03   -0.28862E-04   -0.34259E-03  3648   0.229E-01    0.117E-02
DAV:   2    -0.123782497856E+03    0.11523E-05   -0.34356E-05  4128   0.243E-02    0.670E-03
DAV:   3    -0.123782497687E+03    0.16877E-06   -0.41067E-06  4320   0.862E-03
 125 F= -.12569035E+03 E0= -.12568869E+03  d E =-.742716E-04  mag=     0.0000
       N       E                     dE             d eps       ncg     rms          rms(c)
DAV:   1    -0.123782470298E+03    0.27559E-04   -0.12732E-02  3648   0.442E-01    0.235E-02
DAV:   2    -0.123782466382E+03    0.39156E-05   -0.12695E-04  5568   0.465E-02    0.135E-02
DAV:   3    -0.123782465346E+03    0.10360E-05   -0.13162E-05  4416   0.143E-02    0.466E-03
DAV:   4    -0.123782465599E+03   -0.25276E-06   -0.34778E-06  4128   0.901E-03
 126 F= -.12569041E+03 E0= -.12568875E+03  d E =-.131432E-03  mag=     0.0000
       N       E                     dE             d eps       ncg     rms          rms(c)
DAV:   1    -0.123782479834E+03   -0.14488E-04   -0.12218E-03  3744   0.125E-01    0.737E-03
DAV:   2    -0.123782479113E+03    0.72121E-06   -0.11811E-05  4224   0.142E-02    0.415E-03
DAV:   3    -0.123782479275E+03   -0.16135E-06   -0.24501E-06  3840   0.700E-03
 127 F= -.12569046E+03 E0= -.12568880E+03  d E =-.459684E-04  mag=    -0.0000
       N       E                     dE             d eps       ncg     rms          rms(c)
DAV:   1    -0.123782485900E+03   -0.67866E-05   -0.10997E-02  3648   0.375E-01    0.223E-02
DAV:   2    -0.123782480523E+03    0.53766E-05   -0.98266E-05  5616   0.389E-02    0.123E-02
DAV:   3    -0.123782478960E+03    0.15629E-05   -0.13210E-05  4944   0.133E-02    0.338E-03
DAV:   4    -0.123782479177E+03   -0.21621E-06   -0.37847E-06  3744   0.960E-03
 128 F= -.12569055E+03 E0= -.12568889E+03  d E =-.142629E-03  mag=    -0.0000
