Lattice                                 
           1
     4.195893    2.422500    0.000000
    -4.195893    2.422500    0.000000
     0.000000    0.000000   15.000000
   B    C 
     4    11
Direct configuration=     1
   0.00415361  0.00267210  0.12034134
   0.35695335  0.00285503  0.09748893
   0.00423858  0.35550699  0.09749256
   0.65142295  0.65006557  0.09747688
   0.32808646  0.32671938  0.10030508
   0.68027775  0.00278085  0.10027562
   0.00416530  0.67883808  0.10026559
   0.11111044  0.38888856  0.33726667
   0.27777744  0.22222156  0.33726667
   0.11111044  0.88888856  0.33726667
   0.27777744  0.72222156  0.33726667
   0.61111044  0.38888856  0.33726667
   0.77777744  0.22222156  0.33726667
   0.61111044  0.88888856  0.33726667
   0.77777744  0.72222156  0.33726667
Direct configuration=     2
   0.00416797  0.00269647  0.11906337
   0.35573396  0.00279183  0.09782055
   0.00418907  0.35451690  0.09787699
   0.65253179  0.65106539  0.09784748
   0.32478226  0.32325342  0.10031261
   0.68384870  0.00279471  0.10032647
   0.00422513  0.68216296  0.10028136
   0.11103928  0.38899157  0.33727972
   0.27791560  0.22234610  0.33735345
   0.11129730  0.88901877  0.33729069
   0.27796846  0.72221851  0.33720523
   0.61107131  0.38883642  0.33720033
   0.77773641  0.22226744  0.33728913
   0.61092663  0.88883954  0.33734246
   0.77741569  0.72207842  0.33728950
Direct configuration=     3
   0.00416084  0.00268438  0.11969758
   0.35633910  0.00282319  0.09765598
   0.00421364  0.35500825  0.09768621
   0.65198151  0.65056921  0.09766356
   0.32642202  0.32497346  0.10030887
   0.68207656  0.00278783  0.10030123
   0.00419544  0.68051293  0.10027353
   0.11107460  0.38894045  0.33727324
   0.27784704  0.22228429  0.33731038
   0.11120457  0.88895415  0.33727877
   0.27787367  0.72222002  0.33723572
   0.61109073  0.38886229  0.33723325
   0.77775677  0.22224467  0.33727798
   0.61101785  0.88886386  0.33730484
   0.77759522  0.72214945  0.33727817
Direct configuration=     4
   0.00417050  0.00272115  0.11854237
   0.35684252  0.00275669  0.09797428
   0.00420931  0.35550999  0.09805849
   0.65154455  0.64999897  0.09802120
   0.32658525  0.32501091  0.10028280
   0.68200466  0.00278320  0.10031721
   0.00424014  0.68039803  0.10025558
   0.11109366  0.38887790  0.33728912
   0.27767619  0.22224791  0.33738460
   0.11097604  0.88885797  0.33730650
   0.27765708  0.72226537  0.33719004
   0.61108972  0.38892469  0.33718624
   0.77773678  0.22222548  0.33729872
   0.61115206  0.88897339  0.33737114
   0.77787108  0.72232680  0.33730103
Direct configuration=     5
   0.00419946  0.00283146  0.11507674
   0.35835278  0.00255718  0.09892920
   0.00419634  0.35701523  0.09917534
   0.65023365  0.64828822  0.09909412
   0.32707495  0.32512328  0.10020457
   0.68178897  0.00276929  0.10036512
   0.00437424  0.68005333  0.10020174
   0.11115085  0.38869027  0.33733676
   0.27716365  0.22213875  0.33760725
   0.11029047  0.88856942  0.33738971
   0.27700732  0.72240141  0.33705299
   0.61108670  0.38911188  0.33704521
   0.77767682  0.22216790  0.33736095
   0.61155469  0.88930196  0.33757003
   0.77869866  0.72285885  0.33736960
Direct configuration=     6
   0.00420580  0.00283562  0.11464417
   0.35848423  0.00253938  0.09902467
   0.00420734  0.35712571  0.09928529
   0.65013481  0.64815108  0.09920005
   0.32717748  0.32519668  0.10022293
   0.68170446  0.00275650  0.10039575
   0.00438555  0.67996416  0.10022275
   0.11109769  0.38878515  0.33734245
   0.27728282  0.22217029  0.33762228
   0.11047803  0.88871509  0.33739905
   0.27717107  0.72239278  0.33705010
   0.61104778  0.38909540  0.33704287
   0.77767434  0.22222026  0.33736680
   0.61139064  0.88921477  0.33758368
   0.77840753  0.72271558  0.33737650
Direct configuration=     7
   0.00422480  0.00284810  0.11334644
   0.35887857  0.00248599  0.09931109
   0.00424034  0.35745714  0.09961511
   0.64983827  0.64773966  0.09951783
   0.32748506  0.32541689  0.10027799
   0.68145093  0.00271813  0.10048764
   0.00441950  0.67969663  0.10028578
   0.11093818  0.38906980  0.33735953
   0.27764033  0.22226489  0.33766737
   0.11104070  0.88915211  0.33742706
   0.27766234  0.72236687  0.33704145
   0.61093102  0.38904597  0.33703585
   0.77766688  0.22237732  0.33738437
   0.61089847  0.88895320  0.33762462
   0.77753415  0.72228576  0.33739719
Direct configuration=     8
   0.00426282  0.00287305  0.11075098
   0.35966726  0.00237921  0.09988393
   0.00430634  0.35812000  0.10027476
   0.64924520  0.64691680  0.10015340
   0.32810023  0.32585729  0.10038812
   0.68094386  0.00264139  0.10067143
   0.00448741  0.67916159  0.10041185
   0.11061917  0.38963909  0.33739370
   0.27835534  0.22245410  0.33775754
   0.11216605  0.89002614  0.33748309
   0.27864487  0.72231505  0.33702414
   0.61069751  0.38894710  0.33702181
   0.77765197  0.22269145  0.33741951
   0.60991413  0.88843007  0.33770650
   0.77578740  0.72142611  0.33743857
Direct configuration=     9
   0.00423469  0.00285459  0.11267110
   0.35908379  0.00245820  0.09946014
   0.00425751  0.35762961  0.09978675
   0.64968396  0.64752555  0.09968321
   0.32764513  0.32553148  0.10030665
   0.68131899  0.00269816  0.10053546
   0.00443717  0.67955742  0.10031858
   0.11085517  0.38921793  0.33736842
   0.27782637  0.22231412  0.33769083
   0.11133352  0.88937953  0.33744164
   0.27791799  0.72235338  0.33703695
   0.61087027  0.38902024  0.33703220
   0.77766300  0.22245906  0.33739352
   0.61064235  0.88881708  0.33764592
   0.77707965  0.72206208  0.33740796
Direct configuration=    10
   0.00425153  0.00283593  0.11209922
   0.35908442  0.00244994  0.09954135
   0.00429297  0.35758566  0.09987337
   0.64972447  0.64754336  0.09976806
   0.32773663  0.32561691  0.10038706
   0.68123475  0.00266289  0.10062356
   0.00444461  0.67946550  0.10040100
   0.11085598  0.38920781  0.33737533
   0.27783349  0.22242378  0.33768448
   0.11130271  0.88932172  0.33745041
   0.27792056  0.72237326  0.33706285
   0.61086591  0.38898056  0.33706019
   0.77760857  0.22245683  0.33739763
   0.61063797  0.88885746  0.33764076
   0.77705497  0.72209685  0.33741406
Direct configuration=    11
   0.00430205  0.00277997  0.11038357
   0.35908633  0.00242514  0.09978496
   0.00439935  0.35745382  0.10013322
   0.64984603  0.64759678  0.10002262
   0.32801115  0.32587322  0.10062831
   0.68098202  0.00255705  0.10088786
   0.00446694  0.67918976  0.10064824
   0.11085840  0.38917744  0.33739606
   0.27785483  0.22275276  0.33766544
   0.11121027  0.88914828  0.33747672
   0.27792826  0.72243287  0.33714056
   0.61085284  0.38886151  0.33714417
   0.77744529  0.22245014  0.33740998
   0.61062486  0.88897858  0.33762526
   0.77698093  0.72220115  0.33743236
Direct configuration=    12
   0.00440307  0.00266803  0.10695227
   0.35909015  0.00237555  0.10027218
   0.00461212  0.35719012  0.10065292
   0.65008914  0.64770361  0.10053173
   0.32856020  0.32638583  0.10111080
   0.68047656  0.00234537  0.10141646
   0.00451160  0.67863827  0.10114273
   0.11086323  0.38911672  0.33743752
   0.27789750  0.22341071  0.33762735
   0.11102541  0.88880141  0.33752934
   0.27794365  0.72255210  0.33729598
   0.61082670  0.38862340  0.33731214
   0.77711873  0.22243675  0.33743467
   0.61059864  0.88922082  0.33759427
   0.77683285  0.72240975  0.33746897
Direct configuration=    13
   0.00444601  0.00262028  0.10597920
   0.35910851  0.00237052  0.10042283
   0.00466182  0.35717580  0.10079673
   0.65009981  0.64770146  0.10067736
   0.32858711  0.32639385  0.10124678
   0.68049979  0.00230364  0.10155404
   0.00453606  0.67856862  0.10128062
   0.11078275  0.38916469  0.33744833
   0.27762380  0.22291487  0.33761008
   0.11084560  0.88902063  0.33754079
   0.27765555  0.72250079  0.33735237
   0.61080338  0.38895441  0.33736822
   0.77729026  0.22243035  0.33744408
   0.61072376  0.88928857  0.33757724
   0.77718534  0.72246996  0.33748065
Direct configuration=    14
   0.00448046  0.00258197  0.10519835
   0.35912324  0.00236649  0.10054372
   0.00470171  0.35716432  0.10091213
   0.65010838  0.64769973  0.10079423
   0.32860870  0.32640028  0.10135590
   0.68051843  0.00227015  0.10166445
   0.00455568  0.67851272  0.10139127
   0.11071817  0.38920319  0.33745701
   0.27740417  0.22251698  0.33759622
   0.11070130  0.88919654  0.33754998
   0.27742437  0.72245962  0.33739763
   0.61078468  0.38922002  0.33741323
   0.77742790  0.22242522  0.33745163
   0.61082417  0.88934293  0.33756357
   0.77746820  0.72251829  0.33749002
Direct configuration=    15
   0.00449593  0.00256149  0.10505735
   0.35920372  0.00237015  0.10059728
   0.00469003  0.35725551  0.10094723
   0.65000654  0.64761525  0.10083496
   0.32849798  0.32626787  0.10135619
   0.68067410  0.00229215  0.10165138
   0.00457302  0.67859399  0.10139064
   0.11073071  0.38919250  0.33745860
   0.27738883  0.22246061  0.33759391
   0.11075739  0.88924784  0.33754855
   0.27741931  0.72253074  0.33741078
   0.61075254  0.38922187  0.33742190
   0.77744689  0.22252225  0.33745714
   0.61077131  0.88920886  0.33755924
   0.77744125  0.72253736  0.33749419
Direct configuration=    16
   0.00452290  0.00252578  0.10481147
   0.35934407  0.00237652  0.10069068
   0.00466966  0.35741453  0.10100845
   0.64982895  0.64746793  0.10090600
   0.32830490  0.32603698  0.10135669
   0.68094556  0.00233052  0.10162859
   0.00460325  0.67873571  0.10138953
   0.11075258  0.38917386  0.33746138
   0.27736207  0.22236232  0.33758987
   0.11085521  0.88933729  0.33754604
   0.27741049  0.72265478  0.33743371
   0.61069651  0.38922508  0.33743702
   0.77748001  0.22269145  0.33746676
   0.61067914  0.88897507  0.33755169
   0.77739425  0.72257063  0.33750146
Direct configuration=    17
   0.00453748  0.00248894  0.10465825
   0.35952080  0.00237887  0.10077812
   0.00464567  0.35754843  0.10105890
   0.64965128  0.64731276  0.10096770
   0.32821194  0.32590803  0.10133980
   0.68109365  0.00237056  0.10158234
   0.00462729  0.67881979  0.10137054
   0.11076378  0.38921350  0.33746503
   0.27740860  0.22248984  0.33758899
   0.11081506  0.88928603  0.33754362
   0.27743770  0.72261021  0.33744808
   0.61069346  0.38920366  0.33744542
   0.77740677  0.22260545  0.33747580
   0.61067752  0.88909864  0.33754968
   0.77735855  0.72254373  0.33750705
Direct configuration=    18
   0.00455011  0.00245703  0.10452555
   0.35967386  0.00238090  0.10085386
   0.00462490  0.35766439  0.10110260
   0.64949741  0.64717837  0.10102113
   0.32813143  0.32579635  0.10132517
   0.68122190  0.00240523  0.10154228
   0.00464811  0.67889262  0.10135408
   0.11077348  0.38924783  0.33746820
   0.27744889  0.22260029  0.33758823
   0.11078029  0.88924163  0.33754152
   0.27746127  0.72257162  0.33746054
   0.61069083  0.38918512  0.33745269
   0.77734335  0.22253096  0.33748364
   0.61067612  0.88920566  0.33754794
   0.77732762  0.72252043  0.33751190
Direct configuration=    19
   0.00454961  0.00243392  0.10445750
   0.35974674  0.00237773  0.10090073
   0.00462046  0.35765056  0.10112401
   0.64947046  0.64714617  0.10105020
   0.32822222  0.32587257  0.10131609
   0.68113632  0.00241242  0.10150961
   0.00465177  0.67883701  0.10134341
   0.11070555  0.38922777  0.33747335
   0.27739947  0.22256922  0.33759029
   0.11074401  0.88925216  0.33754296
   0.27742959  0.72255546  0.33746141
   0.61072142  0.38920829  0.33745452
   0.77738273  0.22253462  0.33748798
   0.61071902  0.88925298  0.33755410
   0.77735020  0.72254758  0.33751316
Direct configuration=    20
   0.00454924  0.00241720  0.10440826
   0.35979948  0.00237543  0.10093465
   0.00461725  0.35764054  0.10113950
   0.64945096  0.64712287  0.10107124
   0.32828792  0.32592772  0.10130952
   0.68107438  0.00241762  0.10148597
   0.00465442  0.67879677  0.10133569
   0.11065638  0.38921326  0.33747707
   0.27736371  0.22254674  0.33759178
   0.11071776  0.88925977  0.33754399
   0.27740666  0.72254377  0.33746205
   0.61074356  0.38922506  0.33745585
   0.77741122  0.22253726  0.33749113
   0.61075006  0.88928722  0.33755856
   0.77736654  0.72256723  0.33751408
Direct configuration=    21
   0.00455729  0.00240041  0.10433678
   0.35977401  0.00237369  0.10097485
   0.00462346  0.35756342  0.10115272
   0.64951341  0.64716969  0.10109260
   0.32835626  0.32598403  0.10130882
   0.68101849  0.00241092  0.10145718
   0.00465610  0.67873835  0.10133312
   0.11069060  0.38922429  0.33748387
   0.27737122  0.22255036  0.33759629
   0.11074464  0.88927652  0.33754736
   0.27740768  0.72259329  0.33745971
   0.61070682  0.38922020  0.33745629
   0.77738778  0.22258377  0.33749580
   0.61070002  0.88921504  0.33756885
   0.77734177  0.72257447  0.33751509
Direct configuration=    22
   0.00456245  0.00238965  0.10429096
   0.35975768  0.00237258  0.10100063
   0.00462744  0.35751398  0.10116120
   0.64955344  0.64719970  0.10110628
   0.32840006  0.32602012  0.10130836
   0.68098267  0.00240663  0.10143872
   0.00465718  0.67870090  0.10133148
   0.11071253  0.38923136  0.33748823
   0.27737604  0.22255268  0.33759918
   0.11076187  0.88928725  0.33754952
   0.27740834  0.72262503  0.33745822
   0.61068327  0.38921708  0.33745658
   0.77737275  0.22261359  0.33749879
   0.61066795  0.88916878  0.33757545
   0.77732590  0.72257911  0.33751573
Direct configuration=    23
   0.00458331  0.00237980  0.10420218
   0.35967509  0.00237111  0.10103460
   0.00464245  0.35743073  0.10116793
   0.64965180  0.64727510  0.10112118
   0.32840149  0.32600586  0.10131829
   0.68101149  0.00238946  0.10141656
   0.00466333  0.67867407  0.10133927
   0.11072089  0.38926819  0.33749545
   0.27738331  0.22257527  0.33760631
   0.11074222  0.88929737  0.33755376
   0.27740293  0.72261208  0.33745658
   0.61066148  0.38923684  0.33745675
   0.77734115  0.22258501  0.33750516
   0.61065207  0.88921301  0.33758703
   0.77731654  0.72256454  0.33751827
Direct configuration=    24
   0.00460069  0.00237161  0.10412828
   0.35960634  0.00236989  0.10106289
   0.00465495  0.35736143  0.10117355
   0.64973369  0.64733788  0.10113358
   0.32840268  0.32599398  0.10132656
   0.68103549  0.00237515  0.10139811
   0.00466845  0.67865173  0.10134575
   0.11072785  0.38929886  0.33750146
   0.27738935  0.22259407  0.33761224
   0.11072586  0.88930581  0.33755728
   0.27739844  0.72260130  0.33745522
   0.61064334  0.38925328  0.33745690
   0.77731484  0.22256123  0.33751046
   0.61063885  0.88924983  0.33759667
   0.77730875  0.72255240  0.33752039
Direct configuration=    25
   0.00462719  0.00236432  0.10401173
   0.35958722  0.00235931  0.10108822
   0.00467778  0.35734019  0.10117538
   0.64977477  0.64734303  0.10114237
   0.32839335  0.32595792  0.10134830
   0.68108083  0.00234940  0.10138585
   0.00468361  0.67863916  0.10136529
   0.11064572  0.38926281  0.33750838
   0.27733615  0.22260771  0.33762203
   0.11069133  0.88930015  0.33756199
   0.27736897  0.72261428  0.33745830
   0.61067084  0.38925184  0.33745873
   0.77734085  0.22259810  0.33751963
   0.61066954  0.88928391  0.33760688
   0.77730141  0.72260629  0.33752624
Direct configuration=    26
   0.00464476  0.00235950  0.10393449
   0.35957455  0.00235230  0.10110501
   0.00469292  0.35732612  0.10117659
   0.64980199  0.64734645  0.10114820
   0.32838717  0.32593403  0.10136271
   0.68111087  0.00233234  0.10137773
   0.00469366  0.67863082  0.10137825
   0.11059128  0.38923892  0.33751296
   0.27730089  0.22261675  0.33762852
   0.11066845  0.88929641  0.33756511
   0.27734944  0.72262289  0.33746035
   0.61068906  0.38925088  0.33745994
   0.77735810  0.22262255  0.33752571
   0.61068988  0.88930649  0.33761364
   0.77729654  0.72264200  0.33753013
Direct configuration=    27
   0.00465846  0.00235296  0.10385376
   0.35960988  0.00233980  0.10111734
   0.00470818  0.35733989  0.10117815
   0.64979284  0.64730991  0.10115291
   0.32839840  0.32592338  0.10137795
   0.68112012  0.00231567  0.10137379
   0.00470625  0.67862190  0.10139235
   0.11058346  0.38925124  0.33751719
   0.27729032  0.22262018  0.33763470
   0.11066310  0.88931216  0.33756851
   0.27734045  0.72263571  0.33746456
   0.61067565  0.38926260  0.33746270
   0.77734694  0.22263689  0.33753179
   0.61067301  0.88930662  0.33761879
   0.77728250  0.72264954  0.33753484
Direct configuration=    28
   0.00469957  0.00233335  0.10361156
   0.35971587  0.00230229  0.10115434
   0.00475396  0.35738120  0.10118281
   0.64976538  0.64720030  0.10116705
   0.32843208  0.32589146  0.10142367
   0.68114784  0.00226567  0.10136197
   0.00474405  0.67859511  0.10143465
   0.11055998  0.38928820  0.33752989
   0.27725862  0.22263046  0.33765323
   0.11064704  0.88935942  0.33757872
   0.27731349  0.72267416  0.33747722
   0.61063542  0.38929776  0.33747097
   0.77731349  0.22267991  0.33755004
   0.61062239  0.88930701  0.33763423
   0.77724037  0.72267216  0.33754899
Direct configuration=    29
   0.00478180  0.00229413  0.10312716
   0.35992785  0.00222727  0.10122834
   0.00484553  0.35746382  0.10119215
   0.64971046  0.64698107  0.10119533
   0.32849945  0.32582760  0.10151513
   0.68120329  0.00216566  0.10133832
   0.00481964  0.67854154  0.10151924
   0.11051303  0.38936212  0.33755528
   0.27719522  0.22265102  0.33769028
   0.11061493  0.88945394  0.33759914
   0.27725955  0.72275107  0.33750253
   0.61055496  0.38936808  0.33748752
   0.77724658  0.22276594  0.33758654
   0.61052115  0.88930779  0.33766510
   0.77715612  0.72271740  0.33757728
Direct configuration=    30
   0.00480011  0.00225377  0.10291255
   0.36000041  0.00218069  0.10126255
   0.00487413  0.35743532  0.10122529
   0.64973156  0.64693108  0.10122847
   0.32854977  0.32579848  0.10152611
   0.68122902  0.00214154  0.10132726
   0.00485914  0.67853313  0.10152932
   0.11055171  0.38943245  0.33756961
   0.27721604  0.22276201  0.33769855
   0.11053134  0.88942594  0.33761394
   0.27721639  0.72274133  0.33751847
   0.61048013  0.38939794  0.33750721
   0.77714668  0.22269423  0.33759639
   0.61049670  0.88943316  0.33767543
   0.77716644  0.72271737  0.33758817
Direct configuration=    31
   0.00480261  0.00224827  0.10288329
   0.36001031  0.00217434  0.10126721
   0.00487803  0.35743143  0.10122981
   0.64973443  0.64692426  0.10123299
   0.32855663  0.32579451  0.10152761
   0.68123252  0.00213825  0.10132575
   0.00486452  0.67853198  0.10153070
   0.11055698  0.38944204  0.33757157
   0.27721887  0.22277714  0.33769968
   0.11051995  0.88942212  0.33761595
   0.27721050  0.72274000  0.33752064
   0.61046993  0.38940202  0.33750989
   0.77713306  0.22268445  0.33759774
   0.61049337  0.88945025  0.33767684
   0.77716785  0.72271737  0.33758965
Direct configuration=    32
   0.00481835  0.00220706  0.10270488
   0.36003442  0.00213324  0.10129633
   0.00489780  0.35737271  0.10127576
   0.64978459  0.64691802  0.10127357
   0.32860278  0.32576257  0.10151736
   0.68126668  0.00212869  0.10131710
   0.00490245  0.67851812  0.10152113
   0.11052152  0.38945643  0.33758476
   0.27718854  0.22281758  0.33770307
   0.11048760  0.88943579  0.33763114
   0.27717983  0.72276565  0.33753681
   0.61044699  0.38941713  0.33753232
   0.77710613  0.22271207  0.33760312
   0.61047367  0.88948280  0.33768343
   0.77713820  0.72275060  0.33759857
Direct configuration=    33
   0.00486560  0.00208342  0.10216966
   0.36010677  0.00200994  0.10138368
   0.00495714  0.35719653  0.10141361
   0.64993506  0.64689928  0.10139529
   0.32874123  0.32566676  0.10148660
   0.68136916  0.00210003  0.10129113
   0.00501622  0.67847653  0.10149242
   0.11041511  0.38949957  0.33762431
   0.27709752  0.22293888  0.33771323
   0.11039055  0.88947678  0.33767669
   0.27708784  0.72284260  0.33758531
   0.61037817  0.38946247  0.33759959
   0.77702533  0.22279492  0.33761928
   0.61041459  0.88958046  0.33770321
   0.77704926  0.72285029  0.33762533
Direct configuration=    34
   0.00496008  0.00183614  0.10109921
   0.36025147  0.00176335  0.10155837
   0.00507582  0.35684418  0.10168931
   0.65023600  0.64686180  0.10163874
   0.32901813  0.32547514  0.10142507
   0.68157412  0.00204270  0.10123919
   0.00524376  0.67839334  0.10143501
   0.11020231  0.38958585  0.33770343
   0.27691550  0.22318148  0.33773354
   0.11019647  0.88955877  0.33776779
   0.27690385  0.72299651  0.33768231
   0.61024052  0.38955314  0.33773414
   0.77686372  0.22296062  0.33765160
   0.61029641  0.88977576  0.33774276
   0.77687139  0.72304967  0.33767885
Direct configuration=    35
   0.00489679  0.00200179  0.10181627
   0.36015454  0.00192854  0.10144135
   0.00499632  0.35708021  0.10150463
   0.65003441  0.64688690  0.10147566
   0.32883264  0.32560350  0.10146628
   0.68143682  0.00208110  0.10127398
   0.00509133  0.67844906  0.10147347
   0.11034486  0.38952805  0.33765043
   0.27703743  0.22301897  0.33771993
   0.11032648  0.88950385  0.33770677
   0.27702710  0.72289341  0.33761733
   0.61033273  0.38949240  0.33764401
   0.77697198  0.22284962  0.33762995
   0.61037557  0.88964493  0.33771626
   0.77699054  0.72291611  0.33764300
Direct configuration=    36
   0.00494446  0.00197694  0.10162789
   0.36016405  0.00190072  0.10146639
   0.00503090  0.35705380  0.10155071
   0.65006827  0.64686024  0.10151522
   0.32887225  0.32556905  0.10145530
   0.68147959  0.00206083  0.10127493
   0.00513218  0.67838838  0.10146385
   0.11029615  0.38957093  0.33766096
   0.27698769  0.22296349  0.33772973
   0.11032885  0.88959575  0.33771973
   0.27700910  0.72293017  0.33763486
   0.61030721  0.38955102  0.33766101
   0.77697000  0.22291069  0.33763983
   0.61031721  0.88961757  0.33772264
   0.77694164  0.72292886  0.33765627
Direct configuration=    37
   0.00499337  0.00195146  0.10143466
   0.36017379  0.00187218  0.10149209
   0.00506637  0.35702671  0.10159798
   0.65010301  0.64683289  0.10155580
   0.32891288  0.32553372  0.10144404
   0.68152347  0.00204004  0.10127590
   0.00517408  0.67832614  0.10145398
   0.11024619  0.38961491  0.33767176
   0.27693667  0.22290658  0.33773977
   0.11033128  0.88969002  0.33773303
   0.27699063  0.72296787  0.33765284
   0.61028104  0.38961115  0.33767846
   0.77696797  0.22297333  0.33764996
   0.61025734  0.88958951  0.33772919
   0.77689147  0.72294194  0.33766989
Direct configuration=    38
   0.00503552  0.00195550  0.10136238
   0.36018064  0.00187603  0.10149387
   0.00509527  0.35704609  0.10160857
   0.65009825  0.64679984  0.10156387
   0.32891630  0.32552229  0.10144345
   0.68153974  0.00201415  0.10129053
   0.00518589  0.67827610  0.10145452
   0.11025330  0.38963332  0.33767211
   0.27693009  0.22292369  0.33775134
   0.11031146  0.88969247  0.33773428
   0.27697357  0.72298456  0.33765833
   0.61025721  0.38962533  0.33767587
   0.77694133  0.22297500  0.33765879
   0.61024076  0.88960016  0.33773250
   0.77689021  0.72295390  0.33767893
Direct configuration=    39
   0.00514732  0.00196624  0.10117072
   0.36019880  0.00188624  0.10149861
   0.00517190  0.35709749  0.10163665
   0.65008565  0.64671221  0.10158525
   0.32892538  0.32549199  0.10144189
   0.68158289  0.00194551  0.10132930
   0.00521721  0.67814340  0.10145595
   0.11027214  0.38968211  0.33767305
   0.27691266  0.22296906  0.33778199
   0.11025893  0.88969899  0.33773760
   0.27692833  0.72302883  0.33767290
   0.61019401  0.38966290  0.33766902
   0.77687069  0.22297944  0.33768219
   0.61019679  0.88962841  0.33774130
   0.77688685  0.72298562  0.33770292
Direct configuration=    40
   0.00517234  0.00194659  0.10108059
   0.36024935  0.00188291  0.10149485
   0.00521032  0.35708425  0.10164171
   0.65010340  0.64668062  0.10158804
   0.32892784  0.32548240  0.10144386
   0.68159194  0.00189478  0.10136116
   0.00522201  0.67814014  0.10145989
   0.11022135  0.38967713  0.33767515
   0.27688770  0.22300921  0.33779878
   0.11024008  0.88970601  0.33774026
   0.27691080  0.72303333  0.33767428
   0.61019440  0.38966049  0.33766235
   0.77686713  0.22300299  0.33769372
   0.61019782  0.88966789  0.33775147
   0.77685308  0.72300970  0.33771323
Direct configuration=    41
   0.00519953  0.00192525  0.10098265
   0.36030426  0.00187930  0.10149076
   0.00525205  0.35706986  0.10164721
   0.65012269  0.64664631  0.10159107
   0.32893051  0.32547197  0.10144600
   0.68160177  0.00183967  0.10139577
   0.00522723  0.67813660  0.10146416
   0.11016617  0.38967172  0.33767744
   0.27686059  0.22305284  0.33781701
   0.11021959  0.88971364  0.33774316
   0.27689176  0.72303822  0.33767578
   0.61019482  0.38965787  0.33765511
   0.77686326  0.22302857  0.33770624
   0.61019894  0.88971078  0.33776252
   0.77681638  0.72303585  0.33772443
Direct configuration=    42
   0.00519137  0.00188457  0.10091342
   0.36035846  0.00185881  0.10148912
   0.00527069  0.35702348  0.10164775
   0.65016406  0.64664221  0.10159150
   0.32894721  0.32546452  0.10144509
   0.68161052  0.00180433  0.10142525
   0.00523570  0.67816695  0.10146507
   0.11015885  0.38971120  0.33768543
   0.27684524  0.22302943  0.33782457
   0.11021233  0.88975996  0.33775055
   0.27688364  0.72305379  0.33767093
   0.61016808  0.38969670  0.33765525
   0.77684525  0.22304139  0.33771065
   0.61015929  0.88970792  0.33777785
   0.77679887  0.72303318  0.33772691
Direct configuration=    43
   0.00519019  0.00187869  0.10090342
   0.36036629  0.00185585  0.10148889
   0.00527338  0.35701677  0.10164782
   0.65017004  0.64664162  0.10159156
   0.32894962  0.32546345  0.10144496
   0.68161179  0.00179922  0.10142951
   0.00523693  0.67817133  0.10146520
   0.11015780  0.38971691  0.33768659
   0.27684302  0.22302605  0.33782566
   0.11021128  0.88976666  0.33775161
   0.27688246  0.72305604  0.33767023
   0.61016421  0.38970232  0.33765527
   0.77684265  0.22304324  0.33771129
   0.61015356  0.88970750  0.33778006
   0.77679634  0.72303279  0.33772727
Direct configuration=    44
   0.00518995  0.00185900  0.10087677
   0.36037096  0.00183674  0.10149264
   0.00527333  0.35699595  0.10164768
   0.65019174  0.64664407  0.10159303
   0.32897210  0.32545439  0.10143953
   0.68162792  0.00179834  0.10144066
   0.00525525  0.67816459  0.10146065
   0.11016956  0.38972393  0.33769442
   0.27683487  0.22304205  0.33782345
   0.11019545  0.88975990  0.33775810
   0.27686366  0.72308186  0.33766647
   0.61014394  0.38970919  0.33766111
   0.77681940  0.22305363  0.33771031
   0.61014164  0.88970176  0.33778990
   0.77679981  0.72305305  0.33772461
Direct configuration=    45
   0.00518984  0.00184977  0.10086428
   0.36037315  0.00182778  0.10149440
   0.00527331  0.35698619  0.10164762
   0.65020192  0.64664522  0.10159372
   0.32898263  0.32545014  0.10143698
   0.68163548  0.00179793  0.10144588
   0.00526384  0.67816144  0.10145853
   0.11017507  0.38972722  0.33769809
   0.27683105  0.22304955  0.33782241
   0.11018803  0.88975673  0.33776115
   0.27685485  0.72309396  0.33766471
   0.61013443  0.38971241  0.33766385
   0.77680850  0.22305850  0.33770984
   0.61013605  0.88969907  0.33779451
   0.77680143  0.72306255  0.33772336
Direct configuration=    46
   0.00520271  0.00183911  0.10084186
   0.36036680  0.00180779  0.10150106
   0.00527413  0.35697155  0.10164794
   0.65021652  0.64664039  0.10159644
   0.32900709  0.32543355  0.10142853
   0.68165713  0.00180434  0.10145345
   0.00529000  0.67813800  0.10145090
   0.11015349  0.38973544  0.33770500
   0.27681765  0.22306286  0.33781969
   0.11017444  0.88976794  0.33776626
   0.27684295  0.72309629  0.33766396
   0.61012753  0.38972196  0.33767051
   0.77680171  0.22306625  0.33771006
   0.61013031  0.88972143  0.33780199
   0.77678709  0.72307153  0.33772169
Direct configuration=    47
   0.00522358  0.00182182  0.10080552
   0.36035652  0.00177541  0.10151184
   0.00527546  0.35694784  0.10164846
   0.65024017  0.64663256  0.10160086
   0.32904674  0.32540667  0.10141484
   0.68169221  0.00181474  0.10146570
   0.00533240  0.67810003  0.10143854
   0.11011853  0.38974875  0.33771621
   0.27679594  0.22308443  0.33781527
   0.11015242  0.88978610  0.33777455
   0.27682367  0.72310008  0.33766274
   0.61011634  0.38973744  0.33768131
   0.77679070  0.22307881  0.33771042
   0.61012102  0.88975767  0.33781411
   0.77676385  0.72308609  0.33771899
Direct configuration=    48
   0.00524995  0.00181198  0.10077838
   0.36037071  0.00175194  0.10152151
   0.00529209  0.35692180  0.10164932
   0.65025757  0.64661295  0.10160501
   0.32906696  0.32537736  0.10140321
   0.68171375  0.00180951  0.10147096
   0.00535983  0.67808519  0.10142776
   0.11009535  0.38976861  0.33771852
   0.27677898  0.22309136  0.33781757
   0.11014515  0.88981553  0.33777464
   0.27681637  0.72311646  0.33767049
   0.61010026  0.38975423  0.33768520
   0.77677633  0.22310196  0.33771727
   0.61009227  0.88976423  0.33781566
   0.77673400  0.72309533  0.33772382
Direct configuration=    49
   0.00529215  0.00179623  0.10073493
   0.36039341  0.00171437  0.10153699
   0.00531870  0.35688011  0.10165069
   0.65028542  0.64658156  0.10161167
   0.32909933  0.32533046  0.10138459
   0.68174824  0.00180113  0.10147938
   0.00540375  0.67806144  0.10141050
   0.11005825  0.38980038  0.33772222
   0.27675183  0.22310247  0.33782127
   0.11013350  0.88986265  0.33777480
   0.27680467  0.72314267  0.33768291
   0.61007451  0.38978109  0.33769143
   0.77675334  0.22313903  0.33772824
   0.61004624  0.88977473  0.33781815
   0.77668622  0.72311012  0.33773157
Direct configuration=    50
   0.00530567  0.00178566  0.10071860
   0.36041012  0.00170123  0.10154176
   0.00533342  0.35686633  0.10165095
   0.65029849  0.64656822  0.10161362
   0.32911119  0.32531608  0.10137875
   0.68176064  0.00178939  0.10148147
   0.00541555  0.67805433  0.10140505
   0.11005270  0.38980929  0.33772260
   0.27674032  0.22311780  0.33782395
   0.11011712  0.88986519  0.33777412
   0.27678757  0.72315612  0.33768870
   0.61006031  0.38979075  0.33769289