   8   8   0   0
  0.4338553E+02  0.5169000E-09  0.5169000E-09  0.1500000E-08  0.5000000E-15
  1.000000000000000E-004
  CAR 
 BC3                                     
      9.52930460    -21.28554530  301     -3.47846102      1.00000000
    -21.286  0.0000E+00  0.0000E+00
    -21.183  0.0000E+00  0.0000E+00
    -21.080  0.0000E+00  0.0000E+00
    -20.977  0.0000E+00  0.0000E+00
    -20.875  0.0000E+00  0.0000E+00
    -20.772  0.0000E+00  0.0000E+00
    -20.669  0.0000E+00  0.0000E+00
    -20.567  0.0000E+00  0.0000E+00
    -20.464  0.1961E-18  0.2014E-19
    -20.361  0.1488E-13  0.1528E-14
    -20.258  0.1444E-09  0.1483E-10
    -20.156  0.1913E-06  0.1967E-07
    -20.053  0.3712E-04  0.3832E-05
    -19.950  0.1199E-02  0.1270E-03
    -19.848  0.8107E-02  0.9597E-03
    -19.745  0.1714E-01  0.2720E-02
    -19.642  0.2080E-01  0.4856E-02
    -19.539  0.2343E-01  0.7263E-02
    -19.437  0.2879E-01  0.1022E-01
    -19.334  0.3994E-01  0.1432E-01
    -19.231  0.3925E-01  0.1835E-01
    -19.129  0.1456E-01  0.1985E-01
    -19.026  0.1436E-02  0.2000E-01
    -18.923  0.2905E-04  0.2000E-01
    -18.820  0.9789E-07  0.2000E-01
    -18.718  0.4826E-10  0.2000E-01
    -18.615  0.3241E-14  0.2000E-01
    -18.512  0.0000E+00  0.2000E-01
    -18.409  0.0000E+00  0.2000E-01
    -18.307  0.0000E+00  0.2000E-01
    -18.204  0.0000E+00  0.2000E-01
    -18.101  0.8368E-14  0.2000E-01
    -17.999  0.9819E-10  0.2000E-01
    -17.896  0.1558E-06  0.2000E-01
    -17.793  0.3591E-04  0.2000E-01
    -17.690  0.1360E-02  0.2014E-01
    -17.588  0.1059E-01  0.2123E-01
    -17.485  0.2528E-01  0.2383E-01
    -17.382  0.3226E-01  0.2714E-01
    -17.280  0.2729E-01  0.2994E-01
    -17.177  0.1971E-01  0.3197E-01
    -17.074  0.1844E-01  0.3386E-01
    -16.971  0.1914E-01  0.3583E-01
    -16.869  0.2007E-01  0.3789E-01
    -16.766  0.2150E-01  0.4010E-01
    -16.663  0.2359E-01  0.4252E-01
    -16.561  0.2781E-01  0.4538E-01
    -16.458  0.3438E-01  0.4891E-01
    -16.355  0.3400E-01  0.5240E-01
    -16.252  0.2596E-01  0.5507E-01
    -16.150  0.2054E-01  0.5718E-01
    -16.047  0.1645E-01  0.5887E-01
    -15.944  0.9081E-02  0.5980E-01
    -15.842  0.1857E-02  0.5999E-01
    -15.739  0.8732E-04  0.6000E-01
    -15.636  0.7263E-06  0.6000E-01
    -15.533  0.9258E-09  0.6000E-01
    -15.431  0.1661E-12  0.6000E-01
    -15.328  0.3971E-17  0.6000E-01
    -15.225  0.0000E+00  0.6000E-01
    -15.123  0.0000E+00  0.6000E-01
    -15.020  0.0000E+00  0.6000E-01
    -14.917  0.0000E+00  0.6000E-01
    -14.814  0.0000E+00  0.6000E-01
    -14.712  0.1340E-15  0.6000E-01
    -14.609  0.3104E-11  0.6000E-01
    -14.506  0.9575E-08  0.6000E-01
    -14.404  0.4220E-05  0.6000E-01
    -14.301  0.3004E-03  0.6003E-01
    -14.198  0.4139E-02  0.6046E-01
    -14.095  0.1425E-01  0.6192E-01
    -13.993  0.2109E-01  0.6409E-01
    -13.890  0.2427E-01  0.6658E-01
    -13.787  0.2980E-01  0.6964E-01
    -13.685  0.3596E-01  0.7333E-01
    -13.582  0.2630E-01  0.7604E-01
    -13.479  0.2000E-01  0.7809E-01
    -13.376  0.1407E-01  0.7953E-01
    -13.274  0.1552E-01  0.8113E-01
    -13.171  0.1336E-01  0.8250E-01
    -13.068  0.1334E-01  0.8387E-01
    -12.966  0.1295E-01  0.8520E-01
    -12.863  0.1229E-01  0.8646E-01
    -12.760  0.1527E-01  0.8803E-01
    -12.657  0.1720E-01  0.8980E-01
    -12.555  0.2162E-01  0.9202E-01
    -12.452  0.1741E-01  0.9381E-01
    -12.349  0.1822E-01  0.9568E-01
    -12.247  0.1599E-01  0.9732E-01
    -12.144  0.1490E-01  0.9885E-01
    -12.041  0.1427E-01  0.1003E+00
    -11.938  0.1370E-01  0.1017E+00
    -11.836  0.9047E-02  0.1027E+00
    -11.733  0.6516E-02  0.1033E+00
    -11.630  0.5198E-02  0.1039E+00
    -11.528  0.2959E-02  0.1042E+00
    -11.425  0.5328E-02  0.1047E+00
    -11.322  0.6544E-02  0.1054E+00
    -11.219  0.4403E-02  0.1058E+00
    -11.117  0.7034E-02  0.1066E+00
    -11.014  0.1142E-01  0.1077E+00
    -10.911  0.9124E-02  0.1087E+00
    -10.808  0.1064E-01  0.1098E+00
    -10.706  0.1665E-01  0.1115E+00
    -10.603  0.1932E-01  0.1135E+00
    -10.500  0.1417E-01  0.1149E+00
    -10.398  0.1907E-01  0.1169E+00
    -10.295  0.2545E-01  0.1195E+00
    -10.192  0.2112E-01  0.1217E+00
    -10.089  0.1608E-01  0.1233E+00
     -9.987  0.1391E-01  0.1247E+00
     -9.884  0.1603E-01  0.1264E+00
     -9.781  0.2728E-01  0.1292E+00
     -9.679  0.2709E-01  0.1320E+00
     -9.576  0.2024E-01  0.1340E+00
     -9.473  0.2187E-01  0.1363E+00
     -9.370  0.1947E-01  0.1383E+00
     -9.268  0.1866E-01  0.1402E+00
     -9.165  0.1782E-01  0.1420E+00
     -9.062  0.2259E-01  0.1444E+00
     -8.960  0.2626E-01  0.1471E+00
     -8.857  0.2482E-01  0.1496E+00
     -8.754  0.2324E-01  0.1520E+00
     -8.651  0.2920E-01  0.1550E+00
     -8.549  0.2896E-01  0.1580E+00
     -8.446  0.2776E-01  0.1608E+00
     -8.343  0.2365E-01  0.1632E+00
     -8.241  0.2066E-01  0.1654E+00
     -8.138  0.1999E-01  0.1674E+00
     -8.035  0.2438E-01  0.1699E+00
     -7.932  0.3226E-01  0.1732E+00
     -7.830  0.3918E-01  0.1773E+00
     -7.727  0.4441E-01  0.1818E+00
     -7.624  0.4388E-01  0.1863E+00
     -7.522  0.3806E-01  0.1902E+00
     -7.419  0.2645E-01  0.1930E+00
     -7.316  0.1732E-01  0.1947E+00
     -7.213  0.1956E-01  0.1967E+00
     -7.111  0.2182E-01  0.1990E+00
     -7.008  0.1618E-01  0.2006E+00
     -6.905  0.1762E-01  0.2025E+00
     -6.803  0.1522E-01  0.2040E+00
     -6.700  0.1876E-01  0.2059E+00
     -6.597  0.2741E-01  0.2088E+00
     -6.494  0.4125E-01  0.2130E+00
     -6.392  0.6879E-01  0.2201E+00
     -6.289  0.7905E-01  0.2282E+00
     -6.186  0.5808E-01  0.2342E+00
     -6.084  0.3962E-01  0.2382E+00
     -5.981  0.2670E-01  0.2410E+00
     -5.878  0.2357E-01  0.2434E+00
     -5.775  0.2329E-01  0.2458E+00
     -5.673  0.2533E-01  0.2484E+00
     -5.570  0.2313E-01  0.2508E+00
     -5.467  0.2938E-01  0.2538E+00
     -5.365  0.2555E-01  0.2564E+00
     -5.262  0.3014E-01  0.2595E+00
     -5.159  0.3382E-01  0.2630E+00
     -5.056  0.3556E-01  0.2666E+00
     -4.954  0.4247E-01  0.2710E+00
     -4.851  0.4358E-01  0.2755E+00
     -4.748  0.4734E-01  0.2803E+00
     -4.646  0.4554E-01  0.2850E+00
     -4.543  0.4065E-01  0.2892E+00
     -4.440  0.2696E-01  0.2919E+00
     -4.337  0.1671E-01  0.2937E+00
     -4.235  0.1249E-01  0.2949E+00
     -4.132  0.1201E-01  0.2962E+00
     -4.029  0.1175E-01  0.2974E+00
     -3.927  0.1110E-01  0.2985E+00
     -3.824  0.9455E-02  0.2995E+00
     -3.721  0.4318E-02  0.2999E+00
     -3.618  0.5964E-03  0.3000E+00
     -3.516  0.1687E-04  0.3000E+00
     -3.413  0.5118E-06  0.3000E+00
     -3.310  0.5474E-04  0.3000E+00
     -3.208  0.1242E-02  0.3001E+00
     -3.105  0.7032E-02  0.3009E+00
     -3.002  0.1350E-01  0.3022E+00
     -2.899  0.1524E-01  0.3038E+00
     -2.797  0.2007E-01  0.3059E+00
     -2.694  0.2111E-01  0.3080E+00
     -2.591  0.2816E-01  0.3109E+00
     -2.488  0.2312E-01  0.3133E+00
     -2.386  0.1420E-01  0.3148E+00
     -2.283  0.1406E-01  0.3162E+00
     -2.180  0.9980E-02  0.3172E+00
     -2.078  0.7352E-02  0.3180E+00
     -1.975  0.7193E-02  0.3187E+00
     -1.872  0.4646E-02  0.3192E+00
     -1.769  0.2159E-02  0.3194E+00
     -1.667  0.2837E-02  0.3197E+00
     -1.564  0.1688E-02  0.3199E+00
     -1.461  0.3471E-03  0.3199E+00
     -1.359  0.8337E-03  0.3200E+00
     -1.256  0.6745E-03  0.3201E+00
     -1.153  0.4671E-03  0.3201E+00
     -1.050  0.2279E-02  0.3204E+00
     -0.948  0.2625E-02  0.3206E+00
     -0.845  0.2398E-02  0.3209E+00
     -0.742  0.4689E-02  0.3214E+00
     -0.640  0.5604E-02  0.3219E+00
     -0.537  0.4503E-02  0.3224E+00
     -0.434  0.8259E-02  0.3232E+00
     -0.331  0.1109E-01  0.3244E+00
     -0.229  0.1254E-01  0.3257E+00
     -0.126  0.2931E-01  0.3287E+00
     -0.023  0.3056E-01  0.3318E+00
      0.079  0.1926E-01  0.3338E+00
      0.182  0.1817E-01  0.3357E+00
      0.285  0.1541E-01  0.3373E+00
      0.388  0.1223E-01  0.3385E+00
      0.490  0.1531E-01  0.3401E+00
      0.593  0.1498E-01  0.3416E+00
      0.696  0.1332E-01  0.3430E+00
      0.798  0.1168E-01  0.3442E+00
      0.901  0.1402E-01  0.3456E+00
      1.004  0.1680E-01  0.3474E+00
      1.107  0.1992E-01  0.3494E+00
      1.209  0.1840E-01  0.3513E+00
      1.312  0.2099E-01  0.3534E+00
      1.415  0.2070E-01  0.3556E+00
      1.517  0.2270E-01  0.3579E+00
      1.620  0.2392E-01  0.3604E+00
      1.723  0.2438E-01  0.3629E+00
      1.826  0.2486E-01  0.3654E+00
      1.928  0.2567E-01  0.3681E+00
      2.031  0.3008E-01  0.3711E+00
      2.134  0.3286E-01  0.3745E+00
      2.236  0.3093E-01  0.3777E+00
      2.339  0.3325E-01  0.3811E+00
      2.442  0.4174E-01  0.3854E+00
      2.545  0.3954E-01  0.3895E+00
      2.647  0.3696E-01  0.3933E+00
      2.750  0.3792E-01  0.3972E+00
      2.853  0.3885E-01  0.4011E+00
      2.955  0.3972E-01  0.4052E+00
      3.058  0.3682E-01  0.4090E+00
      3.161  0.3844E-01  0.4130E+00
      3.264  0.3622E-01  0.4167E+00
      3.366  0.4060E-01  0.4208E+00
      3.469  0.3828E-01  0.4248E+00
      3.572  0.3446E-01  0.4283E+00
      3.674  0.4015E-01  0.4324E+00
      3.777  0.3875E-01  0.4364E+00
      3.880  0.3747E-01  0.4403E+00
      3.983  0.4070E-01  0.4445E+00
      4.085  0.3889E-01  0.4484E+00
      4.188  0.3408E-01  0.4519E+00
      4.291  0.3145E-01  0.4552E+00
      4.393  0.4284E-01  0.4596E+00
      4.496  0.5033E-01  0.4647E+00
      4.599  0.4769E-01  0.4696E+00
      4.702  0.4854E-01  0.4746E+00
      4.804  0.4782E-01  0.4795E+00
      4.907  0.5618E-01  0.4853E+00
      5.010  0.5789E-01  0.4913E+00
      5.113  0.6304E-01  0.4977E+00
      5.215  0.6535E-01  0.5044E+00
      5.318  0.7028E-01  0.5117E+00
      5.421  0.7320E-01  0.5192E+00
      5.523  0.8472E-01  0.5279E+00
      5.626  0.7753E-01  0.5359E+00
      5.729  0.5468E-01  0.5415E+00
      5.832  0.6383E-01  0.5480E+00
      5.934  0.8524E-01  0.5568E+00
      6.037  0.8067E-01  0.5651E+00
      6.140  0.6839E-01  0.5721E+00
      6.242  0.6254E-01  0.5785E+00
      6.345  0.7598E-01  0.5863E+00
      6.448  0.7926E-01  0.5945E+00
      6.551  0.7019E-01  0.6017E+00
      6.653  0.5994E-01  0.6078E+00
      6.756  0.6143E-01  0.6141E+00
      6.859  0.6947E-01  0.6213E+00
      6.961  0.6255E-01  0.6277E+00
      7.064  0.4495E-01  0.6323E+00
      7.167  0.2569E-01  0.6350E+00
      7.270  0.1249E-01  0.6362E+00
      7.372  0.9756E-02  0.6372E+00
      7.475  0.9327E-02  0.6382E+00
      7.578  0.6142E-02  0.6388E+00
      7.680  0.2203E-02  0.6391E+00
      7.783  0.2122E-02  0.6393E+00
      7.886  0.3052E-02  0.6396E+00
      7.989  0.2104E-02  0.6398E+00
      8.091  0.1383E-02  0.6399E+00
      8.194  0.4729E-03  0.6400E+00
      8.297  0.8596E-04  0.6400E+00
      8.399  0.3934E-05  0.6400E+00
      8.502  0.2846E-07  0.6400E+00
      8.605  0.2820E-10  0.6400E+00
      8.708  0.3622E-14  0.6400E+00
      8.810  0.4902E-19  0.6400E+00
      8.913  0.0000E+00  0.6400E+00
      9.016  0.0000E+00  0.6400E+00
      9.118  0.0000E+00  0.6400E+00
      9.221  0.0000E+00  0.6400E+00
      9.324  0.0000E+00  0.6400E+00
      9.427  0.0000E+00  0.6400E+00
      9.529  0.0000E+00  0.6400E+00
