Lattice                                 
           1
     4.191563    2.420000    0.000000
    -4.191563    2.420000    0.000000
     0.000000    0.000000   15.000000
   B    C 
     4    11
Direct configuration=     1
   0.00415361  0.00267210  0.12034134
   0.35695335  0.00285503  0.09748893
   0.00423858  0.35550699  0.09749256
   0.65142295  0.65006557  0.09747688
   0.32808646  0.32671938  0.10030508
   0.68027775  0.00278085  0.10027562
   0.00416530  0.67883808  0.10026559
   0.08333267  0.41666633  0.33646667
   0.24999967  0.24999933  0.33646667
   0.08333267  0.91666633  0.33646667
   0.24999967  0.74999933  0.33646667
   0.58333267  0.41666633  0.33646667
   0.74999967  0.24999933  0.33646667
   0.58333267  0.91666633  0.33646667
   0.74999967  0.74999933  0.33646667
Direct configuration=     2
   0.00414324  0.00267210  0.11916067
   0.35573409  0.00282913  0.09780431
   0.00413867  0.35449220  0.09786529
   0.65256115  0.65104407  0.09783614
   0.32489900  0.32329902  0.10029980
   0.68384165  0.00285624  0.10032450
   0.00417283  0.68207087  0.10027608
   0.08331748  0.41677927  0.33646285
   0.25017813  0.25026458  0.33655929
   0.08349789  0.91679441  0.33645083
   0.25029783  0.74995646  0.33643599
   0.58328442  0.41664526  0.33642129
   0.74993303  0.25000213  0.33646115
   0.58309135  0.91661677  0.33653630
   0.74953658  0.74977816  0.33648484
Direct configuration=     3
   0.00414858  0.00267210  0.11976908
   0.35636239  0.00284248  0.09764179
   0.00419015  0.35501513  0.09767322
   0.65197462  0.65053984  0.09765101
   0.32654154  0.32506157  0.10030252
   0.68200513  0.00281739  0.10029931
   0.00416895  0.68040497  0.10027067
   0.08332531  0.41672107  0.33646481
   0.25008617  0.25012789  0.33651156
   0.08341275  0.91672841  0.33645899
   0.25014418  0.74997855  0.33645180
   0.58330928  0.41665612  0.33644467
   0.74996737  0.25000069  0.33646399
   0.58321570  0.91664231  0.33650042
   0.74977521  0.74989213  0.33647548
Direct configuration=     4
   0.00414890  0.00269784  0.11873668
   0.35682960  0.00280738  0.09793629
   0.00415765  0.35545022  0.09802517
   0.65160766  0.65000175  0.09798860
   0.32668218  0.32503206  0.10026679
   0.68199944  0.00285331  0.10031497
   0.00418198  0.68031410  0.10024987
   0.08328512  0.41665734  0.33646733
   0.24988865  0.24998675  0.33658531
   0.08321692  0.91664328  0.33645610
   0.24983748  0.75006155  0.33642685
   0.58331756  0.41667883  0.33641528
   0.74996873  0.25002926  0.33645845
   0.58339962  0.91675241  0.33656115
   0.75010586  0.75013458  0.33649048
Direct configuration=     5
   0.00414970  0.00276336  0.11610894
   0.35801876  0.00271805  0.09868588
   0.00407492  0.35655763  0.09892097
   0.65067365  0.64863216  0.09884786
   0.32704015  0.32495694  0.10017584
   0.68198495  0.00294473  0.10035482
   0.00421515  0.68008279  0.10019692
   0.08318285  0.41649514  0.33647373
   0.24938593  0.24962752  0.33677303
   0.08271847  0.91642660  0.33644874
   0.24905683  0.75027280  0.33636335
   0.58333862  0.41673664  0.33634047
   0.74997218  0.25010197  0.33644435
   0.58386773  0.91703265  0.33671575
   0.75094744  0.75075169  0.33652867
Direct configuration=     6
   0.00415334  0.00276759  0.11581428
   0.35812945  0.00270763  0.09875748
   0.00407727  0.35665105  0.09900573
   0.65059155  0.64851189  0.09892928
   0.32711221  0.32499716  0.10018070
   0.68193417  0.00294189  0.10037214
   0.00422192  0.68002128  0.10020555
   0.08318260  0.41654469  0.33647556
   0.24944492  0.24968395  0.33678640
   0.08278122  0.91649483  0.33645090
   0.24916468  0.75025878  0.33636014
   0.58331187  0.41675422  0.33633768
   0.74995942  0.25010646  0.33644390
   0.58376598  0.91699769  0.33672753
   0.75079673  0.75066153  0.33653206
Direct configuration=     7
   0.00416429  0.00278028  0.11493028
   0.35846152  0.00267640  0.09897227
   0.00408432  0.35693131  0.09926001
   0.65034527  0.64815108  0.09917355
   0.32732840  0.32511783  0.10019529
   0.68178184  0.00293337  0.10042409
   0.00424221  0.67983676  0.10023142
   0.08318187  0.41669337  0.33648107
   0.24962186  0.24985327  0.33682649
   0.08296946  0.91669954  0.33645738
   0.24948821  0.75021674  0.33635052
   0.58323160  0.41680695  0.33632931
   0.74992114  0.25011993  0.33644254
   0.58346075  0.91689280  0.33676288
   0.75034459  0.75039105  0.33654223
Direct configuration=     8
   0.00418617  0.00280566  0.11316229
   0.35912566  0.00261392  0.09940187
   0.00409841  0.35749183  0.09976856
   0.64985270  0.64742947  0.09966207
   0.32776078  0.32535916  0.10022446
   0.68147717  0.00291633  0.10052800
   0.00428280  0.67946770  0.10028316
   0.08318039  0.41699073  0.33649207
   0.24997575  0.25019190  0.33690667
   0.08334594  0.91710895  0.33647035
   0.25013529  0.75013264  0.33633127
   0.58307108  0.41691240  0.33631257
   0.74984457  0.25014686  0.33643982
   0.58285029  0.91668303  0.33683358
   0.74944032  0.74985009  0.33656258
Direct configuration=     9
   0.00420488  0.00279284  0.11270715
   0.35912323  0.00259728  0.09946812
   0.00413730  0.35745810  0.09984098
   0.64988189  0.64744322  0.09973273
   0.32782288  0.32542737  0.10028859
   0.68140817  0.00286942  0.10060133
   0.00430480  0.67940413  0.10035024
   0.08317441  0.41696889  0.33649830
   0.24997360  0.25029687  0.33689883
   0.08332635  0.91704460  0.33648301
   0.25011195  0.75015564  0.33634213
   0.58307561  0.41685929  0.33632841
   0.74979667  0.25016312  0.33644443
   0.58287550  0.91671251  0.33682972
   0.74941008  0.74990737  0.33656538
Direct configuration=    10
   0.00426102  0.00275439  0.11134173
   0.35911595  0.00254737  0.09966686
   0.00425398  0.35735692  0.10005821
   0.64996948  0.64748447  0.09994470
   0.32800917  0.32563200  0.10048099
   0.68120118  0.00272869  0.10082130
   0.00437081  0.67921342  0.10055147
   0.08315646  0.41690336  0.33651700
   0.24996715  0.25061179  0.33687529
   0.08326756  0.91685158  0.33652098
   0.25004191  0.75022465  0.33637471
   0.58308919  0.41669995  0.33637592
   0.74965298  0.25021190  0.33645824
   0.58295113  0.91680097  0.33681813
   0.74931935  0.75007922  0.33657380
Direct configuration=    11
   0.00437331  0.00267748  0.10861089
   0.35910137  0.00244755  0.10006434
   0.00448734  0.35715456  0.10049269
   0.65014466  0.64756696  0.10036863
   0.32838176  0.32604127  0.10086580
   0.68078719  0.00244722  0.10126125
   0.00450283  0.67883200  0.10095392
   0.08312057  0.41677230  0.33655438
   0.24995426  0.25124163  0.33682823
   0.08315000  0.91646553  0.33659693
   0.24990184  0.75036267  0.33643989
   0.58311634  0.41638127  0.33647093
   0.74936558  0.25030944  0.33648588
   0.58310238  0.91697788  0.33679495
   0.74913790  0.75042291  0.33659062
Direct configuration=    12
   0.00439797  0.00265359  0.10809857
   0.35909660  0.00243001  0.10013779
   0.00453103  0.35712615  0.10056624
   0.65016864  0.64758686  0.10044215
   0.32842536  0.32609255  0.10094462
   0.68074614  0.00239711  0.10134508
   0.00452902  0.67877323  0.10103478
   0.08307167  0.41681668  0.33656074
   0.24989434  0.25109280  0.33681487
   0.08309766  0.91655428  0.33661146
   0.24984716  0.75034895  0.33645770
   0.58309159  0.41648872  0.33649157
   0.74940730  0.25029803  0.33649437
   0.58309213  0.91702438  0.33678442
   0.74923071  0.75041734  0.33659497
Direct configuration=    13
   0.00447196  0.00258190  0.10656161
   0.35908230  0.00237737  0.10035814
   0.00466212  0.35704091  0.10078691
   0.65024059  0.64764656  0.10066272
   0.32855617  0.32624640  0.10118108
   0.68062299  0.00224677  0.10159656
   0.00460758  0.67859694  0.10127736
   0.08292495  0.41694981  0.33657982
   0.24971461  0.25064629  0.33677480
   0.08294065  0.91682052  0.33665504
   0.24968311  0.75030780  0.33651114
   0.58301732  0.41681107  0.33655349
   0.74953246  0.25026380  0.33651982
   0.58306137  0.91716388  0.33675283
   0.74950914  0.75040063  0.33660803
Direct configuration=    14
   0.00450683  0.00254812  0.10583728
   0.35907555  0.00235256  0.10046198
   0.00472390  0.35700074  0.10089091
   0.65027450  0.64767470  0.10076667
   0.32861782  0.32631891  0.10129251
   0.68056495  0.00217592  0.10171507
   0.00464460  0.67851386  0.10139168
   0.08285581  0.41701255  0.33658881
   0.24962990  0.25043586  0.33675591
   0.08286666  0.91694600  0.33667558
   0.24960580  0.75028841  0.33653632
   0.58298232  0.41696299  0.33658267
   0.74959144  0.25024767  0.33653182
   0.58304688  0.91722962  0.33673794
   0.74964036  0.75039275  0.33661418
Direct configuration=    15
   0.00451276  0.00253087  0.10577156
   0.35913283  0.00235329  0.10048978
   0.00471396  0.35706360  0.10090603
   0.65020961  0.64762212  0.10078553
   0.32857271  0.32625288  0.10129426
   0.68064719  0.00219686  0.10170654
   0.00464493  0.67854136  0.10139149
   0.08289108  0.41702089  0.33658755
   0.24961541  0.25038507  0.33675489
   0.08291755  0.91701323  0.33667376
   0.24963132  0.75033079  0.33654523
   0.58295763  0.41699977  0.33658395
   0.74960059  0.25030165  0.33653867
   0.58297645  0.91712409  0.33673136
   0.74960332  0.75036420  0.33661873
Direct configuration=    16
   0.00452868  0.00248460  0.10559524
   0.35928650  0.00235525  0.10056435
   0.00468729  0.35723224  0.10094661
   0.65003551  0.64748108  0.10083613
   0.32845170  0.32607572  0.10129896
   0.68086782  0.00225304  0.10168363
   0.00464582  0.67861514  0.10139098
   0.08298571  0.41704327  0.33658418
   0.24957651  0.25024879  0.33675216
   0.08305409  0.91719361  0.33666885
   0.24969978  0.75044449  0.33656915
   0.58289136  0.41709845  0.33658738
   0.74962514  0.25044647  0.33655705
   0.58278748  0.91684094  0.33671372
   0.74950393  0.75028759  0.33663095
Direct configuration=    17
   0.00453714  0.00245690  0.10553352
   0.35940243  0.00235751  0.10061145
   0.00466520  0.35732433  0.10096689
   0.64991947  0.64738283  0.10086416
   0.32839990  0.32598513  0.10129168
   0.68097620  0.00229695  0.10165268
   0.00464268  0.67865678  0.10137915
   0.08298564  0.41704675  0.33658304
   0.24959044  0.25030959  0.33675135
   0.08302056  0.91714732  0.33666485
   0.24967535  0.75043383  0.33658172
   0.58288412  0.41707066  0.33658839
   0.74959600  0.25042211  0.33656743
   0.58281799  0.91689425  0.33670563
   0.74951420  0.75031572  0.33663740
