<?xml version="1.0" encoding="ISO-8859-1"?>
<modeling>
 <generator>
  <i name="program" type="string">vasp </i>
  <i name="version" type="string">6.3.2  </i>
  <i name="subversion" type="string">27Jun22 (build Dec 22 2022 13:13:19) complex                          parallel </i>
  <i name="platform" type="string">LinuxIFC </i>
  <i name="date" type="string">2023 08 23 </i>
  <i name="time" type="string">05:24:19 </i>
 </generator>
 <incar>
  <i type="string" name="SYSTEM">Lattice</i>
  <i type="int" name="ISTART">     0</i>
  <i type="string" name="PREC">Accurate</i>
  <i type="string" name="ALGO">Normal</i>
  <i type="int" name="ISPIN">     2</i>
  <i type="int" name="ICHARG">     2</i>
  <i type="int" name="NELM">    64</i>
  <i type="int" name="IBRION">     2</i>
  <i name="EDIFF">      0.00000100</i>
  <i name="EDIFFG">     -0.00100000</i>
  <i type="int" name="NSW">   128</i>
  <i type="int" name="ISIF">     2</i>
  <i name="ENCUT">    450.00000000</i>
  <i name="POTIM">      0.50000000</i>
  <i type="int" name="ISMEAR">     0</i>
  <i name="SIGMA">      0.10000000</i>
  <i type="logical" name="LWAVE"> F  </i>
  <i type="logical" name="LCHARG"> F  </i>
  <i type="string" name="GGA">PE</i>
  <i type="int" name="IVDW">    12</i>
 </incar>
 <primitive_cell>
  <structure name="primitive_cell" >
   <crystal>
    <varray name="basis" >
     <v>       4.20715141       2.42900000       0.00000000 </v>
     <v>      -4.20715141       2.42900000       0.00000000 </v>
     <v>       0.00000000       0.00000000      15.00000000 </v>
    </varray>
    <i name="volume">    306.57512336 </i>
    <varray name="rec_basis" >
     <v>       0.11884526       0.20584603       0.00000000 </v>
     <v>      -0.11884526       0.20584603       0.00000000 </v>
     <v>       0.00000000       0.00000000       0.06666667 </v>
    </varray>
   </crystal>
   <varray name="positions" >
    <v>       0.00415361       0.00267210       0.12034134 </v>
    <v>       0.35695335       0.00285503       0.09748893 </v>
    <v>       0.00423858       0.35550699       0.09749256 </v>
    <v>       0.65142295       0.65006557       0.09747688 </v>
    <v>       0.32808646       0.32671938       0.10030508 </v>
    <v>       0.68027775       0.00278085       0.10027562 </v>
    <v>       0.00416530       0.67883808       0.10026559 </v>
    <v>       0.08333267       0.41666633       0.33646667 </v>
    <v>       0.24999967       0.24999933       0.33646667 </v>
    <v>       0.08333267       0.91666633       0.33646667 </v>
    <v>       0.24999967       0.74999933       0.33646667 </v>
    <v>       0.58333267       0.41666633       0.33646667 </v>
    <v>       0.74999967       0.24999933       0.33646667 </v>
    <v>       0.58333267       0.91666633       0.33646667 </v>
    <v>       0.74999967       0.74999933       0.33646667 </v>
   </varray>
  </structure>
  <varray name="primitive_index" >
   <v type="int" >        1 </v>
   <v type="int" >        2 </v>
   <v type="int" >        3 </v>
   <v type="int" >        4 </v>
   <v type="int" >        5 </v>
   <v type="int" >        6 </v>
   <v type="int" >        7 </v>
   <v type="int" >        8 </v>
   <v type="int" >        9 </v>
   <v type="int" >       10 </v>
   <v type="int" >       11 </v>
   <v type="int" >       12 </v>
   <v type="int" >       13 </v>
   <v type="int" >       14 </v>
   <v type="int" >       15 </v>
  </varray>
 </primitive_cell>
 <kpoints>
  <generation param="Gamma">
   <v type="int" name="divisions">      12       12        1 </v>
   <v name="usershift">      0.00000000       0.00000000       0.00000000 </v>
   <v name="genvec1">      0.08333333       0.00000000       0.00000000 </v>
   <v name="genvec2">      0.00000000       0.08333333       0.00000000 </v>
   <v name="genvec3">      0.00000000       0.00000000       1.00000000 </v>
   <v name="shift">      0.00000000       0.00000000       0.00000000 </v>
  </generation>
  <varray name="kpointlist" >
   <v>       0.00000000       0.00000000       0.00000000 </v>
   <v>       0.08333333      -0.00000000       0.00000000 </v>
   <v>       0.00000000       0.08333333       0.00000000 </v>
   <v>      -0.08333333       0.08333333       0.00000000 </v>
   <v>       0.16666667      -0.00000000       0.00000000 </v>
   <v>       0.00000000       0.16666667       0.00000000 </v>
   <v>      -0.16666667       0.16666667       0.00000000 </v>
   <v>       0.25000000      -0.00000000       0.00000000 </v>
   <v>      -0.00000000       0.25000000       0.00000000 </v>
   <v>      -0.25000000       0.25000000       0.00000000 </v>
   <v>       0.33333333      -0.00000000       0.00000000 </v>
   <v>      -0.00000000       0.33333333       0.00000000 </v>
   <v>      -0.33333333       0.33333333       0.00000000 </v>
   <v>       0.41666667      -0.00000000       0.00000000 </v>
   <v>      -0.00000000       0.41666667       0.00000000 </v>
   <v>      -0.41666667       0.41666667       0.00000000 </v>
   <v>       0.50000000      -0.00000000       0.00000000 </v>
   <v>      -0.00000000       0.50000000       0.00000000 </v>
   <v>       0.50000000       0.50000000       0.00000000 </v>
   <v>       0.08333333       0.08333333       0.00000000 </v>
   <v>      -0.08333333       0.16666667       0.00000000 </v>
   <v>      -0.16666667       0.08333333       0.00000000 </v>
   <v>       0.16666667       0.08333333       0.00000000 </v>
   <v>      -0.08333333       0.25000000       0.00000000 </v>
   <v>      -0.25000000       0.16666667       0.00000000 </v>
   <v>      -0.16666667       0.25000000       0.00000000 </v>
   <v>       0.08333333       0.16666667       0.00000000 </v>
   <v>       0.25000000      -0.08333333       0.00000000 </v>
   <v>       0.25000000       0.08333333       0.00000000 </v>
   <v>      -0.08333333       0.33333333       0.00000000 </v>
   <v>      -0.33333333       0.25000000       0.00000000 </v>
   <v>      -0.25000000       0.33333333       0.00000000 </v>
   <v>       0.08333333       0.25000000       0.00000000 </v>
   <v>       0.33333333      -0.08333333       0.00000000 </v>
   <v>       0.33333333       0.08333333       0.00000000 </v>
   <v>      -0.08333333       0.41666667       0.00000000 </v>
   <v>      -0.41666667       0.33333333       0.00000000 </v>
   <v>      -0.33333333       0.41666667       0.00000000 </v>
   <v>       0.08333333       0.33333333       0.00000000 </v>
   <v>       0.41666667      -0.08333333       0.00000000 </v>
   <v>       0.41666667       0.08333333       0.00000000 </v>
   <v>      -0.08333333       0.50000000       0.00000000 </v>
   <v>       0.50000000       0.41666667       0.00000000 </v>
   <v>      -0.41666667       0.50000000       0.00000000 </v>
   <v>       0.08333333       0.41666667       0.00000000 </v>
   <v>       0.50000000      -0.08333333       0.00000000 </v>
   <v>       0.16666667       0.16666667       0.00000000 </v>
   <v>      -0.16666667       0.33333333       0.00000000 </v>
   <v>      -0.33333333       0.16666667       0.00000000 </v>
   <v>       0.25000000       0.16666667       0.00000000 </v>
   <v>      -0.16666667       0.41666667       0.00000000 </v>
   <v>      -0.41666667       0.25000000       0.00000000 </v>
   <v>      -0.25000000       0.41666667       0.00000000 </v>
   <v>       0.16666667       0.25000000       0.00000000 </v>
   <v>       0.41666667      -0.16666667       0.00000000 </v>
   <v>       0.33333333       0.16666667       0.00000000 </v>
   <v>      -0.16666667       0.50000000       0.00000000 </v>
   <v>       0.50000000       0.33333333       0.00000000 </v>
   <v>      -0.33333333       0.50000000       0.00000000 </v>
   <v>       0.16666667       0.33333333       0.00000000 </v>
   <v>       0.50000000      -0.16666667       0.00000000 </v>
   <v>       0.41666667       0.16666667       0.00000000 </v>
   <v>      -0.16666667      -0.41666667       0.00000000 </v>
   <v>       0.41666667       0.41666667       0.00000000 </v>
   <v>       0.25000000       0.25000000       0.00000000 </v>
   <v>      -0.25000000       0.50000000       0.00000000 </v>
   <v>       0.50000000       0.25000000       0.00000000 </v>
   <v>       0.33333333       0.25000000       0.00000000 </v>
   <v>      -0.25000000      -0.41666667       0.00000000 </v>
   <v>       0.41666667       0.33333333       0.00000000 </v>
   <v>      -0.33333333      -0.41666667       0.00000000 </v>
   <v>       0.25000000       0.33333333       0.00000000 </v>
   <v>      -0.41666667      -0.25000000       0.00000000 </v>
   <v>       0.33333333       0.33333333       0.00000000 </v>
  </varray>
  <varray name="weights" >
   <v>       0.00694444 </v>
   <v>       0.01388889 </v>
   <v>       0.01388889 </v>
   <v>       0.01388889 </v>
   <v>       0.01388889 </v>
   <v>       0.01388889 </v>
   <v>       0.01388889 </v>
   <v>       0.01388889 </v>
   <v>       0.01388889 </v>
   <v>       0.01388889 </v>
   <v>       0.01388889 </v>
   <v>       0.01388889 </v>
   <v>       0.01388889 </v>
   <v>       0.01388889 </v>
   <v>       0.01388889 </v>
   <v>       0.01388889 </v>
   <v>       0.00694444 </v>
   <v>       0.00694444 </v>
   <v>       0.00694444 </v>
   <v>       0.01388889 </v>
   <v>       0.01388889 </v>
   <v>       0.01388889 </v>
   <v>       0.01388889 </v>
   <v>       0.01388889 </v>
   <v>       0.01388889 </v>
   <v>       0.01388889 </v>
   <v>       0.01388889 </v>
   <v>       0.01388889 </v>
   <v>       0.01388889 </v>
   <v>       0.01388889 </v>
   <v>       0.01388889 </v>
   <v>       0.01388889 </v>
   <v>       0.01388889 </v>
   <v>       0.01388889 </v>
   <v>       0.01388889 </v>
   <v>       0.01388889 </v>
   <v>       0.01388889 </v>
   <v>       0.01388889 </v>
   <v>       0.01388889 </v>
   <v>       0.01388889 </v>
   <v>       0.01388889 </v>
   <v>       0.01388889 </v>
   <v>       0.01388889 </v>
   <v>       0.01388889 </v>
   <v>       0.01388889 </v>
   <v>       0.01388889 </v>
   <v>       0.01388889 </v>
   <v>       0.01388889 </v>
   <v>       0.01388889 </v>
   <v>       0.01388889 </v>
   <v>       0.01388889 </v>
   <v>       0.01388889 </v>
   <v>       0.01388889 </v>
   <v>       0.01388889 </v>
   <v>       0.01388889 </v>
   <v>       0.01388889 </v>
   <v>       0.01388889 </v>
   <v>       0.01388889 </v>
   <v>       0.01388889 </v>
   <v>       0.01388889 </v>
   <v>       0.01388889 </v>
   <v>       0.01388889 </v>
   <v>       0.01388889 </v>
   <v>       0.01388889 </v>
   <v>       0.01388889 </v>
   <v>       0.01388889 </v>
   <v>       0.01388889 </v>
   <v>       0.01388889 </v>
   <v>       0.01388889 </v>
   <v>       0.01388889 </v>
   <v>       0.01388889 </v>
   <v>       0.01388889 </v>
   <v>       0.01388889 </v>
   <v>       0.01388889 </v>
  </varray>
 </kpoints>
 <parameters>
  <separator name="general" >
   <i type="string" name="SYSTEM">Lattice</i>
   <i type="logical" name="LCOMPAT"> F  </i>
  </separator>
  <separator name="electronic" >
   <i type="string" name="PREC">accura</i>
   <i name="ENMAX">    450.00000000</i>
   <i name="ENAUG">    644.87300000</i>
   <i name="EDIFF">      0.00000100</i>
   <i type="int" name="IALGO">    38</i>
   <i type="int" name="IWAVPR">    11</i>
   <i type="int" name="NBANDS">    48</i>
   <i type="int" name="NBANDSLOW">    -1</i>
   <i type="int" name="NBANDSHIGH">    -1</i>
   <i name="NELECT">     56.00000000</i>
   <i type="int" name="TURBO">     0</i>
   <i type="int" name="IRESTART">     0</i>
   <i type="int" name="NREBOOT">     0</i>
   <i type="int" name="NMIN">     0</i>
   <i name="EREF">      0.00000000</i>
   <separator name="electronic smearing" >
    <i type="int" name="ISMEAR">     0</i>
    <i name="SIGMA">      0.10000000</i>
    <i name="KSPACING">      0.50000000</i>
    <i type="logical" name="KGAMMA"> T  </i>
    <i type="logical" name="KBLOWUP"> T  </i>
   </separator>
   <separator name="electronic projectors" >
    <i type="logical" name="LREAL"> F  </i>
    <v name="ROPT">      0.00000000      0.00000000</v>
    <i type="int" name="LMAXPAW">  -100</i>
    <i type="int" name="LMAXMIX">     2</i>
    <i type="logical" name="NLSPLINE"> F  </i>
   </separator>
   <separator name="electronic startup" >
    <i type="int" name="ISTART">     0</i>
    <i type="int" name="ICHARG">     2</i>
    <i type="int" name="INIWAV">     1</i>
   </separator>
   <separator name="electronic spin" >
    <i type="int" name="ISPIN">     2</i>
    <i type="logical" name="LNONCOLLINEAR"> F  </i>
    <v name="MAGMOM">      1.00000000      1.00000000      1.00000000      1.00000000      1.00000000      1.00000000      1.00000000      1.00000000      1.00000000      1.00000000      1.00000000      1.00000000      1.00000000      1.00000000      1.00000000</v>
    <i name="NUPDOWN">     -1.00000000</i>
    <i type="logical" name="LSORBIT"> F  </i>
    <v name="SAXIS">      0.00000000      0.00000000      1.00000000</v>
    <i type="logical" name="LSPIRAL"> F  </i>
    <v name="QSPIRAL">      0.00000000      0.00000000      0.00000000</v>
    <i type="logical" name="LZEROZ"> F  </i>
   </separator>
   <separator name="electronic exchange-correlation" >
    <i type="logical" name="LASPH"> F  </i>
    <i type="logical" name="LMETAGGA"> F  </i>
   </separator>
   <separator name="electronic convergence" >
    <i type="int" name="NELM">    64</i>
    <i type="int" name="NELMDL">    -5</i>
    <i type="int" name="NELMIN">     2</i>
    <i name="ENINI">    450.00000000</i>
    <separator name="electronic convergence detail" >
     <i type="logical" name="LDIAG"> T  </i>
     <i type="logical" name="LSUBROT"> F  </i>
     <i name="WEIMIN">      0.00100000</i>
     <i name="EBREAK">      0.00000001</i>
     <i name="DEPER">      0.30000000</i>
     <i type="int" name="NRMM">     4</i>
     <i name="TIME">      0.40000000</i>
    </separator>
   </separator>
   <separator name="electronic mixer" >
    <i name="AMIX">      0.40000000</i>
    <i name="BMIX">      1.00000000</i>
    <i name="AMIN">      0.10000000</i>
    <i name="AMIX_MAG">      1.60000000</i>
    <i name="BMIX_MAG">      1.00000000</i>
    <separator name="electronic mixer details" >
     <i type="int" name="IMIX">     4</i>
     <i type="logical" name="MIXFIRST"> F  </i>
     <i type="int" name="MAXMIX">   -45</i>
     <i name="WC">    100.00000000</i>
     <i type="int" name="INIMIX">     1</i>
     <i type="int" name="MIXPRE">     1</i>
     <i type="int" name="MREMOVE">     5</i>
    </separator>
   </separator>
   <separator name="electronic dipolcorrection" >
    <i type="logical" name="LDIPOL"> F  </i>
    <i type="logical" name="LMONO"> F  </i>
    <i type="int" name="IDIPOL">     0</i>
    <i name="EPSILON">      1.00000000</i>
    <v name="DIPOL">   -100.00000000   -100.00000000   -100.00000000</v>
    <i name="EFIELD">      0.00000000</i>
   </separator>
  </separator>
  <separator name="grids" >
   <i type="int" name="NGX">    36</i>
   <i type="int" name="NGY">    36</i>
   <i type="int" name="NGZ">   108</i>
   <i type="int" name="NGXF">    72</i>
   <i type="int" name="NGYF">    72</i>
   <i type="int" name="NGZF">   216</i>
   <i type="logical" name="ADDGRID"> F  </i>
  </separator>
  <separator name="ionic" >
   <i type="int" name="NSW">   128</i>
   <i type="int" name="IBRION">     2</i>
   <i type="int" name="MDALGO">     0</i>
   <i type="int" name="ISIF">     2</i>
   <i name="PSTRESS">      0.00000000</i>
   <i name="EDIFFG">     -0.00100000</i>
   <i type="int" name="NFREE">     1</i>
   <i name="POTIM">      0.50000000</i>
   <i name="SMASS">     -3.00000000</i>
   <i name="SCALEE">      1.00000000</i>
  </separator>
  <separator name="ionic md" >
   <i name="TEBEG">      0.00010000</i>
   <i name="TEEND">      0.00010000</i>
   <i type="int" name="NBLOCK">     1</i>
   <i type="int" name="KBLOCK">   128</i>
   <i type="int" name="NPACO">   256</i>
   <i name="APACO">     10.00000000</i>
  </separator>
  <separator name="symmetry" >
   <i type="int" name="ISYM">     2</i>
   <i name="SYMPREC">      0.00001000</i>
  </separator>
  <separator name="dos" >
   <i type="int" name="LORBIT">     0</i>
   <v name="RWIGS">     -1.00000000     -1.00000000</v>
   <i type="int" name="NEDOS">   301</i>
   <i name="EMIN">     10.00000000</i>
   <i name="EMAX">    -10.00000000</i>
   <i name="EFERMI">      0.00000000</i>
  </separator>
  <separator name="writing" >
   <i type="int" name="NWRITE">     2</i>
   <i type="logical" name="LWAVE"> F  </i>
   <i type="logical" name="LDOWNSAMPLE"> F  </i>
   <i type="logical" name="LCHARG"> F  </i>
   <i type="logical" name="LPARD"> F  </i>
   <i type="logical" name="LVTOT"> F  </i>
   <i type="logical" name="LVHAR"> F  </i>
   <i type="logical" name="LELF"> F  </i>
   <i type="logical" name="LOPTICS"> F  </i>
   <v name="STM">      0.00000000      0.00000000      0.00000000      0.00000000      0.00000000      0.00000000      0.00000000</v>
  </separator>
  <separator name="performance" >
   <i type="int" name="NPAR">    48</i>
   <i type="int" name="NSIM">     4</i>
   <i type="int" name="NBLK">    -1</i>
   <i type="logical" name="LPLANE"> T  </i>
   <i type="logical" name="LSCALAPACK"> T  </i>
   <i type="logical" name="LSCAAWARE"> F  </i>
   <i type="logical" name="LSCALU"> F  </i>
   <i type="logical" name="LASYNC"> F  </i>
   <i type="logical" name="LORBITALREAL"> F  </i>
  </separator>
  <separator name="miscellaneous" >
   <i type="int" name="IDIOT">     3</i>
   <i type="int" name="PHON_NSTRUCT">    -1</i>
   <i type="logical" name="LMUSIC"> F  </i>
   <v name="POMASS">     10.81100000     12.01100000</v>
   <v name="DARWINR">      0.00000000      0.00000000</v>
   <v name="DARWINV">      1.00000000      1.00000000</v>
   <i type="logical" name="LCORR"> T  </i>
  </separator>
  <i type="logical" name="GGA_COMPAT"> T  </i>
  <i type="logical" name="LBERRY"> F  </i>
  <i type="int" name="ICORELEVEL">     0</i>
  <i type="logical" name="LDAU"> F  </i>
  <i type="int" name="I_CONSTRAINED_M">     0</i>
  <separator name="electronic exchange-correlation" >
   <i type="string" name="GGA">PE</i>
   <i type="int" name="VOSKOWN">     0</i>
   <i type="logical" name="LHFCALC"> F  </i>
   <i type="string" name="PRECFOCK"></i>
   <i type="logical" name="LSYMGRAD"> F  </i>
   <i type="logical" name="LHFONE"> F  </i>
   <i type="logical" name="LRHFCALC"> F  </i>
   <i type="logical" name="LTHOMAS"> F  </i>
   <i type="logical" name="LMODELHF"> F  </i>
   <i type="logical" name="LFOCKACE"> F  </i>
   <i name="ENCUT4O">     -1.00000000</i>
   <i type="int" name="EXXOEP">     0</i>
   <i type="int" name="FOURORBIT">     0</i>
   <i name="AEXX">      0.00000000</i>
   <i name="HFALPHA">      0.00000000</i>
   <i name="MCALPHA">      0.00000000</i>
   <i name="ALDAX">      1.00000000</i>
   <i name="AGGAX">      1.00000000</i>
   <i name="ALDAC">      1.00000000</i>
   <i name="AGGAC">      1.00000000</i>
   <i type="int" name="NKREDX">     1</i>
   <i type="int" name="NKREDY">     1</i>
   <i type="int" name="NKREDZ">     1</i>
   <i type="logical" name="SHIFTRED"> F  </i>
   <i type="logical" name="ODDONLY"> F  </i>
   <i type="logical" name="EVENONLY"> F  </i>
   <i type="int" name="LMAXFOCK">     0</i>
   <i type="int" name="NMAXFOCKAE">     0</i>
   <i type="logical" name="LFOCKAEDFT"> F  </i>
   <i name="HFSCREEN">      0.00000000</i>
   <i name="HFSCREENC">      0.00000000</i>
   <i type="int" name="NBANDSGWLOW">     0</i>
  </separator>
  <separator name="vdW DFT" >
   <i type="logical" name="LUSE_VDW"> F  </i>
   <i name="Zab_VDW">     -0.84910000</i>
   <i name="PARAM1">      0.12340000</i>
   <i name="PARAM2">      1.00000000</i>
   <i name="PARAM3">      0.00000000</i>
  </separator>
  <separator name="model GW" >
   <i type="int" name="MODEL_GW">     0</i>
   <i name="MODEL_EPS0">     12.26300493</i>
   <i name="MODEL_ALPHA">      1.00000000</i>
  </separator>
  <separator name="linear response parameters" >
   <i type="logical" name="LEPSILON"> F  </i>
   <i type="logical" name="LRPA"> F  </i>
   <i type="logical" name="LNABLA"> F  </i>
   <i type="logical" name="LVEL"> F  </i>
   <i name="CSHIFT">      0.10000000</i>
   <i name="OMEGAMAX">     -1.00000000</i>
   <i name="DEG_THRESHOLD">      0.00200000</i>
   <i name="RTIME">     -0.10000000</i>
   <i name="WPLASMAI">      0.00000000</i>
   <v name="DFIELD">      0.00000000      0.00000000      0.00000000</v>
   <v name="WPLASMA">      0.00000000      0.00000000      0.00000000      0.00000000      0.00000000      0.00000000      0.00000000      0.00000000      0.00000000</v>
  </separator>
  <separator name="orbital magnetization" >
   <i type="logical" name="NUCIND"> F  </i>
   <v name="MAGPOS">      0.00000000      0.00000000      0.00000000</v>
   <i type="logical" name="LNICSALL"> T  </i>
   <i type="logical" name="ORBITALMAG"> F  </i>
   <i type="logical" name="LMAGBLOCH"> F  </i>
   <i type="logical" name="LCHIMAG"> F  </i>
   <i type="logical" name="LGAUGE"> T  </i>
   <i type="int" name="MAGATOM">     0</i>
   <v name="MAGDIPOL">      0.00000000      0.00000000      0.00000000</v>
   <v name="AVECCONST">      0.00000000      0.00000000      0.00000000</v>
  </separator>
  <separator name="response functions" >
   <i type="logical" name="LFINITE_TEMPERATURE"> F  </i>
   <i type="logical" name="LADDER"> F  </i>
   <i type="logical" name="LRPAFORCE"> F  </i>
   <i type="logical" name="LFXC"> F  </i>
   <i type="logical" name="LHARTREE"> T  </i>
   <i type="int" name="IBSE">     0</i>
   <v type="int" name="KPOINT">    -1     0     0     0</v>
   <i type="logical" name="LTCTC"> F  </i>
   <i type="logical" name="LTCTE"> F  </i>
   <i type="logical" name="LTETE"> F  </i>
   <i type="logical" name="LTRIPLET"> F  </i>
   <i type="logical" name="LFXCEPS"> F  </i>
   <i type="logical" name="LFXHEG"> F  </i>
   <i type="int" name="NATURALO">     2</i>
   <i type="logical" name="LHOLEGF"> F  </i>
   <i type="logical" name="L2ORDER"> F  </i>
   <i type="logical" name="LDMP1"> F  </i>
   <i type="logical" name="LMP2LT"> F  </i>
   <i type="logical" name="LSMP2LT"> F  </i>
   <i type="logical" name="LGWLF"> F  </i>
   <i name="ENCUTGW">     -2.00000000</i>
   <i name="ENCUTGWSOFT">     -2.00000000</i>
   <i name="ENCUTLF">     -1.00000000</i>
   <i type="logical" name="LESF_SPLINES"> F  </i>
   <i type="int" name="LMAXMP2">    -1</i>
   <i name="SCISSOR">      0.00000000</i>
   <i type="int" name="NOMEGA">     0</i>
   <i type="int" name="NOMEGAR">     0</i>
   <i type="int" name="NBANDSGW">    -1</i>
   <i type="int" name="NBANDSO">    -1</i>
   <i type="int" name="NBANDSV">    -1</i>
   <i type="int" name="NELMGW">     1</i>
   <i type="int" name="NELMHF">     1</i>
   <i type="int" name="DIM">     3</i>
   <i type="int" name="IESPILON">     4</i>
   <i type="int" name="ANTIRES">     0</i>
   <i name="OMEGAMAX">    -30.00000000</i>
   <i name="OMEGAMIN">    -30.00000000</i>
   <i name="OMEGATL">   -200.00000000</i>
   <i type="int" name="OMEGAGRID">     0</i>
   <i name="CSHIFT">     -0.10000000</i>
   <i type="logical" name="LSELFENERGY"> F  </i>
   <i type="logical" name="LSPECTRAL"> F  </i>
   <i type="logical" name="LSPECTRALGW"> F  </i>
   <i type="logical" name="LSINGLES"> F  </i>
   <i type="logical" name="LFERMIGW"> F  </i>
   <i type="logical" name="ODDONLYGW"> F  </i>
   <i type="logical" name="EVENONLYGW"> F  </i>
   <i type="int" name="NKREDLFX">     1</i>
   <i type="int" name="NKREDLFY">     1</i>
   <i type="int" name="NKREDLFZ">     1</i>
   <i type="int" name="MAXMEM">  2800</i>
   <i type="int" name="TELESCOPE">     0</i>
   <i type="int" name="NTAUPAR">    -1</i>
   <i type="int" name="NOMEGAPAR">    -1</i>
   <i name="DAMP_NEWTON">      0.80000001</i>
   <i name="LAMBDA">      1.00000000</i>
  </separator>
  <separator name="External order field" >
   <i name="OFIELD_KAPPA">      0.00000000</i>
   <v name="OFIELD_K">      0.00000000      0.00000000      0.00000000</v>
   <i name="OFIELD_Q6_NEAR">      0.00000000</i>
   <i name="OFIELD_Q6_FAR">      0.00000000</i>
   <i name="OFIELD_A">      0.00000000</i>
  </separator>
  <separator name="optional k-points parameters" >
   <i type="int" name="KPOINTS_OPT_MODE">     1</i>
   <i type="logical" name="LKPOINTS_OPT"> F  </i>
  </separator>
  <separator name="solvation model" >
   <i type="logical" name="LSOL"> F  </i>
  </separator>
 </parameters>
 <atominfo>
  <atoms>      15 </atoms>
  <types>       2 </types>
  <array name="atoms" >
   <dimension dim="1">ion</dimension>
   <field type="string">element</field>
   <field type="int">atomtype</field>
   <set>
    <rc><c>B </c><c>   1</c></rc>
    <rc><c>B </c><c>   1</c></rc>
    <rc><c>B </c><c>   1</c></rc>
    <rc><c>B </c><c>   1</c></rc>
    <rc><c>C </c><c>   2</c></rc>
    <rc><c>C </c><c>   2</c></rc>
    <rc><c>C </c><c>   2</c></rc>
    <rc><c>C </c><c>   2</c></rc>
    <rc><c>C </c><c>   2</c></rc>
    <rc><c>C </c><c>   2</c></rc>
    <rc><c>C </c><c>   2</c></rc>
    <rc><c>C </c><c>   2</c></rc>
    <rc><c>C </c><c>   2</c></rc>
    <rc><c>C </c><c>   2</c></rc>
    <rc><c>C </c><c>   2</c></rc>
   </set>
  </array>
  <array name="atomtypes" >
   <dimension dim="1">type</dimension>
   <field type="int">atomspertype</field>
   <field type="string">element</field>
   <field>mass</field>
   <field>valence</field>
   <field type="string">pseudopotential</field>
   <set>
    <rc><c>   4</c><c>B </c><c>     10.81100000</c><c>      3.00000000</c><c>  PAW_PBE B 06Sep2000                   </c></rc>
    <rc><c>  11</c><c>C </c><c>     12.01100000</c><c>      4.00000000</c><c>  PAW_PBE C 08Apr2002                   </c></rc>
   </set>
  </array>
 </atominfo>
 <structure name="initialpos" >
  <crystal>
   <varray name="basis" >
    <v>       4.20715141       2.42900000       0.00000000 </v>
    <v>      -4.20715141       2.42900000       0.00000000 </v>
    <v>       0.00000000       0.00000000      15.00000000 </v>
   </varray>
   <i name="volume">    306.57512336 </i>
   <varray name="rec_basis" >
    <v>       0.11884526       0.20584603       0.00000000 </v>
    <v>      -0.11884526       0.20584603       0.00000000 </v>
    <v>       0.00000000       0.00000000       0.06666667 </v>
   </varray>
  </crystal>
  <varray name="positions" >
   <v>       0.00415361       0.00267210       0.12034134 </v>
   <v>       0.35695335       0.00285503       0.09748893 </v>
   <v>       0.00423858       0.35550699       0.09749256 </v>
   <v>       0.65142295       0.65006557       0.09747688 </v>
   <v>       0.32808646       0.32671938       0.10030508 </v>
   <v>       0.68027775       0.00278085       0.10027562 </v>
   <v>       0.00416530       0.67883808       0.10026559 </v>
   <v>       0.08333267       0.41666633       0.33646667 </v>
   <v>       0.24999967       0.24999933       0.33646667 </v>
   <v>       0.08333267       0.91666633       0.33646667 </v>
   <v>       0.24999967       0.74999933       0.33646667 </v>
   <v>       0.58333267       0.41666633       0.33646667 </v>
   <v>       0.74999967       0.24999933       0.33646667 </v>
   <v>       0.58333267       0.91666633       0.33646667 </v>
   <v>       0.74999967       0.74999933       0.33646667 </v>
  </varray>
 </structure>
 <calculation>
  <scstep>
   <time name="dav">    5.65    5.72</time>
   <time name="total">    5.70    5.78</time>
   <energy>
    <i name="alphaZ">     58.01936780 </i>
    <i name="ewald">   4675.80716118 </i>
    <i name="hartreedc">  -6233.93678048 </i>
    <i name="XCdc">    174.86780475 </i>
    <i name="pawpsdc">   1365.87943566 </i>
    <i name="pawaedc">  -1368.52100941 </i>
    <i name="eentropy">     -0.01832635 </i>
    <i name="bandstr">   -373.28786616 </i>
    <i name="atom">   1903.26342058 </i>
    <i name="e_fr_energy">    202.07320756 </i>
    <i name="e_wo_entrp">    202.09153392 </i>
    <i name="e_0_energy">    202.08237074 </i>
   </energy>
  </scstep>
  <scstep>
   <time name="dav">    8.15    8.22</time>
   <time name="total">    8.15    8.22</time>
   <energy>
    <i name="e_fr_energy">   -116.21636530 </i>
    <i name="e_wo_entrp">   -116.21478933 </i>
    <i name="e_0_energy">   -116.21557731 </i>
   </energy>
  </scstep>
  <scstep>
   <time name="dav">   11.49   11.59</time>
   <time name="total">   11.50   11.59</time>
   <energy>
    <i name="e_fr_energy">   -129.16952594 </i>
    <i name="e_wo_entrp">   -129.16636700 </i>
    <i name="e_0_energy">   -129.16794647 </i>
   </energy>
  </scstep>
  <scstep>
   <time name="dav">    8.34    8.41</time>
   <time name="total">    8.34    8.41</time>
   <energy>
    <i name="e_fr_energy">   -129.19331240 </i>
    <i name="e_wo_entrp">   -129.19013181 </i>
    <i name="e_0_energy">   -129.19172210 </i>
   </energy>
  </scstep>
  <scstep>
   <time name="dav">   11.23   11.31</time>
   <time name="total">   11.51   11.61</time>
   <energy>
    <i name="e_fr_energy">   -129.19336680 </i>
    <i name="e_wo_entrp">   -129.19018598 </i>
    <i name="e_0_energy">   -129.19177639 </i>
   </energy>
  </scstep>
  <scstep>
   <time name="dav">   10.74   10.82</time>
   <time name="total">   11.07   11.16</time>
   <energy>
    <i name="e_fr_energy">    -91.93328388 </i>
    <i name="e_wo_entrp">    -91.92664908 </i>
    <i name="e_0_energy">    -91.92996648 </i>
   </energy>
  </scstep>
  <scstep>
   <time name="dav">    9.03    9.10</time>
   <time name="total">    9.35    9.43</time>
   <energy>
    <i name="e_fr_energy">   -100.38070776 </i>
    <i name="e_wo_entrp">   -100.37495449 </i>
    <i name="e_0_energy">   -100.37783113 </i>
   </energy>
  </scstep>
  <scstep>
   <time name="dav">   10.16   10.24</time>
   <time name="total">   10.48   10.57</time>
   <energy>
    <i name="e_fr_energy">   -110.42216458 </i>
    <i name="e_wo_entrp">   -110.42214118 </i>
    <i name="e_0_energy">   -110.42215288 </i>
   </energy>
  </scstep>
  <scstep>
   <time name="dav">    7.73    7.81</time>
   <time name="total">    8.05    8.13</time>
   <energy>
    <i name="e_fr_energy">   -117.16862678 </i>
    <i name="e_wo_entrp">   -117.16862297 </i>
    <i name="e_0_energy">   -117.16862487 </i>
   </energy>
  </scstep>
  <scstep>
   <time name="dav">    9.89    9.95</time>
   <time name="total">   10.20   10.27</time>
   <energy>
    <i name="e_fr_energy">   -123.48848194 </i>
    <i name="e_wo_entrp">   -123.48786953 </i>
    <i name="e_0_energy">   -123.48817574 </i>
   </energy>
  </scstep>
  <scstep>
   <time name="dav">   10.87   10.95</time>
   <time name="total">   11.19   11.29</time>
   <energy>
    <i name="e_fr_energy">   -125.26996844 </i>
    <i name="e_wo_entrp">   -125.26877281 </i>
    <i name="e_0_energy">   -125.26937063 </i>
   </energy>
  </scstep>
  <scstep>
   <time name="dav">    7.95    8.01</time>
   <time name="total">    8.26    8.33</time>
   <energy>
    <i name="e_fr_energy">   -125.43030104 </i>
    <i name="e_wo_entrp">   -125.42881767 </i>
    <i name="e_0_energy">   -125.42955936 </i>
   </energy>
  </scstep>
  <scstep>
   <time name="dav">    7.48    7.53</time>
   <time name="total">    7.79    7.85</time>
   <energy>
    <i name="e_fr_energy">   -125.45739194 </i>
    <i name="e_wo_entrp">   -125.45583905 </i>
    <i name="e_0_energy">   -125.45661550 </i>
   </energy>
  </scstep>
  <scstep>
   <time name="dav">    8.32    8.38</time>
   <time name="total">    8.63    8.70</time>
   <energy>
    <i name="e_fr_energy">   -125.47982126 </i>
    <i name="e_wo_entrp">   -125.47826343 </i>
    <i name="e_0_energy">   -125.47904234 </i>
   </energy>
  </scstep>
  <scstep>
   <time name="dav">    8.17    8.22</time>
   <time name="total">    8.48    8.54</time>
   <energy>
    <i name="e_fr_energy">   -125.48725209 </i>
    <i name="e_wo_entrp">   -125.48569355 </i>
    <i name="e_0_energy">   -125.48647282 </i>
   </energy>
  </scstep>
  <scstep>
   <time name="dav">    6.83    6.88</time>
   <time name="total">    7.14    7.20</time>
   <energy>
    <i name="e_fr_energy">   -125.48920359 </i>
    <i name="e_wo_entrp">   -125.48764503 </i>
    <i name="e_0_energy">   -125.48842431 </i>
   </energy>
  </scstep>
  <scstep>
   <time name="dav">    5.93    5.97</time>
   <time name="total">    6.25    6.30</time>
   <energy>
    <i name="e_fr_energy">   -125.49044424 </i>
    <i name="e_wo_entrp">   -125.48888571 </i>
    <i name="e_0_energy">   -125.48966498 </i>
   </energy>
  </scstep>
  <scstep>
   <time name="dav">    6.23    6.27</time>
   <time name="total">    6.54    6.59</time>
   <energy>
    <i name="e_fr_energy">   -125.49116860 </i>
    <i name="e_wo_entrp">   -125.48961008 </i>
    <i name="e_0_energy">   -125.49038934 </i>
   </energy>
  </scstep>
  <scstep>
   <time name="dav">    8.04    8.11</time>
   <time name="total">    8.36    8.44</time>
   <energy>
    <i name="e_fr_energy">   -125.49159187 </i>
    <i name="e_wo_entrp">   -125.49003334 </i>
    <i name="e_0_energy">   -125.49081260 </i>
   </energy>
  </scstep>
  <scstep>
   <time name="dav">    9.13    9.19</time>
   <time name="total">    9.45    9.51</time>
   <energy>
    <i name="e_fr_energy">   -125.49164719 </i>
    <i name="e_wo_entrp">   -125.49008866 </i>
    <i name="e_0_energy">   -125.49086792 </i>
   </energy>
  </scstep>
  <scstep>
   <time name="dav">    8.55    8.61</time>
   <time name="total">    8.86    8.93</time>
   <energy>
    <i name="e_fr_energy">   -125.49166711 </i>
    <i name="e_wo_entrp">   -125.49010858 </i>
    <i name="e_0_energy">   -125.49088784 </i>
   </energy>
  </scstep>
  <scstep>
   <time name="dav">    9.02    9.08</time>
   <time name="total">    9.34    9.41</time>
   <energy>
    <i name="e_fr_energy">   -125.49168836 </i>
    <i name="e_wo_entrp">   -125.49012983 </i>
    <i name="e_0_energy">   -125.49090909 </i>
   </energy>
  </scstep>
  <scstep>
   <time name="dav">    8.95    9.01</time>
   <time name="total">    9.26    9.34</time>
   <energy>
    <i name="e_fr_energy">   -125.49170292 </i>
    <i name="e_wo_entrp">   -125.49014438 </i>
    <i name="e_0_energy">   -125.49092365 </i>
   </energy>
  </scstep>
  <scstep>
   <time name="dav">    9.82    9.88</time>
   <time name="total">   10.14   10.20</time>
   <energy>
    <i name="e_fr_energy">   -125.49170582 </i>
    <i name="e_wo_entrp">   -125.49014728 </i>
    <i name="e_0_energy">   -125.49092655 </i>
   </energy>
  </scstep>
  <scstep>
   <time name="dav">    8.74    8.79</time>
   <time name="total">    8.77    8.83</time>
   <energy>
    <i name="alphaZ">     58.01936780 </i>
    <i name="ewald">   4675.80716118 </i>
    <i name="hartreedc">  -6432.97991298 </i>
    <i name="XCdc">    180.17591799 </i>
    <i name="pawpsdc">   5669.62086302 </i>
    <i name="pawaedc">  -5674.00530395 </i>
    <i name="eentropy">     -0.00155854 </i>
    <i name="bandstr">   -505.39166184 </i>
    <i name="atom">   1903.26342058 </i>
    <i name="e_fr_energy">   -125.49170676 </i>
    <i name="e_wo_entrp">   -125.49014823 </i>
    <i name="e_0_energy">   -125.49092750 </i>
   </energy>
  </scstep>
  <structure>
   <crystal>
    <varray name="basis" >
     <v>       4.20715141       2.42900000       0.00000000 </v>
     <v>      -4.20715141       2.42900000       0.00000000 </v>
     <v>       0.00000000       0.00000000      15.00000000 </v>
    </varray>
    <i name="volume">    306.57512336 </i>
    <varray name="rec_basis" >
     <v>       0.11884526       0.20584603       0.00000000 </v>
     <v>      -0.11884526       0.20584603       0.00000000 </v>
     <v>       0.00000000       0.00000000       0.06666667 </v>
    </varray>
   </crystal>
   <varray name="positions" >
    <v>       0.00415361       0.00267210       0.12034134 </v>
    <v>       0.35695335       0.00285503       0.09748893 </v>
    <v>       0.00423858       0.35550699       0.09749256 </v>
    <v>       0.65142295       0.65006557       0.09747688 </v>
    <v>       0.32808646       0.32671938       0.10030508 </v>
    <v>       0.68027775       0.00278085       0.10027562 </v>
    <v>       0.00416530       0.67883808       0.10026559 </v>
    <v>       0.08333267       0.41666633       0.33646667 </v>
    <v>       0.24999967       0.24999933       0.33646667 </v>
    <v>       0.08333267       0.91666633       0.33646667 </v>
    <v>       0.24999967       0.74999933       0.33646667 </v>
    <v>       0.58333267       0.41666633       0.33646667 </v>
    <v>       0.74999967       0.24999933       0.33646667 </v>
    <v>       0.58333267       0.91666633       0.33646667 </v>
    <v>       0.74999967       0.74999933       0.33646667 </v>
   </varray>
  </structure>
  <varray name="forces" >
   <v>      -0.00067809      -0.00082883      -0.40326514 </v>
   <v>      -0.11477409      -0.06861797       0.10783463 </v>
   <v>       0.09021898      -0.06205308       0.12586997 </v>
   <v>       0.01394810       0.11866639       0.12163078 </v>
   <v>       0.02039640      -0.36747441      -0.00098631 </v>
   <v>       0.33459422       0.20080226       0.01612627 </v>
   <v>      -0.31145639       0.18042607       0.00415713 </v>
   <v>      -0.01112254       0.00483879      -0.00086366 </v>
   <v>      -0.00752734       0.02180716       0.02962292 </v>
   <v>       0.00279057       0.01491685      -0.00418789 </v>
   <v>       0.02975067       0.01299045      -0.00913717 </v>
   <v>      -0.00226304      -0.00333098      -0.01379684 </v>
   <v>      -0.00619029      -0.00304318      -0.00143434 </v>
   <v>      -0.01663294      -0.01485700       0.02212498 </v>
   <v>      -0.02105423      -0.03424252       0.00630467 </v>
  </varray>
  <varray name="stress" >
   <v>     -18.72311525       0.08620736      -0.59552492 </v>
   <v>       0.08620740     -18.94776594      -0.02015449 </v>
   <v>      -0.59552493      -0.02015452      -2.28587749 </v>
  </varray>
  <energy>
   <i name="e_fr_energy">   -127.08068813 </i>
   <i name="e_wo_entrp">   -127.07912959 </i>
   <i name="e_0_energy">   -127.07990886 </i>
  </energy>
  <time name="totalsc">  227.67  229.53</time>
 </calculation>
 <calculation>
  <scstep>
   <time name="dav">    5.61    5.64</time>
   <time name="total">    5.92    5.97</time>
   <energy>
    <i name="alphaZ">     58.01936780 </i>
    <i name="ewald">   4679.67047697 </i>
    <i name="hartreedc">  -6435.38686108 </i>
    <i name="XCdc">    180.26032482 </i>
    <i name="pawpsdc">   5669.65054903 </i>
    <i name="pawaedc">  -5674.03498793 </i>
    <i name="eentropy">     -0.00155603 </i>
    <i name="bandstr">   -506.94349111 </i>
    <i name="atom">   1903.26342058 </i>
    <i name="e_fr_energy">   -125.50275696 </i>
    <i name="e_wo_entrp">   -125.50120093 </i>
    <i name="e_0_energy">   -125.50197895 </i>
   </energy>
  </scstep>
  <scstep>
   <time name="dav">   11.23   11.30</time>
   <time name="total">   11.54   11.61</time>
   <energy>
    <i name="e_fr_energy">   -125.49338311 </i>
    <i name="e_wo_entrp">   -125.49182676 </i>
    <i name="e_0_energy">   -125.49260494 </i>
   </energy>
  </scstep>
  <scstep>
   <time name="dav">    8.41    8.47</time>
   <time name="total">    8.72    8.79</time>
   <energy>
    <i name="e_fr_energy">   -125.49232840 </i>
    <i name="e_wo_entrp">   -125.49077191 </i>
    <i name="e_0_energy">   -125.49155016 </i>
   </energy>
  </scstep>
  <scstep>
   <time name="dav">   11.59   11.66</time>
   <time name="total">   11.90   11.98</time>
   <energy>
    <i name="e_fr_energy">   -125.49228237 </i>
    <i name="e_wo_entrp">   -125.49072588 </i>
    <i name="e_0_energy">   -125.49150412 </i>
   </energy>
  </scstep>
  <scstep>
   <time name="dav">   10.20   10.26</time>
   <time name="total">   10.51   10.58</time>
   <energy>
    <i name="e_fr_energy">   -125.49228578 </i>
    <i name="e_wo_entrp">   -125.49072930 </i>
    <i name="e_0_energy">   -125.49150754 </i>
   </energy>
  </scstep>
  <scstep>
   <time name="dav">    9.55    9.62</time>
   <time name="total">    9.59    9.66</time>
   <energy>
    <i name="alphaZ">     58.01936780 </i>
    <i name="ewald">   4679.67047697 </i>
    <i name="hartreedc">  -6436.16001928 </i>
    <i name="XCdc">    180.27762925 </i>
    <i name="pawpsdc">   5697.12442577 </i>
    <i name="pawaedc">  -5701.51784490 </i>
    <i name="eentropy">     -0.00155648 </i>
    <i name="bandstr">   -506.16818545 </i>
    <i name="atom">   1903.26342058 </i>
    <i name="e_fr_energy">   -125.49228575 </i>
    <i name="e_wo_entrp">   -125.49072927 </i>
    <i name="e_0_energy">   -125.49150751 </i>
   </energy>
  </scstep>
  <structure>
   <crystal>
    <varray name="basis" >
     <v>       4.20715141       2.42900000       0.00000000 </v>
     <v>      -4.20715141       2.42900000       0.00000000 </v>
     <v>       0.00000000       0.00000000      15.00000000 </v>
    </varray>
    <i name="volume">    306.57512336 </i>
    <varray name="rec_basis" >
     <v>       0.11884526       0.20584603       0.00000000 </v>
     <v>      -0.11884526       0.20584603       0.00000000 </v>
     <v>       0.00000000       0.00000000       0.06666667 </v>
    </varray>
   </crystal>
   <varray name="positions" >
    <v>       0.00414149       0.00266776       0.11904437 </v>
    <v>       0.35561389       0.00283166       0.09783575 </v>
    <v>       0.00413962       0.35437351       0.09789738 </v>
    <v>       0.65268135       0.65116402       0.09786806 </v>
    <v>       0.32455418       0.32295321       0.10030191 </v>
    <v>       0.68419019       0.00285656       0.10032749 </v>
    <v>       0.00417132       0.68241552       0.10027896 </v>
    <v>       0.08331695       0.41677816       0.33646389 </v>
    <v>       0.25017307       0.25025905       0.33656194 </v>
    <v>       0.08349680       0.91679847       0.33645320 </v>
    <v>       0.25029924       0.74995776       0.33643728 </v>
    <v>       0.58328661       0.41664623       0.33642229 </v>
    <v>       0.74993395       0.25000460       0.33646205 </v>
    <v>       0.58308976       0.91661416       0.33653782 </v>
    <v>       0.74953891       0.74978000       0.33648694 </v>
   </varray>
  </structure>
  <varray name="forces" >
   <v>      -0.00291364       0.00442464      -0.17293952 </v>
   <v>       0.26356585       0.14842462       0.05940367 </v>
   <v>      -0.22137734       0.13630327       0.07223856 </v>
   <v>       0.01217132      -0.27425100       0.06856261 </v>
   <v>       0.00174951       0.57304542      -0.02299617 </v>
   <v>      -0.51735769      -0.30233811      -0.01322993 </v>
   <v>       0.49611216      -0.28481886      -0.02000400 </v>
   <v>       0.02195314      -0.01861779       0.00425701 </v>
   <v>       0.00062231      -0.07107409       0.00687239 </v>
   <v>      -0.02523852      -0.05450433       0.00681278 </v>
   <v>      -0.12273419      -0.04555349      -0.00191162 </v>
   <v>      -0.00023452       0.00821989       0.00232919 </v>
   <v>       0.00413412       0.00769406      -0.00067901 </v>
   <v>       0.04013502       0.05616016       0.00903633 </v>
   <v>       0.04941245       0.11688562       0.00224770 </v>
  </varray>
  <varray name="stress" >
   <v>     -16.04246650       0.12483585      -0.60803317 </v>
   <v>       0.12483586     -16.14589174      -0.01234613 </v>
   <v>      -0.60803314      -0.01234613      -1.87049350 </v>
  </varray>
  <energy>
   <i name="e_fr_energy">   -127.08064563 </i>
   <i name="e_wo_entrp">   -127.07908915 </i>
   <i name="e_0_energy">   -127.07986739 </i>
  </energy>
  <time name="totalsc">   63.01   63.46</time>
 </calculation>
 <calculation>
  <scstep>
   <time name="dav">    5.59    5.63</time>
   <time name="total">    5.90    5.95</time>
   <energy>
    <i name="alphaZ">     58.01936780 </i>
    <i name="ewald">   4677.69159163 </i>
    <i name="hartreedc">  -6434.91942727 </i>
    <i name="XCdc">    180.23400083 </i>
    <i name="pawpsdc">   5697.13292024 </i>
    <i name="pawaedc">  -5701.52632436 </i>
    <i name="eentropy">     -0.00155782 </i>
    <i name="bandstr">   -505.39676827 </i>
    <i name="atom">   1903.26342058 </i>
    <i name="e_fr_energy">   -125.50277664 </i>
    <i name="e_wo_entrp">   -125.50121883 </i>
    <i name="e_0_energy">   -125.50199774 </i>
   </energy>
  </scstep>
  <scstep>
   <time name="dav">   11.10   11.17</time>
   <time name="total">   11.41   11.49</time>
   <energy>
    <i name="e_fr_energy">   -125.50036372 </i>
    <i name="e_wo_entrp">   -125.49880606 </i>
    <i name="e_0_energy">   -125.49958489 </i>
   </energy>
  </scstep>
  <scstep>
   <time name="dav">    9.93   10.00</time>
   <time name="total">   10.24   10.32</time>
   <energy>
    <i name="e_fr_energy">   -125.50010823 </i>
    <i name="e_wo_entrp">   -125.49855063 </i>
    <i name="e_0_energy">   -125.49932943 </i>
   </energy>
  </scstep>
  <scstep>
   <time name="dav">    9.18    9.24</time>
   <time name="total">    9.49    9.56</time>
   <energy>
    <i name="e_fr_energy">   -125.50009672 </i>
    <i name="e_wo_entrp">   -125.49853913 </i>
    <i name="e_0_energy">   -125.49931793 </i>
   </energy>
  </scstep>
  <scstep>
   <time name="dav">    9.78    9.84</time>
   <time name="total">    9.81    9.88</time>
   <energy>
    <i name="alphaZ">     58.01936780 </i>
    <i name="ewald">   4677.69159163 </i>
    <i name="hartreedc">  -6434.55576117 </i>
    <i name="XCdc">    180.22542926 </i>
    <i name="pawpsdc">   5682.72766171 </i>
    <i name="pawaedc">  -5687.11624626 </i>
    <i name="eentropy">     -0.00155760 </i>
    <i name="bandstr">   -505.75400347 </i>
    <i name="atom">   1903.26342058 </i>
    <i name="e_fr_energy">   -125.50009752 </i>
    <i name="e_wo_entrp">   -125.49853993 </i>
    <i name="e_0_energy">   -125.49931872 </i>
   </energy>
  </scstep>
  <structure>
   <crystal>
    <varray name="basis" >
     <v>       4.20715141       2.42900000       0.00000000 </v>
     <v>      -4.20715141       2.42900000       0.00000000 </v>
     <v>       0.00000000       0.00000000      15.00000000 </v>
    </varray>
    <i name="volume">    306.57512336 </i>
    <varray name="rec_basis" >
     <v>       0.11884526       0.20584603       0.00000000 </v>
     <v>      -0.11884526       0.20584603       0.00000000 </v>
     <v>       0.00000000       0.00000000       0.06666667 </v>
    </varray>
   </crystal>
   <varray name="positions" >
    <v>       0.00414756       0.00266994       0.11969436 </v>
    <v>       0.35628518       0.00284337       0.09766194 </v>
    <v>       0.00418921       0.35494157       0.09769450 </v>
    <v>       0.65205068       0.65061352       0.09767202 </v>
    <v>       0.32632444       0.32484068       0.10030350 </v>
    <v>       0.68222941       0.00281862       0.10030149 </v>
    <v>       0.00416831       0.68062263       0.10027226 </v>
    <v>       0.08332483       0.41672211       0.33646528 </v>
    <v>       0.25008616       0.25012889       0.33651419 </v>
    <v>       0.08341454       0.91673225       0.33645995 </v>
    <v>       0.25014911       0.74997860       0.33645201 </v>
    <v>       0.58330969       0.41665630       0.33644453 </v>
    <v>       0.74996689       0.25000196       0.33646437 </v>
    <v>       0.58321150       0.91664031       0.33650216 </v>
    <v>       0.74976982       0.74988992       0.33647678 </v>
   </varray>
  </structure>
  <varray name="forces" >
   <v>      -0.00238053       0.00151980      -0.28720778 </v>
   <v>       0.07801345       0.04207762       0.08357715 </v>
   <v>      -0.06867209       0.03851182       0.09897497 </v>
   <v>       0.01320544      -0.08135616       0.09504046 </v>
   <v>       0.01156052       0.10014250      -0.01218914 </v>
   <v>      -0.08941737      -0.04936760       0.00136158 </v>
   <v>       0.08982818      -0.05064229      -0.00815581 </v>
   <v>       0.00539191      -0.00681055       0.00164219 </v>
   <v>      -0.00342441      -0.02449006       0.01830240 </v>
   <v>      -0.01123800      -0.01972170       0.00130000 </v>
   <v>      -0.04617461      -0.01600336      -0.00556783 </v>
   <v>      -0.00134275       0.00242031      -0.00579625 </v>
   <v>      -0.00109137       0.00231328      -0.00112681 </v>
   <v>       0.01162039       0.02029757       0.01556971 </v>
   <v>       0.01412124       0.04110882       0.00427516 </v>
  </varray>
  <varray name="stress" >
   <v>     -17.52532884       0.10014297      -0.60227490 </v>
   <v>       0.10014294     -17.69073674      -0.01576184 </v>
   <v>      -0.60227490      -0.01576183      -2.06407696 </v>
  </varray>
  <energy>
   <i name="e_fr_energy">   -127.08876382 </i>
   <i name="e_wo_entrp">   -127.08720623 </i>
   <i name="e_0_energy">   -127.08798502 </i>
  </energy>
  <time name="totalsc">   51.69   52.07</time>
 </calculation>
 <calculation>
  <scstep>
   <time name="dav">    5.60    5.64</time>
   <time name="total">    5.90    5.96</time>
   <energy>
    <i name="alphaZ">     58.01936780 </i>
    <i name="ewald">   4677.99759352 </i>
    <i name="hartreedc">  -6434.60807605 </i>
    <i name="XCdc">    180.24382716 </i>
    <i name="pawpsdc">   5682.68768224 </i>
    <i name="pawaedc">  -5687.07627477 </i>
    <i name="eentropy">     -0.00156307 </i>
    <i name="bandstr">   -506.03245427 </i>
    <i name="atom">   1903.26342058 </i>
    <i name="e_fr_energy">   -125.50647686 </i>
    <i name="e_wo_entrp">   -125.50491379 </i>
    <i name="e_0_energy">   -125.50569533 </i>
   </energy>
  </scstep>
  <scstep>
   <time name="dav">   11.85   11.93</time>
   <time name="total">   12.17   12.27</time>
   <energy>
    <i name="e_fr_energy">   -125.50653283 </i>
    <i name="e_wo_entrp">   -125.50496996 </i>
    <i name="e_0_energy">   -125.50575139 </i>
   </energy>
  </scstep>
  <scstep>
   <time name="dav">    9.11    9.16</time>
   <time name="total">    9.41    9.48</time>
   <energy>
    <i name="e_fr_energy">   -125.50652985 </i>
    <i name="e_wo_entrp">   -125.50496723 </i>
    <i name="e_0_energy">   -125.50574854 </i>
   </energy>
  </scstep>
  <scstep>
   <time name="dav">   11.33   11.40</time>
   <time name="total">   11.63   11.72</time>
   <energy>
    <i name="e_fr_energy">   -125.50653082 </i>
    <i name="e_wo_entrp">   -125.50496819 </i>
    <i name="e_0_energy">   -125.50574951 </i>
   </energy>
  </scstep>
  <scstep>
   <time name="dav">    9.56    9.62</time>
   <time name="total">    9.59    9.65</time>
   <energy>
    <i name="alphaZ">     58.01936780 </i>
    <i name="ewald">   4677.99759352 </i>
    <i name="hartreedc">  -6434.60063885 </i>
    <i name="XCdc">    180.24307951 </i>
    <i name="pawpsdc">   5687.96520616 </i>
    <i name="pawaedc">  -5692.35562492 </i>
    <i name="eentropy">     -0.00156263 </i>
    <i name="bandstr">   -506.03737243 </i>
    <i name="atom">   1903.26342058 </i>
    <i name="e_fr_energy">   -125.50653127 </i>
    <i name="e_wo_entrp">   -125.50496864 </i>
    <i name="e_0_energy">   -125.50574995 </i>
   </energy>
  </scstep>
  <structure>
   <crystal>
    <varray name="basis" >
     <v>       4.20715141       2.42900000       0.00000000 </v>
     <v>      -4.20715141       2.42900000       0.00000000 </v>
     <v>       0.00000000       0.00000000      15.00000000 </v>
    </varray>
    <i name="volume">    306.57512336 </i>
    <varray name="rec_basis" >
     <v>       0.11884526       0.20584603       0.00000000 </v>
     <v>      -0.11884526       0.20584603       0.00000000 </v>
     <v>       0.00000000       0.00000000       0.06666667 </v>
    </varray>
   </crystal>
   <varray name="positions" >
    <v>       0.00414618       0.00269483       0.11857596 </v>
    <v>       0.35676691       0.00281172       0.09798061 </v>
    <v>       0.00415714       0.35538887       0.09807059 </v>
    <v>       0.65167061       0.65006177       0.09803369 </v>
    <v>       0.32649645       0.32484162       0.10026752 </v>
    <v>       0.68219364       0.00285556       0.10031692 </v>
    <v>       0.00418054       0.68049915       0.10025162 </v>
    <v>       0.08328831       0.41665821       0.33646942 </v>
    <v>       0.24988808       0.24998526       0.33658826 </v>
    <v>       0.08321671       0.91664327       0.33646073 </v>
    <v>       0.24983427       0.75006460       0.33642939 </v>
    <v>       0.58331419       0.41668040       0.33641793 </v>
    <v>       0.74996737       0.25002943       0.33646008 </v>
    <v>       0.58339900       0.91675017       0.33656298 </v>
    <v>       0.75010793       0.75013581       0.33649364 </v>
   </varray>
  </structure>
  <varray name="forces" >
   <v>       0.00117092       0.00159388      -0.26202265 </v>
   <v>       0.05763942       0.03006749       0.05008528 </v>
   <v>      -0.03948441       0.02869999       0.05785389 </v>
   <v>       0.00648080      -0.05553800       0.05575696 </v>
   <v>       0.00180832       0.09932466       0.01991306 </v>
   <v>      -0.08571164      -0.05541958       0.02788492 </v>
   <v>       0.08832864      -0.04795230       0.02265018 </v>
   <v>      -0.02692816       0.01690740       0.00352182 </v>
   <v>       0.00588156       0.04365376       0.00266724 </v>
   <v>       0.00258500       0.04695378       0.00663561 </v>
   <v>       0.08658598       0.03586414       0.00236618 </v>
   <v>      -0.02024615      -0.00280498       0.00499120 </v>
   <v>      -0.00600136      -0.00268082       0.00133859 </v>
   <v>      -0.03846465      -0.05053312       0.00394034 </v>
   <v>      -0.03364427      -0.08813629       0.00241737 </v>
  </varray>
  <varray name="stress" >
   <v>     -17.04258800       0.10082992      -0.56441499 </v>
   <v>       0.10082988     -17.40661584      -0.01626825 </v>
   <v>      -0.56441498      -0.01626829      -2.02357643 </v>
  </varray>
  <energy>
   <i name="e_fr_energy">   -127.09507734 </i>
   <i name="e_wo_entrp">   -127.09351470 </i>
   <i name="e_0_energy">   -127.09429602 </i>
  </energy>
  <time name="totalsc">   53.54   53.94</time>
 </calculation>
 <calculation>
  <scstep>
   <time name="dav">    5.62    5.66</time>
   <time name="total">    5.93    5.98</time>
   <energy>
    <i name="alphaZ">     58.01936780 </i>
    <i name="ewald">   4678.42298677 </i>
    <i name="hartreedc">  -6434.41465273 </i>
    <i name="XCdc">    180.28698408 </i>
    <i name="pawpsdc">   5688.00026979 </i>
    <i name="pawaedc">  -5692.39069830 </i>
    <i name="eentropy">     -0.00156165 </i>
    <i name="bandstr">   -506.70032413 </i>
    <i name="atom">   1903.26342058 </i>
    <i name="e_fr_energy">   -125.51420779 </i>
    <i name="e_wo_entrp">   -125.51264615 </i>
    <i name="e_0_energy">   -125.51342697 </i>
   </energy>
  </scstep>
  <scstep>
   <time name="dav">   11.58   11.65</time>
   <time name="total">   11.89   11.97</time>
   <energy>
    <i name="e_fr_energy">   -125.51474899 </i>
    <i name="e_wo_entrp">   -125.51318688 </i>
    <i name="e_0_energy">   -125.51396793 </i>
   </energy>
  </scstep>
  <scstep>
   <time name="dav">    8.74    8.79</time>
   <time name="total">    9.05    9.12</time>
   <energy>
    <i name="e_fr_energy">   -125.51471886 </i>
    <i name="e_wo_entrp">   -125.51315642 </i>
    <i name="e_0_energy">   -125.51393764 </i>
   </energy>
  </scstep>
  <scstep>
   <time name="dav">   11.68   11.75</time>
   <time name="total">   11.98   12.07</time>
   <energy>
    <i name="e_fr_energy">   -125.51472715 </i>
    <i name="e_wo_entrp">   -125.51316456 </i>
    <i name="e_0_energy">   -125.51394585 </i>
   </energy>
  </scstep>
  <scstep>
   <time name="dav">    9.42    9.47</time>
   <time name="total">    9.72    9.79</time>
   <energy>
    <i name="e_fr_energy">   -125.51473081 </i>
    <i name="e_wo_entrp">   -125.51316821 </i>
    <i name="e_0_energy">   -125.51394951 </i>
   </energy>
  </scstep>
  <scstep>
   <time name="dav">   10.31   10.37</time>
   <time name="total">   10.35   10.41</time>
   <energy>
    <i name="alphaZ">     58.01936780 </i>
    <i name="ewald">   4678.42298677 </i>
    <i name="hartreedc">  -6434.37113918 </i>
    <i name="XCdc">    180.28451608 </i>
    <i name="pawpsdc">   5700.69050282 </i>
    <i name="pawaedc">  -5705.08542763 </i>
    <i name="eentropy">     -0.00156257 </i>
    <i name="bandstr">   -506.73739563 </i>
    <i name="atom">   1903.26342058 </i>
    <i name="e_fr_energy">   -125.51473097 </i>
    <i name="e_wo_entrp">   -125.51316840 </i>
    <i name="e_0_energy">   -125.51394969 </i>
   </energy>
  </scstep>
  <structure>
   <crystal>
    <varray name="basis" >
     <v>       4.20715141       2.42900000       0.00000000 </v>
     <v>      -4.20715141       2.42900000       0.00000000 </v>
     <v>       0.00000000       0.00000000      15.00000000 </v>
    </varray>
    <i name="volume">    306.57512336 </i>
    <varray name="rec_basis" >
     <v>       0.11884526       0.20584603       0.00000000 </v>
     <v>      -0.11884526       0.20584603       0.00000000 </v>
     <v>       0.00000000       0.00000000       0.06666667 </v>
    </varray>
   </crystal>
   <varray name="positions" >
    <v>       0.00414232       0.00276410       0.11546435 </v>
    <v>       0.35810716       0.00272365       0.09886723 </v>
    <v>       0.00406792       0.35663334       0.09911692 </v>
    <v>       0.65061319       0.64852672       0.09903994 </v>
    <v>       0.32697504       0.32484422       0.10016743 </v>
    <v>       0.68209412       0.00295834       0.10035985 </v>
    <v>       0.00421458       0.68015559       0.10019419 </v>
    <v>       0.08318670       0.41648043       0.33648093 </v>
    <v>       0.24933699       0.24958565       0.33679433 </v>
    <v>       0.08266629       0.91639573       0.33646289 </v>
    <v>       0.24895833       0.75030387       0.33636645 </v>
    <v>       0.58332671       0.41674745       0.33634392 </v>
    <v>       0.74996872       0.25010585       0.33644817 </v>
    <v>       0.58392068       0.91705581       0.33673218 </v>
    <v>       0.75104859       0.75081990       0.33654056 </v>
   </varray>
  </structure>
  <varray name="forces" >
   <v>       0.01153892       0.00138779      -0.21517038 </v>
   <v>      -0.01445544      -0.01148355      -0.03595683 </v>
   <v>       0.05480517      -0.00852122      -0.04852006 </v>
   <v>      -0.01078161       0.03257652      -0.04568399 </v>
   <v>      -0.02279095       0.08386137       0.10931425 </v>
   <v>      -0.06368976      -0.06349423       0.10256570 </v>
   <v>       0.07123521      -0.03371140       0.10848327 </v>
   <v>      -0.11681303       0.08300304       0.00857205 </v>
   <v>       0.03077042       0.23377516      -0.04083103 </v>
   <v>       0.04265945       0.23680040       0.02062943 </v>
   <v>       0.45582387       0.17603397       0.02476350 </v>
   <v>      -0.07208030      -0.01779696       0.03520258 </v>
   <v>      -0.01977327      -0.01706206       0.00811785 </v>
   <v>      -0.17590420      -0.24301042      -0.02852449 </v>
   <v>      -0.17054448      -0.45235840      -0.00296185 </v>
  </varray>
  <varray name="stress" >
   <v>     -15.75804590       0.13899715      -0.47445222 </v>
   <v>       0.13899716     -16.64434960      -0.01737942 </v>
   <v>      -0.47445222      -0.01737943      -1.92784715 </v>
  </varray>
  <energy>
   <i name="e_fr_energy">   -127.10292095 </i>
   <i name="e_wo_entrp">   -127.10135838 </i>
   <i name="e_0_energy">   -127.10213966 </i>
  </energy>
  <time name="totalsc">   63.74   64.20</time>
 </calculation>
 <calculation>
  <scstep>
   <time name="dav">    5.73    5.77</time>
   <time name="total">    6.04    6.09</time>
   <energy>
    <i name="alphaZ">     58.01936780 </i>
    <i name="ewald">   4678.46033636 </i>
    <i name="hartreedc">  -6434.35228094 </i>
    <i name="XCdc">    180.28788136 </i>
    <i name="pawpsdc">   5700.69288666 </i>
    <i name="pawaedc">  -5705.08780972 </i>
    <i name="eentropy">     -0.00156458 </i>
    <i name="bandstr">   -506.79893324 </i>
    <i name="atom">   1903.26342058 </i>
    <i name="e_fr_energy">   -125.51669573 </i>
    <i name="e_wo_entrp">   -125.51513115 </i>
    <i name="e_0_energy">   -125.51591344 </i>
   </energy>
  </scstep>
  <scstep>
   <time name="dav">   11.88   11.95</time>
   <time name="total">   12.18   12.26</time>
   <energy>
    <i name="e_fr_energy">   -125.51670007 </i>
    <i name="e_wo_entrp">   -125.51513554 </i>
    <i name="e_0_energy">   -125.51591781 </i>
   </energy>
  </scstep>
  <scstep>
   <time name="dav">    9.22    9.28</time>
   <time name="total">    9.53    9.60</time>
   <energy>
    <i name="e_fr_energy">   -125.51669834 </i>
    <i name="e_wo_entrp">   -125.51513386 </i>
    <i name="e_0_energy">   -125.51591610 </i>
   </energy>
  </scstep>
  <scstep>
   <time name="dav">   10.77   10.83</time>
   <time name="total">   10.80   10.86</time>
   <energy>
    <i name="alphaZ">     58.01936780 </i>
    <i name="ewald">   4678.46033636 </i>
    <i name="hartreedc">  -6434.33815851 </i>
    <i name="XCdc">    180.28743376 </i>
    <i name="pawpsdc">   5701.56770450 </i>
    <i name="pawaedc">  -5705.96297697 </i>
    <i name="eentropy">     -0.00156446 </i>
    <i name="bandstr">   -506.81226187 </i>
    <i name="atom">   1903.26342058 </i>
    <i name="e_fr_energy">   -125.51669882 </i>
    <i name="e_wo_entrp">   -125.51513435 </i>
    <i name="e_0_energy">   -125.51591658 </i>
   </energy>
  </scstep>
  <structure>
   <crystal>
    <varray name="basis" >
     <v>       4.20715141       2.42900000       0.00000000 </v>
     <v>      -4.20715141       2.42900000       0.00000000 </v>
     <v>       0.00000000       0.00000000      15.00000000 </v>
    </varray>
    <i name="volume">    306.57512336 </i>
    <varray name="rec_basis" >
     <v>       0.11884526       0.20584603       0.00000000 </v>
     <v>      -0.11884526       0.20584603       0.00000000 </v>
     <v>       0.00000000       0.00000000       0.06666667 </v>
    </varray>
   </crystal>
   <varray name="positions" >
    <v>       0.00414589       0.00276822       0.11512986 </v>
    <v>       0.35822687       0.00271361       0.09894714 </v>
    <v>       0.00407060       0.35673387       0.09921026 </v>
    <v>       0.65052397       0.64839747       0.09912987 </v>
    <v>       0.32705580       0.32489189       0.10017506 </v>
    <v>       0.68203552       0.00295521       0.10038022 </v>
    <v>       0.00422149       0.68008585       0.10020582 </v>
    <v>       0.08318450       0.41653678       0.33648340 </v>
    <v>       0.24940670       0.24965262       0.33680776 </v>
    <v>       0.08274090       0.91647550       0.33646637 </v>
    <v>       0.24908837       0.75028439       0.33636429 </v>
    <v>       0.58329888       0.41676557       0.33634234 </v>
    <v>       0.74995493       0.25011047       0.33644830 </v>
    <v>       0.58380267       0.91701620       0.33674401 </v>
    <v>       0.75087025       0.75071302       0.33654462 </v>
   </varray>
  </structure>
  <varray name="forces" >
   <v>       0.01265745       0.00112216      -0.21001367 </v>
   <v>      -0.02189128      -0.01586675      -0.04031826 </v>
   <v>       0.06146209      -0.01180819      -0.05454019 </v>
   <v>      -0.01209327       0.04046422      -0.05130034 </v>
   <v>      -0.02392003       0.07392347       0.11367080 </v>
   <v>      -0.05375172      -0.05861936       0.10555478 </v>
   <v>       0.06314380      -0.02859837       0.11232642 </v>
   <v>      -0.09748224       0.07018362       0.00864118 </v>
   <v>       0.01937097       0.20599551      -0.04300398 </v>
   <v>       0.04173918       0.19863203       0.02095737 </v>
   <v>       0.38961884       0.15216911       0.02624929 </v>
   <v>      -0.05617034      -0.01747120       0.03656936 </v>
   <v>      -0.02077443      -0.01610545       0.00874040 </v>
   <v>      -0.15048045      -0.20727164      -0.03053817 </v>
   <v>      -0.15142854      -0.38674916      -0.00299498 </v>
  </varray>
  <varray name="stress" >
   <v>     -15.76187584       0.11183343      -0.46631462 </v>
   <v>       0.11183344     -16.50691911      -0.01616972 </v>
   <v>      -0.46631464      -0.01616970      -1.91275977 </v>
  </varray>
  <energy>
   <i name="e_fr_energy">   -127.10485823 </i>
   <i name="e_wo_entrp">   -127.10329377 </i>
   <i name="e_0_energy">   -127.10407600 </i>
  </energy>
  <time name="totalsc">   43.40   43.70</time>
 </calculation>
 <calculation>
  <scstep>
   <time name="dav">    5.59    5.63</time>
   <time name="total">    5.90    5.95</time>
   <energy>
    <i name="alphaZ">     58.01936780 </i>
    <i name="ewald">   4678.53451399 </i>
    <i name="hartreedc">  -6434.27126905 </i>
    <i name="XCdc">    180.29725419 </i>
    <i name="pawpsdc">   5701.63799513 </i>
    <i name="pawaedc">  -5706.03328077 </i>
    <i name="eentropy">     -0.00156361 </i>
    <i name="bandstr">   -506.96769864 </i>
    <i name="atom">   1903.26342058 </i>
    <i name="e_fr_energy">   -125.52126038 </i>
    <i name="e_wo_entrp">   -125.51969677 </i>
    <i name="e_0_energy">   -125.52047858 </i>
   </energy>
  </scstep>
  <scstep>
   <time name="dav">   11.74   11.80</time>
   <time name="total">   12.05   12.12</time>
   <energy>
    <i name="e_fr_energy">   -125.52129527 </i>
    <i name="e_wo_entrp">   -125.51973145 </i>
    <i name="e_0_energy">   -125.52051336 </i>
   </energy>
  </scstep>
  <scstep>
   <time name="dav">    8.01    8.06</time>
   <time name="total">    8.32    8.38</time>
   <energy>
    <i name="e_fr_energy">   -125.52127941 </i>
    <i name="e_wo_entrp">   -125.51971530 </i>
    <i name="e_0_energy">   -125.52049735 </i>
   </energy>
  </scstep>
  <scstep>
   <time name="dav">   11.15   11.22</time>
   <time name="total">   11.46   11.54</time>
   <energy>
    <i name="e_fr_energy">   -125.52128046 </i>
    <i name="e_wo_entrp">   -125.51971634 </i>
    <i name="e_0_energy">   -125.52049840 </i>
   </energy>
  </scstep>
  <scstep>
   <time name="dav">    8.89    8.95</time>
   <time name="total">    8.93    8.98</time>
   <energy>
    <i name="alphaZ">     58.01936780 </i>
    <i name="ewald">   4678.53451399 </i>
    <i name="hartreedc">  -6434.27536673 </i>
    <i name="XCdc">    180.29641687 </i>
    <i name="pawpsdc">   5704.48532353 </i>
    <i name="pawaedc">  -5708.88167690 </i>
    <i name="eentropy">     -0.00156411 </i>
    <i name="bandstr">   -506.96171633 </i>
    <i name="atom">   1903.26342058 </i>
    <i name="e_fr_energy">   -125.52128130 </i>
    <i name="e_wo_entrp">   -125.51971719 </i>
    <i name="e_0_energy">   -125.52049925 </i>
   </energy>
  </scstep>
  <structure>
   <crystal>
    <varray name="basis" >
     <v>       4.20715141       2.42900000       0.00000000 </v>
     <v>      -4.20715141       2.42900000       0.00000000 </v>
     <v>       0.00000000       0.00000000      15.00000000 </v>
    </varray>
    <i name="volume">    306.57512336 </i>
    <varray name="rec_basis" >
     <v>       0.11884526       0.20584603       0.00000000 </v>
     <v>      -0.11884526       0.20584603       0.00000000 </v>
     <v>       0.00000000       0.00000000       0.06666667 </v>
    </varray>
   </crystal>
   <varray name="positions" >
    <v>       0.00415657       0.00278055       0.11412640 </v>
    <v>       0.35858602       0.00268350       0.09918689 </v>
    <v>       0.00407865       0.35703547       0.09949031 </v>
    <v>       0.65025630       0.64800970       0.09939965 </v>
    <v>       0.32729807       0.32503487       0.10019797 </v>
    <v>       0.68185970       0.00294580       0.10044135 </v>
    <v>       0.00424223       0.67987662       0.10024069 </v>
    <v>       0.08317788       0.41670583       0.33649080 </v>
    <v>       0.24961581       0.24985354       0.33684806 </v>
    <v>       0.08296471       0.91671483       0.33647679 </v>
    <v>       0.24947850       0.75022596       0.33635782 </v>
    <v>       0.58321541       0.41681991       0.33633762 </v>
    <v>       0.74991357       0.25012433       0.33644871 </v>
    <v>       0.58344866       0.91689738       0.33677948 </v>
    <v>       0.75033524       0.75039238       0.33655680 </v>
   </varray>
  </structure>
  <varray name="forces" >
   <v>       0.01588314       0.00023655      -0.19628979 </v>
   <v>      -0.04594482      -0.02963811      -0.05313327 </v>
   <v>       0.08278618      -0.02289847      -0.07236234 </v>
   <v>      -0.01589825       0.06575671      -0.06787558 </v>
   <v>      -0.02680918       0.04273406       0.12711451 </v>
   <v>      -0.02286329      -0.04287795       0.11503234 </v>
   <v>       0.03737223      -0.01287253       0.12435806 </v>
   <v>      -0.03955945       0.03188235       0.00888745 </v>
   <v>      -0.01476581       0.12281165      -0.04976916 </v>
   <v>       0.03976368       0.08628053       0.02180065 </v>
   <v>       0.19162775       0.07986942       0.03068134 </v>
   <v>      -0.00842492      -0.01654742       0.04078928 </v>
   <v>      -0.02406586      -0.01321471       0.01062345 </v>
   <v>      -0.07364451      -0.09962183      -0.03665927 </v>
   <v>      -0.09545687      -0.19190025      -0.00319766 </v>
  </varray>
  <varray name="stress" >
   <v>     -15.77295059       0.03885527      -0.44130991 </v>
   <v>       0.03885532     -16.08781292      -0.01226173 </v>
   <v>      -0.44130992      -0.01226172      -1.90539133 </v>
  </varray>
  <energy>
   <i name="e_fr_energy">   -127.10934109 </i>
   <i name="e_wo_entrp">   -127.10777698 </i>
   <i name="e_0_energy">   -127.10855903 </i>
  </energy>
  <time name="totalsc">   51.47   51.84</time>
 </calculation>
 <calculation>
  <scstep>
   <time name="dav">    5.60    5.64</time>
   <time name="total">    5.91    5.96</time>
   <energy>
    <i name="alphaZ">     58.01936780 </i>
    <i name="ewald">   4678.51106063 </i>
    <i name="hartreedc">  -6434.01521118 </i>
    <i name="XCdc">    180.31319554 </i>
    <i name="pawpsdc">   5704.57145329 </i>
    <i name="pawaedc">  -5708.96780816 </i>
    <i name="eentropy">     -0.00153168 </i>
    <i name="bandstr">   -507.21847233 </i>
    <i name="atom">   1903.26342058 </i>
    <i name="e_fr_energy">   -125.52452551 </i>
    <i name="e_wo_entrp">   -125.52299384 </i>
    <i name="e_0_energy">   -125.52375968 </i>
   </energy>
  </scstep>
  <scstep>
   <time name="dav">   11.59   11.66</time>
   <time name="total">   11.89   11.98</time>
   <energy>
    <i name="e_fr_energy">   -125.52466780 </i>
    <i name="e_wo_entrp">   -125.52313411 </i>
    <i name="e_0_energy">   -125.52390095 </i>
   </energy>
  </scstep>
  <scstep>
   <time name="dav">    8.94    9.00</time>
   <time name="total">    9.25    9.32</time>
   <energy>
    <i name="e_fr_energy">   -125.52460169 </i>
    <i name="e_wo_entrp">   -125.52306574 </i>
    <i name="e_0_energy">   -125.52383372 </i>
   </energy>
  </scstep>
  <scstep>
   <time name="dav">   10.90   10.96</time>
   <time name="total">   11.20   11.28</time>
   <energy>
    <i name="e_fr_energy">   -125.52460568 </i>
    <i name="e_wo_entrp">   -125.52306948 </i>
    <i name="e_0_energy">   -125.52383758 </i>
   </energy>
  </scstep>
  <scstep>
   <time name="dav">    9.45    9.51</time>
   <time name="total">    9.76    9.83</time>
   <energy>
    <i name="e_fr_energy">   -125.52460831 </i>
    <i name="e_wo_entrp">   -125.52307210 </i>
    <i name="e_0_energy">   -125.52384021 </i>
   </energy>
  </scstep>
  <scstep>
   <time name="dav">   10.49   10.56</time>
   <time name="total">   10.53   10.60</time>
   <energy>
    <i name="alphaZ">     58.01936780 </i>
    <i name="ewald">   4678.51106063 </i>
    <i name="hartreedc">  -6434.04791442 </i>
    <i name="XCdc">    180.31189515 </i>
    <i name="pawpsdc">   5709.64178941 </i>
    <i name="pawaedc">  -5714.04007672 </i>
    <i name="eentropy">     -0.00153607 </i>
    <i name="bandstr">   -507.18261424 </i>
    <i name="atom">   1903.26342058 </i>
    <i name="e_fr_energy">   -125.52460788 </i>
    <i name="e_wo_entrp">   -125.52307181 </i>
    <i name="e_0_energy">   -125.52383984 </i>
   </energy>
  </scstep>
  <structure>
   <crystal>
    <varray name="basis" >
     <v>       4.20715141       2.42900000       0.00000000 </v>
     <v>      -4.20715141       2.42900000       0.00000000 </v>
     <v>       0.00000000       0.00000000      15.00000000 </v>
    </varray>
    <i name="volume">    306.57512336 </i>
    <varray name="rec_basis" >
     <v>       0.11884526       0.20584603       0.00000000 </v>
     <v>      -0.11884526       0.20584603       0.00000000 </v>
     <v>       0.00000000       0.00000000       0.06666667 </v>
    </varray>
   </crystal>
   <varray name="positions" >
    <v>       0.00417794       0.00280522       0.11211947 </v>
    <v>       0.35930432       0.00262328       0.09966638 </v>
    <v>       0.00409475       0.35763866       0.10005040 </v>
    <v>       0.64972098       0.64723418       0.09993921 </v>
    <v>       0.32778262       0.32532083       0.10024379 </v>
    <v>       0.68150808       0.00292700       0.10056361 </v>
    <v>       0.00428369       0.67945817       0.10031043 </v>
    <v>       0.08316464       0.41704393       0.33650561 </v>
    <v>       0.25003405       0.25025536       0.33692867 </v>
    <v>       0.08341233       0.91719349       0.33649763 </v>
    <v>       0.25025876       0.75010910       0.33634487 </v>
    <v>       0.58304847       0.41692858       0.33632817 </v>
    <v>       0.74983086       0.25015204       0.33644951 </v>
    <v>       0.58274063       0.91665972       0.33685042 </v>
    <v>       0.74926523       0.74975110       0.33658117 </v>
   </varray>
  </structure>
  <varray name="forces" >
   <v>       0.02235107      -0.00161288      -0.17544527 </v>
   <v>      -0.10096489      -0.06108228      -0.07666936 </v>
   <v>       0.13182115      -0.04907190      -0.10563504 </v>
   <v>      -0.02320450       0.12407268      -0.09871950 </v>
   <v>      -0.03228422      -0.02607434       0.15387214 </v>
   <v>       0.04481881      -0.00771625       0.13412153 </v>
   <v>      -0.01990672       0.02170445       0.14837174 </v>
   <v>       0.07545497      -0.04495141       0.00951832 </v>
   <v>      -0.08288172      -0.04423945      -0.06321621 </v>
   <v>       0.03660459      -0.13194556       0.02313163 </v>
   <v>      -0.20312138      -0.06898471       0.03932356 </v>
   <v>       0.08782475      -0.01462510       0.04906090 </v>
   <v>      -0.03076462      -0.00677515       0.01442008 </v>
   <v>       0.08265983       0.11962450      -0.04858839 </v>
   <v>       0.01159287       0.19167740      -0.00354613 </v>
  </varray>
  <varray name="stress" >
   <v>     -15.78923645      -0.07026396      -0.39310266 </v>
   <v>      -0.07026393     -15.24616148      -0.00259844 </v>
   <v>      -0.39310266      -0.00259846      -1.90644209 </v>
  </varray>
  <energy>
   <i name="e_fr_energy">   -127.11243333 </i>
   <i name="e_wo_entrp">   -127.11089726 </i>
   <i name="e_0_energy">   -127.11166529 </i>
  </energy>
  <time name="totalsc">   63.36   63.83</time>
 </calculation>
 <calculation>
  <scstep>
   <time name="dav">    5.61    5.66</time>
   <time name="total">    5.92    5.97</time>
   <energy>
    <i name="alphaZ">     58.01936780 </i>
    <i name="ewald">   4678.76124397 </i>
    <i name="hartreedc">  -6434.19386197 </i>
    <i name="XCdc">    180.31859979 </i>
    <i name="pawpsdc">   5709.67310633 </i>
    <i name="pawaedc">  -5714.07139296 </i>
    <i name="eentropy">     -0.00155086 </i>
    <i name="bandstr">   -507.29549960 </i>
    <i name="atom">   1903.26342058 </i>
    <i name="e_fr_energy">   -125.52656692 </i>
    <i name="e_wo_entrp">   -125.52501606 </i>
    <i name="e_0_energy">   -125.52579149 </i>
   </energy>
  </scstep>
  <scstep>
   <time name="dav">    9.83    9.89</time>
   <time name="total">   10.14   10.21</time>
   <energy>
    <i name="e_fr_energy">   -125.52658916 </i>
    <i name="e_wo_entrp">   -125.52503878 </i>
    <i name="e_0_energy">   -125.52581397 </i>
   </energy>
  </scstep>
  <scstep>
   <time name="dav">    8.63    8.68</time>
   <time name="total">    8.94    9.00</time>
   <energy>
    <i name="e_fr_energy">   -125.52658694 </i>
    <i name="e_wo_entrp">   -125.52503723 </i>
    <i name="e_0_energy">   -125.52581209 </i>
   </energy>
  </scstep>
  <scstep>
   <time name="dav">   10.88   10.96</time>
   <time name="total">   10.92   10.99</time>
   <energy>
    <i name="alphaZ">     58.01936780 </i>
    <i name="ewald">   4678.76124397 </i>
    <i name="hartreedc">  -6434.26474261 </i>
    <i name="XCdc">    180.31828142 </i>
    <i name="pawpsdc">   5711.74018316 </i>
    <i name="pawaedc">  -5716.13924507 </i>
    <i name="eentropy">     -0.00154972 </i>
    <i name="bandstr">   -507.22354667 </i>
    <i name="atom">   1903.26342058 </i>
    <i name="e_fr_energy">   -125.52658713 </i>
    <i name="e_wo_entrp">   -125.52503742 </i>
    <i name="e_0_energy">   -125.52581227 </i>
   </energy>
  </scstep>
  <structure>
   <crystal>
    <varray name="basis" >
     <v>       4.20715141       2.42900000       0.00000000 </v>
     <v>      -4.20715141       2.42900000       0.00000000 </v>
     <v>       0.00000000       0.00000000      15.00000000 </v>
    </varray>
    <i name="volume">    306.57512336 </i>
    <varray name="rec_basis" >
     <v>       0.11884526       0.20584603       0.00000000 </v>
     <v>      -0.11884526       0.20584603       0.00000000 </v>
     <v>       0.00000000       0.00000000       0.06666667 </v>
    </varray>
   </crystal>
   <varray name="positions" >
    <v>       0.00419971       0.00279265       0.11144769 </v>
    <v>       0.35935359       0.00260164       0.09977433 </v>
    <v>       0.00413650       0.35764593       0.10016937 </v>
    <v>       0.64971395       0.64719272       0.10005517 </v>
    <v>       0.32786486       0.32539530       0.10032553 </v>
    <v>       0.68142885       0.00287547       0.10065923 </v>
    <v>       0.00430993       0.67937974       0.10039682 </v>
    <v>       0.08315882       0.41702290       0.33651421 </v>
    <v>       0.25003184       0.25037923       0.33692452 </v>
    <v>       0.08339321       0.91712572       0.33651405 </v>
    <v>       0.25023487       0.75014058       0.33635846 </v>
    <v>       0.58304842       0.41687136       0.33634711 </v>
    <v>       0.74977280       0.25017528       0.33645614 </v>
    <v>       0.58276003       0.91668775       0.33684988 </v>
    <v>       0.74921993       0.74981439       0.33658681 </v>
   </varray>
  </structure>
  <varray name="forces" >
   <v>       0.02257684      -0.00198730      -0.15836908 </v>
   <v>      -0.09259778      -0.05586417      -0.06987165 </v>
   <v>       0.11827217      -0.04375555      -0.10034178 </v>
   <v>      -0.02339194       0.11249777      -0.09284735 </v>
   <v>      -0.02945741      -0.02842857       0.14283452 </v>
   <v>       0.04633869      -0.00322784       0.12149958 </v>
   <v>      -0.01964460       0.02090937       0.13702403 </v>
   <v>       0.05032756      -0.03929583       0.00833583 </v>
   <v>      -0.04038527      -0.07465806      -0.05964430 </v>
   <v>      -0.00028012      -0.10978709       0.02100669 </v>
   <v>      -0.18697412      -0.07194794       0.03893968 </v>
   <v>       0.04784548       0.00053025       0.04604417 </v>
   <v>      -0.00604700       0.00000210       0.01519489 </v>
   <v>       0.06725096       0.11019517      -0.04733283 </v>
   <v>       0.04616654       0.18481768      -0.00247238 </v>
  </varray>
  <varray name="stress" >
   <v>     -15.48995647      -0.03102783      -0.38173673 </v>
   <v>      -0.03102780     -15.24331917      -0.00427164 </v>
   <v>      -0.38173672      -0.00427165      -1.88390070 </v>
  </varray>
  <energy>
   <i name="e_fr_energy">   -127.11429081 </i>
   <i name="e_wo_entrp">   -127.11274109 </i>
   <i name="e_0_energy">   -127.11351595 </i>
  </energy>
[...]
       <r>     2.7245     0.8385    30.9054 </r>
       <r>     2.8309     0.5510    30.9640 </r>
       <r>     2.9374     1.0610    31.0770 </r>
       <r>     3.0438     1.4972    31.2363 </r>
       <r>     3.1502     1.3246    31.3773 </r>
       <r>     3.2567     1.2417    31.5095 </r>
       <r>     3.3631     1.3205    31.6501 </r>
       <r>     3.4696     1.4762    31.8072 </r>
       <r>     3.5760     2.3227    32.0544 </r>
       <r>     3.6824     3.1505    32.3898 </r>
       <r>     3.7889     3.1290    32.7228 </r>
       <r>     3.8953     2.9358    33.0353 </r>
       <r>     4.0018     2.9772    33.3522 </r>
       <r>     4.1082     3.3860    33.7126 </r>
       <r>     4.2147     3.0976    34.0423 </r>
       <r>     4.3211     3.0062    34.3623 </r>
       <r>     4.4275     2.8402    34.6646 </r>
       <r>     4.5340     2.7186    34.9540 </r>
       <r>     4.6404     2.6481    35.2359 </r>
       <r>     4.7469     3.5213    35.6107 </r>
       <r>     4.8533     3.1629    35.9473 </r>
       <r>     4.9597     2.6628    36.2308 </r>
       <r>     5.0662     3.1588    36.5670 </r>
       <r>     5.1726     3.5681    36.9468 </r>
       <r>     5.2791     3.1014    37.2769 </r>
       <r>     5.3855     2.7081    37.5652 </r>
       <r>     5.4920     2.7030    37.8529 </r>
       <r>     5.5984     3.3453    38.2090 </r>
       <r>     5.7048     2.7841    38.5053 </r>
       <r>     5.8113     3.1386    38.8394 </r>
       <r>     5.9177     2.6736    39.1240 </r>
       <r>     6.0242     2.5260    39.3929 </r>
       <r>     6.1306     1.9111    39.5963 </r>
       <r>     6.2370     2.4167    39.8535 </r>
       <r>     6.3435     2.9457    40.1671 </r>
       <r>     6.4499     3.0269    40.4893 </r>
       <r>     6.5564     3.3505    40.8459 </r>
       <r>     6.6628     3.5985    41.2289 </r>
       <r>     6.7693     3.9917    41.6538 </r>
       <r>     6.8757     3.2083    41.9953 </r>
       <r>     6.9821     3.2467    42.3409 </r>
       <r>     7.0886     3.5008    42.7135 </r>
       <r>     7.1950     2.8360    43.0154 </r>
       <r>     7.3015     2.5164    43.2832 </r>
       <r>     7.4079     2.3835    43.5369 </r>
       <r>     7.5143     3.2051    43.8781 </r>
       <r>     7.6208     3.2686    44.2260 </r>
       <r>     7.7272     4.0915    44.6615 </r>
       <r>     7.8337     4.1396    45.1021 </r>
       <r>     7.9401     3.0816    45.4302 </r>
       <r>     8.0466     4.1006    45.8666 </r>
       <r>     8.1530     4.7083    46.3678 </r>
       <r>     8.2594     4.5878    46.8561 </r>
       <r>     8.3659     4.6760    47.3538 </r>
       <r>     8.4723     3.1321    47.6872 </r>
       <r>     8.5788     1.5301    47.8501 </r>
       <r>     8.6852     0.6426    47.9185 </r>
       <r>     8.7916     0.4037    47.9615 </r>
       <r>     8.8981     0.2930    47.9927 </r>
       <r>     9.0045     0.0663    47.9997 </r>
       <r>     9.1110     0.0026    48.0000 </r>
       <r>     9.2174     0.0000    48.0000 </r>
       <r>     9.3239     0.0000    48.0000 </r>
       <r>     9.4303     0.0000    48.0000 </r>
       <r>     9.5367     0.0000    48.0000 </r>
       <r>     9.6432     0.0000    48.0000 </r>
       <r>     9.7496     0.0000    48.0000 </r>
       <r>     9.8561     0.0000    48.0000 </r>
       <r>     9.9625     0.0000    48.0000 </r>
       <r>    10.0689     0.0000    48.0000 </r>
       <r>    10.1754     0.0000    48.0000 </r>
       <r>    10.2818     0.0000    48.0000 </r>
      </set>
      <set comment="spin 2">
       <r>   -21.6507     0.0000     0.0000 </r>
       <r>   -21.5442     0.0000     0.0000 </r>
       <r>   -21.4378     0.0000     0.0000 </r>
       <r>   -21.3314     0.0000     0.0000 </r>
       <r>   -21.2249     0.0000     0.0000 </r>
       <r>   -21.1185     0.0000     0.0000 </r>
       <r>   -21.0120     0.0000     0.0000 </r>
       <r>   -20.9056     0.0000     0.0000 </r>
       <r>   -20.7992     0.0000     0.0000 </r>
       <r>   -20.6927     0.0000     0.0000 </r>
       <r>   -20.5863     0.0000     0.0000 </r>
       <r>   -20.4798     0.0000     0.0000 </r>
       <r>   -20.3734     0.0009     0.0001 </r>
       <r>   -20.2669     0.0350     0.0038 </r>
       <r>   -20.1605     0.2536     0.0308 </r>
       <r>   -20.0541     0.5328     0.0875 </r>
       <r>   -19.9476     0.5809     0.1494 </r>
       <r>   -19.8412     0.6334     0.2168 </r>
       <r>   -19.7347     0.5346     0.2737 </r>
       <r>   -19.6283     0.6909     0.3472 </r>
       <r>   -19.5219     0.5406     0.4048 </r>
       <r>   -19.4154     0.5489     0.4632 </r>
       <r>   -19.3090     0.7703     0.5452 </r>
       <r>   -19.2025     0.4877     0.5971 </r>
       <r>   -19.0961     0.5023     0.6506 </r>
       <r>   -18.9896     0.7854     0.7342 </r>
       <r>   -18.8832     0.6657     0.8050 </r>
       <r>   -18.7768     0.3784     0.8453 </r>
       <r>   -18.6703     0.5698     0.9060 </r>
       <r>   -18.5639     0.8853     1.0002 </r>
       <r>   -18.4574     0.5827     1.0622 </r>
       <r>   -18.3510     0.4851     1.1138 </r>
       <r>   -18.2446     0.3872     1.1551 </r>
       <r>   -18.1381     0.8592     1.2465 </r>
       <r>   -18.0317     0.8404     1.3360 </r>
       <r>   -17.9252     0.4478     1.3836 </r>
       <r>   -17.8188     0.4270     1.4291 </r>
       <r>   -17.7123     0.5296     1.4855 </r>
       <r>   -17.6059     0.8074     1.5714 </r>
       <r>   -17.4995     0.8664     1.6636 </r>
       <r>   -17.3930     0.7560     1.7441 </r>
       <r>   -17.2866     0.9148     1.8415 </r>
       <r>   -17.1801     1.3597     1.9862 </r>
       <r>   -17.0737     1.9027     2.1887 </r>
       <r>   -16.9673     2.0419     2.4061 </r>
       <r>   -16.8608     2.3005     2.6509 </r>
       <r>   -16.7544     2.7176     2.9402 </r>
       <r>   -16.6479     1.8375     3.1358 </r>
       <r>   -16.5415     0.5268     3.1919 </r>
       <r>   -16.4350     0.9549     3.2935 </r>
       <r>   -16.3286     1.0213     3.4022 </r>
       <r>   -16.2222     0.5818     3.4642 </r>
       <r>   -16.1157     0.5289     3.5205 </r>
       <r>   -16.0093     0.5024     3.5739 </r>
       <r>   -15.9028     0.4784     3.6249 </r>
       <r>   -15.7964     0.4935     3.6774 </r>
       <r>   -15.6900     1.0661     3.7909 </r>
       <r>   -15.5835     1.0034     3.8977 </r>
       <r>   -15.4771     0.4958     3.9504 </r>
       <r>   -15.3706     0.4957     4.0032 </r>
       <r>   -15.2642     0.4418     4.0502 </r>
       <r>   -15.1577     0.6058     4.1147 </r>
       <r>   -15.0513     0.8295     4.2030 </r>
       <r>   -14.9449     1.5207     4.3649 </r>
       <r>   -14.8384     2.2664     4.6061 </r>
       <r>   -14.7320     2.3920     4.8607 </r>
       <r>   -14.6255     2.1410     5.0886 </r>
       <r>   -14.5191     1.2905     5.2260 </r>
       <r>   -14.4126     1.0567     5.3385 </r>
       <r>   -14.3062     1.9914     5.5504 </r>
       <r>   -14.1998     1.9129     5.7540 </r>
       <r>   -14.0933     1.4473     5.9081 </r>
       <r>   -13.9869     1.3636     6.0532 </r>
       <r>   -13.8804     1.7384     6.2383 </r>
       <r>   -13.7740     2.5631     6.5111 </r>
       <r>   -13.6676     2.4504     6.7719 </r>
       <r>   -13.5611     2.2342     7.0097 </r>
       <r>   -13.4547     1.2423     7.1420 </r>
       <r>   -13.3482     0.7960     7.2267 </r>
       <r>   -13.2418     0.4302     7.2725 </r>
       <r>   -13.1353     0.5324     7.3291 </r>
       <r>   -13.0289     0.8976     7.4247 </r>
       <r>   -12.9225     0.8699     7.5173 </r>
       <r>   -12.8160     0.6223     7.5835 </r>
       <r>   -12.7096     0.9012     7.6794 </r>
       <r>   -12.6031     0.8997     7.7752 </r>
       <r>   -12.4967     0.7048     7.8502 </r>
       <r>   -12.3903     0.6894     7.9236 </r>
       <r>   -12.2838     0.4171     7.9680 </r>
       <r>   -12.1774     0.8529     8.0588 </r>
       <r>   -12.0709     1.0188     8.1672 </r>
       <r>   -11.9645     0.4041     8.2103 </r>
       <r>   -11.8580     0.4343     8.2565 </r>
       <r>   -11.7516     0.4422     8.3035 </r>
       <r>   -11.6452     0.8085     8.3896 </r>
       <r>   -11.5387     0.8383     8.4788 </r>
       <r>   -11.4323     0.4579     8.5276 </r>
       <r>   -11.3258     0.2533     8.5545 </r>
       <r>   -11.2194     0.6093     8.6194 </r>
       <r>   -11.1130     0.7443     8.6986 </r>
       <r>   -11.0065     0.6429     8.7671 </r>
       <r>   -10.9001     0.9699     8.8703 </r>
       <r>   -10.7936     0.7905     8.9544 </r>
       <r>   -10.6872     0.3390     8.9905 </r>
       <r>   -10.5807     1.0705     9.1045 </r>
       <r>   -10.4743     1.7333     9.2890 </r>
       <r>   -10.3679     1.9630     9.4979 </r>
       <r>   -10.2614     1.8325     9.6930 </r>
       <r>   -10.1550     1.9249     9.8979 </r>
       <r>   -10.0485     2.3655    10.1496 </r>
       <r>    -9.9421     2.2859    10.3930 </r>
       <r>    -9.8357     1.2204    10.5229 </r>
       <r>    -9.7292     1.0018    10.6295 </r>
       <r>    -9.6228     1.8437    10.8257 </r>
       <r>    -9.5163     1.8552    11.0232 </r>
       <r>    -9.4099     2.1209    11.2490 </r>
       <r>    -9.3034     2.0863    11.4710 </r>
       <r>    -9.1970     1.7608    11.6585 </r>
       <r>    -9.0906     1.2833    11.7951 </r>
       <r>    -8.9841     1.0363    11.9054 </r>
       <r>    -8.8777     2.1031    12.1292 </r>
       <r>    -8.7712     2.5718    12.4030 </r>
       <r>    -8.6648     1.7992    12.5945 </r>
       <r>    -8.5584     0.9871    12.6995 </r>
       <r>    -8.4519     1.5510    12.8646 </r>
       <r>    -8.3455     2.6182    13.1433 </r>
       <r>    -8.2390     2.1605    13.3733 </r>
       <r>    -8.1326     1.5795    13.5414 </r>
       <r>    -8.0261     2.2129    13.7769 </r>
       <r>    -7.9197     3.1924    14.1168 </r>
       <r>    -7.8133     3.1987    14.4572 </r>
       <r>    -7.7068     2.3518    14.7076 </r>
       <r>    -7.6004     1.2925    14.8451 </r>
       <r>    -7.4939     1.0743    14.9595 </r>
       <r>    -7.3875     2.3453    15.2091 </r>
       <r>    -7.2811     2.3429    15.4585 </r>
       <r>    -7.1746     1.5653    15.6251 </r>
       <r>    -7.0682     1.3545    15.7693 </r>
       <r>    -6.9617     2.1173    15.9947 </r>
       <r>    -6.8553     2.3867    16.2487 </r>
       <r>    -6.7488     2.6423    16.5299 </r>
       <r>    -6.6424     2.6618    16.8133 </r>
       <r>    -6.5360     2.2576    17.0536 </r>
       <r>    -6.4295     2.6671    17.3375 </r>
       <r>    -6.3231     2.2554    17.5775 </r>
       <r>    -6.2166     2.4754    17.8410 </r>
       <r>    -6.1102     3.4109    18.2041 </r>
       <r>    -6.0038     2.8788    18.5105 </r>
       <r>    -5.8973     4.0290    18.9394 </r>
       <r>    -5.7909     3.6721    19.3302 </r>
       <r>    -5.6844     2.1529    19.5594 </r>
       <r>    -5.5780     2.4116    19.8161 </r>
       <r>    -5.4715     4.2970    20.2735 </r>
       <r>    -5.3651     4.6556    20.7690 </r>
       <r>    -5.2587     2.7635    21.0632 </r>
       <r>    -5.1522     2.0297    21.2792 </r>
       <r>    -5.0458     1.3614    21.4241 </r>
       <r>    -4.9393     1.5002    21.5838 </r>
       <r>    -4.8329     1.7865    21.7740 </r>
       <r>    -4.7265     1.2978    21.9121 </r>
       <r>    -4.6200     0.9604    22.0143 </r>
       <r>    -4.5136     1.2375    22.1461 </r>
       <r>    -4.4071     2.3233    22.3934 </r>
       <r>    -4.3007     2.8888    22.7008 </r>
       <r>    -4.1942     2.5031    22.9673 </r>
       <r>    -4.0878     2.2984    23.2119 </r>
       <r>    -3.9814     2.7381    23.5034 </r>
       <r>    -3.8749     2.9937    23.8220 </r>
       <r>    -3.7685     2.3358    24.0707 </r>
       <r>    -3.6620     2.4091    24.3271 </r>
       <r>    -3.5556     2.6170    24.6057 </r>
       <r>    -3.4492     2.0202    24.8207 </r>
       <r>    -3.3427     1.7065    25.0023 </r>
       <r>    -3.2363     1.6159    25.1743 </r>
       <r>    -3.1298     2.2292    25.4116 </r>
       <r>    -3.0234     2.3362    25.6603 </r>
       <r>    -2.9169     1.5126    25.8213 </r>
       <r>    -2.8105     1.5359    25.9848 </r>
       <r>    -2.7041     0.9872    26.0899 </r>
       <r>    -2.5976     1.2672    26.2247 </r>
       <r>    -2.4912     2.4465    26.4851 </r>
       <r>    -2.3847     1.9455    26.6922 </r>
       <r>    -2.2783     0.5439    26.7501 </r>
       <r>    -2.1719     0.6317    26.8174 </r>
       <r>    -2.0654     1.3109    26.9569 </r>
       <r>    -1.9590     1.2799    27.0931 </r>
       <r>    -1.8525     1.4371    27.2461 </r>
       <r>    -1.7461     1.4625    27.4018 </r>
       <r>    -1.6396     1.2533    27.5352 </r>
       <r>    -1.5332     0.9401    27.6352 </r>
       <r>    -1.4268     0.5457    27.6933 </r>
       <r>    -1.3203     0.5228    27.7490 </r>
       <r>    -1.2139     0.5218    27.8045 </r>
       <r>    -1.1074     0.4856    27.8562 </r>
       <r>    -1.0010     0.7393    27.9349 </r>
       <r>    -0.8946     0.3916    27.9766 </r>
       <r>    -0.7881     0.0798    27.9851 </r>
       <r>    -0.6817     0.0094    27.9861 </r>
       <r>    -0.5752     0.0004    27.9861 </r>
       <r>    -0.4688     0.0087    27.9870 </r>
       <r>    -0.3623     0.0882    27.9964 </r>
       <r>    -0.2559     0.1326    28.0105 </r>
       <r>    -0.1495     0.0304    28.0138 </r>
       <r>    -0.0430     0.0010    28.0139 </r>
       <r>     0.0634     0.0000    28.0139 </r>
       <r>     0.1699     0.0056    28.0145 </r>
       <r>     0.2763     0.1300    28.0283 </r>
       <r>     0.3828     0.4226    28.0733 </r>
       <r>     0.4892     0.2204    28.0968 </r>
       <r>     0.5956     0.1592    28.1137 </r>
       <r>     0.7021     0.4726    28.1640 </r>
       <r>     0.8085     0.7669    28.2456 </r>
       <r>     0.9150     1.5296    28.4085 </r>
       <r>     1.0214     3.2200    28.7512 </r>
       <r>     1.1278     2.2581    28.9916 </r>
       <r>     1.2343     0.6270    29.0583 </r>
       <r>     1.3407     0.4232    29.1033 </r>
       <r>     1.4472     1.0342    29.2134 </r>
       <r>     1.5536     1.8779    29.4133 </r>
       <r>     1.6601     2.5550    29.6853 </r>
       <r>     1.7665     1.7989    29.8767 </r>
       <r>     1.8729     0.8582    29.9681 </r>
       <r>     1.9794     0.9753    30.0719 </r>
       <r>     2.0858     1.2671    30.2068 </r>
       <r>     2.1923     0.9085    30.3035 </r>
       <r>     2.2987     1.1302    30.4238 </r>
       <r>     2.4051     0.8366    30.5128 </r>
       <r>     2.5116     1.3358    30.6550 </r>
       <r>     2.6180     1.5139    30.8162 </r>
       <r>     2.7245     0.8385    30.9054 </r>
       <r>     2.8309     0.5510    30.9641 </r>
       <r>     2.9374     1.0610    31.0770 </r>
       <r>     3.0438     1.4972    31.2363 </r>
       <r>     3.1502     1.3246    31.3773 </r>
       <r>     3.2567     1.2417    31.5095 </r>
       <r>     3.3631     1.3205    31.6501 </r>
       <r>     3.4696     1.4761    31.8072 </r>
       <r>     3.5760     2.3226    32.0544 </r>
       <r>     3.6824     3.1504    32.3897 </r>
       <r>     3.7889     3.1288    32.7228 </r>
       <r>     3.8953     2.9359    33.0353 </r>
       <r>     4.0018     2.9773    33.3522 </r>
       <r>     4.1082     3.3859    33.7126 </r>
       <r>     4.2147     3.0976    34.0423 </r>
       <r>     4.3211     3.0060    34.3623 </r>
       <r>     4.4275     2.8404    34.6646 </r>
       <r>     4.5340     2.7187    34.9540 </r>
       <r>     4.6404     2.6484    35.2359 </r>
       <r>     4.7469     3.5220    35.6108 </r>
       <r>     4.8533     3.1635    35.9475 </r>
       <r>     4.9597     2.6622    36.2309 </r>
       <r>     5.0662     3.1593    36.5672 </r>
       <r>     5.1726     3.5681    36.9469 </r>
       <r>     5.2791     3.1014    37.2771 </r>
       <r>     5.3855     2.7082    37.5653 </r>
       <r>     5.4920     2.7031    37.8531 </r>
       <r>     5.5984     3.3449    38.2091 </r>
       <r>     5.7048     2.7852    38.5056 </r>
       <r>     5.8113     3.1374    38.8395 </r>
       <r>     5.9177     2.6728    39.1240 </r>
       <r>     6.0242     2.5260    39.3929 </r>
       <r>     6.1306     1.9120    39.5964 </r>
       <r>     6.2370     2.4176    39.8537 </r>
       <r>     6.3435     2.9449    40.1672 </r>
       <r>     6.4499     3.0257    40.4892 </r>
       <r>     6.5564     3.3513    40.8459 </r>
       <r>     6.6628     3.6000    41.2291 </r>
       <r>     6.7693     3.9929    41.6542 </r>
       <r>     6.8757     3.2086    41.9957 </r>
       <r>     6.9821     3.2474    42.3413 </r>
       <r>     7.0886     3.4990    42.7138 </r>
       <r>     7.1950     2.8348    43.0155 </r>
       <r>     7.3015     2.5158    43.2833 </r>
       <r>     7.4079     2.3856    43.5372 </r>
       <r>     7.5143     3.2035    43.8782 </r>
       <r>     7.6208     3.2673    44.2260 </r>
       <r>     7.7272     4.0944    44.6618 </r>
       <r>     7.8337     4.1436    45.1029 </r>
       <r>     7.9401     3.0807    45.4308 </r>
       <r>     8.0466     4.1006    45.8673 </r>
       <r>     8.1530     4.7050    46.3681 </r>
       <r>     8.2594     4.5844    46.8560 </r>
       <r>     8.3659     4.6753    47.3537 </r>
       <r>     8.4723     3.1326    47.6871 </r>
       <r>     8.5788     1.5305    47.8500 </r>
       <r>     8.6852     0.6432    47.9185 </r>
       <r>     8.7916     0.4038    47.9615 </r>
       <r>     8.8981     0.2930    47.9927 </r>
       <r>     9.0045     0.0663    47.9997 </r>
       <r>     9.1110     0.0026    48.0000 </r>
       <r>     9.2174     0.0000    48.0000 </r>
       <r>     9.3239     0.0000    48.0000 </r>
       <r>     9.4303     0.0000    48.0000 </r>
       <r>     9.5367     0.0000    48.0000 </r>
       <r>     9.6432     0.0000    48.0000 </r>
       <r>     9.7496     0.0000    48.0000 </r>
       <r>     9.8561     0.0000    48.0000 </r>
       <r>     9.9625     0.0000    48.0000 </r>
       <r>    10.0689     0.0000    48.0000 </r>
       <r>    10.1754     0.0000    48.0000 </r>
       <r>    10.2818     0.0000    48.0000 </r>
      </set>
     </set>
    </array>
   </total>
  </dos>
 </calculation>
 <structure name="finalpos" >
  <crystal>
   <varray name="basis" >
    <v>       4.20715141       2.42900000       0.00000000 </v>
    <v>      -4.20715141       2.42900000       0.00000000 </v>
    <v>       0.00000000       0.00000000      15.00000000 </v>
   </varray>
   <i name="volume">    306.57512336 </i>
   <varray name="rec_basis" >
    <v>       0.11884526       0.20584603       0.00000000 </v>
    <v>      -0.11884526       0.20584603       0.00000000 </v>
    <v>       0.00000000       0.00000000       0.06666667 </v>
   </varray>
  </crystal>
  <varray name="positions" >
   <v>       0.01670649      -0.00911635       0.10109243 </v>
   <v>       0.37182345      -0.00880151       0.10130798 </v>
   <v>       0.01659267       0.34589657       0.10142512 </v>
   <v>       0.66174559       0.63582501       0.10139630 </v>
   <v>       0.34030293       0.31441973       0.10122145 </v>
   <v>       0.69328657      -0.00898771       0.10135932 </v>
   <v>       0.01640779       0.66720279       0.10127395 </v>
   <v>       0.07239208       0.42702369       0.33699822 </v>
   <v>       0.23903731       0.26036146       0.33714347 </v>
   <v>       0.07240717       0.92707714       0.33704600 </v>
   <v>       0.23909466       0.76040187       0.33700510 </v>
   <v>       0.57238692       0.42704214       0.33701354 </v>
   <v>       0.73905474       0.26037910       0.33695313 </v>
   <v>       0.57235774       0.92701543       0.33711369 </v>
   <v>       0.73903122       0.76036130       0.33702962 </v>
  </varray>
 </structure>
</modeling>
