  15  15   0  16
  0.1970459E+02  0.4770000E-09  0.4770000E-09  0.1500000E-08  0.5000000E-15
  1.000000000000000E-004
  CAR 
 Lattice                                 
     10.66747642    -21.94638773  301     -0.15448277      1.00000000
    -21.946  0.0000E+00  0.0000E+00  0.0000E+00  0.0000E+00
    -21.838  0.0000E+00  0.0000E+00  0.0000E+00  0.0000E+00
    -21.729  0.0000E+00  0.0000E+00  0.0000E+00  0.0000E+00
    -21.620  0.0000E+00  0.0000E+00  0.0000E+00  0.0000E+00
    -21.512  0.0000E+00  0.0000E+00  0.0000E+00  0.0000E+00
    -21.403  0.0000E+00  0.0000E+00  0.0000E+00  0.0000E+00
    -21.294  0.0000E+00  0.0000E+00  0.0000E+00  0.0000E+00
    -21.185  0.0000E+00  0.0000E+00  0.0000E+00  0.0000E+00
    -21.077  0.0000E+00  0.0000E+00  0.0000E+00  0.0000E+00
    -20.968  0.2684E-15  0.2684E-15  0.2918E-16  0.2917E-16
    -20.859  0.6457E-11  0.6457E-11  0.7020E-12  0.7019E-12
    -20.751  0.1714E-07  0.1714E-07  0.1864E-08  0.1864E-08
    -20.642  0.5573E-05  0.5572E-05  0.6077E-06  0.6076E-06
    -20.533  0.2504E-03  0.2504E-03  0.2783E-04  0.2782E-04
    -20.424  0.1912E-02  0.1912E-02  0.2357E-03  0.2357E-03
    -20.316  0.4058E-02  0.4058E-02  0.6769E-03  0.6769E-03
    -20.207  0.4378E-02  0.4378E-02  0.1153E-02  0.1153E-02
    -20.098  0.4839E-02  0.4839E-02  0.1679E-02  0.1679E-02
    -19.990  0.3994E-02  0.3994E-02  0.2113E-02  0.2113E-02
    -19.881  0.5245E-02  0.5245E-02  0.2683E-02  0.2683E-02
    -19.772  0.4182E-02  0.4182E-02  0.3138E-02  0.3138E-02
    -19.663  0.3972E-02  0.3972E-02  0.3570E-02  0.3570E-02
    -19.555  0.5909E-02  0.5909E-02  0.4212E-02  0.4212E-02
    -19.446  0.3890E-02  0.3890E-02  0.4635E-02  0.4635E-02
    -19.337  0.3513E-02  0.3513E-02  0.5017E-02  0.5017E-02
    -19.229  0.5911E-02  0.5911E-02  0.5660E-02  0.5660E-02
    -19.120  0.5269E-02  0.5269E-02  0.6232E-02  0.6232E-02
    -19.011  0.3074E-02  0.3074E-02  0.6567E-02  0.6567E-02
    -18.902  0.3693E-02  0.3693E-02  0.6968E-02  0.6968E-02
    -18.794  0.6821E-02  0.6821E-02  0.7710E-02  0.7710E-02
    -18.685  0.4754E-02  0.4754E-02  0.8226E-02  0.8226E-02
    -18.576  0.3796E-02  0.3796E-02  0.8639E-02  0.8639E-02
    -18.468  0.2737E-02  0.2737E-02  0.8937E-02  0.8937E-02
    -18.359  0.5748E-02  0.5748E-02  0.9561E-02  0.9561E-02
    -18.250  0.6938E-02  0.6938E-02  0.1032E-01  0.1032E-01
    -18.141  0.3962E-02  0.3962E-02  0.1075E-01  0.1075E-01
    -18.033  0.2875E-02  0.2875E-02  0.1106E-01  0.1106E-01
    -17.924  0.3894E-02  0.3894E-02  0.1148E-01  0.1148E-01
    -17.815  0.5355E-02  0.5355E-02  0.1206E-01  0.1206E-01
    -17.707  0.6930E-02  0.6930E-02  0.1282E-01  0.1282E-01
    -17.598  0.5144E-02  0.5144E-02  0.1338E-01  0.1338E-01
    -17.489  0.4576E-02  0.4576E-02  0.1387E-01  0.1387E-01
    -17.380  0.7407E-02  0.7407E-02  0.1468E-01  0.1468E-01
    -17.272  0.1295E-01  0.1295E-01  0.1609E-01  0.1609E-01
    -17.163  0.1464E-01  0.1464E-01  0.1768E-01  0.1768E-01
    -17.054  0.1476E-01  0.1476E-01  0.1928E-01  0.1928E-01
    -16.946  0.1699E-01  0.1699E-01  0.2113E-01  0.2113E-01
    -16.837  0.2042E-01  0.2042E-01  0.2335E-01  0.2335E-01
    -16.728  0.1184E-01  0.1184E-01  0.2464E-01  0.2464E-01
    -16.619  0.6109E-02  0.6109E-02  0.2530E-01  0.2530E-01
    -16.511  0.9040E-02  0.9040E-02  0.2629E-01  0.2629E-01
    -16.402  0.5222E-02  0.5222E-02  0.2685E-01  0.2685E-01
    -16.293  0.4190E-02  0.4190E-02  0.2731E-01  0.2731E-01
    -16.185  0.3589E-02  0.3589E-02  0.2770E-01  0.2770E-01
    -16.076  0.4053E-02  0.4053E-02  0.2814E-01  0.2814E-01
    -15.967  0.3025E-02  0.3025E-02  0.2847E-01  0.2847E-01
    -15.858  0.5623E-02  0.5623E-02  0.2908E-01  0.2908E-01
    -15.750  0.8818E-02  0.8818E-02  0.3004E-01  0.3004E-01
    -15.641  0.5520E-02  0.5520E-02  0.3064E-01  0.3064E-01
    -15.532  0.3495E-02  0.3495E-02  0.3102E-01  0.3102E-01
    -15.424  0.3322E-02  0.3322E-02  0.3138E-01  0.3138E-01
    -15.315  0.3450E-02  0.3450E-02  0.3175E-01  0.3175E-01
    -15.206  0.5181E-02  0.5181E-02  0.3232E-01  0.3232E-01
    -15.097  0.6839E-02  0.6839E-02  0.3306E-01  0.3306E-01
    -14.989  0.1023E-01  0.1022E-01  0.3417E-01  0.3417E-01
    -14.880  0.1611E-01  0.1611E-01  0.3592E-01  0.3592E-01
    -14.771  0.1674E-01  0.1674E-01  0.3774E-01  0.3774E-01
    -14.663  0.1634E-01  0.1634E-01  0.3952E-01  0.3952E-01
    -14.554  0.1078E-01  0.1078E-01  0.4069E-01  0.4069E-01
    -14.445  0.7785E-02  0.7785E-02  0.4154E-01  0.4154E-01
    -14.336  0.1501E-01  0.1501E-01  0.4317E-01  0.4317E-01
    -14.228  0.1424E-01  0.1424E-01  0.4472E-01  0.4472E-01
    -14.119  0.9983E-02  0.9983E-02  0.4580E-01  0.4580E-01
    -14.010  0.1116E-01  0.1116E-01  0.4702E-01  0.4702E-01
    -13.902  0.1217E-01  0.1217E-01  0.4834E-01  0.4834E-01
    -13.793  0.1914E-01  0.1914E-01  0.5042E-01  0.5042E-01
    -13.684  0.2118E-01  0.2118E-01  0.5272E-01  0.5272E-01
    -13.575  0.1808E-01  0.1808E-01  0.5469E-01  0.5469E-01
    -13.467  0.1389E-01  0.1389E-01  0.5620E-01  0.5620E-01
    -13.358  0.5104E-02  0.5104E-02  0.5675E-01  0.5675E-01
    -13.249  0.3513E-02  0.3513E-02  0.5714E-01  0.5714E-01
    -13.141  0.5581E-02  0.5581E-02  0.5774E-01  0.5774E-01
    -13.032  0.6805E-02  0.6805E-02  0.5848E-01  0.5848E-01
    -12.923  0.5201E-02  0.5201E-02  0.5905E-01  0.5905E-01
    -12.815  0.5513E-02  0.5513E-02  0.5965E-01  0.5965E-01
    -12.706  0.5674E-02  0.5674E-02  0.6026E-01  0.6026E-01
    -12.597  0.6427E-02  0.6427E-02  0.6096E-01  0.6096E-01
    -12.488  0.5591E-02  0.5591E-02  0.6157E-01  0.6157E-01
    -12.380  0.4257E-02  0.4257E-02  0.6203E-01  0.6203E-01
    -12.271  0.4274E-02  0.4274E-02  0.6250E-01  0.6250E-01
    -12.162  0.7764E-02  0.7764E-02  0.6334E-01  0.6334E-01
    -12.054  0.4959E-02  0.4959E-02  0.6388E-01  0.6388E-01
    -11.945  0.3381E-02  0.3381E-02  0.6425E-01  0.6425E-01
    -11.836  0.3758E-02  0.3758E-02  0.6466E-01  0.6466E-01
    -11.727  0.3563E-02  0.3563E-02  0.6505E-01  0.6505E-01
    -11.619  0.5937E-02  0.5937E-02  0.6569E-01  0.6569E-01
    -11.510  0.6674E-02  0.6674E-02  0.6642E-01  0.6642E-01
    -11.401  0.3004E-02  0.3004E-02  0.6674E-01  0.6674E-01
    -11.293  0.2291E-02  0.2291E-02  0.6699E-01  0.6699E-01
    -11.184  0.5788E-02  0.5788E-02  0.6762E-01  0.6762E-01
    -11.075  0.8139E-02  0.8139E-02  0.6851E-01  0.6851E-01
    -10.966  0.5648E-02  0.5648E-02  0.6912E-01  0.6912E-01
    -10.858  0.5315E-02  0.5315E-02  0.6970E-01  0.6970E-01
    -10.749  0.4695E-02  0.4695E-02  0.7021E-01  0.7021E-01
    -10.640  0.4636E-02  0.4636E-02  0.7071E-01  0.7071E-01
    -10.532  0.8750E-02  0.8750E-02  0.7166E-01  0.7166E-01
    -10.423  0.1426E-01  0.1426E-01  0.7321E-01  0.7321E-01
    -10.314  0.1763E-01  0.1763E-01  0.7513E-01  0.7513E-01
    -10.205  0.1415E-01  0.1415E-01  0.7667E-01  0.7667E-01
    -10.097  0.1420E-01  0.1420E-01  0.7821E-01  0.7821E-01
     -9.988  0.1924E-01  0.1924E-01  0.8030E-01  0.8030E-01
     -9.879  0.1221E-01  0.1221E-01  0.8163E-01  0.8163E-01
     -9.771  0.6251E-02  0.6251E-02  0.8231E-01  0.8231E-01
     -9.662  0.9502E-02  0.9502E-02  0.8334E-01  0.8334E-01
     -9.553  0.1752E-01  0.1752E-01  0.8525E-01  0.8525E-01
     -9.444  0.1630E-01  0.1630E-01  0.8702E-01  0.8702E-01
     -9.336  0.1323E-01  0.1323E-01  0.8846E-01  0.8846E-01
     -9.227  0.1459E-01  0.1459E-01  0.9005E-01  0.9005E-01
     -9.118  0.1317E-01  0.1317E-01  0.9148E-01  0.9148E-01
     -9.010  0.6226E-02  0.6226E-02  0.9215E-01  0.9215E-01
     -8.901  0.9592E-02  0.9592E-02  0.9320E-01  0.9320E-01
     -8.792  0.2009E-01  0.2009E-01  0.9538E-01  0.9538E-01
     -8.683  0.2090E-01  0.2090E-01  0.9765E-01  0.9765E-01
     -8.575  0.1269E-01  0.1269E-01  0.9903E-01  0.9903E-01
     -8.466  0.8505E-02  0.8505E-02  0.9996E-01  0.9996E-01
     -8.357  0.1338E-01  0.1338E-01  0.1014E+00  0.1014E+00
     -8.249  0.2581E-01  0.2581E-01  0.1042E+00  0.1042E+00
     -8.140  0.1595E-01  0.1595E-01  0.1060E+00  0.1060E+00
     -8.031  0.9233E-02  0.9233E-02  0.1070E+00  0.1070E+00
     -7.922  0.1919E-01  0.1919E-01  0.1090E+00  0.1090E+00
     -7.814  0.2460E-01  0.2460E-01  0.1117E+00  0.1117E+00
     -7.705  0.2182E-01  0.2182E-01  0.1141E+00  0.1141E+00
     -7.596  0.1767E-01  0.1767E-01  0.1160E+00  0.1160E+00
     -7.488  0.1260E-01  0.1260E-01  0.1174E+00  0.1174E+00
     -7.379  0.1629E-01  0.1629E-01  0.1192E+00  0.1192E+00
     -7.270  0.1406E-01  0.1406E-01  0.1207E+00  0.1207E+00
     -7.161  0.1299E-01  0.1299E-01  0.1221E+00  0.1221E+00
     -7.053  0.1522E-01  0.1522E-01  0.1237E+00  0.1237E+00
     -6.944  0.1613E-01  0.1613E-01  0.1255E+00  0.1255E+00
     -6.835  0.1577E-01  0.1577E-01  0.1272E+00  0.1272E+00
     -6.727  0.1582E-01  0.1582E-01  0.1289E+00  0.1289E+00
     -6.618  0.2503E-01  0.2503E-01  0.1317E+00  0.1317E+00
     -6.509  0.2110E-01  0.2110E-01  0.1339E+00  0.1339E+00
     -6.400  0.1805E-01  0.1805E-01  0.1359E+00  0.1359E+00
     -6.292  0.1741E-01  0.1741E-01  0.1378E+00  0.1378E+00
     -6.183  0.1416E-01  0.1416E-01  0.1393E+00  0.1393E+00
     -6.074  0.2112E-01  0.2112E-01  0.1416E+00  0.1416E+00
     -5.966  0.2801E-01  0.2801E-01  0.1447E+00  0.1447E+00
     -5.857  0.2389E-01  0.2389E-01  0.1473E+00  0.1473E+00
     -5.748  0.2411E-01  0.2411E-01  0.1499E+00  0.1499E+00
     -5.639  0.2148E-01  0.2148E-01  0.1522E+00  0.1522E+00
     -5.531  0.2254E-01  0.2254E-01  0.1547E+00  0.1547E+00
     -5.422  0.2440E-01  0.2440E-01  0.1573E+00  0.1573E+00
     -5.313  0.2602E-01  0.2602E-01  0.1602E+00  0.1602E+00
     -5.205  0.3429E-01  0.3429E-01  0.1639E+00  0.1639E+00
     -5.096  0.2118E-01  0.2118E-01  0.1662E+00  0.1662E+00
     -4.987  0.9555E-02  0.9555E-02  0.1672E+00  0.1672E+00
     -4.878  0.6397E-02  0.6397E-02  0.1679E+00  0.1679E+00
     -4.770  0.1257E-01  0.1257E-01  0.1693E+00  0.1693E+00
     -4.661  0.1593E-01  0.1593E-01  0.1710E+00  0.1710E+00
     -4.552  0.1205E-01  0.1205E-01  0.1723E+00  0.1723E+00
     -4.444  0.7970E-02  0.7970E-02  0.1732E+00  0.1732E+00
     -4.335  0.7426E-02  0.7426E-02  0.1740E+00  0.1740E+00
     -4.226  0.1667E-01  0.1667E-01  0.1758E+00  0.1758E+00
     -4.117  0.1962E-01  0.1962E-01  0.1780E+00  0.1780E+00
     -4.009  0.1997E-01  0.1997E-01  0.1801E+00  0.1801E+00
     -3.900  0.2526E-01  0.2526E-01  0.1829E+00  0.1829E+00
     -3.791  0.2612E-01  0.2612E-01  0.1857E+00  0.1857E+00
     -3.683  0.2117E-01  0.2117E-01  0.1880E+00  0.1880E+00
     -3.574  0.1739E-01  0.1739E-01  0.1899E+00  0.1899E+00
     -3.465  0.1598E-01  0.1598E-01  0.1916E+00  0.1916E+00
     -3.356  0.1689E-01  0.1689E-01  0.1935E+00  0.1935E+00
     -3.248  0.1440E-01  0.1440E-01  0.1950E+00  0.1950E+00
     -3.139  0.1592E-01  0.1592E-01  0.1968E+00  0.1968E+00
     -3.030  0.1913E-01  0.1913E-01  0.1989E+00  0.1989E+00
     -2.922  0.1531E-01  0.1531E-01  0.2005E+00  0.2005E+00
     -2.813  0.1233E-01  0.1233E-01  0.2019E+00  0.2019E+00
     -2.704  0.1279E-01  0.1279E-01  0.2033E+00  0.2033E+00
     -2.595  0.7186E-02  0.7186E-02  0.2040E+00  0.2040E+00
     -2.487  0.1220E-01  0.1220E-01  0.2054E+00  0.2054E+00
     -2.378  0.1923E-01  0.1923E-01  0.2075E+00  0.2075E+00
     -2.269  0.1170E-01  0.1170E-01  0.2087E+00  0.2087E+00
     -2.161  0.2964E-02  0.2964E-02  0.2090E+00  0.2090E+00
     -2.052  0.6880E-02  0.6880E-02  0.2098E+00  0.2098E+00
     -1.943  0.1085E-01  0.1085E-01  0.2110E+00  0.2110E+00
     -1.835  0.9068E-02  0.9068E-02  0.2120E+00  0.2120E+00
     -1.726  0.1097E-01  0.1097E-01  0.2132E+00  0.2132E+00
     -1.617  0.1047E-01  0.1047E-01  0.2143E+00  0.2143E+00
     -1.508  0.9130E-02  0.9130E-02  0.2153E+00  0.2153E+00
     -1.400  0.6716E-02  0.6716E-02  0.2160E+00  0.2160E+00
     -1.291  0.3434E-02  0.3434E-02  0.2164E+00  0.2164E+00
     -1.182  0.4223E-02  0.4223E-02  0.2168E+00  0.2168E+00
     -1.074  0.3887E-02  0.3887E-02  0.2173E+00  0.2173E+00
     -0.965  0.3505E-02  0.3505E-02  0.2176E+00  0.2176E+00
     -0.856  0.5557E-02  0.5557E-02  0.2183E+00  0.2183E+00
     -0.747  0.2993E-02  0.2993E-02  0.2186E+00  0.2186E+00
     -0.639  0.5402E-03  0.5402E-03  0.2186E+00  0.2186E+00
     -0.530  0.4260E-04  0.4260E-04  0.2186E+00  0.2186E+00
     -0.421  0.7835E-06  0.7835E-06  0.2186E+00  0.2186E+00
     -0.313  0.2632E-04  0.2632E-04  0.2186E+00  0.2186E+00
     -0.204  0.4614E-03  0.4613E-03  0.2187E+00  0.2187E+00
     -0.095  0.1104E-02  0.1104E-02  0.2188E+00  0.2188E+00
      0.014  0.3856E-03  0.3856E-03  0.2189E+00  0.2189E+00
      0.122  0.1818E-04  0.1818E-04  0.2189E+00  0.2189E+00
      0.231  0.1137E-06  0.1137E-06  0.2189E+00  0.2189E+00
      0.340  0.6169E-05  0.6168E-05  0.2189E+00  0.2189E+00
      0.448  0.3572E-03  0.3572E-03  0.2189E+00  0.2189E+00
      0.557  0.2589E-02  0.2589E-02  0.2192E+00  0.2192E+00
      0.666  0.2667E-02  0.2667E-02  0.2195E+00  0.2195E+00
      0.775  0.1078E-02  0.1078E-02  0.2196E+00  0.2196E+00
      0.883  0.4001E-02  0.4001E-02  0.2200E+00  0.2200E+00
      0.992  0.6011E-02  0.6011E-02  0.2207E+00  0.2207E+00
      1.101  0.9634E-02  0.9635E-02  0.2217E+00  0.2217E+00
      1.209  0.2209E-01  0.2209E-01  0.2241E+00  0.2241E+00
      1.318  0.1964E-01  0.1964E-01  0.2263E+00  0.2263E+00
      1.427  0.6671E-02  0.6671E-02  0.2270E+00  0.2270E+00
      1.536  0.3205E-02  0.3205E-02  0.2273E+00  0.2273E+00
      1.644  0.6675E-02  0.6675E-02  0.2281E+00  0.2281E+00
      1.753  0.1357E-01  0.1357E-01  0.2295E+00  0.2295E+00
      1.862  0.1885E-01  0.1885E-01  0.2316E+00  0.2316E+00
      1.970  0.1329E-01  0.1329E-01  0.2330E+00  0.2330E+00
      2.079  0.7615E-02  0.7615E-02  0.2339E+00  0.2339E+00
      2.188  0.8236E-02  0.8236E-02  0.2347E+00  0.2347E+00
      2.297  0.1071E-01  0.1072E-01  0.2359E+00  0.2359E+00
      2.405  0.7625E-02  0.7626E-02  0.2367E+00  0.2367E+00
      2.514  0.8867E-02  0.8867E-02  0.2377E+00  0.2377E+00
      2.623  0.7136E-02  0.7135E-02  0.2385E+00  0.2385E+00
      2.731  0.5925E-02  0.5926E-02  0.2391E+00  0.2391E+00
      2.840  0.1143E-01  0.1143E-01  0.2404E+00  0.2404E+00
      2.949  0.1060E-01  0.1060E-01  0.2415E+00  0.2415E+00
      3.058  0.7778E-02  0.7782E-02  0.2424E+00  0.2424E+00
      3.166  0.8960E-02  0.8967E-02  0.2433E+00  0.2433E+00
      3.275  0.1022E-01  0.1022E-01  0.2445E+00  0.2445E+00
      3.384  0.1049E-01  0.1050E-01  0.2456E+00  0.2456E+00
      3.492  0.8882E-02  0.8878E-02  0.2466E+00  0.2466E+00
      3.601  0.9894E-02  0.9897E-02  0.2476E+00  0.2476E+00
      3.710  0.8542E-02  0.8540E-02  0.2486E+00  0.2486E+00
      3.819  0.1460E-01  0.1461E-01  0.2502E+00  0.2502E+00
      3.927  0.2205E-01  0.2205E-01  0.2525E+00  0.2525E+00
      4.036  0.1658E-01  0.1658E-01  0.2543E+00  0.2544E+00
      4.145  0.1219E-01  0.1219E-01  0.2557E+00  0.2557E+00
      4.253  0.1429E-01  0.1429E-01  0.2572E+00  0.2572E+00
      4.362  0.2313E-01  0.2313E-01  0.2597E+00  0.2597E+00
      4.471  0.2446E-01  0.2446E-01  0.2624E+00  0.2624E+00
      4.580  0.2191E-01  0.2190E-01  0.2648E+00  0.2648E+00
      4.688  0.2199E-01  0.2201E-01  0.2672E+00  0.2672E+00
      4.797  0.3106E-01  0.3108E-01  0.2706E+00  0.2706E+00
      4.906  0.2553E-01  0.2552E-01  0.2733E+00  0.2733E+00
      5.014  0.2359E-01  0.2360E-01  0.2759E+00  0.2759E+00
      5.123  0.2731E-01  0.2733E-01  0.2789E+00  0.2789E+00
      5.232  0.2752E-01  0.2752E-01  0.2819E+00  0.2819E+00
      5.341  0.2320E-01  0.2318E-01  0.2844E+00  0.2844E+00
      5.449  0.2533E-01  0.2533E-01  0.2871E+00  0.2871E+00
      5.558  0.2156E-01  0.2156E-01  0.2895E+00  0.2895E+00
      5.667  0.2201E-01  0.2202E-01  0.2919E+00  0.2919E+00
      5.775  0.2255E-01  0.2254E-01  0.2943E+00  0.2943E+00
      5.884  0.2319E-01  0.2319E-01  0.2968E+00  0.2968E+00
      5.993  0.2354E-01  0.2354E-01  0.2994E+00  0.2994E+00
      6.102  0.2156E-01  0.2156E-01  0.3017E+00  0.3017E+00
      6.210  0.1535E-01  0.1534E-01  0.3034E+00  0.3034E+00
      6.319  0.1668E-01  0.1671E-01  0.3052E+00  0.3052E+00
      6.428  0.2387E-01  0.2389E-01  0.3078E+00  0.3078E+00
      6.536  0.2089E-01  0.2085E-01  0.3101E+00  0.3101E+00
      6.645  0.1730E-01  0.1731E-01  0.3120E+00  0.3120E+00
      6.754  0.2210E-01  0.2213E-01  0.3144E+00  0.3144E+00
      6.863  0.2924E-01  0.2924E-01  0.3175E+00  0.3176E+00
      6.971  0.2595E-01  0.2593E-01  0.3204E+00  0.3204E+00
      7.080  0.2704E-01  0.2707E-01  0.3233E+00  0.3233E+00
      7.189  0.2900E-01  0.2900E-01  0.3265E+00  0.3265E+00
      7.297  0.2441E-01  0.2438E-01  0.3291E+00  0.3291E+00
      7.406  0.1921E-01  0.1921E-01  0.3312E+00  0.3312E+00
      7.515  0.2391E-01  0.2393E-01  0.3338E+00  0.3338E+00
      7.624  0.2150E-01  0.2151E-01  0.3361E+00  0.3362E+00
      7.732  0.1833E-01  0.1835E-01  0.3381E+00  0.3381E+00
      7.841  0.2379E-01  0.2381E-01  0.3407E+00  0.3407E+00
      7.950  0.2015E-01  0.2011E-01  0.3429E+00  0.3429E+00
      8.058  0.2271E-01  0.2276E-01  0.3454E+00  0.3454E+00
      8.167  0.3031E-01  0.3028E-01  0.3487E+00  0.3487E+00
      8.276  0.2817E-01  0.2814E-01  0.3517E+00  0.3517E+00
      8.385  0.3180E-01  0.3182E-01  0.3552E+00  0.3552E+00
      8.493  0.3421E-01  0.3419E-01  0.3589E+00  0.3589E+00
      8.602  0.3096E-01  0.3100E-01  0.3623E+00  0.3623E+00
      8.711  0.3244E-01  0.3244E-01  0.3658E+00  0.3658E+00
      8.819  0.2414E-01  0.2406E-01  0.3684E+00  0.3684E+00
      8.928  0.1899E-01  0.1896E-01  0.3705E+00  0.3705E+00
      9.037  0.2086E-01  0.2086E-01  0.3728E+00  0.3728E+00
      9.145  0.1479E-01  0.1478E-01  0.3744E+00  0.3744E+00
      9.254  0.5086E-02  0.5080E-02  0.3749E+00  0.3749E+00
      9.363  0.6837E-03  0.6818E-03  0.3750E+00  0.3750E+00
      9.472  0.1921E-04  0.1911E-04  0.3750E+00  0.3750E+00
      9.580  0.7376E-07  0.7315E-07  0.3750E+00  0.3750E+00
      9.689  0.3155E-10  0.3120E-10  0.3750E+00  0.3750E+00
      9.798  0.1381E-14  0.1361E-14  0.3750E+00  0.3750E+00
      9.906  0.0000E+00  0.0000E+00  0.3750E+00  0.3750E+00
     10.015  0.0000E+00  0.0000E+00  0.3750E+00  0.3750E+00
     10.124  0.0000E+00  0.0000E+00  0.3750E+00  0.3750E+00
     10.233  0.0000E+00  0.0000E+00  0.3750E+00  0.3750E+00
     10.341  0.0000E+00  0.0000E+00  0.3750E+00  0.3750E+00
     10.450  0.0000E+00  0.0000E+00  0.3750E+00  0.3750E+00
     10.559  0.0000E+00  0.0000E+00  0.3750E+00  0.3750E+00
     10.667  0.0000E+00  0.0000E+00  0.3750E+00  0.3750E+00
