  16  16   0   4
  0.2103476E+02  0.5090000E-09  0.5090000E-09  0.1500000E-08  0.5000000E-15
  1.000000000000000E-004
  CAR 
 Lattice                                 
      9.51029215    -21.19654580  301     -1.07513789      1.00000000
    -21.197  0.0000E+00  0.0000E+00  0.0000E+00  0.0000E+00
    -21.094  0.0000E+00  0.0000E+00  0.0000E+00  0.0000E+00
    -20.992  0.0000E+00  0.0000E+00  0.0000E+00  0.0000E+00
    -20.889  0.0000E+00  0.0000E+00  0.0000E+00  0.0000E+00
    -20.787  0.0000E+00  0.0000E+00  0.0000E+00  0.0000E+00
    -20.685  0.0000E+00  0.0000E+00  0.0000E+00  0.0000E+00
    -20.582  0.0000E+00  0.0000E+00  0.0000E+00  0.0000E+00
    -20.480  0.0000E+00  0.0000E+00  0.0000E+00  0.0000E+00
    -20.378  0.8827E-19  0.8827E-19  0.9035E-20  0.9035E-20
    -20.275  0.5728E-14  0.5728E-14  0.5863E-15  0.5863E-15
    -20.173  0.4719E-10  0.4719E-10  0.4831E-11  0.4831E-11
    -20.071  0.5616E-07  0.5616E-07  0.5753E-08  0.5753E-08
    -19.968  0.1039E-04  0.1039E-04  0.1069E-05  0.1069E-05
    -19.866  0.3286E-03  0.3286E-03  0.3470E-04  0.3470E-04
    -19.764  0.2168E-02  0.2168E-02  0.2566E-03  0.2566E-03
    -19.661  0.4465E-02  0.4465E-02  0.7136E-03  0.7136E-03
    -19.559  0.4998E-02  0.4998E-02  0.1225E-02  0.1225E-02
    -19.456  0.5229E-02  0.5229E-02  0.1760E-02  0.1760E-02
    -19.354  0.4771E-02  0.4771E-02  0.2249E-02  0.2249E-02
    -19.252  0.5726E-02  0.5726E-02  0.2835E-02  0.2835E-02
    -19.149  0.4348E-02  0.4348E-02  0.3280E-02  0.3280E-02
    -19.047  0.5439E-02  0.5439E-02  0.3837E-02  0.3837E-02
    -18.945  0.5878E-02  0.5878E-02  0.4438E-02  0.4438E-02
    -18.842  0.3748E-02  0.3748E-02  0.4822E-02  0.4822E-02
    -18.740  0.5556E-02  0.5556E-02  0.5391E-02  0.5391E-02
    -18.638  0.6380E-02  0.6380E-02  0.6044E-02  0.6044E-02
    -18.535  0.4334E-02  0.4334E-02  0.6487E-02  0.6487E-02
    -18.433  0.3672E-02  0.3672E-02  0.6863E-02  0.6863E-02
    -18.331  0.6991E-02  0.6991E-02  0.7579E-02  0.7579E-02
    -18.228  0.5862E-02  0.5862E-02  0.8179E-02  0.8179E-02
    -18.126  0.4248E-02  0.4248E-02  0.8614E-02  0.8613E-02
    -18.024  0.3531E-02  0.3531E-02  0.8975E-02  0.8975E-02
    -17.921  0.7661E-02  0.7661E-02  0.9759E-02  0.9759E-02
    -17.819  0.1185E-01  0.1185E-01  0.1097E-01  0.1097E-01
    -17.716  0.1119E-01  0.1119E-01  0.1212E-01  0.1212E-01
    -17.614  0.1162E-01  0.1162E-01  0.1331E-01  0.1331E-01
    -17.512  0.1365E-01  0.1365E-01  0.1470E-01  0.1470E-01
    -17.409  0.1780E-01  0.1780E-01  0.1653E-01  0.1653E-01
    -17.307  0.2155E-01  0.2155E-01  0.1873E-01  0.1873E-01
    -17.205  0.1936E-01  0.1936E-01  0.2071E-01  0.2071E-01
    -17.102  0.8361E-02  0.8361E-02  0.2157E-01  0.2157E-01
    -17.000  0.5591E-02  0.5591E-02  0.2214E-01  0.2214E-01
    -16.898  0.7473E-02  0.7473E-02  0.2291E-01  0.2291E-01
    -16.795  0.6682E-02  0.6682E-02  0.2359E-01  0.2359E-01
    -16.693  0.5415E-02  0.5415E-02  0.2415E-01  0.2415E-01
    -16.591  0.4423E-02  0.4423E-02  0.2460E-01  0.2460E-01
    -16.488  0.2517E-02  0.2517E-02  0.2486E-01  0.2486E-01
    -16.386  0.5860E-02  0.5860E-02  0.2546E-01  0.2546E-01
    -16.283  0.9223E-02  0.9223E-02  0.2640E-01  0.2640E-01
    -16.181  0.5776E-02  0.5776E-02  0.2699E-01  0.2699E-01
    -16.079  0.4796E-02  0.4796E-02  0.2748E-01  0.2748E-01
    -15.976  0.4449E-02  0.4449E-02  0.2794E-01  0.2794E-01
    -15.874  0.3901E-02  0.3901E-02  0.2834E-01  0.2834E-01
    -15.772  0.4873E-02  0.4873E-02  0.2884E-01  0.2884E-01
    -15.669  0.1019E-01  0.1019E-01  0.2988E-01  0.2988E-01
    -15.567  0.1105E-01  0.1105E-01  0.3101E-01  0.3101E-01
    -15.465  0.1360E-01  0.1360E-01  0.3240E-01  0.3240E-01
    -15.362  0.1656E-01  0.1656E-01  0.3410E-01  0.3410E-01
    -15.260  0.1542E-01  0.1542E-01  0.3568E-01  0.3568E-01
    -15.158  0.1321E-01  0.1321E-01  0.3703E-01  0.3703E-01
    -15.055  0.1694E-01  0.1694E-01  0.3876E-01  0.3876E-01
    -14.953  0.1831E-01  0.1831E-01  0.4064E-01  0.4064E-01
    -14.850  0.1516E-01  0.1516E-01  0.4219E-01  0.4219E-01
    -14.748  0.1097E-01  0.1097E-01  0.4331E-01  0.4331E-01
    -14.646  0.9395E-02  0.9395E-02  0.4427E-01  0.4427E-01
    -14.543  0.1284E-01  0.1284E-01  0.4559E-01  0.4559E-01
    -14.441  0.1861E-01  0.1861E-01  0.4749E-01  0.4749E-01
    -14.339  0.1830E-01  0.1830E-01  0.4937E-01  0.4937E-01
    -14.236  0.1313E-01  0.1313E-01  0.5071E-01  0.5071E-01
    -14.134  0.9659E-02  0.9659E-02  0.5170E-01  0.5170E-01
    -14.032  0.8481E-02  0.8481E-02  0.5257E-01  0.5257E-01
    -13.929  0.8665E-02  0.8665E-02  0.5345E-01  0.5345E-01
    -13.827  0.7729E-02  0.7729E-02  0.5424E-01  0.5424E-01
    -13.725  0.3472E-02  0.3472E-02  0.5460E-01  0.5460E-01
    -13.622  0.2388E-02  0.2388E-02  0.5484E-01  0.5484E-01
    -13.520  0.4610E-02  0.4610E-02  0.5532E-01  0.5532E-01
    -13.417  0.4976E-02  0.4976E-02  0.5582E-01  0.5582E-01
    -13.315  0.6668E-02  0.6668E-02  0.5651E-01  0.5651E-01
    -13.213  0.5877E-02  0.5877E-02  0.5711E-01  0.5711E-01
    -13.110  0.6932E-02  0.6932E-02  0.5782E-01  0.5782E-01
    -13.008  0.9057E-02  0.9057E-02  0.5875E-01  0.5875E-01
    -12.906  0.8311E-02  0.8311E-02  0.5960E-01  0.5960E-01
    -12.803  0.7241E-02  0.7241E-02  0.6034E-01  0.6034E-01
    -12.701  0.6172E-02  0.6172E-02  0.6097E-01  0.6097E-01
    -12.599  0.7405E-02  0.7405E-02  0.6173E-01  0.6173E-01
    -12.496  0.4497E-02  0.4497E-02  0.6219E-01  0.6219E-01
    -12.394  0.5493E-02  0.5493E-02  0.6275E-01  0.6275E-01
    -12.292  0.7975E-02  0.7975E-02  0.6357E-01  0.6357E-01
    -12.189  0.5214E-02  0.5214E-02  0.6410E-01  0.6410E-01
    -12.087  0.6455E-02  0.6455E-02  0.6476E-01  0.6476E-01
    -11.984  0.1187E-01  0.1187E-01  0.6598E-01  0.6598E-01
    -11.882  0.1584E-01  0.1584E-01  0.6760E-01  0.6760E-01
    -11.780  0.1466E-01  0.1466E-01  0.6910E-01  0.6910E-01
    -11.677  0.1413E-01  0.1413E-01  0.7054E-01  0.7054E-01
    -11.575  0.1709E-01  0.1709E-01  0.7229E-01  0.7229E-01
    -11.473  0.1659E-01  0.1659E-01  0.7399E-01  0.7399E-01
    -11.370  0.1037E-01  0.1037E-01  0.7505E-01  0.7505E-01
    -11.268  0.9988E-02  0.9988E-02  0.7607E-01  0.7607E-01
    -11.166  0.1019E-01  0.1019E-01  0.7712E-01  0.7712E-01
    -11.063  0.1045E-01  0.1045E-01  0.7819E-01  0.7819E-01
    -10.961  0.7238E-02  0.7238E-02  0.7893E-01  0.7893E-01
    -10.859  0.7853E-02  0.7853E-02  0.7973E-01  0.7973E-01
    -10.756  0.1329E-01  0.1329E-01  0.8109E-01  0.8109E-01
    -10.654  0.1588E-01  0.1588E-01  0.8272E-01  0.8272E-01
    -10.552  0.1012E-01  0.1012E-01  0.8375E-01  0.8375E-01
    -10.449  0.6455E-02  0.6455E-02  0.8441E-01  0.8441E-01
    -10.347  0.1415E-01  0.1415E-01  0.8586E-01  0.8586E-01
    -10.244  0.1754E-01  0.1754E-01  0.8766E-01  0.8766E-01
    -10.142  0.1479E-01  0.1479E-01  0.8917E-01  0.8917E-01
    -10.040  0.9908E-02  0.9908E-02  0.9019E-01  0.9019E-01
     -9.937  0.9235E-02  0.9235E-02  0.9113E-01  0.9113E-01
     -9.835  0.1353E-01  0.1353E-01  0.9252E-01  0.9252E-01
     -9.733  0.1017E-01  0.1017E-01  0.9356E-01  0.9356E-01
     -9.630  0.5381E-02  0.5381E-02  0.9411E-01  0.9411E-01
     -9.528  0.1050E-01  0.1050E-01  0.9518E-01  0.9518E-01
     -9.426  0.1316E-01  0.1316E-01  0.9653E-01  0.9653E-01
     -9.323  0.1126E-01  0.1126E-01  0.9768E-01  0.9768E-01
     -9.221  0.7503E-02  0.7503E-02  0.9845E-01  0.9845E-01
     -9.119  0.2832E-02  0.2832E-02  0.9874E-01  0.9874E-01
     -9.016  0.2953E-02  0.2953E-02  0.9904E-01  0.9904E-01
     -8.914  0.1312E-01  0.1312E-01  0.1004E+00  0.1004E+00
     -8.811  0.2034E-01  0.2034E-01  0.1025E+00  0.1025E+00
     -8.709  0.1490E-01  0.1490E-01  0.1040E+00  0.1040E+00
     -8.607  0.1081E-01  0.1081E-01  0.1051E+00  0.1051E+00
     -8.504  0.7301E-02  0.7301E-02  0.1058E+00  0.1058E+00
     -8.402  0.9759E-02  0.9759E-02  0.1068E+00  0.1068E+00
     -8.300  0.1636E-01  0.1636E-01  0.1085E+00  0.1085E+00
     -8.197  0.2167E-01  0.2167E-01  0.1107E+00  0.1107E+00
     -8.095  0.2126E-01  0.2126E-01  0.1129E+00  0.1129E+00
     -7.993  0.1961E-01  0.1961E-01  0.1149E+00  0.1149E+00
     -7.890  0.1448E-01  0.1448E-01  0.1164E+00  0.1164E+00
     -7.788  0.1417E-01  0.1417E-01  0.1179E+00  0.1179E+00
     -7.686  0.2089E-01  0.2089E-01  0.1200E+00  0.1200E+00
     -7.583  0.2688E-01  0.2688E-01  0.1227E+00  0.1227E+00
     -7.481  0.2633E-01  0.2633E-01  0.1254E+00  0.1254E+00
     -7.378  0.2238E-01  0.2238E-01  0.1277E+00  0.1277E+00
     -7.276  0.2311E-01  0.2311E-01  0.1301E+00  0.1301E+00
     -7.174  0.2512E-01  0.2512E-01  0.1327E+00  0.1327E+00
     -7.071  0.2693E-01  0.2693E-01  0.1354E+00  0.1354E+00
     -6.969  0.2144E-01  0.2144E-01  0.1376E+00  0.1376E+00
     -6.867  0.2007E-01  0.2007E-01  0.1397E+00  0.1397E+00
     -6.764  0.2848E-01  0.2848E-01  0.1426E+00  0.1426E+00
     -6.662  0.2486E-01  0.2486E-01  0.1451E+00  0.1451E+00
     -6.560  0.1777E-01  0.1777E-01  0.1469E+00  0.1469E+00
     -6.457  0.2492E-01  0.2492E-01  0.1495E+00  0.1495E+00
     -6.355  0.2565E-01  0.2565E-01  0.1521E+00  0.1521E+00
     -6.253  0.2366E-01  0.2366E-01  0.1545E+00  0.1545E+00
     -6.150  0.1835E-01  0.1835E-01  0.1564E+00  0.1564E+00
     -6.048  0.1406E-01  0.1406E-01  0.1579E+00  0.1579E+00
     -5.945  0.2211E-01  0.2211E-01  0.1601E+00  0.1601E+00
     -5.843  0.2824E-01  0.2824E-01  0.1630E+00  0.1630E+00
     -5.741  0.2285E-01  0.2285E-01  0.1654E+00  0.1654E+00
     -5.638  0.1836E-01  0.1836E-01  0.1672E+00  0.1672E+00
     -5.536  0.2059E-01  0.2059E-01  0.1693E+00  0.1693E+00
     -5.434  0.2753E-01  0.2753E-01  0.1722E+00  0.1722E+00
     -5.331  0.2867E-01  0.2867E-01  0.1751E+00  0.1751E+00
     -5.229  0.1851E-01  0.1851E-01  0.1770E+00  0.1770E+00
     -5.127  0.1590E-01  0.1590E-01  0.1786E+00  0.1786E+00
     -5.024  0.1875E-01  0.1875E-01  0.1805E+00  0.1805E+00
     -4.922  0.1711E-01  0.1711E-01  0.1823E+00  0.1823E+00
     -4.820  0.1529E-01  0.1529E-01  0.1839E+00  0.1839E+00
     -4.717  0.1914E-01  0.1914E-01  0.1858E+00  0.1858E+00
     -4.615  0.1762E-01  0.1762E-01  0.1876E+00  0.1876E+00
     -4.512  0.1575E-01  0.1575E-01  0.1892E+00  0.1892E+00
     -4.410  0.1714E-01  0.1714E-01  0.1910E+00  0.1910E+00
     -4.308  0.2340E-01  0.2340E-01  0.1934E+00  0.1934E+00
     -4.205  0.3429E-01  0.3429E-01  0.1969E+00  0.1969E+00
     -4.103  0.4150E-01  0.4150E-01  0.2011E+00  0.2011E+00
     -4.001  0.3066E-01  0.3066E-01  0.2043E+00  0.2043E+00
     -3.898  0.2248E-01  0.2248E-01  0.2066E+00  0.2066E+00
     -3.796  0.1476E-01  0.1476E-01  0.2081E+00  0.2081E+00
     -3.694  0.1214E-01  0.1214E-01  0.2093E+00  0.2093E+00
     -3.591  0.1736E-01  0.1736E-01  0.2111E+00  0.2111E+00
     -3.489  0.2333E-01  0.2333E-01  0.2135E+00  0.2135E+00
     -3.387  0.2015E-01  0.2015E-01  0.2156E+00  0.2156E+00
     -3.284  0.1332E-01  0.1332E-01  0.2169E+00  0.2169E+00
     -3.182  0.1369E-01  0.1369E-01  0.2183E+00  0.2183E+00
     -3.080  0.2059E-01  0.2059E-01  0.2204E+00  0.2204E+00
     -2.977  0.2635E-01  0.2635E-01  0.2231E+00  0.2231E+00
     -2.875  0.1974E-01  0.1974E-01  0.2251E+00  0.2251E+00
     -2.772  0.1117E-01  0.1117E-01  0.2263E+00  0.2263E+00
     -2.670  0.1390E-01  0.1390E-01  0.2277E+00  0.2277E+00
     -2.568  0.2088E-01  0.2088E-01  0.2298E+00  0.2298E+00
     -2.465  0.1835E-01  0.1835E-01  0.2317E+00  0.2317E+00
     -2.363  0.2215E-01  0.2215E-01  0.2340E+00  0.2340E+00
     -2.261  0.2465E-01  0.2465E-01  0.2365E+00  0.2365E+00
     -2.158  0.1304E-01  0.1304E-01  0.2378E+00  0.2378E+00
     -2.056  0.5254E-02  0.5254E-02  0.2384E+00  0.2384E+00
     -1.954  0.8071E-02  0.8071E-02  0.2392E+00  0.2392E+00
     -1.851  0.6286E-02  0.6286E-02  0.2399E+00  0.2399E+00
     -1.749  0.4655E-02  0.4655E-02  0.2403E+00  0.2403E+00
     -1.647  0.7590E-02  0.7590E-02  0.2411E+00  0.2411E+00
     -1.544  0.5793E-02  0.5793E-02  0.2417E+00  0.2417E+00
     -1.442  0.2855E-02  0.2855E-02  0.2420E+00  0.2420E+00
     -1.339  0.7634E-03  0.7634E-03  0.2421E+00  0.2421E+00
     -1.237  0.8335E-04  0.8335E-04  0.2421E+00  0.2421E+00
     -1.135  0.3788E-03  0.3788E-03  0.2421E+00  0.2421E+00
     -1.032  0.1282E-02  0.1282E-02  0.2423E+00  0.2423E+00
     -0.930  0.2081E-02  0.2081E-02  0.2425E+00  0.2425E+00
     -0.828  0.3187E-02  0.3187E-02  0.2428E+00  0.2428E+00
     -0.725  0.4417E-02  0.4417E-02  0.2432E+00  0.2432E+00
     -0.623  0.8697E-02  0.8697E-02  0.2441E+00  0.2441E+00
     -0.521  0.1044E-01  0.1044E-01  0.2452E+00  0.2452E+00
     -0.418  0.9736E-02  0.9736E-02  0.2462E+00  0.2462E+00
     -0.316  0.9506E-02  0.9506E-02  0.2472E+00  0.2472E+00
     -0.214  0.1128E-01  0.1128E-01  0.2483E+00  0.2483E+00
     -0.111  0.9999E-02  0.9999E-02  0.2493E+00  0.2493E+00
     -0.009  0.3597E-02  0.3597E-02  0.2497E+00  0.2497E+00
      0.094  0.6805E-02  0.6805E-02  0.2504E+00  0.2504E+00
      0.196  0.1064E-01  0.1064E-01  0.2515E+00  0.2515E+00
      0.298  0.6721E-02  0.6721E-02  0.2522E+00  0.2522E+00
      0.401  0.6397E-02  0.6397E-02  0.2528E+00  0.2528E+00
      0.503  0.8912E-02  0.8912E-02  0.2538E+00  0.2538E+00
      0.605  0.1113E-01  0.1113E-01  0.2549E+00  0.2549E+00
      0.708  0.1003E-01  0.1003E-01  0.2559E+00  0.2559E+00
      0.810  0.1099E-01  0.1099E-01  0.2570E+00  0.2570E+00
      0.912  0.6420E-02  0.6420E-02  0.2577E+00  0.2577E+00
      1.015  0.4912E-02  0.4912E-02  0.2582E+00  0.2582E+00
      1.117  0.5742E-02  0.5742E-02  0.2588E+00  0.2588E+00
      1.219  0.4831E-02  0.4831E-02  0.2593E+00  0.2593E+00
      1.322  0.4258E-02  0.4258E-02  0.2597E+00  0.2597E+00
      1.424  0.5706E-02  0.5706E-02  0.2603E+00  0.2603E+00
      1.527  0.1203E-01  0.1203E-01  0.2615E+00  0.2615E+00
      1.629  0.7649E-02  0.7649E-02  0.2623E+00  0.2623E+00
      1.731  0.2554E-02  0.2554E-02  0.2626E+00  0.2626E+00
      1.834  0.4998E-02  0.4998E-02  0.2631E+00  0.2631E+00
      1.936  0.5374E-02  0.5374E-02  0.2636E+00  0.2636E+00
      2.038  0.8276E-02  0.8276E-02  0.2645E+00  0.2645E+00
      2.141  0.1513E-01  0.1513E-01  0.2660E+00  0.2660E+00
      2.243  0.1385E-01  0.1385E-01  0.2675E+00  0.2675E+00
      2.345  0.1305E-01  0.1305E-01  0.2688E+00  0.2688E+00
      2.448  0.1328E-01  0.1328E-01  0.2702E+00  0.2702E+00
      2.550  0.9477E-02  0.9477E-02  0.2711E+00  0.2711E+00
      2.652  0.8101E-02  0.8101E-02  0.2720E+00  0.2720E+00
      2.755  0.8990E-02  0.8989E-02  0.2729E+00  0.2729E+00
      2.857  0.9217E-02  0.9216E-02  0.2738E+00  0.2738E+00
      2.960  0.1460E-01  0.1460E-01  0.2753E+00  0.2753E+00
      3.062  0.1621E-01  0.1621E-01  0.2770E+00  0.2770E+00
      3.164  0.1045E-01  0.1045E-01  0.2780E+00  0.2780E+00
      3.267  0.8405E-02  0.8405E-02  0.2789E+00  0.2789E+00
      3.369  0.8894E-02  0.8895E-02  0.2798E+00  0.2798E+00
      3.471  0.1319E-01  0.1319E-01  0.2812E+00  0.2812E+00
      3.574  0.1102E-01  0.1102E-01  0.2823E+00  0.2823E+00
      3.676  0.8457E-02  0.8458E-02  0.2832E+00  0.2832E+00
      3.778  0.1336E-01  0.1336E-01  0.2845E+00  0.2845E+00
      3.881  0.1995E-01  0.1995E-01  0.2866E+00  0.2866E+00
      3.983  0.1960E-01  0.1960E-01  0.2886E+00  0.2886E+00
      4.085  0.1147E-01  0.1147E-01  0.2897E+00  0.2897E+00
      4.188  0.1098E-01  0.1097E-01  0.2909E+00  0.2909E+00
      4.290  0.1485E-01  0.1485E-01  0.2924E+00  0.2924E+00
      4.392  0.1644E-01  0.1644E-01  0.2941E+00  0.2941E+00
      4.495  0.1843E-01  0.1843E-01  0.2960E+00  0.2960E+00
      4.597  0.1180E-01  0.1180E-01  0.2972E+00  0.2972E+00
      4.700  0.1448E-01  0.1448E-01  0.2986E+00  0.2986E+00
      4.802  0.1810E-01  0.1810E-01  0.3005E+00  0.3005E+00
      4.904  0.2008E-01  0.2009E-01  0.3026E+00  0.3026E+00
      5.007  0.1912E-01  0.1912E-01  0.3045E+00  0.3045E+00
      5.109  0.1521E-01  0.1521E-01  0.3061E+00  0.3061E+00
      5.211  0.1316E-01  0.1316E-01  0.3074E+00  0.3074E+00
      5.314  0.1659E-01  0.1659E-01  0.3091E+00  0.3091E+00
      5.416  0.2413E-01  0.2414E-01  0.3116E+00  0.3116E+00
      5.518  0.2236E-01  0.2236E-01  0.3139E+00  0.3139E+00
      5.621  0.2391E-01  0.2391E-01  0.3163E+00  0.3163E+00
      5.723  0.2736E-01  0.2736E-01  0.3191E+00  0.3191E+00
      5.825  0.2296E-01  0.2297E-01  0.3215E+00  0.3215E+00
      5.928  0.1928E-01  0.1928E-01  0.3234E+00  0.3234E+00
      6.030  0.2575E-01  0.2574E-01  0.3261E+00  0.3261E+00
      6.133  0.3138E-01  0.3138E-01  0.3293E+00  0.3293E+00
      6.235  0.3236E-01  0.3236E-01  0.3326E+00  0.3326E+00
      6.337  0.2385E-01  0.2386E-01  0.3350E+00  0.3350E+00
      6.440  0.1542E-01  0.1542E-01  0.3366E+00  0.3366E+00
      6.542  0.2529E-01  0.2528E-01  0.3392E+00  0.3392E+00
      6.644  0.3433E-01  0.3433E-01  0.3427E+00  0.3427E+00
      6.747  0.3246E-01  0.3246E-01  0.3461E+00  0.3460E+00
      6.849  0.3246E-01  0.3246E-01  0.3494E+00  0.3494E+00
      6.951  0.3571E-01  0.3572E-01  0.3530E+00  0.3530E+00
      7.054  0.3320E-01  0.3319E-01  0.3564E+00  0.3564E+00
      7.156  0.3254E-01  0.3253E-01  0.3598E+00  0.3598E+00
      7.258  0.2835E-01  0.2836E-01  0.3627E+00  0.3627E+00
      7.361  0.2250E-01  0.2251E-01  0.3650E+00  0.3650E+00
      7.463  0.1799E-01  0.1799E-01  0.3668E+00  0.3668E+00
      7.566  0.2389E-01  0.2388E-01  0.3692E+00  0.3692E+00
      7.668  0.2376E-01  0.2376E-01  0.3717E+00  0.3717E+00
      7.770  0.1447E-01  0.1448E-01  0.3732E+00  0.3732E+00
      7.873  0.9309E-02  0.9309E-02  0.3741E+00  0.3741E+00
      7.975  0.4635E-02  0.4637E-02  0.3746E+00  0.3746E+00
      8.077  0.1749E-02  0.1750E-02  0.3748E+00  0.3748E+00
      8.180  0.1696E-02  0.1697E-02  0.3749E+00  0.3749E+00
      8.282  0.5388E-03  0.5393E-03  0.3750E+00  0.3750E+00
      8.384  0.2811E-04  0.2815E-04  0.3750E+00  0.3750E+00
      8.487  0.2145E-06  0.2150E-06  0.3750E+00  0.3750E+00
      8.589  0.2234E-09  0.2241E-09  0.3750E+00  0.3750E+00
      8.691  0.3050E-13  0.3062E-13  0.3750E+00  0.3750E+00
      8.794  0.7062E-18  0.7062E-18  0.3750E+00  0.3750E+00
      8.896  0.0000E+00  0.0000E+00  0.3750E+00  0.3750E+00
      8.999  0.0000E+00  0.0000E+00  0.3750E+00  0.3750E+00
      9.101  0.0000E+00  0.0000E+00  0.3750E+00  0.3750E+00
      9.203  0.0000E+00  0.0000E+00  0.3750E+00  0.3750E+00
      9.306  0.0000E+00  0.0000E+00  0.3750E+00  0.3750E+00
      9.408  0.0000E+00  0.0000E+00  0.3750E+00  0.3750E+00
      9.510  0.0000E+00  0.0000E+00  0.3750E+00  0.3750E+00
