       N       E                     dE             d eps       ncg     rms          rms(c)
DAV:   1    -0.659500613445E+02   -0.65950E+02   -0.14180E+04 40320   0.417E+01
DAV:   2    -0.743437996210E+02   -0.83937E+01   -0.83937E+01 54240   0.390E+00
DAV:   3    -0.743441103268E+02   -0.31071E-03   -0.31071E-03 31680   0.257E-02
DAV:   4    -0.743441103987E+02   -0.71936E-07   -0.71937E-07 63360   0.324E-04
DAV:   5    -0.743441103987E+02   -0.18190E-11    0.53029E-12 31680   0.994E-08    0.142E+01
DAV:   6    -0.690545345523E+02    0.52896E+01   -0.65439E+00 61440   0.561E-01    0.812E+00
DAV:   7    -0.670377706455E+02    0.20168E+01   -0.48079E+00 61440   0.474E-01    0.228E+00
DAV:   8    -0.669465744958E+02    0.91196E-01   -0.17485E-01 55680   0.899E-02    0.615E-01
DAV:   9    -0.669225485726E+02    0.24026E-01   -0.14116E-02 61440   0.313E-02    0.191E-01
DAV:  10    -0.669120626709E+02    0.10486E-01   -0.11455E-02 62400   0.176E-02    0.812E-02
DAV:  11    -0.669095485889E+02    0.25141E-02   -0.34536E-03 59520   0.101E-02    0.604E-02
DAV:  12    -0.669098549777E+02   -0.30639E-03   -0.10924E-03 58560   0.642E-03    0.300E-02
DAV:  13    -0.669135931444E+02   -0.37382E-02   -0.92484E-04 58560   0.516E-03    0.167E-02
DAV:  14    -0.669144719048E+02   -0.87876E-03   -0.83285E-05 57120   0.133E-03    0.942E-03
DAV:  15    -0.669154852323E+02   -0.10133E-02   -0.17980E-04 61440   0.165E-03    0.359E-03
DAV:  16    -0.669156669852E+02   -0.18175E-03   -0.11658E-05 58080   0.437E-04    0.931E-04
DAV:  17    -0.669156806269E+02   -0.13642E-04   -0.42163E-07 54240   0.117E-04    0.333E-04
DAV:  18    -0.669156856458E+02   -0.50189E-05   -0.15231E-07 56160   0.540E-05    0.675E-05
DAV:  19    -0.669156858222E+02   -0.17644E-06   -0.21246E-09 49440   0.828E-06
   1 F= -.67618670E+02 E0= -.67618656E+02  d E =-.289384E-04
