   8   8   0   4
  0.4338553E+02  0.5169000E-09  0.5169000E-09  0.1500000E-08  0.5000000E-15
  1.000000000000000E-004
  CAR 
 Lattice                                 
      6.56311348    -21.14419353  301     -3.47630243      1.00000000
    -21.144  0.0000E+00  0.0000E+00
    -21.052  0.0000E+00  0.0000E+00
    -20.959  0.0000E+00  0.0000E+00
    -20.867  0.0000E+00  0.0000E+00
    -20.775  0.0000E+00  0.0000E+00
    -20.682  0.0000E+00  0.0000E+00
    -20.590  0.0000E+00  0.0000E+00
    -20.498  0.0000E+00  0.0000E+00
    -20.405  0.1315E-15  0.1215E-16
    -20.313  0.1215E-11  0.1122E-12
    -20.221  0.2200E-08  0.2033E-09
    -20.128  0.8092E-06  0.7494E-07
    -20.036  0.6409E-04  0.5994E-05
    -19.944  0.1208E-02  0.1176E-03
    -19.851  0.6424E-02  0.7108E-03
    -19.759  0.1300E-01  0.1911E-02
    -19.666  0.1590E-01  0.3380E-02
    -19.574  0.1759E-01  0.5005E-02
    -19.482  0.2037E-01  0.6886E-02
    -19.389  0.2649E-01  0.9332E-02
    -19.297  0.3389E-01  0.1246E-01
    -19.205  0.2570E-01  0.1484E-01
    -19.112  0.7775E-02  0.1555E-01
    -19.020  0.7498E-03  0.1562E-01
    -18.928  0.1926E-04  0.1562E-01
    -18.835  0.1146E-06  0.1562E-01
    -18.743  0.1444E-09  0.1562E-01
    -18.651  0.3650E-13  0.1563E-01
    -18.558  0.1645E-17  0.1563E-01
    -18.466  0.0000E+00  0.1563E-01
    -18.373  0.0000E+00  0.1563E-01
    -18.281  0.0000E+00  0.1563E-01
    -18.189  0.5015E-18  0.1563E-01
    -18.096  0.1199E-13  0.1563E-01
    -18.004  0.5461E-10  0.1563E-01
    -17.912  0.4943E-07  0.1563E-01
    -17.819  0.9292E-05  0.1563E-01
    -17.727  0.3908E-03  0.1566E-01
    -17.635  0.4180E-02  0.1605E-01
    -17.542  0.1425E-01  0.1736E-01
    -17.450  0.2290E-01  0.1948E-01
    -17.358  0.2515E-01  0.2180E-01
    -17.265  0.1989E-01  0.2364E-01
    -17.173  0.1509E-01  0.2503E-01
    -17.080  0.1441E-01  0.2636E-01
    -16.988  0.1486E-01  0.2774E-01
    -16.896  0.1552E-01  0.2917E-01
    -16.803  0.1639E-01  0.3068E-01
    -16.711  0.1764E-01  0.3231E-01
    -16.619  0.1969E-01  0.3413E-01
    -16.526  0.2363E-01  0.3631E-01
    -16.434  0.2789E-01  0.3889E-01
    -16.342  0.2554E-01  0.4125E-01
    -16.249  0.1981E-01  0.4308E-01
    -16.157  0.1611E-01  0.4457E-01
    -16.065  0.1332E-01  0.4580E-01
    -15.972  0.8654E-02  0.4659E-01
    -15.880  0.2745E-02  0.4685E-01
    -15.787  0.2847E-03  0.4687E-01
    -15.695  0.7631E-05  0.4687E-01
    -15.603  0.4622E-07  0.4687E-01
    -15.510  0.5846E-10  0.4687E-01
    -15.418  0.1475E-13  0.4688E-01
    -15.326  0.5617E-18  0.4688E-01
    -15.233  0.0000E+00  0.4688E-01
    -15.141  0.0000E+00  0.4688E-01
    -15.049  0.0000E+00  0.4688E-01
    -14.956  0.0000E+00  0.4688E-01
    -14.864  0.0000E+00  0.4688E-01
    -14.772  0.4012E-19  0.4688E-01
    -14.679  0.2690E-14  0.4688E-01
    -14.587  0.1506E-10  0.4688E-01
    -14.494  0.1667E-07  0.4688E-01
    -14.402  0.3806E-05  0.4688E-01
    -14.310  0.1920E-03  0.4689E-01
    -14.217  0.2408E-02  0.4712E-01
    -14.125  0.9198E-02  0.4797E-01
    -14.033  0.1525E-01  0.4937E-01
    -13.940  0.1785E-01  0.5102E-01
    -13.848  0.2060E-01  0.5292E-01
    -13.756  0.2554E-01  0.5528E-01
    -13.663  0.2719E-01  0.5779E-01
    -13.571  0.2002E-01  0.5964E-01
    -13.479  0.1412E-01  0.6095E-01
    -13.386  0.1221E-01  0.6208E-01
    -13.294  0.1142E-01  0.6313E-01
    -13.201  0.1091E-01  0.6414E-01
    -13.109  0.1051E-01  0.6511E-01
    -13.017  0.1016E-01  0.6605E-01
    -12.924  0.9891E-02  0.6696E-01
    -12.832  0.1011E-01  0.6789E-01
    -12.740  0.1197E-01  0.6900E-01
    -12.647  0.1493E-01  0.7038E-01
    -12.555  0.1561E-01  0.7182E-01
    -12.463  0.1476E-01  0.7318E-01
    -12.370  0.1378E-01  0.7445E-01
    -12.278  0.1284E-01  0.7564E-01
    -12.185  0.1207E-01  0.7676E-01
    -12.093  0.1142E-01  0.7781E-01
    -12.001  0.1081E-01  0.7881E-01
    -11.908  0.9741E-02  0.7971E-01
    -11.816  0.7002E-02  0.8035E-01
    -11.724  0.4258E-02  0.8075E-01
    -11.631  0.3532E-02  0.8107E-01
    -11.539  0.3566E-02  0.8140E-01
    -11.447  0.3658E-02  0.8174E-01
    -11.354  0.3805E-02  0.8209E-01
    -11.262  0.4396E-02  0.8250E-01
    -11.170  0.5610E-02  0.8302E-01
    -11.077  0.6456E-02  0.8361E-01
    -10.985  0.6938E-02  0.8425E-01
    -10.892  0.8179E-02  0.8501E-01
    -10.800  0.1048E-01  0.8598E-01
    -10.708  0.1205E-01  0.8709E-01
    -10.615  0.1282E-01  0.8827E-01
    -10.523  0.1366E-01  0.8954E-01
    -10.431  0.1474E-01  0.9090E-01
    -10.338  0.1656E-01  0.9243E-01
    -10.246  0.1832E-01  0.9412E-01
    -10.154  0.1595E-01  0.9559E-01
    -10.061  0.1178E-01  0.9668E-01
     -9.969  0.1018E-01  0.9762E-01
     -9.877  0.1387E-01  0.9890E-01
     -9.784  0.2076E-01  0.1008E+00
     -9.692  0.2109E-01  0.1028E+00
     -9.599  0.1812E-01  0.1044E+00
     -9.507  0.1633E-01  0.1059E+00
     -9.415  0.1500E-01  0.1073E+00
     -9.322  0.1458E-01  0.1087E+00
     -9.230  0.1479E-01  0.1100E+00
     -9.138  0.1581E-01  0.1115E+00
     -9.045  0.1747E-01  0.1131E+00
     -8.953  0.1929E-01  0.1149E+00
     -8.861  0.2053E-01  0.1168E+00
     -8.768  0.1949E-01  0.1186E+00
     -8.676  0.2006E-01  0.1205E+00
     -8.584  0.2302E-01  0.1226E+00
     -8.491  0.2316E-01  0.1247E+00
     -8.399  0.1995E-01  0.1266E+00
     -8.306  0.1718E-01  0.1281E+00
     -8.214  0.1560E-01  0.1296E+00
     -8.122  0.1602E-01  0.1311E+00
     -8.029  0.1983E-01  0.1329E+00
     -7.937  0.2469E-01  0.1352E+00
     -7.845  0.3066E-01  0.1380E+00
     -7.752  0.3431E-01  0.1412E+00
     -7.660  0.3409E-01  0.1443E+00
     -7.568  0.3288E-01  0.1474E+00
     -7.475  0.2554E-01  0.1497E+00
     -7.383  0.1659E-01  0.1513E+00
     -7.291  0.1330E-01  0.1525E+00
     -7.198  0.1638E-01  0.1540E+00
     -7.106  0.1612E-01  0.1555E+00
     -7.013  0.1365E-01  0.1567E+00
     -6.921  0.1267E-01  0.1579E+00
     -6.829  0.1262E-01  0.1591E+00
     -6.736  0.1355E-01  0.1603E+00
     -6.644  0.1757E-01  0.1620E+00
     -6.552  0.2618E-01  0.1644E+00
     -6.459  0.3964E-01  0.1680E+00
     -6.367  0.5910E-01  0.1735E+00
     -6.275  0.6015E-01  0.1790E+00
     -6.182  0.4369E-01  0.1831E+00
     -6.090  0.3094E-01  0.1859E+00
     -5.998  0.2175E-01  0.1879E+00
     -5.905  0.1837E-01  0.1896E+00
     -5.813  0.1830E-01  0.1913E+00
     -5.720  0.1877E-01  0.1931E+00
     -5.628  0.1936E-01  0.1949E+00
     -5.536  0.2007E-01  0.1967E+00
     -5.443  0.2093E-01  0.1986E+00
     -5.351  0.2200E-01  0.2007E+00
     -5.259  0.2337E-01  0.2028E+00
     -5.166  0.2533E-01  0.2052E+00
     -5.074  0.2850E-01  0.2078E+00
     -4.982  0.3209E-01  0.2108E+00
     -4.889  0.3352E-01  0.2139E+00
     -4.797  0.3559E-01  0.2172E+00
     -4.705  0.3752E-01  0.2206E+00
     -4.612  0.3438E-01  0.2238E+00
     -4.520  0.2899E-01  0.2265E+00
     -4.427  0.1994E-01  0.2283E+00
     -4.335  0.1210E-01  0.2294E+00
     -4.243  0.9922E-02  0.2303E+00
     -4.150  0.9473E-02  0.2312E+00
     -4.058  0.9164E-02  0.2321E+00
     -3.966  0.8870E-02  0.2329E+00
     -3.873  0.8252E-02  0.2336E+00
     -3.781  0.5766E-02  0.2342E+00
     -3.689  0.1896E-02  0.2344E+00
     -3.596  0.1999E-03  0.2344E+00
     -3.504  0.5408E-05  0.2344E+00
     -3.412  0.3550E-06  0.2344E+00
     -3.319  0.3026E-04  0.2344E+00
     -3.227  0.6681E-03  0.2344E+00
     -3.134  0.4077E-02  0.2348E+00
     -3.042  0.9129E-02  0.2357E+00
     -2.950  0.1177E-01  0.2367E+00
     -2.857  0.1329E-01  0.2380E+00
     -2.765  0.1544E-01  0.2394E+00
     -2.673  0.1915E-01  0.2412E+00
     -2.580  0.2115E-01  0.2431E+00
     -2.488  0.1724E-01  0.2447E+00
     -2.396  0.1272E-01  0.2459E+00
     -2.303  0.1007E-01  0.2468E+00
     -2.211  0.8306E-02  0.2476E+00
     -2.119  0.6948E-02  0.2482E+00
     -2.026  0.5729E-02  0.2488E+00
     -1.934  0.4303E-02  0.2492E+00
     -1.841  0.2962E-02  0.2494E+00
     -1.749  0.2193E-02  0.2496E+00
     -1.657  0.1674E-02  0.2498E+00
     -1.564  0.1195E-02  0.2499E+00
     -1.472  0.7354E-03  0.2500E+00
     -1.380  0.3726E-03  0.2500E+00
     -1.287  0.3370E-03  0.2500E+00
     -1.195  0.6651E-03  0.2501E+00
     -1.103  0.1125E-02  0.2502E+00
     -1.010  0.1614E-02  0.2503E+00
     -0.918  0.2127E-02  0.2505E+00
     -0.826  0.2674E-02  0.2508E+00
     -0.733  0.3271E-02  0.2511E+00
     -0.641  0.3939E-02  0.2515E+00
     -0.548  0.4706E-02  0.2519E+00
     -0.456  0.5627E-02  0.2524E+00
     -0.364  0.6894E-02  0.2530E+00
     -0.271  0.9735E-02  0.2539E+00
     -0.179  0.1710E-01  0.2555E+00
     -0.087  0.2399E-01  0.2577E+00
      0.006  0.2113E-01  0.2597E+00
      0.098  0.1579E-01  0.2611E+00
      0.190  0.1295E-01  0.2623E+00
      0.283  0.1140E-01  0.2634E+00
      0.375  0.1065E-01  0.2644E+00
      0.468  0.1111E-01  0.2654E+00
      0.560  0.1183E-01  0.2665E+00
      0.652  0.1132E-01  0.2675E+00
      0.745  0.9470E-02  0.2684E+00
      0.837  0.9003E-02  0.2693E+00
      0.929  0.1197E-01  0.2704E+00
      1.022  0.1413E-01  0.2717E+00
      1.114  0.1476E-01  0.2730E+00
      1.206  0.1517E-01  0.2744E+00
      1.299  0.1566E-01  0.2759E+00
      1.391  0.1631E-01  0.2774E+00
      1.483  0.1735E-01  0.2790E+00
      1.576  0.1869E-01  0.2807E+00
      1.668  0.1890E-01  0.2825E+00
      1.761  0.1826E-01  0.2841E+00
      1.853  0.1947E-01  0.2859E+00
      1.945  0.2229E-01  0.2880E+00
      2.038  0.2344E-01  0.2902E+00
      2.130  0.2347E-01  0.2923E+00
      2.222  0.2403E-01  0.2945E+00
      2.315  0.2682E-01  0.2970E+00
      2.407  0.2961E-01  0.2998E+00
      2.499  0.3026E-01  0.3026E+00
      2.592  0.3024E-01  0.3053E+00
      2.684  0.3009E-01  0.3081E+00
      2.776  0.3005E-01  0.3109E+00
      2.869  0.2992E-01  0.3137E+00
      2.961  0.2987E-01  0.3164E+00
      3.054  0.2980E-01  0.3192E+00
      3.146  0.2973E-01  0.3219E+00
      3.238  0.2969E-01  0.3247E+00
      3.331  0.2966E-01  0.3274E+00
      3.423  0.2970E-01  0.3301E+00
      3.515  0.2967E-01  0.3329E+00
      3.608  0.2949E-01  0.3356E+00
      3.700  0.2956E-01  0.3383E+00
      3.792  0.2983E-01  0.3411E+00
      3.885  0.3047E-01  0.3439E+00
      3.977  0.3170E-01  0.3468E+00
      4.069  0.3091E-01  0.3497E+00
      4.162  0.2632E-01  0.3521E+00
      4.254  0.2374E-01  0.3543E+00
      4.347  0.2689E-01  0.3568E+00
      4.439  0.3068E-01  0.3596E+00
      4.531  0.2829E-01  0.3622E+00
      4.624  0.2236E-01  0.3643E+00
      4.716  0.1829E-01  0.3660E+00
      4.808  0.1788E-01  0.3676E+00
      4.901  0.2049E-01  0.3695E+00
      4.993  0.2140E-01  0.3715E+00
      5.085  0.1642E-01  0.3730E+00
      5.178  0.1132E-01  0.3741E+00
      5.270  0.7002E-02  0.3747E+00
      5.362  0.2533E-02  0.3750E+00
      5.455  0.3928E-03  0.3750E+00
      5.547  0.2029E-04  0.3750E+00
      5.640  0.2784E-06  0.3750E+00
      5.732  0.8649E-09  0.3750E+00
      5.824  0.5531E-12  0.3750E+00
      5.917  0.6906E-16  0.3750E+00
      6.009  0.0000E+00  0.3750E+00
      6.101  0.0000E+00  0.3750E+00
      6.194  0.0000E+00  0.3750E+00
      6.286  0.0000E+00  0.3750E+00
      6.378  0.0000E+00  0.3750E+00
      6.471  0.0000E+00  0.3750E+00
      6.563  0.0000E+00  0.3750E+00
