    8    8  128    1
  0.4338553E+02  0.5169000E-09  0.5169000E-09  0.1500000E-08  0.5000000E-15
  1.000000000000000E-004
  CAR 
 Lattice                                 
     30   1405     24
 
  0.0000000E+00  0.0000000E+00  0.0000000E+00  0.3559986E-03
      1        -19.884770   1.000000
      2        -15.983181   1.000000
      3        -15.983003   1.000000
      4        -13.641827   1.000000
      5        -13.641771   1.000000
      6        -12.573306   1.000000
      7        -11.250069   1.000000
      8         -8.688689   1.000000
      9         -8.456643   1.000000
     10         -6.304364   1.000000
     11         -6.304181   1.000000
     12         -4.480750   1.000000
     13         -4.480661   1.000000
     14         -3.791963   0.999996
     15         -3.791787   0.999996
     16         -1.963916   0.000000
     17         -0.227785   0.000000
     18         -0.227753   0.000000
     19          0.431760   0.000000
     20          0.841339   0.000000
     21          1.844280   0.000000
     22          2.268462   0.000000
     23          4.234155   0.000000
     24          4.857209   0.000000
 
  0.1886792E-01  0.6249305E-18  0.0000000E+00  0.7119972E-03
      1        -19.883367   1.000000
      2        -15.990284   1.000000
      3        -15.985424   1.000000
      4        -13.643665   1.000000
      5        -13.636594   1.000000
      6        -12.566372   1.000000
      7        -11.241549   1.000000
      8         -8.686564   1.000000
      9         -8.459511   1.000000
     10         -6.310646   1.000000
     11         -6.305593   1.000000
     12         -4.487184   1.000000
     13         -4.481743   1.000000
     14         -3.799177   0.999998
     15         -3.795513   0.999997
     16         -1.976767   0.000000
     17         -0.224591   0.000000
     18         -0.208763   0.000000
     19          0.437555   0.000000
     20          0.843999   0.000000
     21          1.847158   0.000000
     22          2.271135   0.000000
     23          4.236781   0.000000
     24          4.860100   0.000000
 
  0.6249305E-18  0.1886792E-01  0.0000000E+00  0.7119972E-03
      1        -19.883367   1.000000
      2        -15.990248   1.000000
      3        -15.985461   1.000000
      4        -13.643692   1.000000
      5        -13.636566   1.000000
      6        -12.566372   1.000000
      7        -11.241549   1.000000
      8         -8.686564   1.000000
      9         -8.459511   1.000000
     10         -6.310623   1.000000
     11         -6.305616   1.000000
     12         -4.487154   1.000000
     13         -4.481772   1.000000
     14         -3.799207   0.999998
     15         -3.795483   0.999997
     16         -1.976767   0.000000
     17         -0.224565   0.000000
     18         -0.208789   0.000000
     19          0.437555   0.000000
     20          0.843999   0.000000
     21          1.847158   0.000000
     22          2.271135   0.000000
     23          4.236781   0.000000
     24          4.860100   0.000000
 
 -0.1886792E-01  0.1886792E-01  0.0000000E+00  0.7119972E-03
      1        -19.883367   1.000000
      2        -15.990394   1.000000
      3        -15.985314   1.000000
      4        -13.643643   1.000000
      5        -13.636614   1.000000
      6        -12.566373   1.000000
      7        -11.241549   1.000000
      8         -8.686564   1.000000
      9         -8.459511   1.000000
     10         -6.310769   1.000000
     11         -6.305470   1.000000
     12         -4.487231   1.000000
     13         -4.481695   1.000000
     14         -3.799319   0.999998
     15         -3.795370   0.999997
     16         -1.976768   0.000000
     17         -0.224586   0.000000
     18         -0.208765   0.000000
     19          0.437553   0.000000
     20          0.843999   0.000000
     21          1.847158   0.000000
     22          2.271135   0.000000
     23          4.236781   0.000000
     24          4.860100   0.000000
 
  0.3773585E-01  0.1249861E-17  0.0000000E+00  0.7119972E-03
      1        -19.879164   1.000000
      2        -16.011667   1.000000
      3        -15.992282   1.000000
      4        -13.649391   1.000000
      5        -13.621066   1.000000
      6        -12.545551   1.000000
      7        -11.216206   1.000000
      8         -8.680211   1.000000
      9         -8.468269   1.000000
     10         -6.329929   1.000000
     11         -6.309418   1.000000
     12         -4.506750   1.000000
     13         -4.485087   1.000000
     14         -3.821476   0.999999
     15         -3.806321   0.999998
     16         -2.013503   0.000000
     17         -0.215443   0.000000
     18         -0.154234   0.000000
     19          0.455151   0.000000
     20          0.851975   0.000000
     21          1.855797   0.000000
     22          2.279153   0.000000
     23          4.244653   0.000000
     24          4.868669   0.000000
 
  0.1249861E-17  0.3773585E-01  0.0000000E+00  0.7119972E-03
      1        -19.879164   1.000000
      2        -16.011631   1.000000
      3        -15.992318   1.000000
      4        -13.649419   1.000000
      5        -13.621039   1.000000
      6        -12.545550   1.000000
      7        -11.216206   1.000000
      8         -8.680211   1.000000
      9         -8.468269   1.000000
     10         -6.329906   1.000000
     11         -6.309440   1.000000
     12         -4.506721   1.000000
     13         -4.485116   1.000000
     14         -3.821505   0.999999
     15         -3.806292   0.999998
     16         -2.013504   0.000000
     17         -0.215417   0.000000
     18         -0.154259   0.000000
     19          0.455150   0.000000
     20          0.851975   0.000000
     21          1.855797   0.000000
     22          2.279153   0.000000
     23          4.244653   0.000000
     24          4.868669   0.000000
 
 -0.3773585E-01  0.3773585E-01  0.0000000E+00  0.7119972E-03
      1        -19.879164   1.000000
      2        -16.011778   1.000000
      3        -15.992172   1.000000
      4        -13.649368   1.000000
      5        -13.621086   1.000000
      6        -12.545554   1.000000
      7        -11.216204   1.000000
      8         -8.680211   1.000000
      9         -8.468269   1.000000
     10         -6.330053   1.000000
     11         -6.309294   1.000000
     12         -4.506797   1.000000
     13         -4.485039   1.000000
     14         -3.821618   0.999999
     15         -3.806179   0.999998
     16         -2.013507   0.000000
     17         -0.215438   0.000000
     18         -0.154230   0.000000
     19          0.455145   0.000000
     20          0.851975   0.000000
     21          1.855797   0.000000
     22          2.279153   0.000000
     23          4.244653   0.000000
     24          4.868668   0.000000
 
  0.5660377E-01  0.2288076E-17  0.0000000E+00  0.7119972E-03
      1        -19.872174   1.000000
      2        -16.046429   1.000000
      3        -16.003450   1.000000
      4        -13.659226   1.000000
      5        -13.595464   1.000000
      6        -12.510811   1.000000
      7        -11.174605   1.000000
      8         -8.669615   1.000000
      9         -8.482952   1.000000
     10         -6.361776   1.000000
     11         -6.315448   1.000000
     12         -4.539051   1.000000
     13         -4.490480   1.000000
     14         -3.858232   1.000000
     15         -3.824148   1.000000
     16         -2.069182   0.000000
     17         -0.200058   0.000000
     18         -0.070215   0.000000
     19          0.485482   0.000000
     20          0.865263   0.000000
     21          1.870226   0.000000
     22          2.292513   0.000000
     23          4.257777   0.000000
     24          4.882669   0.000000
 
  0.2288076E-17  0.5660377E-01  0.0000000E+00  0.7119972E-03
      1        -19.872174   1.000000
      2        -16.046394   1.000000
      3        -16.003485   1.000000
      4        -13.659253   1.000000
      5        -13.595437   1.000000
      6        -12.510809   1.000000
      7        -11.174606   1.000000
      8         -8.669615   1.000000
      9         -8.482952   1.000000
     10         -6.361754   1.000000
     11         -6.315470   1.000000
     12         -4.539023   1.000000
     13         -4.490509   1.000000
     14         -3.858260   1.000000
     15         -3.824119   1.000000
     16         -2.069183   0.000000
     17         -0.200032   0.000000
     18         -0.070239   0.000000
     19          0.485481   0.000000
     20          0.865263   0.000000
     21          1.870226   0.000000
     22          2.292513   0.000000
     23          4.257777   0.000000
     24          4.882669   0.000000
 
 -0.5660377E-01  0.5660377E-01  0.0000000E+00  0.7119972E-03
      1        -19.872173   1.000000
      2        -16.046539   1.000000
      3        -16.003340   1.000000
      4        -13.659200   1.000000
      5        -13.595482   1.000000
      6        -12.510819   1.000000
      7        -11.174603   1.000000
      8         -8.669615   1.000000
      9         -8.482952   1.000000
     10         -6.361900   1.000000
     11         -6.315323   1.000000
     12         -4.539097   1.000000
     13         -4.490432   1.000000
     14         -3.858373   1.000000
     15         -3.824006   1.000000
     16         -2.069189   0.000000
     17         -0.200053   0.000000
     18         -0.070201   0.000000
     19          0.485470   0.000000
     20          0.865263   0.000000
     21          1.870225   0.000000
     22          2.292513   0.000000
     23          4.257777   0.000000
     24          4.882667   0.000000
 
  0.7547170E-01  0.2499722E-17  0.0000000E+00  0.7119972E-03
      1        -19.862428   1.000000
      2        -16.093388   1.000000
      3        -16.018568   1.000000
      4        -13.673413   1.000000
      5        -13.560191   1.000000
      6        -12.462273   1.000000
      7        -11.117599   1.000000
      8         -8.654795   1.000000
      9         -8.503741   1.000000
     10         -6.405882   1.000000
     11         -6.323215   1.000000
     12         -4.583711   1.000000
     13         -4.497844   1.000000
     14         -3.909393   1.000000
     15         -3.848799   1.000000
     16         -2.138026   0.000000
     17         -0.178791   0.000000
     18          0.035068   0.000000
     19          0.530424   0.000000
     20          0.883855   0.000000
     21          1.890493   0.000000
     22          2.311210   0.000000
     23          4.276147   0.000000
     24          4.901769   0.000000
 
  0.2499722E-17  0.7547170E-01  0.0000000E+00  0.7119972E-03
      1        -19.862428   1.000000
      2        -16.093353   1.000000
      3        -16.018603   1.000000
      4        -13.673439   1.000000
      5        -13.560164   1.000000
      6        -12.462271   1.000000
      7        -11.117600   1.000000
      8         -8.654795   1.000000
      9         -8.503741   1.000000
     10         -6.405859   1.000000
     11         -6.323236   1.000000
     12         -4.583683   1.000000
     13         -4.497872   1.000000
     14         -3.909422   1.000000
     15         -3.848771   1.000000
     16         -2.138027   0.000000
     17         -0.178765   0.000000
     18          0.035046   0.000000
     19          0.530423   0.000000
     20          0.883855   0.000000
     21          1.890493   0.000000
     22          2.311210   0.000000
     23          4.276147   0.000000
     24          4.901770   0.000000
 
 -0.7547170E-01  0.7547170E-01  0.0000000E+00  0.7119972E-03
      1        -19.862427   1.000000
      2        -16.093497   1.000000
      3        -16.018460   1.000000
      4        -13.673385   1.000000
      5        -13.560208   1.000000
      6        -12.462286   1.000000
      7        -11.117594   1.000000
      8         -8.654794   1.000000
      9         -8.503742   1.000000
     10         -6.406006   1.000000
     11         -6.323090   1.000000
     12         -4.583757   1.000000
     13         -4.497796   1.000000
     14         -3.909533   1.000000
     15         -3.848659   1.000000
     16         -2.138037   0.000000
     17         -0.178785   0.000000
     18          0.035097   0.000000
     19          0.530401   0.000000
     20          0.883855   0.000000
     21          1.890492   0.000000
     22          2.311210   0.000000
     23          4.276147   0.000000
     24          4.901766   0.000000
 
  0.9433962E-01 -0.7580794E-18  0.0000000E+00  0.7119972E-03
      1        -19.849962   1.000000
      2        -16.151083   1.000000
      3        -16.037178   1.000000
      4        -13.691992   1.000000
      5        -13.515762   1.000000
      6        -12.400334   1.000000
      7        -11.046224   1.000000
      8         -8.635773   1.000000
      9         -8.530813   1.000000
     10         -6.461708   1.000000
     11         -6.332066   1.000000
     12         -4.640107   1.000000
     13         -4.507055   1.000000
     14         -3.974417   1.000000
     15         -3.880045   1.000000
     16         -2.214661   0.000000
     17         -0.151817   0.000000
     18          0.151996   0.000000
     19          0.593485   0.000000
     20          0.907740   0.000000
     21          1.916676   0.000000
     22          2.335238   0.000000
     23          4.299758   0.000000
     24          4.925633   0.000000
 
 -0.7580794E-18  0.9433962E-01  0.0000000E+00  0.7119972E-03
      1        -19.849963   1.000000
      2        -16.151049   1.000000
      3        -16.037212   1.000000
      4        -13.692018   1.000000
      5        -13.515737   1.000000
      6        -12.400331   1.000000
      7        -11.046227   1.000000
      8         -8.635773   1.000000
      9         -8.530815   1.000000
     10         -6.461686   1.000000
     11         -6.332086   1.000000
     12         -4.640079   1.000000
     13         -4.507084   1.000000
     14         -3.974445   1.000000
     15         -3.880017   1.000000
     16         -2.214663   0.000000
     17         -0.151791   0.000000
     18          0.151977   0.000000
     19          0.593482   0.000000
     20          0.907740   0.000000
     21          1.916677   0.000000
     22          2.335238   0.000000
     23          4.299758   0.000000
     24          4.925634   0.000000
 
 -0.9433962E-01  0.9433962E-01  0.0000000E+00  0.7119972E-03
      1        -19.849961   1.000000
      2        -16.151192   1.000000
      3        -16.037071   1.000000
      4        -13.691962   1.000000
      5        -13.515778   1.000000
      6        -12.400353   1.000000
      7        -11.046217   1.000000
      8         -8.635773   1.000000
      9         -8.530816   1.000000
     10         -6.461833   1.000000
     11         -6.331940   1.000000
     12         -4.640150   1.000000
     13         -4.507008   1.000000
     14         -3.974554   1.000000
     15         -3.879907   1.000000
     16         -2.214677   0.000000
     17         -0.151811   0.000000
     18          0.152044   0.000000
     19          0.593447   0.000000
     20          0.907740   0.000000
     21          1.916675   0.000000
     22          2.335238   0.000000
     23          4.299758   0.000000
     24          4.925630   0.000000
 
  0.1132075E+00 -0.1190759E-18  0.0000000E+00  0.7119972E-03
      1        -19.834830   1.000000
      2        -16.217931   1.000000
      3        -16.058757   1.000000
      4        -13.714732   1.000000
      5        -13.462789   1.000000
      6        -12.325732   1.000000
      7        -10.961611   1.000000
      8         -8.612581   1.000000
      9         -8.564507   1.000000
     10         -6.528803   1.000000
     11         -6.341319   1.000000
     12         -4.707440   1.000000
     13         -4.517959   1.000000
     14         -4.052875   1.000000
     15         -3.917604   1.000000
     16         -2.294857   0.000000
     17         -0.119756   0.000000
     18          0.269791   0.000000
     19          0.679846   0.000000
     20          0.936908   0.000000
     21          1.948900   0.000000
     22          2.364591   0.000000
     23          4.328602   0.000000
     24          4.953968   0.000000
 
 -0.1190759E-18  0.1132075E+00  0.0000000E+00  0.7119972E-03
      1        -19.834830   1.000000
      2        -16.217898   1.000000
      3        -16.058790   1.000000
      4        -13.714757   1.000000
      5        -13.462764   1.000000
      6        -12.325728   1.000000
      7        -10.961614   1.000000
      8         -8.612581   1.000000
      9         -8.564509   1.000000
     10         -6.528781   1.000000
     11         -6.341339   1.000000
     12         -4.707413   1.000000
     13         -4.517987   1.000000
     14         -4.052902   1.000000
     15         -3.917576   1.000000
     16         -2.294860   0.000000
     17         -0.119730   0.000000
     18          0.269776   0.000000
     19          0.679840   0.000000
     20          0.936908   0.000000
     21          1.948900   0.000000
     22          2.364591   0.000000
     23          4.328602   0.000000
     24          4.953969   0.000000
 
 -0.1132075E+00  0.1132075E+00  0.0000000E+00  0.7119972E-03
      1        -19.834828   1.000000
      2        -16.218038   1.000000
      3        -16.058652   1.000000
      4        -13.714699   1.000000
      5        -13.462802   1.000000
      6        -12.325757   1.000000
      7        -10.961601   1.000000
      8         -8.612580   1.000000
      9         -8.564510   1.000000
     10         -6.528928   1.000000
     11         -6.341192   1.000000
     12         -4.707482   1.000000
     13         -4.517912   1.000000
     14         -4.053010   1.000000
     15         -3.917468   1.000000
     16         -2.294877   0.000000
     17         -0.119750   0.000000
     18          0.269859   0.000000
     19          0.679793   0.000000
     20          0.936908   0.000000
     21          1.948897   0.000000
     22          2.364591   0.000000
     23          4.328602   0.000000
     24          4.953964   0.000000
 
  0.1320755E+00  0.1215405E-16  0.0000000E+00  0.7119972E-03
      1        -19.817105   1.000000
      2        -16.292329   1.000000
      3        -16.082743   1.000000
      4        -13.741128   1.000000
      5        -13.401918   1.000000
      6        -12.239489   1.000000
      7        -10.864879   1.000000
      8         -8.604942   1.000000
      9         -8.585261   1.000000
     10         -6.606449   1.000000
     11         -6.350148   1.000000
     12         -4.784823   1.000000
     13         -4.530334   1.000000
     14         -4.144136   1.000000
     15         -3.960884   1.000000
     16         -2.375461   0.000000
     17         -0.082842   0.000000
     18          0.379248   0.000000
     19          0.794282   0.000000
     20          0.971348   0.000000
     21          1.987354   0.000000
     22          2.399263   0.000000
     23          4.362664   0.000000
     24          4.986529   0.000000
 
  0.4388586E-17  0.1320755E+00  0.0000000E+00  0.7119972E-03
      1        -19.817106   1.000000
      2        -16.292296   1.000000
      3        -16.082776   1.000000
      4        -13.741152   1.000000
      5        -13.401894   1.000000
      6        -12.239484   1.000000
      7        -10.864883   1.000000
      8         -8.604944   1.000000
      9         -8.585261   1.000000
     10         -6.606427   1.000000
     11         -6.350167   1.000000
     12         -4.784797   1.000000
     13         -4.530363   1.000000
     14         -4.144163   1.000000
     15         -3.960857   1.000000
     16         -2.375464   0.000000
     17         -0.082816   0.000000
     18          0.379237   0.000000
     19          0.794274   0.000000
     20          0.971348   0.000000
     21          1.987355   0.000000
     22          2.399263   0.000000
     23          4.362664   0.000000
     24          4.986530   0.000000
 
 -0.1320755E+00  0.1320755E+00  0.0000000E+00  0.7119972E-03
      1        -19.817104   1.000000
      2        -16.292435   1.000000
      3        -16.082640   1.000000
      4        -13.741093   1.000000
      5        -13.401929   1.000000
      6        -12.239519   1.000000
      7        -10.864867   1.000000
      8         -8.604946   1.000000
      9         -8.585260   1.000000
     10         -6.606575   1.000000
     11         -6.350020   1.000000
     12         -4.784863   1.000000
     13         -4.530288   1.000000
     14         -4.144268   1.000000
     15         -3.960751   1.000000
     16         -2.375486   0.000000
     17         -0.082835   0.000000
     18          0.379332   0.000000
     19          0.794218   0.000000
     20          0.971348   0.000000
     21          1.987350   0.000000
     22          2.399263   0.000000
     23          4.362664   0.000000
     24          4.986525   0.000000
 
  0.1509434E+00  0.1130785E-17  0.0000000E+00  0.7119972E-03
      1        -19.796864   1.000000
      2        -16.372742   1.000000
      3        -16.108577   1.000000
      4        -13.770502   1.000000
      5        -13.333833   1.000000
      6        -12.142804   1.000000
      7        -10.757125   1.000000
      8         -8.652301   1.000000
      9         -8.553802   1.000000
     10         -6.693931   1.000000
     11         -6.357796   1.000000
     12         -4.871263   1.000000
     13         -4.543966   1.000000
     14         -4.247570   1.000000
     15         -4.009496   1.000000
     16         -2.454355   0.000000
     17         -0.041425   0.000000
     18          0.476701   0.000000
     19          0.936818   0.000000
     20          1.011044   0.000000
     21          2.032345   0.000000
     22          2.439244   0.000000
     23          4.401951   0.000000
     24          5.023047   0.000000
 
  0.1130785E-17  0.1509434E+00  0.0000000E+00  0.7119972E-03
      1        -19.796865   1.000000
      2        -16.372711   1.000000
      3        -16.108609   1.000000
      4        -13.770526   1.000000
      5        -13.333810   1.000000
      6        -12.142798   1.000000
      7        -10.757131   1.000000
      8         -8.652304   1.000000
      9         -8.553803   1.000000
     10         -6.693910   1.000000
     11         -6.357813   1.000000
     12         -4.871238   1.000000
     13         -4.543994   1.000000
     14         -4.247596   1.000000
     15         -4.009469   1.000000
     16         -2.454358   0.000000
     17         -0.041400   0.000000
     18          0.476694   0.000000
     19          0.936807   0.000000
     20          1.011044   0.000000
     21          2.032346   0.000000
     22          2.439244   0.000000
     23          4.401951   0.000000
     24          5.023048   0.000000
 
 -0.1509434E+00  0.1509434E+00  0.0000000E+00  0.7119972E-03
      1        -19.796862   1.000000
      2        -16.372848   1.000000
      3        -16.108476   1.000000
      4        -13.770466   1.000000
      5        -13.333842   1.000000
      6        -12.142839   1.000000
      7        -10.757111   1.000000
      8         -8.652306   1.000000
      9         -8.553801   1.000000
     10         -6.694057   1.000000
     11         -6.357667   1.000000
     12         -4.871303   1.000000
     13         -4.543919   1.000000
     14         -4.247699   1.000000
     15         -4.009366   1.000000
     16         -2.454383   0.000000
     17         -0.041418   0.000000
     18          0.476792   0.000000
     19          0.936751   0.000000
     20          1.011043   0.000000
     21          2.032339   0.000000
     22          2.439244   0.000000
     23          4.401951   0.000000
     24          5.023044   0.000000
 
  0.1698113E+00  0.2116937E-16  0.0000000E+00  0.7119972E-03
      1        -19.774223   1.000000
      2        -16.457741   1.000000
      3        -16.135712   1.000000
      4        -13.802085   1.000000
      5        -13.259230   1.000000
      6        -12.036921   1.000000
      7        -10.639373   1.000000
      8         -8.706680   1.000000
      9         -8.518355   1.000000
     10         -6.790447   1.000000
     11         -6.363517   1.000000
     12         -4.965649   1.000000
     13         -4.558615   1.000000
     14         -4.362431   1.000000
     15         -4.062946   1.000000
     16         -2.530222   0.000000
     17          0.003884   0.000000
     18          0.564346   0.000000
     19          1.055985   0.000000
     20          1.101666   0.000000
     21          2.084358   0.000000
     22          2.484530   0.000000
     23          4.446407   0.000000
     24          5.063262   0.000000
 
  0.7291587E-17  0.1698113E+00  0.0000000E+00  0.7119972E-03
      1        -19.774224   1.000000
      2        -16.457709   1.000000
      3        -16.135743   1.000000
      4        -13.802108   1.000000
      5        -13.259207   1.000000
      6        -12.036915   1.000000
      7        -10.639379   1.000000
      8         -8.706683   1.000000
      9         -8.518356   1.000000
     10         -6.790426   1.000000
     11         -6.363533   1.000000
     12         -4.965625   1.000000
     13         -4.558643   1.000000
     14         -4.362456   1.000000
     15         -4.062920   1.000000
     16         -2.530225   0.000000
     17          0.003909   0.000000
     18          0.564342   0.000000
     19          1.055985   0.000000
     20          1.101652   0.000000
     21          2.084359   0.000000
     22          2.484530   0.000000
     23          4.446407   0.000000
     24          5.063262   0.000000
 
 -0.1698113E+00  0.1698113E+00  0.0000000E+00  0.7119972E-03
      1        -19.774220   1.000000
      2        -16.457845   1.000000
      3        -16.135613   1.000000
      4        -13.802048   1.000000
      5        -13.259236   1.000000
      6        -12.036960   1.000000
      7        -10.639356   1.000000
      8         -8.706685   1.000000
      9         -8.518354   1.000000
     10         -6.790575   1.000000
     11         -6.363387   1.000000
     12         -4.965687   1.000000
     13         -4.558569   1.000000
     14         -4.362556   1.000000
     15         -4.062820   1.000000
     16         -2.530253   0.000000
     17          0.003891   0.000000
     18          0.564438   0.000000
     19          1.055985   0.000000
     20          1.101604   0.000000
     21          2.084349   0.000000
     22          2.484530   0.000000
     23          4.446407   0.000000
     24          5.063260   0.000000
 
  0.1886792E+00  0.1014611E-16  0.0000000E+00  0.7119972E-03
      1        -19.749297   1.000000
      2        -16.546015   1.000000
      3        -16.163636   1.000000
      4        -13.835112   1.000000
      5        -13.178799   1.000000
      6        -11.923060   1.000000
      7        -10.512587   1.000000
      8         -8.768000   1.000000
      9         -8.478932   1.000000
     10         -6.895154   1.000000
     11         -6.366622   1.000000
     12         -5.066829   1.000000
     13         -4.574045   1.000000
     14         -4.488047   1.000000
     15         -4.120618   1.000000
     16         -2.602190   0.000000
     17          0.052494   0.000000
     18          0.646334   0.000000
     19          1.106157   0.000000
     20          1.281572   0.000000
     21          2.144206   0.000000
     22          2.535112   0.000000
     23          4.496025   0.000000
     24          5.106753   0.000000
 
  0.1014611E-16  0.1886792E+00  0.0000000E+00  0.7119972E-03
      1        -19.749298   1.000000
      2        -16.545984   1.000000
      3        -16.163666   1.000000
      4        -13.835134   1.000000
      5        -13.178777   1.000000
      6        -11.923053   1.000000
      7        -10.512595   1.000000
      8         -8.768004   1.000000
      9         -8.478933   1.000000
     10         -6.895133   1.000000
     11         -6.366637   1.000000
     12         -5.066806   1.000000
     13         -4.574073   1.000000
     14         -4.488072   1.000000
     15         -4.120592   1.000000
     16         -2.602193   0.000000
     17          0.052519   0.000000
     18          0.646332   0.000000
     19          1.106157   0.000000
     20          1.281558   0.000000
     21          2.144206   0.000000
     22          2.535112   0.000000
     23          4.496026   0.000000
     24          5.106752   0.000000
 
 -0.1886792E+00  0.1886792E+00  0.0000000E+00  0.7119972E-03
      1        -19.749293   1.000000
      2        -16.546119   1.000000
      3        -16.163538   1.000000
      4        -13.835074   1.000000
      5        -13.178803   1.000000
      6        -11.923102   1.000000
      7        -10.512567   1.000000
      8         -8.768007   1.000000
      9         -8.478930   1.000000
     10         -6.895283   1.000000
     11         -6.366491   1.000000
     12         -5.066866   1.000000
     13         -4.573999   1.000000
     14         -4.488169   1.000000
     15         -4.120495   1.000000
     16         -2.602224   0.000000
     17          0.052502   0.000000
     18          0.646424   0.000000
     19          1.106156   0.000000
     20          1.281518   0.000000
     21          2.144193   0.000000
     22          2.535112   0.000000
     23          4.496026   0.000000
     24          5.106752   0.000000
 
  0.2075472E+00  0.1300063E-16  0.0000000E+00  0.7119972E-03
      1        -19.722245   1.000000
      2        -16.636387   1.000000
      3        -16.191875   1.000000
      4        -13.868868   1.000000
      5        -13.093236   1.000000
      6        -11.802342   1.000000
      7        -10.377660   1.000000