Automatically generated mesh
    1405
Reciprocal lattice
    0.00000000000000    0.00000000000000    0.00000000000000             1
    0.01886792452830    0.00000000000000    0.00000000000000             2
    0.00000000000000    0.01886792452830    0.00000000000000             2
   -0.01886792452830    0.01886792452830    0.00000000000000             2
    0.03773584905660    0.00000000000000    0.00000000000000             2
    0.00000000000000    0.03773584905660    0.00000000000000             2
   -0.03773584905660    0.03773584905660    0.00000000000000             2
    0.05660377358490    0.00000000000000    0.00000000000000             2
    0.00000000000000    0.05660377358490    0.00000000000000             2
   -0.05660377358490    0.05660377358490    0.00000000000000             2
    0.07547169811320    0.00000000000000    0.00000000000000             2
    0.00000000000000    0.07547169811320    0.00000000000000             2
   -0.07547169811320    0.07547169811320    0.00000000000000             2
    0.09433962264151   -0.00000000000000    0.00000000000000             2
   -0.00000000000000    0.09433962264151    0.00000000000000             2
   -0.09433962264151    0.09433962264151    0.00000000000000             2
    0.11320754716981   -0.00000000000000    0.00000000000000             2
   -0.00000000000000    0.11320754716981    0.00000000000000             2
   -0.11320754716981    0.11320754716981    0.00000000000000             2
    0.13207547169812    0.00000000000000    0.00000000000000             2
    0.00000000000000    0.13207547169812    0.00000000000000             2
   -0.13207547169812    0.13207547169812    0.00000000000000             2
    0.15094339622642    0.00000000000000    0.00000000000000             2
    0.00000000000000    0.15094339622642    0.00000000000000             2
   -0.15094339622642    0.15094339622642    0.00000000000000             2
    0.16981132075472    0.00000000000000    0.00000000000000             2
    0.00000000000000    0.16981132075472    0.00000000000000             2
   -0.16981132075472    0.16981132075472    0.00000000000000             2
    0.18867924528302    0.00000000000000    0.00000000000000             2
    0.00000000000000    0.18867924528302    0.00000000000000             2
   -0.18867924528302    0.18867924528302    0.00000000000000             2
    0.20754716981132    0.00000000000000    0.00000000000000             2
    0.00000000000000    0.20754716981132    0.00000000000000             2
   -0.20754716981132    0.20754716981132    0.00000000000000             2
    0.22641509433962    0.00000000000000    0.00000000000000             2
    0.00000000000000    0.22641509433962    0.00000000000000             2
   -0.22641509433962    0.22641509433962    0.00000000000000             2
    0.24528301886792    0.00000000000000    0.00000000000000             2
   -0.00000000000000    0.24528301886792    0.00000000000000             2
   -0.24528301886792    0.24528301886792    0.00000000000000             2
    0.26415094339622   -0.00000000000000    0.00000000000000             2
   -0.00000000000000    0.26415094339622    0.00000000000000             2
   -0.26415094339622    0.26415094339622    0.00000000000000             2
    0.28301886792453    0.00000000000000    0.00000000000000             2
    0.00000000000000    0.28301886792453    0.00000000000000             2
   -0.28301886792453    0.28301886792453    0.00000000000000             2
    0.30188679245283    0.00000000000000    0.00000000000000             2
    0.00000000000000    0.30188679245283    0.00000000000000             2
   -0.30188679245283    0.30188679245283    0.00000000000000             2
    0.32075471698113    0.00000000000000    0.00000000000000             2
    0.00000000000000    0.32075471698113    0.00000000000000             2
   -0.32075471698113    0.32075471698113    0.00000000000000             2
    0.33962264150944    0.00000000000000    0.00000000000000             2
    0.00000000000000    0.33962264150944    0.00000000000000             2
   -0.33962264150944    0.33962264150944    0.00000000000000             2
    0.35849056603774    0.00000000000000    0.00000000000000             2
    0.00000000000000    0.35849056603774    0.00000000000000             2
   -0.35849056603774    0.35849056603774    0.00000000000000             2
    0.37735849056604    0.00000000000000    0.00000000000000             2
    0.00000000000000    0.37735849056604    0.00000000000000             2
   -0.37735849056604    0.37735849056604    0.00000000000000             2
    0.39622641509434   -0.00000000000000    0.00000000000000             2
   -0.00000000000000    0.39622641509434    0.00000000000000             2
   -0.39622641509434    0.39622641509434    0.00000000000000             2
    0.41509433962264    0.00000000000000    0.00000000000000             2
    0.00000000000000    0.41509433962264    0.00000000000000             2
   -0.41509433962264    0.41509433962264    0.00000000000000             2
    0.43396226415094    0.00000000000000    0.00000000000000             2
    0.00000000000000    0.43396226415094    0.00000000000000             2
   -0.43396226415094    0.43396226415094    0.00000000000000             2
    0.45283018867924    0.00000000000000    0.00000000000000             2
    0.00000000000000    0.45283018867924    0.00000000000000             2
   -0.45283018867924    0.45283018867924    0.00000000000000             2
    0.47169811320754    0.00000000000000    0.00000000000000             2
    0.00000000000000    0.47169811320754    0.00000000000000             2
   -0.47169811320754    0.47169811320754    0.00000000000000             2
    0.49056603773585    0.00000000000000    0.00000000000000             2
   -0.00000000000000    0.49056603773585    0.00000000000000             2
   -0.49056603773585    0.49056603773585    0.00000000000000             2
    0.01886792452830    0.01886792452830    0.00000000000000             2
   -0.01886792452830    0.03773584905660    0.00000000000000             2
   -0.03773584905660    0.01886792452830    0.00000000000000             2
    0.03773584905660    0.01886792452830    0.00000000000000             2
   -0.01886792452830    0.05660377358490    0.00000000000000             2
   -0.05660377358490    0.03773584905660    0.00000000000000             2
   -0.03773584905660    0.05660377358490    0.00000000000000             2
    0.01886792452830    0.03773584905660    0.00000000000000             2
    0.05660377358490   -0.01886792452830    0.00000000000000             2
    0.05660377358490    0.01886792452830    0.00000000000000             2
   -0.01886792452830    0.07547169811320    0.00000000000000             2
   -0.07547169811320    0.05660377358490    0.00000000000000             2
   -0.05660377358490    0.07547169811320    0.00000000000000             2
    0.01886792452830    0.05660377358490    0.00000000000000             2
    0.07547169811320   -0.01886792452830    0.00000000000000             2
    0.07547169811320    0.01886792452830    0.00000000000000             2
   -0.01886792452830    0.09433962264151    0.00000000000000             2
   -0.09433962264151    0.07547169811320    0.00000000000000             2
   -0.07547169811320    0.09433962264151    0.00000000000000             2
    0.01886792452830    0.07547169811320    0.00000000000000             2
    0.09433962264151   -0.01886792452830    0.00000000000000             2
    0.09433962264151    0.01886792452830    0.00000000000000             2
   -0.01886792452830    0.11320754716981    0.00000000000000             2
   -0.11320754716981    0.09433962264151    0.00000000000000             2
   -0.09433962264151    0.11320754716981    0.00000000000000             2
    0.01886792452830    0.09433962264151    0.00000000000000             2
    0.11320754716981   -0.01886792452830    0.00000000000000             2
    0.11320754716981    0.01886792452830    0.00000000000000             2
   -0.01886792452830    0.13207547169812    0.00000000000000             2
   -0.13207547169812    0.11320754716981    0.00000000000000             2
   -0.11320754716981    0.13207547169812    0.00000000000000             2
    0.01886792452830    0.11320754716981    0.00000000000000             2
    0.13207547169812   -0.01886792452830    0.00000000000000             2
    0.13207547169812    0.01886792452830    0.00000000000000             2
   -0.01886792452830    0.15094339622642    0.00000000000000             2
   -0.15094339622642    0.13207547169812    0.00000000000000             2
   -0.13207547169812    0.15094339622642    0.00000000000000             2
    0.01886792452830    0.13207547169812    0.00000000000000             2
    0.15094339622642   -0.01886792452830    0.00000000000000             2
    0.15094339622642    0.01886792452830    0.00000000000000             2
   -0.01886792452830    0.16981132075472    0.00000000000000             2
   -0.16981132075472    0.15094339622642    0.00000000000000             2
   -0.15094339622642    0.16981132075472    0.00000000000000             2
    0.01886792452830    0.15094339622642    0.00000000000000             2
    0.16981132075472   -0.01886792452830    0.00000000000000             2
    0.16981132075472    0.01886792452830    0.00000000000000             2
   -0.01886792452830    0.18867924528302    0.00000000000000             2
   -0.18867924528302    0.16981132075472    0.00000000000000             2
   -0.16981132075472    0.18867924528302    0.00000000000000             2
    0.01886792452830    0.16981132075472    0.00000000000000             2
    0.18867924528302   -0.01886792452830    0.00000000000000             2
    0.18867924528302    0.01886792452830    0.00000000000000             2
   -0.01886792452830    0.20754716981132    0.00000000000000             2
   -0.20754716981132    0.18867924528302    0.00000000000000             2
   -0.18867924528302    0.20754716981132    0.00000000000000             2
    0.01886792452830    0.18867924528302    0.00000000000000             2
    0.20754716981132   -0.01886792452830    0.00000000000000             2
    0.20754716981132    0.01886792452830    0.00000000000000             2
   -0.01886792452830    0.22641509433962    0.00000000000000             2
   -0.22641509433962    0.20754716981132    0.00000000000000             2
   -0.20754716981132    0.22641509433962    0.00000000000000             2
    0.01886792452830    0.20754716981132    0.00000000000000             2
    0.22641509433962   -0.01886792452830    0.00000000000000             2
    0.22641509433962    0.01886792452830    0.00000000000000             2
   -0.01886792452830    0.24528301886792    0.00000000000000             2
   -0.24528301886792    0.22641509433962    0.00000000000000             2
   -0.22641509433962    0.24528301886792    0.00000000000000             2
    0.01886792452830    0.22641509433962    0.00000000000000             2
    0.24528301886792   -0.01886792452830    0.00000000000000             2
    0.24528301886792    0.01886792452830    0.00000000000000             2
   -0.01886792452830    0.26415094339622    0.00000000000000             2
   -0.26415094339622    0.24528301886792    0.00000000000000             2
   -0.24528301886792    0.26415094339622    0.00000000000000             2
    0.01886792452830    0.24528301886792    0.00000000000000             2
    0.26415094339622   -0.01886792452830    0.00000000000000             2
    0.26415094339622    0.01886792452830    0.00000000000000             2
   -0.01886792452830    0.28301886792453    0.00000000000000             2
   -0.28301886792453    0.26415094339622    0.00000000000000             2
   -0.26415094339622    0.28301886792453    0.00000000000000             2
    0.01886792452830    0.26415094339622    0.00000000000000             2
    0.28301886792453   -0.01886792452830    0.00000000000000             2
    0.28301886792453    0.01886792452830    0.00000000000000             2
   -0.01886792452830    0.30188679245283    0.00000000000000             2
   -0.30188679245283    0.28301886792453    0.00000000000000             2
   -0.28301886792453    0.30188679245283    0.00000000000000             2
    0.01886792452830    0.28301886792453    0.00000000000000             2
    0.30188679245283   -0.01886792452830    0.00000000000000             2
    0.30188679245283    0.01886792452830    0.00000000000000             2
   -0.01886792452830    0.32075471698113    0.00000000000000             2
   -0.32075471698113    0.30188679245283    0.00000000000000             2
   -0.30188679245283    0.32075471698113    0.00000000000000             2
    0.01886792452830    0.30188679245283    0.00000000000000             2
    0.32075471698113   -0.01886792452830    0.00000000000000             2
    0.32075471698113    0.01886792452830    0.00000000000000             2
   -0.01886792452830    0.33962264150944    0.00000000000000             2
   -0.33962264150944    0.32075471698113    0.00000000000000             2
   -0.32075471698113    0.33962264150944    0.00000000000000             2
    0.01886792452830    0.32075471698113    0.00000000000000             2
    0.33962264150944   -0.01886792452830    0.00000000000000             2
    0.33962264150944    0.01886792452830    0.00000000000000             2
   -0.01886792452830    0.35849056603774    0.00000000000000             2
   -0.35849056603774    0.33962264150944    0.00000000000000             2
   -0.33962264150944    0.35849056603774    0.00000000000000             2
    0.01886792452830    0.33962264150944    0.00000000000000             2
    0.35849056603774   -0.01886792452830    0.00000000000000             2
    0.35849056603774    0.01886792452830    0.00000000000000             2
   -0.01886792452830    0.37735849056604    0.00000000000000             2
   -0.37735849056604    0.35849056603774    0.00000000000000             2
   -0.35849056603774    0.37735849056604    0.00000000000000             2
    0.01886792452830    0.35849056603774    0.00000000000000             2
    0.37735849056604   -0.01886792452830    0.00000000000000             2
    0.37735849056604    0.01886792452830    0.00000000000000             2
   -0.01886792452830    0.39622641509434    0.00000000000000             2
   -0.39622641509434    0.37735849056604    0.00000000000000             2
   -0.37735849056604    0.39622641509434    0.00000000000000             2
    0.01886792452830    0.37735849056604    0.00000000000000             2
    0.39622641509434   -0.01886792452830    0.00000000000000             2
    0.39622641509434    0.01886792452830    0.00000000000000             2
   -0.01886792452830    0.41509433962264    0.00000000000000             2
   -0.41509433962264    0.39622641509434    0.00000000000000             2
   -0.39622641509434    0.41509433962264    0.00000000000000             2
    0.01886792452830    0.39622641509434    0.00000000000000             2
    0.41509433962264   -0.01886792452830    0.00000000000000             2
    0.41509433962264    0.01886792452830    0.00000000000000             2
   -0.01886792452830    0.43396226415094    0.00000000000000             2
   -0.43396226415094    0.41509433962264    0.00000000000000             2
   -0.41509433962264    0.43396226415094    0.00000000000000             2
    0.01886792452830    0.41509433962264    0.00000000000000             2
    0.43396226415094   -0.01886792452830    0.00000000000000             2
    0.43396226415094    0.01886792452830    0.00000000000000             2
   -0.01886792452830    0.45283018867924    0.00000000000000             2
   -0.45283018867924    0.43396226415094    0.00000000000000             2
   -0.43396226415094    0.45283018867924    0.00000000000000             2
    0.01886792452830    0.43396226415094    0.00000000000000             2
    0.45283018867924   -0.01886792452830    0.00000000000000             2
    0.45283018867924    0.01886792452830    0.00000000000000             2
   -0.01886792452830    0.47169811320754    0.00000000000000             2
   -0.47169811320754    0.45283018867924    0.00000000000000             2
   -0.45283018867924    0.47169811320754    0.00000000000000             2
    0.01886792452830    0.45283018867924    0.00000000000000             2
    0.47169811320754   -0.01886792452830    0.00000000000000             2
    0.47169811320754    0.01886792452830    0.00000000000000             2
   -0.01886792452830    0.49056603773585    0.00000000000000             2
   -0.49056603773585    0.47169811320754    0.00000000000000             2
   -0.47169811320754    0.49056603773585    0.00000000000000             2
    0.01886792452830    0.47169811320754    0.00000000000000             2
    0.49056603773585   -0.01886792452830    0.00000000000000             2
    0.49056603773585    0.01886792452830    0.00000000000000             2
   -0.01886792452830   -0.49056603773585    0.00000000000000             2
    0.49056603773585    0.49056603773585    0.00000000000000             2
    0.03773584905660    0.03773584905660    0.00000000000000             2
   -0.03773584905660    0.07547169811320    0.00000000000000             2
   -0.07547169811320    0.03773584905660    0.00000000000000             2
    0.05660377358490    0.03773584905660    0.00000000000000             2
   -0.03773584905660    0.09433962264151    0.00000000000000             2
   -0.09433962264151    0.05660377358490    0.00000000000000             2
   -0.05660377358490    0.09433962264151    0.00000000000000             2
    0.03773584905660    0.05660377358490    0.00000000000000             2
    0.09433962264151   -0.03773584905660    0.00000000000000             2
    0.07547169811320    0.03773584905660    0.00000000000000             2
   -0.03773584905660    0.11320754716981    0.00000000000000             2
   -0.11320754716981    0.07547169811320    0.00000000000000             2
   -0.07547169811320    0.11320754716981    0.00000000000000             2
    0.03773584905660    0.07547169811320    0.00000000000000             2
    0.11320754716981   -0.03773584905660    0.00000000000000             2
    0.09433962264151    0.03773584905660    0.00000000000000             2
   -0.03773584905660    0.13207547169811    0.00000000000000             2
   -0.13207547169811    0.09433962264151    0.00000000000000             2
   -0.09433962264151    0.13207547169811    0.00000000000000             2
    0.03773584905660    0.09433962264151    0.00000000000000             2
    0.13207547169811   -0.03773584905660    0.00000000000000             2
    0.11320754716981    0.03773584905660    0.00000000000000             2
   -0.03773584905660    0.15094339622642    0.00000000000000             2
   -0.15094339622642    0.11320754716981    0.00000000000000             2
   -0.11320754716981    0.15094339622642    0.00000000000000             2
    0.03773584905660    0.11320754716981    0.00000000000000             2
    0.15094339622642   -0.03773584905660    0.00000000000000             2
    0.13207547169812    0.03773584905660    0.00000000000000             2
   -0.03773584905660    0.16981132075472    0.00000000000000             2
   -0.16981132075472    0.13207547169812    0.00000000000000             2
   -0.13207547169812    0.16981132075472    0.00000000000000             2
    0.03773584905660    0.13207547169812    0.00000000000000             2
    0.16981132075472   -0.03773584905660    0.00000000000000             2
    0.15094339622642    0.03773584905660    0.00000000000000             2
   -0.03773584905660    0.18867924528302    0.00000000000000             2
   -0.18867924528302    0.15094339622642    0.00000000000000             2
   -0.15094339622642    0.18867924528302    0.00000000000000             2
    0.03773584905660    0.15094339622642    0.00000000000000             2
    0.18867924528302   -0.03773584905660    0.00000000000000             2
    0.16981132075472    0.03773584905660    0.00000000000000             2
   -0.03773584905660    0.20754716981132    0.00000000000000             2
   -0.20754716981132    0.16981132075472    0.00000000000000             2
   -0.16981132075472    0.20754716981132    0.00000000000000             2
    0.03773584905660    0.16981132075472    0.00000000000000             2
    0.20754716981132   -0.03773584905660    0.00000000000000             2
    0.18867924528302    0.03773584905660    0.00000000000000             2
   -0.03773584905660    0.22641509433962    0.00000000000000             2
   -0.22641509433962    0.18867924528302    0.00000000000000             2
   -0.18867924528302    0.22641509433962    0.00000000000000             2
    0.03773584905660    0.18867924528302    0.00000000000000             2
    0.22641509433962   -0.03773584905660    0.00000000000000             2
    0.20754716981132    0.03773584905660    0.00000000000000             2
   -0.03773584905660    0.24528301886792    0.00000000000000             2
   -0.24528301886792    0.20754716981132    0.00000000000000             2
   -0.20754716981132    0.24528301886792    0.00000000000000             2
    0.03773584905660    0.20754716981132    0.00000000000000             2
    0.24528301886792   -0.03773584905660    0.00000000000000             2
    0.22641509433962    0.03773584905660    0.00000000000000             2
   -0.03773584905660    0.26415094339622    0.00000000000000             2
   -0.26415094339622    0.22641509433962    0.00000000000000             2
   -0.22641509433962    0.26415094339622    0.00000000000000             2
    0.03773584905660    0.22641509433962    0.00000000000000             2
    0.26415094339622   -0.03773584905660    0.00000000000000             2
    0.24528301886792    0.03773584905660    0.00000000000000             2
   -0.03773584905660    0.28301886792453    0.00000000000000             2
   -0.28301886792453    0.24528301886792    0.00000000000000             2
   -0.24528301886792    0.28301886792453    0.00000000000000             2
    0.03773584905660    0.24528301886792    0.00000000000000             2
    0.28301886792453   -0.03773584905660    0.00000000000000             2
    0.26415094339622    0.03773584905660    0.00000000000000             2
   -0.03773584905660    0.30188679245283    0.00000000000000             2
   -0.30188679245283    0.26415094339622    0.00000000000000             2
   -0.26415094339622    0.30188679245283    0.00000000000000             2
    0.03773584905660    0.26415094339622    0.00000000000000             2
    0.30188679245283   -0.03773584905660    0.00000000000000             2
    0.28301886792453    0.03773584905660    0.00000000000000             2
   -0.03773584905660    0.32075471698113    0.00000000000000             2
   -0.32075471698113    0.28301886792453    0.00000000000000             2
   -0.28301886792453    0.32075471698113    0.00000000000000             2
    0.03773584905660    0.28301886792453    0.00000000000000             2
    0.32075471698113   -0.03773584905660    0.00000000000000             2
    0.30188679245283    0.03773584905660    0.00000000000000             2
   -0.03773584905660    0.33962264150944    0.00000000000000             2
   -0.33962264150944    0.30188679245283    0.00000000000000             2
   -0.30188679245283    0.33962264150944    0.00000000000000             2
    0.03773584905660    0.30188679245283    0.00000000000000             2
    0.33962264150944   -0.03773584905660    0.00000000000000             2
    0.32075471698113    0.03773584905660    0.00000000000000             2
   -0.03773584905660    0.35849056603774    0.00000000000000             2
   -0.35849056603774    0.32075471698113    0.00000000000000             2
   -0.32075471698113    0.35849056603774    0.00000000000000             2
    0.03773584905660    0.32075471698113    0.00000000000000             2
    0.35849056603774   -0.03773584905660    0.00000000000000             2
    0.33962264150944    0.03773584905660    0.00000000000000             2
   -0.03773584905660    0.37735849056604    0.00000000000000             2
   -0.37735849056604    0.33962264150944    0.00000000000000             2
   -0.33962264150944    0.37735849056604    0.00000000000000             2
    0.03773584905660    0.33962264150944    0.00000000000000             2
    0.37735849056604   -0.03773584905660    0.00000000000000             2
    0.35849056603774    0.03773584905660    0.00000000000000             2
   -0.03773584905660    0.39622641509434    0.00000000000000             2
   -0.39622641509434    0.35849056603774    0.00000000000000             2
   -0.35849056603774    0.39622641509434    0.00000000000000             2
    0.03773584905660    0.35849056603774    0.00000000000000             2
    0.39622641509434   -0.03773584905660    0.00000000000000             2
    0.37735849056604    0.03773584905660    0.00000000000000             2
   -0.03773584905660    0.41509433962264    0.00000000000000             2
   -0.41509433962264    0.37735849056604    0.00000000000000             2
   -0.37735849056604    0.41509433962264    0.00000000000000             2
    0.03773584905660    0.37735849056604    0.00000000000000             2
    0.41509433962264   -0.03773584905660    0.00000000000000             2
    0.39622641509434    0.03773584905660    0.00000000000000             2
   -0.03773584905660    0.43396226415094    0.00000000000000             2
   -0.43396226415094    0.39622641509434    0.00000000000000             2
   -0.39622641509434    0.43396226415094    0.00000000000000             2
    0.03773584905660    0.39622641509434    0.00000000000000             2
    0.43396226415094   -0.03773584905660    0.00000000000000             2
    0.41509433962264    0.03773584905660    0.00000000000000             2
   -0.03773584905660    0.45283018867924    0.00000000000000             2
   -0.45283018867924    0.41509433962264    0.00000000000000             2
   -0.41509433962264    0.45283018867924    0.00000000000000             2
    0.03773584905660    0.41509433962264    0.00000000000000             2
    0.45283018867924   -0.03773584905660    0.00000000000000             2
    0.43396226415094    0.03773584905660    0.00000000000000             2
   -0.03773584905660    0.47169811320754    0.00000000000000             2
   -0.47169811320754    0.43396226415094    0.00000000000000             2
   -0.43396226415094    0.47169811320754    0.00000000000000             2
    0.03773584905660    0.43396226415094    0.00000000000000             2
    0.47169811320754   -0.03773584905660    0.00000000000000             2
    0.45283018867924    0.03773584905660    0.00000000000000             2
   -0.03773584905660    0.49056603773585    0.00000000000000             2
   -0.49056603773585    0.45283018867924    0.00000000000000             2
   -0.45283018867924    0.49056603773585    0.00000000000000             2
    0.03773584905660    0.45283018867924    0.00000000000000             2
    0.49056603773585   -0.03773584905660    0.00000000000000             2
    0.47169811320754    0.03773584905660    0.00000000000000             2
   -0.03773584905660   -0.49056603773585    0.00000000000000             2
    0.49056603773585    0.47169811320754    0.00000000000000             2
   -0.47169811320754   -0.49056603773585    0.00000000000000             2
    0.03773584905660    0.47169811320754    0.00000000000000             2
   -0.49056603773585   -0.03773584905660    0.00000000000000             2
    0.05660377358490    0.05660377358490    0.00000000000000             2
   -0.05660377358490    0.11320754716981    0.00000000000000             2
   -0.11320754716981    0.05660377358490    0.00000000000000             2
    0.07547169811320    0.05660377358490    0.00000000000000             2
   -0.05660377358490    0.13207547169811    0.00000000000000             2
   -0.13207547169811    0.07547169811320    0.00000000000000             2
   -0.07547169811320    0.13207547169811    0.00000000000000             2
    0.05660377358490    0.07547169811320    0.00000000000000             2
    0.13207547169811   -0.05660377358490    0.00000000000000             2
    0.09433962264151    0.05660377358490    0.00000000000000             2
   -0.05660377358490    0.15094339622641    0.00000000000000             2
   -0.15094339622641    0.09433962264151    0.00000000000000             2
   -0.09433962264151    0.15094339622641    0.00000000000000             2
    0.05660377358490    0.09433962264151    0.00000000000000             2
    0.15094339622641   -0.05660377358490    0.00000000000000             2
    0.11320754716981    0.05660377358490    0.00000000000000             2
   -0.05660377358490    0.16981132075472    0.00000000000000             2
   -0.16981132075472    0.11320754716981    0.00000000000000             2
   -0.11320754716981    0.16981132075472    0.00000000000000             2
    0.05660377358490    0.11320754716981    0.00000000000000             2
    0.16981132075472   -0.05660377358490    0.00000000000000             2
    0.13207547169812    0.05660377358490    0.00000000000000             2
   -0.05660377358490    0.18867924528302    0.00000000000000             2
   -0.18867924528302    0.13207547169812    0.00000000000000             2
   -0.13207547169812    0.18867924528302    0.00000000000000             2
    0.05660377358490    0.13207547169812    0.00000000000000             2
    0.18867924528302   -0.05660377358490    0.00000000000000             2
    0.15094339622642    0.05660377358490    0.00000000000000             2
   -0.05660377358490    0.20754716981132    0.00000000000000             2