Lattice                                 
           1
     4.476485    2.584500    0.000000
    -4.476485    2.584500    0.000000
     0.000000    0.000000   15.000000
   B    C 
     2     6
Direct configuration=     1
   0.33835568  0.66919338  0.25000000
   0.67168550  0.33578412  0.25000000
   0.16393418  0.32096121  0.25000000
   0.32344383  0.16194918  0.25000000
   0.16445142  0.84350783  0.25000000
   0.84555675  0.16147694  0.25000000
   0.68650730  0.84304996  0.25000000
   0.84606136  0.68407339  0.25000000
Direct configuration=     2
   0.33826096  0.66913789  0.25000000
   0.67167031  0.33589161  0.25000000
   0.16281403  0.31804962  0.25000000
   0.32052419  0.16045113  0.25000000
   0.16295926  0.84489273  0.25000000
   0.84701507  0.16013922  0.25000000
   0.68957097  0.84455664  0.25000000
   0.84718122  0.68687717  0.25000000
Direct configuration=     3
   0.33832471  0.66917523  0.25000000
   0.67168053  0.33581927  0.25000000
   0.16356789  0.32000914  0.25000000
   0.32248912  0.16145933  0.25000000
   0.16396349  0.84396068  0.25000000
   0.84603361  0.16103951  0.25000000
   0.68750910  0.84354264  0.25000000
   0.84642755  0.68499021  0.25000000
Direct configuration=     4
   0.33832472  0.66917525  0.25000000
   0.67168053  0.33581925  0.25000000
   0.16356812  0.32000973  0.25000000
   0.32248972  0.16145963  0.25000000
   0.16396379  0.84396040  0.25000000
   0.84603331  0.16103979  0.25000000
   0.68750848  0.84354233  0.25000000
   0.84642732  0.68498963  0.25000000
Direct configuration=     5
   0.33835319  0.66917134  0.25000000
   0.67163668  0.33583227  0.25000000
   0.16358212  0.31999689  0.25000000
   0.32253778  0.16135881  0.25000000
   0.16380860  0.84385578  0.25000000
   0.84619374  0.16114555  0.25000000
   0.68746198  0.84363687  0.25000000
   0.84642191  0.68499850  0.25000000
Direct configuration=     6
   0.33834035  0.66917310  0.25000000
   0.67165647  0.33582639  0.25000000
   0.16357581  0.32000268  0.25000000
   0.32251610  0.16140430  0.25000000
   0.16387862  0.84390298  0.25000000
   0.84612136  0.16109783  0.25000000
   0.68748296  0.84359421  0.25000000
   0.84642435  0.68499450  0.25000000
Direct configuration=     7
   0.33833492  0.66916867  0.25000000
   0.67165612  0.33583402  0.25000000
   0.16365879  0.32000114  0.25000000
   0.32250891  0.16133291  0.25000000
   0.16382055  0.84383224  0.25000000
   0.84618099  0.16116850  0.25000000
   0.68749102  0.84366328  0.25000000
   0.84634471  0.68499523  0.25000000
Direct configuration=     8
   0.33832880  0.66916367  0.25000000
   0.67165574  0.33584263  0.25000000
   0.16375253  0.31999940  0.25000000
   0.32250079  0.16125227  0.25000000
   0.16375494  0.84375233  0.25000000
   0.84624835  0.16124834  0.25000000
   0.68750012  0.84374131  0.25000000
   0.84625474  0.68499606  0.25000000
Direct configuration=     9
   0.33833421  0.66916509  0.25000000
   0.67166631  0.33583189  0.25000000
   0.16374612  0.31999990  0.25000000
   0.32249991  0.16125035  0.25000000
   0.16375433  0.84374889  0.25000000
   0.84624414  0.16125087  0.25000000
   0.68749959  0.84375003  0.25000000
   0.84625139  0.68499898  0.25000000
