Automatically generated mesh
     580
Reciprocal lattice
    0.00000000000000    0.00000000000000    0.00000000000000             1
    0.02941176470588    0.00000000000000    0.00000000000000             2
    0.05882352941176    0.00000000000000    0.00000000000000             2
    0.08823529411765    0.00000000000000    0.00000000000000             2
    0.11764705882353    0.00000000000000    0.00000000000000             2
    0.14705882352941    0.00000000000000    0.00000000000000             2
    0.17647058823529    0.00000000000000    0.00000000000000             2
    0.20588235294118   -0.00000000000000    0.00000000000000             2
    0.23529411764706   -0.00000000000000    0.00000000000000             2
    0.26470588235294    0.00000000000000    0.00000000000000             2
    0.29411764705882    0.00000000000000    0.00000000000000             2
    0.32352941176471    0.00000000000000    0.00000000000000             2
    0.35294117647059    0.00000000000000    0.00000000000000             2
    0.38235294117647    0.00000000000000    0.00000000000000             2
    0.41176470588235   -0.00000000000000    0.00000000000000             2
    0.44117647058824    0.00000000000000    0.00000000000000             2
    0.47058823529412   -0.00000000000000    0.00000000000000             2
    0.50000000000000   -0.00000000000000    0.00000000000000             1
    0.00000000000000    0.02941176470588    0.00000000000000             2
    0.02941176470588    0.02941176470588    0.00000000000000             2
    0.05882352941176    0.02941176470588    0.00000000000000             2
    0.08823529411765    0.02941176470588    0.00000000000000             2
    0.11764705882353    0.02941176470588    0.00000000000000             2
    0.14705882352941    0.02941176470588    0.00000000000000             2
    0.17647058823529    0.02941176470588    0.00000000000000             2
    0.20588235294118    0.02941176470588    0.00000000000000             2
    0.23529411764706    0.02941176470588    0.00000000000000             2
    0.26470588235294    0.02941176470588    0.00000000000000             2
    0.29411764705882    0.02941176470588    0.00000000000000             2
    0.32352941176471    0.02941176470588    0.00000000000000             2
    0.35294117647059    0.02941176470588    0.00000000000000             2
    0.38235294117647    0.02941176470588    0.00000000000000             2
    0.41176470588235    0.02941176470588    0.00000000000000             2
    0.44117647058824    0.02941176470588    0.00000000000000             2
    0.47058823529412    0.02941176470588    0.00000000000000             2
    0.50000000000000    0.02941176470588    0.00000000000000             2
   -0.47058823529412    0.02941176470588    0.00000000000000             2
   -0.44117647058824    0.02941176470588    0.00000000000000             2
   -0.41176470588235    0.02941176470588    0.00000000000000             2
   -0.38235294117647    0.02941176470588    0.00000000000000             2
   -0.35294117647059    0.02941176470588    0.00000000000000             2
   -0.32352941176471    0.02941176470588    0.00000000000000             2
   -0.29411764705882    0.02941176470588    0.00000000000000             2
   -0.26470588235294    0.02941176470588    0.00000000000000             2
   -0.23529411764706    0.02941176470588    0.00000000000000             2
   -0.20588235294118    0.02941176470588    0.00000000000000             2
   -0.17647058823529    0.02941176470588    0.00000000000000             2
   -0.14705882352941    0.02941176470588    0.00000000000000             2
   -0.11764705882353    0.02941176470588    0.00000000000000             2
   -0.08823529411765    0.02941176470588    0.00000000000000             2
   -0.05882352941176    0.02941176470588    0.00000000000000             2
   -0.02941176470588    0.02941176470588    0.00000000000000             2
    0.00000000000000    0.05882352941176    0.00000000000000             2
    0.02941176470588    0.05882352941176    0.00000000000000             2
    0.05882352941176    0.05882352941176    0.00000000000000             2
    0.08823529411765    0.05882352941176    0.00000000000000             2
    0.11764705882353    0.05882352941176    0.00000000000000             2
    0.14705882352941    0.05882352941176    0.00000000000000             2
    0.17647058823529    0.05882352941176    0.00000000000000             2
    0.20588235294118    0.05882352941176    0.00000000000000             2
    0.23529411764706    0.05882352941176    0.00000000000000             2
    0.26470588235294    0.05882352941176    0.00000000000000             2
    0.29411764705882    0.05882352941176    0.00000000000000             2
    0.32352941176471    0.05882352941176    0.00000000000000             2
    0.35294117647059    0.05882352941176    0.00000000000000             2
    0.38235294117647    0.05882352941176    0.00000000000000             2
    0.41176470588235    0.05882352941176    0.00000000000000             2
    0.44117647058824    0.05882352941176    0.00000000000000             2
    0.47058823529412    0.05882352941176    0.00000000000000             2
    0.50000000000000    0.05882352941176    0.00000000000000             2
   -0.47058823529412    0.05882352941176    0.00000000000000             2
   -0.44117647058824    0.05882352941176    0.00000000000000             2
   -0.41176470588235    0.05882352941176    0.00000000000000             2
   -0.38235294117647    0.05882352941176    0.00000000000000             2
   -0.35294117647059    0.05882352941176    0.00000000000000             2
   -0.32352941176471    0.05882352941176    0.00000000000000             2
   -0.29411764705882    0.05882352941176    0.00000000000000             2
   -0.26470588235294    0.05882352941176    0.00000000000000             2
   -0.23529411764706    0.05882352941176    0.00000000000000             2
   -0.20588235294118    0.05882352941176    0.00000000000000             2
   -0.17647058823529    0.05882352941176    0.00000000000000             2
   -0.14705882352941    0.05882352941176    0.00000000000000             2
   -0.11764705882353    0.05882352941176    0.00000000000000             2
   -0.08823529411765    0.05882352941176    0.00000000000000             2
   -0.05882352941176    0.05882352941176    0.00000000000000             2
   -0.02941176470588    0.05882352941176    0.00000000000000             2
    0.00000000000000    0.08823529411765    0.00000000000000             2
    0.02941176470588    0.08823529411765    0.00000000000000             2
    0.05882352941176    0.08823529411765    0.00000000000000             2
    0.08823529411765    0.08823529411765    0.00000000000000             2
    0.11764705882353    0.08823529411765    0.00000000000000             2
    0.14705882352941    0.08823529411765    0.00000000000000             2
    0.17647058823529    0.08823529411765    0.00000000000000             2
    0.20588235294118    0.08823529411765    0.00000000000000             2
    0.23529411764706    0.08823529411765    0.00000000000000             2
    0.26470588235294    0.08823529411765    0.00000000000000             2
    0.29411764705882    0.08823529411765    0.00000000000000             2
    0.32352941176471    0.08823529411765    0.00000000000000             2
    0.35294117647059    0.08823529411765    0.00000000000000             2
    0.38235294117647    0.08823529411765    0.00000000000000             2
    0.41176470588235    0.08823529411765    0.00000000000000             2
    0.44117647058824    0.08823529411765    0.00000000000000             2
    0.47058823529412    0.08823529411765    0.00000000000000             2
    0.50000000000000    0.08823529411765    0.00000000000000             2
   -0.47058823529412    0.08823529411765    0.00000000000000             2
   -0.44117647058824    0.08823529411765    0.00000000000000             2
   -0.41176470588235    0.08823529411765    0.00000000000000             2
   -0.38235294117647    0.08823529411765    0.00000000000000             2
   -0.35294117647059    0.08823529411765    0.00000000000000             2
   -0.32352941176471    0.08823529411765    0.00000000000000             2
   -0.29411764705882    0.08823529411765    0.00000000000000             2
   -0.26470588235294    0.08823529411765    0.00000000000000             2
   -0.23529411764706    0.08823529411765    0.00000000000000             2
   -0.20588235294118    0.08823529411765    0.00000000000000             2
   -0.17647058823529    0.08823529411765    0.00000000000000             2
   -0.14705882352941    0.08823529411765    0.00000000000000             2
   -0.11764705882353    0.08823529411765    0.00000000000000             2
   -0.08823529411765    0.08823529411765    0.00000000000000             2
   -0.05882352941176    0.08823529411765    0.00000000000000             2
   -0.02941176470588    0.08823529411765    0.00000000000000             2
    0.00000000000000    0.11764705882353    0.00000000000000             2
    0.02941176470588    0.11764705882353    0.00000000000000             2
    0.05882352941176    0.11764705882353    0.00000000000000             2
    0.08823529411765    0.11764705882353    0.00000000000000             2
    0.11764705882353    0.11764705882353    0.00000000000000             2
    0.14705882352941    0.11764705882353    0.00000000000000             2
    0.17647058823529    0.11764705882353    0.00000000000000             2
    0.20588235294118    0.11764705882353    0.00000000000000             2
    0.23529411764706    0.11764705882353    0.00000000000000             2
    0.26470588235294    0.11764705882353    0.00000000000000             2
    0.29411764705882    0.11764705882353    0.00000000000000             2
    0.32352941176471    0.11764705882353    0.00000000000000             2
    0.35294117647059    0.11764705882353    0.00000000000000             2
    0.38235294117647    0.11764705882353    0.00000000000000             2
    0.41176470588235    0.11764705882353    0.00000000000000             2
    0.44117647058824    0.11764705882353    0.00000000000000             2
    0.47058823529412    0.11764705882353    0.00000000000000             2
    0.50000000000000    0.11764705882353    0.00000000000000             2
   -0.47058823529412    0.11764705882353    0.00000000000000             2
   -0.44117647058824    0.11764705882353    0.00000000000000             2
   -0.41176470588235    0.11764705882353    0.00000000000000             2
   -0.38235294117647    0.11764705882353    0.00000000000000             2
   -0.35294117647059    0.11764705882353    0.00000000000000             2
   -0.32352941176471    0.11764705882353    0.00000000000000             2
   -0.29411764705882    0.11764705882353    0.00000000000000             2
   -0.26470588235294    0.11764705882353    0.00000000000000             2
   -0.23529411764706    0.11764705882353    0.00000000000000             2
   -0.20588235294118    0.11764705882353    0.00000000000000             2
   -0.17647058823529    0.11764705882353    0.00000000000000             2
   -0.14705882352941    0.11764705882353    0.00000000000000             2
   -0.11764705882353    0.11764705882353    0.00000000000000             2
   -0.08823529411765    0.11764705882353    0.00000000000000             2
   -0.05882352941176    0.11764705882353    0.00000000000000             2
   -0.02941176470588    0.11764705882353    0.00000000000000             2
    0.00000000000000    0.14705882352941    0.00000000000000             2
    0.02941176470588    0.14705882352941    0.00000000000000             2
    0.05882352941176    0.14705882352941    0.00000000000000             2
    0.08823529411765    0.14705882352941    0.00000000000000             2
    0.11764705882353    0.14705882352941    0.00000000000000             2
    0.14705882352941    0.14705882352941    0.00000000000000             2
    0.17647058823529    0.14705882352941    0.00000000000000             2
    0.20588235294118    0.14705882352941    0.00000000000000             2
    0.23529411764706    0.14705882352941    0.00000000000000             2
    0.26470588235294    0.14705882352941    0.00000000000000             2
    0.29411764705882    0.14705882352941    0.00000000000000             2
    0.32352941176471    0.14705882352941    0.00000000000000             2
    0.35294117647059    0.14705882352941    0.00000000000000             2
    0.38235294117647    0.14705882352941    0.00000000000000             2
    0.41176470588235    0.14705882352941    0.00000000000000             2
    0.44117647058824    0.14705882352941    0.00000000000000             2
    0.47058823529412    0.14705882352941    0.00000000000000             2
    0.50000000000000    0.14705882352941    0.00000000000000             2
   -0.47058823529412    0.14705882352941    0.00000000000000             2
   -0.44117647058824    0.14705882352941    0.00000000000000             2
   -0.41176470588235    0.14705882352941    0.00000000000000             2
   -0.38235294117647    0.14705882352941    0.00000000000000             2
   -0.35294117647059    0.14705882352941    0.00000000000000             2
   -0.32352941176471    0.14705882352941    0.00000000000000             2
   -0.29411764705882    0.14705882352941    0.00000000000000             2
   -0.26470588235294    0.14705882352941    0.00000000000000             2
   -0.23529411764706    0.14705882352941    0.00000000000000             2
   -0.20588235294118    0.14705882352941    0.00000000000000             2
   -0.17647058823529    0.14705882352941    0.00000000000000             2
   -0.14705882352941    0.14705882352941    0.00000000000000             2
   -0.11764705882353    0.14705882352941    0.00000000000000             2
   -0.08823529411765    0.14705882352941    0.00000000000000             2
   -0.05882352941176    0.14705882352941    0.00000000000000             2
   -0.02941176470588    0.14705882352941    0.00000000000000             2
    0.00000000000000    0.17647058823529    0.00000000000000             2
    0.02941176470588    0.17647058823529    0.00000000000000             2
    0.05882352941176    0.17647058823529    0.00000000000000             2
    0.08823529411765    0.17647058823529    0.00000000000000             2
    0.11764705882353    0.17647058823529    0.00000000000000             2
    0.14705882352941    0.17647058823529    0.00000000000000             2
    0.17647058823529    0.17647058823529    0.00000000000000             2
    0.20588235294118    0.17647058823529    0.00000000000000             2
    0.23529411764706    0.17647058823529    0.00000000000000             2
    0.26470588235294    0.17647058823529    0.00000000000000             2
    0.29411764705882    0.17647058823529    0.00000000000000             2
    0.32352941176471    0.17647058823529    0.00000000000000             2
    0.35294117647059    0.17647058823529    0.00000000000000             2
    0.38235294117647    0.17647058823529    0.00000000000000             2
    0.41176470588235    0.17647058823529    0.00000000000000             2
    0.44117647058824    0.17647058823529    0.00000000000000             2
    0.47058823529412    0.17647058823529    0.00000000000000             2
    0.50000000000000    0.17647058823529    0.00000000000000             2
   -0.47058823529412    0.17647058823529    0.00000000000000             2
   -0.44117647058824    0.17647058823529    0.00000000000000             2
   -0.41176470588235    0.17647058823529    0.00000000000000             2
   -0.38235294117647    0.17647058823529    0.00000000000000             2
   -0.35294117647059    0.17647058823529    0.00000000000000             2
   -0.32352941176471    0.17647058823529    0.00000000000000             2
   -0.29411764705882    0.17647058823529    0.00000000000000             2
   -0.26470588235294    0.17647058823529    0.00000000000000             2
   -0.23529411764706    0.17647058823529    0.00000000000000             2
   -0.20588235294118    0.17647058823529    0.00000000000000             2
   -0.17647058823529    0.17647058823529    0.00000000000000             2
   -0.14705882352941    0.17647058823529    0.00000000000000             2
   -0.11764705882353    0.17647058823529    0.00000000000000             2
   -0.08823529411765    0.17647058823529    0.00000000000000             2
   -0.05882352941176    0.17647058823529    0.00000000000000             2
   -0.02941176470588    0.17647058823529    0.00000000000000             2
   -0.00000000000000    0.20588235294118    0.00000000000000             2
    0.02941176470588    0.20588235294118    0.00000000000000             2
    0.05882352941176    0.20588235294118    0.00000000000000             2
    0.08823529411765    0.20588235294118    0.00000000000000             2
    0.11764705882353    0.20588235294118    0.00000000000000             2
    0.14705882352941    0.20588235294118    0.00000000000000             2
    0.17647058823529    0.20588235294118    0.00000000000000             2
    0.20588235294118    0.20588235294118    0.00000000000000             2
    0.23529411764706    0.20588235294118    0.00000000000000             2
    0.26470588235294    0.20588235294118    0.00000000000000             2
    0.29411764705882    0.20588235294118    0.00000000000000             2
    0.32352941176471    0.20588235294118    0.00000000000000             2
    0.35294117647059    0.20588235294118    0.00000000000000             2
    0.38235294117647    0.20588235294118    0.00000000000000             2
    0.41176470588235    0.20588235294118    0.00000000000000             2
    0.44117647058824    0.20588235294118    0.00000000000000             2
    0.47058823529412    0.20588235294118    0.00000000000000             2
    0.50000000000000    0.20588235294118    0.00000000000000             2
   -0.47058823529412    0.20588235294118    0.00000000000000             2
   -0.44117647058824    0.20588235294118    0.00000000000000             2
   -0.41176470588235    0.20588235294118    0.00000000000000             2
   -0.38235294117647    0.20588235294118    0.00000000000000             2
   -0.35294117647059    0.20588235294118    0.00000000000000             2
   -0.32352941176471    0.20588235294118    0.00000000000000             2
   -0.29411764705882    0.20588235294118    0.00000000000000             2
   -0.26470588235294    0.20588235294118    0.00000000000000             2
   -0.23529411764706    0.20588235294118    0.00000000000000             2
   -0.20588235294118    0.20588235294118    0.00000000000000             2
   -0.17647058823529    0.20588235294118    0.00000000000000             2
   -0.14705882352941    0.20588235294118    0.00000000000000             2
   -0.11764705882353    0.20588235294118    0.00000000000000             2
   -0.08823529411765    0.20588235294118    0.00000000000000             2
   -0.05882352941176    0.20588235294118    0.00000000000000             2
   -0.02941176470588    0.20588235294118    0.00000000000000             2
   -0.00000000000000    0.23529411764706    0.00000000000000             2
    0.02941176470588    0.23529411764706    0.00000000000000             2
    0.05882352941176    0.23529411764706    0.00000000000000             2
    0.08823529411765    0.23529411764706    0.00000000000000             2
    0.11764705882353    0.23529411764706    0.00000000000000             2
    0.14705882352941    0.23529411764706    0.00000000000000             2
    0.17647058823529    0.23529411764706    0.00000000000000             2
    0.20588235294118    0.23529411764706    0.00000000000000             2
    0.23529411764706    0.23529411764706    0.00000000000000             2
    0.26470588235294    0.23529411764706    0.00000000000000             2
    0.29411764705882    0.23529411764706    0.00000000000000             2
    0.32352941176471    0.23529411764706    0.00000000000000             2
    0.35294117647059    0.23529411764706    0.00000000000000             2
    0.38235294117647    0.23529411764706    0.00000000000000             2
    0.41176470588235    0.23529411764706    0.00000000000000             2
    0.44117647058824    0.23529411764706    0.00000000000000             2
    0.47058823529412    0.23529411764706    0.00000000000000             2
    0.50000000000000    0.23529411764706    0.00000000000000             2
   -0.47058823529412    0.23529411764706    0.00000000000000             2
   -0.44117647058824    0.23529411764706    0.00000000000000             2
   -0.41176470588235    0.23529411764706    0.00000000000000             2
   -0.38235294117647    0.23529411764706    0.00000000000000             2
   -0.35294117647059    0.23529411764706    0.00000000000000             2
   -0.32352941176471    0.23529411764706    0.00000000000000             2
   -0.29411764705882    0.23529411764706    0.00000000000000             2
   -0.26470588235294    0.23529411764706    0.00000000000000             2
   -0.23529411764706    0.23529411764706    0.00000000000000             2
   -0.20588235294118    0.23529411764706    0.00000000000000             2
   -0.17647058823529    0.23529411764706    0.00000000000000             2
   -0.14705882352941    0.23529411764706    0.00000000000000             2
   -0.11764705882353    0.23529411764706    0.00000000000000             2
   -0.08823529411765    0.23529411764706    0.00000000000000             2
   -0.05882352941176    0.23529411764706    0.00000000000000             2
   -0.02941176470588    0.23529411764706    0.00000000000000             2
    0.00000000000000    0.26470588235294    0.00000000000000             2
    0.02941176470588    0.26470588235294    0.00000000000000             2
    0.05882352941176    0.26470588235294    0.00000000000000             2
    0.08823529411765    0.26470588235294    0.00000000000000             2
    0.11764705882353    0.26470588235294    0.00000000000000             2
    0.14705882352941    0.26470588235294    0.00000000000000             2
    0.17647058823529    0.26470588235294    0.00000000000000             2
    0.20588235294118    0.26470588235294    0.00000000000000             2
    0.23529411764706    0.26470588235294    0.00000000000000             2
    0.26470588235294    0.26470588235294    0.00000000000000             2
    0.29411764705882    0.26470588235294    0.00000000000000             2
    0.32352941176471    0.26470588235294    0.00000000000000             2
    0.35294117647059    0.26470588235294    0.00000000000000             2
    0.38235294117647    0.26470588235294    0.00000000000000             2
    0.41176470588235    0.26470588235294    0.00000000000000             2
    0.44117647058824    0.26470588235294    0.00000000000000             2
    0.47058823529412    0.26470588235294    0.00000000000000             2
    0.50000000000000    0.26470588235294    0.00000000000000             2
   -0.47058823529412    0.26470588235294    0.00000000000000             2
   -0.44117647058824    0.26470588235294    0.00000000000000             2
   -0.41176470588235    0.26470588235294    0.00000000000000             2
   -0.38235294117647    0.26470588235294    0.00000000000000             2
   -0.35294117647059    0.26470588235294    0.00000000000000             2
   -0.32352941176471    0.26470588235294    0.00000000000000             2
   -0.29411764705882    0.26470588235294    0.00000000000000             2
   -0.26470588235294    0.26470588235294    0.00000000000000             2
   -0.23529411764706    0.26470588235294    0.00000000000000             2
   -0.20588235294118    0.26470588235294    0.00000000000000             2
   -0.17647058823529    0.26470588235294    0.00000000000000             2
   -0.14705882352941    0.26470588235294    0.00000000000000             2
   -0.11764705882353    0.26470588235294    0.00000000000000             2
   -0.08823529411765    0.26470588235294    0.00000000000000             2
   -0.05882352941176    0.26470588235294    0.00000000000000             2
   -0.02941176470588    0.26470588235294    0.00000000000000             2
    0.00000000000000    0.29411764705882    0.00000000000000             2
    0.02941176470588    0.29411764705882    0.00000000000000             2
    0.05882352941176    0.29411764705882    0.00000000000000             2
    0.08823529411765    0.29411764705882    0.00000000000000             2
    0.11764705882353    0.29411764705882    0.00000000000000             2
    0.14705882352941    0.29411764705882    0.00000000000000             2
    0.17647058823529    0.29411764705882    0.00000000000000             2
    0.20588235294118    0.29411764705882    0.00000000000000             2
    0.23529411764706    0.29411764705882    0.00000000000000             2
    0.26470588235294    0.29411764705882    0.00000000000000             2
    0.29411764705882    0.29411764705882    0.00000000000000             2
    0.32352941176471    0.29411764705882    0.00000000000000             2
    0.35294117647059    0.29411764705882    0.00000000000000             2
    0.38235294117647    0.29411764705882    0.00000000000000             2
    0.41176470588235    0.29411764705882    0.00000000000000             2
    0.44117647058824    0.29411764705882    0.00000000000000             2
    0.47058823529412    0.29411764705882    0.00000000000000             2
    0.50000000000000    0.29411764705882    0.00000000000000             2
   -0.47058823529412    0.29411764705882    0.00000000000000             2
   -0.44117647058824    0.29411764705882    0.00000000000000             2
   -0.41176470588235    0.29411764705882    0.00000000000000             2
   -0.38235294117647    0.29411764705882    0.00000000000000             2
   -0.35294117647059    0.29411764705882    0.00000000000000             2
   -0.32352941176471    0.29411764705882    0.00000000000000             2
   -0.29411764705882    0.29411764705882    0.00000000000000             2
   -0.26470588235294    0.29411764705882    0.00000000000000             2
   -0.23529411764706    0.29411764705882    0.00000000000000             2
   -0.20588235294118    0.29411764705882    0.00000000000000             2
   -0.17647058823529    0.29411764705882    0.00000000000000             2
   -0.14705882352941    0.29411764705882    0.00000000000000             2
   -0.11764705882353    0.29411764705882    0.00000000000000             2
   -0.08823529411765    0.29411764705882    0.00000000000000             2
   -0.05882352941176    0.29411764705882    0.00000000000000             2
   -0.02941176470588    0.29411764705882    0.00000000000000             2
    0.00000000000000    0.32352941176471    0.00000000000000             2
    0.02941176470588    0.32352941176471    0.00000000000000             2
    0.05882352941176    0.32352941176471    0.00000000000000             2
    0.08823529411765    0.32352941176471    0.00000000000000             2
    0.11764705882353    0.32352941176471    0.00000000000000             2
    0.14705882352941    0.32352941176471    0.00000000000000             2
    0.17647058823529    0.32352941176471    0.00000000000000             2
    0.20588235294118    0.32352941176471    0.00000000000000             2
    0.23529411764706    0.32352941176471    0.00000000000000             2
    0.26470588235294    0.32352941176471    0.00000000000000             2
    0.29411764705882    0.32352941176471    0.00000000000000             2
    0.32352941176471    0.32352941176471    0.00000000000000             2
    0.35294117647059    0.32352941176471    0.00000000000000             2
    0.38235294117647    0.32352941176471    0.00000000000000             2
    0.41176470588235    0.32352941176471    0.00000000000000             2
    0.44117647058824    0.32352941176471    0.00000000000000             2
    0.47058823529412    0.32352941176471    0.00000000000000             2
    0.50000000000000    0.32352941176471    0.00000000000000             2
   -0.47058823529412    0.32352941176471    0.00000000000000             2
   -0.44117647058824    0.32352941176471    0.00000000000000             2
   -0.41176470588235    0.32352941176471    0.00000000000000             2
   -0.38235294117647    0.32352941176471    0.00000000000000             2
   -0.35294117647059    0.32352941176471    0.00000000000000             2
   -0.32352941176471    0.32352941176471    0.00000000000000             2
   -0.29411764705882    0.32352941176471    0.00000000000000             2
   -0.26470588235294    0.32352941176471    0.00000000000000             2
   -0.23529411764706    0.32352941176471    0.00000000000000             2
   -0.20588235294118    0.32352941176471    0.00000000000000             2
   -0.17647058823529    0.32352941176471    0.00000000000000             2
   -0.14705882352941    0.32352941176471    0.00000000000000             2
   -0.11764705882353    0.32352941176471    0.00000000000000             2
   -0.08823529411765    0.32352941176471    0.00000000000000             2
   -0.05882352941176    0.32352941176471    0.00000000000000             2
   -0.02941176470588    0.32352941176471    0.00000000000000             2
    0.00000000000000    0.35294117647059    0.00000000000000             2
    0.02941176470588    0.35294117647059    0.00000000000000             2
    0.05882352941176    0.35294117647059    0.00000000000000             2
    0.08823529411765    0.35294117647059    0.00000000000000             2
    0.11764705882353    0.35294117647059    0.00000000000000             2
    0.14705882352941    0.35294117647059    0.00000000000000             2
    0.17647058823529    0.35294117647059    0.00000000000000             2