       N       E                     dE             d eps       ncg     rms          rms(c)
DAV:   1     0.259922803162E+03    0.25992E+03   -0.28623E+04 14208   0.964E+02
DAV:   2    -0.130067507069E+03   -0.38999E+03   -0.38944E+03 21696   0.181E+02
DAV:   3    -0.145908603007E+03   -0.15841E+02   -0.15825E+02 25920   0.501E+01
DAV:   4    -0.145949459553E+03   -0.40857E-01   -0.40824E-01 22032   0.238E+00
DAV:   5    -0.145949531429E+03   -0.71877E-04   -0.71877E-04 24288   0.102E-01    0.251E+01
DAV:   6    -0.107259000816E+03    0.38691E+02   -0.67649E+01 23664   0.266E+01    0.146E+01
DAV:   7    -0.114404968178E+03   -0.71460E+01   -0.10251E+01 22656   0.111E+01    0.858E+00
DAV:   8    -0.123572828501E+03   -0.91679E+01   -0.82310E+00 25392   0.907E+00    0.459E+00
DAV:   9    -0.131454792397E+03   -0.78820E+01   -0.43438E+00 17088   0.719E+00    0.302E+00
DAV:  10    -0.138582928015E+03   -0.71281E+01   -0.98331E+00 21504   0.782E+00    0.173E+00
DAV:  11    -0.140022037110E+03   -0.14391E+01   -0.17114E+00 21552   0.352E+00    0.117E+00
DAV:  12    -0.140278381638E+03   -0.25634E+00   -0.30861E-01 19920   0.158E+00    0.466E-01
DAV:  13    -0.140332632964E+03   -0.54251E-01   -0.46102E-02 16992   0.845E-01    0.198E-01
DAV:  14    -0.140357125960E+03   -0.24493E-01   -0.79194E-03 18816   0.324E-01    0.970E-02
DAV:  15    -0.140366278374E+03   -0.91524E-02   -0.56848E-03 19728   0.184E-01    0.477E-02
DAV:  16    -0.140367667533E+03   -0.13892E-02   -0.53108E-04 14688   0.932E-02    0.273E-02
DAV:  17    -0.140369436447E+03   -0.17689E-02   -0.24665E-04 15360   0.636E-02    0.177E-02
DAV:  18    -0.140370489724E+03   -0.10533E-02   -0.11482E-04 15600   0.470E-02    0.127E-02
DAV:  19    -0.140371014190E+03   -0.52447E-03   -0.70425E-05 18624   0.381E-02    0.799E-03
DAV:  20    -0.140371161292E+03   -0.14710E-03   -0.23592E-05 16560   0.238E-02    0.455E-03
DAV:  21    -0.140371206813E+03   -0.45521E-04   -0.10279E-05 17472   0.148E-02    0.275E-03
DAV:  22    -0.140371213186E+03   -0.63724E-05   -0.36221E-06 24384   0.860E-03    0.196E-03
DAV:  23    -0.140371221631E+03   -0.84452E-05   -0.15969E-06 20688   0.487E-03    0.921E-04
DAV:  24    -0.140371225432E+03   -0.38015E-05   -0.43766E-07 21984   0.240E-03    0.502E-04
DAV:  25    -0.140371227191E+03   -0.17581E-05   -0.10567E-07 20160   0.113E-03    0.270E-04
DAV:  26    -0.140371228216E+03   -0.10253E-05   -0.75731E-08 19536   0.894E-04    0.125E-04
DAV:  27    -0.140371228546E+03   -0.33023E-06   -0.21374E-08 18048   0.511E-04
   1 F= -.14226344E+03 E0= -.14226232E+03  d E =-.142263E+03  mag=     0.0000
       N       E                     dE             d eps       ncg     rms          rms(c)
DAV:   1    -0.140316093254E+03    0.55135E-01   -0.18929E+01 14208   0.146E+01    0.125E+00
DAV:   2    -0.140269710299E+03    0.46383E-01   -0.33039E-01 24480   0.201E+00    0.603E-01
DAV:   3    -0.140265098358E+03    0.46119E-02   -0.45273E-02 22992   0.666E-01    0.260E-01
DAV:   4    -0.140265006309E+03    0.92049E-04   -0.48860E-03 19824   0.215E-01    0.101E-01
DAV:   5    -0.140265006000E+03    0.30966E-06   -0.35843E-04 19056   0.708E-02    0.239E-02
DAV:   6    -0.140265011291E+03   -0.52914E-05   -0.39817E-05 22416   0.229E-02    0.142E-02
DAV:   7    -0.140265023496E+03   -0.12205E-04   -0.20598E-05 19776   0.149E-02    0.337E-03
DAV:   8    -0.140265033619E+03   -0.10124E-04   -0.21620E-06 22176   0.480E-03    0.182E-03
DAV:   9    -0.140265053532E+03   -0.19913E-04   -0.24733E-06 16896   0.343E-03    0.115E-03
DAV:  10    -0.140265060594E+03   -0.70616E-05   -0.51717E-07 23472   0.153E-03    0.880E-04
DAV:  11    -0.140265067924E+03   -0.73304E-05   -0.77577E-07 16032   0.151E-03    0.435E-04
DAV:  12    -0.140265070241E+03   -0.23166E-05   -0.20269E-07 17136   0.741E-04    0.288E-04
DAV:  13    -0.140265070776E+03   -0.53482E-06   -0.29513E-08 20640   0.330E-04
   2 F= -.14216254E+03 E0= -.14216106E+03  d E =0.100903E+00  mag=    -0.0000
       N       E                     dE             d eps       ncg     rms          rms(c)
DAV:   1    -0.140411902198E+03   -0.14683E+00   -0.10125E+01 14208   0.106E+01    0.915E-01
DAV:   2    -0.140387858630E+03    0.24044E-01   -0.17268E-01 23424   0.149E+00    0.441E-01
DAV:   3    -0.140385145227E+03    0.27134E-02   -0.28611E-02 23616   0.514E-01    0.179E-01
DAV:   4    -0.140385032806E+03    0.11242E-03   -0.30627E-03 18768   0.170E-01    0.802E-02
DAV:   5    -0.140385023723E+03    0.90835E-05   -0.24989E-04 19680   0.596E-02    0.143E-02
DAV:   6    -0.140385020227E+03    0.34959E-05   -0.50207E-05 19392   0.242E-02    0.713E-03
DAV:   7    -0.140385025436E+03   -0.52091E-05   -0.49005E-06 24048   0.762E-03    0.175E-03
DAV:   8    -0.140385030084E+03   -0.46483E-05   -0.33342E-07 23616   0.185E-03    0.130E-03
DAV:   9    -0.140385039167E+03   -0.90827E-05   -0.63629E-07 21024   0.183E-03    0.719E-04
DAV:  10    -0.140385044904E+03   -0.57375E-05   -0.29506E-07 17232   0.109E-03    0.628E-04
DAV:  11    -0.140385050737E+03   -0.58326E-05   -0.52425E-07 14784   0.117E-03    0.286E-04
DAV:  12    -0.140385051202E+03   -0.46516E-06   -0.98684E-09 24672   0.233E-04
   3 F= -.14227904E+03 E0= -.14227779E+03  d E =-.155930E-01  mag=     0.0000
       N       E                     dE             d eps       ncg     rms          rms(c)
DAV:   1    -0.140385052606E+03   -0.18690E-05   -0.54355E-07 15264   0.247E-03    0.219E-04
DAV:   2    -0.140385052689E+03   -0.82692E-07   -0.10386E-08 26400   0.366E-04
   4 F= -.14227904E+03 E0= -.14227779E+03  d E =-.155935E-01  mag=    -0.0000
       N       E                     dE             d eps       ncg     rms          rms(c)
DAV:   1    -0.140385204651E+03   -0.15204E-03   -0.15613E-02 14208   0.542E-01    0.241E-02
DAV:   2    -0.140385206816E+03   -0.21652E-05   -0.11287E-04 24672   0.469E-02    0.158E-02
DAV:   3    -0.140385209889E+03   -0.30735E-05   -0.15339E-05 14208   0.157E-02    0.329E-03
DAV:   4    -0.140385209823E+03    0.66646E-07   -0.26837E-06 25056   0.659E-03
   5 F= -.14227917E+03 E0= -.14227793E+03  d E =-.136159E-03  mag=    -0.0000
       N       E                     dE             d eps       ncg     rms          rms(c)
DAV:   1    -0.140385226753E+03   -0.16864E-04   -0.19493E-03 14400   0.191E-01    0.873E-03
DAV:   2    -0.140385226812E+03   -0.58643E-07   -0.14639E-05 23424   0.170E-02    0.577E-03
DAV:   3    -0.140385227630E+03   -0.81859E-06   -0.20069E-06 16320   0.573E-03
   6 F= -.14227918E+03 E0= -.14227794E+03  d E =-.146605E-03  mag=     0.0000
       N       E                     dE             d eps       ncg     rms          rms(c)
DAV:   1    -0.140385194432E+03    0.32380E-04   -0.20045E-02 15168   0.634E-01    0.322E-02
DAV:   2    -0.140385194846E+03   -0.41448E-06   -0.26009E-04 14784   0.734E-02    0.201E-02
DAV:   3    -0.140385194057E+03    0.78936E-06   -0.40778E-05 16368   0.270E-02    0.727E-03
DAV:   4    -0.140385194104E+03   -0.47352E-07   -0.83491E-06 24192   0.110E-02
   7 F= -.14227912E+03 E0= -.14227789E+03  d E =0.584767E-04  mag=     0.0000
       N       E                     dE             d eps       ncg     rms          rms(c)
DAV:   1    -0.140385261711E+03   -0.67654E-04   -0.84374E-03 16224   0.411E-01    0.212E-02
DAV:   2    -0.140385260656E+03    0.10557E-05   -0.11135E-04 14784   0.481E-02    0.131E-02
DAV:   3    -0.140385260148E+03    0.50764E-06   -0.17326E-05 14784   0.176E-02    0.464E-03
DAV:   4    -0.140385260313E+03   -0.16487E-06   -0.35961E-06 22656   0.718E-03
   8 F= -.14227921E+03 E0= -.14227797E+03  d E =-.239081E-04  mag=     0.0000
       N       E                     dE             d eps       ncg     rms          rms(c)
DAV:   1    -0.140385281963E+03   -0.21815E-04   -0.26685E-03 14592   0.230E-01    0.118E-02
DAV:   2    -0.140385282013E+03   -0.49999E-07   -0.37230E-05 15504   0.271E-02    0.745E-03
DAV:   3    -0.140385282200E+03   -0.18734E-06   -0.44328E-06 17520   0.875E-03
   9 F= -.14227921E+03 E0= -.14227797E+03  d E =-.338409E-05  mag=    -0.0000
       N       E                     dE             d eps       ncg     rms          rms(c)
DAV:   1    -0.140385278191E+03    0.38217E-05   -0.51359E-04 15168   0.101E-01    0.444E-03
DAV:   2    -0.140385278298E+03   -0.10670E-06   -0.70473E-06 14208   0.116E-02
  10 F= -.14227921E+03 E0= -.14227798E+03  d E =-.766632E-05  mag=    -0.0000
       N       E                     dE             d eps       ncg     rms          rms(c)
DAV:   1    -0.140385309484E+03   -0.31293E-04   -0.17692E-03 14208   0.188E-01    0.813E-03
DAV:   2    -0.140385309697E+03   -0.21333E-06   -0.15564E-05 14400   0.176E-02    0.532E-03
DAV:   3    -0.140385310018E+03   -0.32016E-06   -0.15058E-06 18624   0.491E-03
  11 F= -.14227922E+03 E0= -.14227799E+03  d E =-.985939E-05  mag=     0.0000
       N       E                     dE             d eps       ncg     rms          rms(c)
DAV:   1    -0.140385318075E+03   -0.83778E-05   -0.19710E-04 14976   0.629E-02    0.308E-03
DAV:   2    -0.140385318027E+03    0.48131E-07   -0.17390E-06 16128   0.592E-03
  12 F= -.14227922E+03 E0= -.14227799E+03  d E =-.105943E-04  mag=     0.0000
       N       E                     dE             d eps       ncg     rms          rms(c)
DAV:   1    -0.140385353932E+03   -0.35857E-04   -0.19488E-03 14208   0.197E-01    0.914E-03
DAV:   2    -0.140385354027E+03   -0.95102E-07   -0.18158E-05 14592   0.194E-02    0.592E-03
DAV:   3    -0.140385354162E+03   -0.13426E-06   -0.18411E-06 14208   0.564E-03
  13 F= -.14227923E+03 E0= -.14227799E+03  d E =-.766260E-05  mag=    -0.0000
       N       E                     dE             d eps       ncg     rms          rms(c)
DAV:   1    -0.140385359393E+03   -0.53658E-05   -0.59145E-05 21120   0.343E-02    0.193E-03
DAV:   2    -0.140385359369E+03    0.24747E-07   -0.39975E-07 18768   0.288E-03
  14 F= -.14227923E+03 E0= -.14227800E+03  d E =-.794974E-05  mag=    -0.0000
       N       E                     dE             d eps       ncg     rms          rms(c)
DAV:   1    -0.140385396896E+03   -0.37503E-04   -0.14103E-03 14208   0.169E-01    0.750E-03
DAV:   2    -0.140385397034E+03   -0.13753E-06   -0.11861E-05 14208   0.151E-02    0.506E-03
DAV:   3    -0.140385397240E+03   -0.20646E-06   -0.97988E-07 15936   0.392E-03
  15 F= -.14227924E+03 E0= -.14227800E+03  d E =-.877585E-05  mag=     0.0000
       N       E                     dE             d eps       ncg     rms          rms(c)
DAV:   1    -0.140385499742E+03   -0.10271E-03   -0.12744E-02 14208   0.508E-01    0.225E-02
DAV:   2    -0.140385502399E+03   -0.26569E-05   -0.10462E-04 14208   0.450E-02    0.151E-02
DAV:   3    -0.140385502765E+03   -0.36642E-06   -0.86115E-06 14400   0.116E-02
  16 F= -.14227926E+03 E0= -.14227802E+03  d E =-.270438E-04  mag=    -0.0000
       N       E                     dE             d eps       ncg     rms          rms(c)
DAV:   1    -0.140385665875E+03   -0.16348E-03   -0.50997E-02 14208   0.102E+00    0.452E-02
DAV:   2    -0.140385679783E+03   -0.13909E-04   -0.41745E-04 15360   0.898E-02    0.303E-02
DAV:   3    -0.140385678440E+03    0.13435E-05   -0.34221E-05 14400   0.230E-02    0.612E-03
DAV:   4    -0.140385678987E+03   -0.54705E-06   -0.36562E-06 24960   0.709E-03
  17 F= -.14227926E+03 E0= -.14227802E+03  d E =-.289460E-04  mag=    -0.0000
       N       E                     dE             d eps       ncg     rms          rms(c)
DAV:   1    -0.140385584460E+03    0.93980E-04   -0.15422E-02 14208   0.559E-01    0.244E-02
DAV:   2    -0.140385587603E+03   -0.31424E-05   -0.12756E-04 16848   0.495E-02    0.164E-02
DAV:   3    -0.140385587610E+03   -0.74560E-08   -0.10286E-05 14208   0.124E-02    0.343E-03
DAV:   4    -0.140385587829E+03   -0.21874E-06   -0.11035E-06 16272   0.392E-03
  18 F= -.14227927E+03 E0= -.14227803E+03  d E =-.337888E-04  mag=    -0.0000
       N       E                     dE             d eps       ncg     rms          rms(c)
DAV:   1    -0.140385610783E+03   -0.23173E-04   -0.49310E-04 15936   0.993E-02    0.429E-03
DAV:   2    -0.140385610781E+03    0.22601E-08   -0.38350E-06 14208   0.843E-03
  19 F= -.14227927E+03 E0= -.14227803E+03  d E =-.551307E-05  mag=     0.0000
       N       E                     dE             d eps       ncg     rms          rms(c)
DAV:   1    -0.140385677990E+03   -0.67206E-04   -0.44465E-03 14208   0.299E-01    0.140E-02
DAV:   2    -0.140385678630E+03   -0.64067E-06   -0.36889E-05 14208   0.265E-02    0.936E-03
DAV:   3    -0.140385678919E+03   -0.28886E-06   -0.30562E-06 14208   0.691E-03
  20 F= -.14227929E+03 E0= -.14227805E+03  d E =-.213455E-04  mag=     0.0000
       N       E                     dE             d eps       ncg     rms          rms(c)
DAV:   1    -0.140385807787E+03   -0.12916E-03   -0.17872E-02 14208   0.598E-01    0.270E-02
DAV:   2    -0.140385812091E+03   -0.43038E-05   -0.14759E-04 14592   0.532E-02    0.182E-02
DAV:   3    -0.140385812096E+03   -0.56198E-08   -0.11720E-05 14304   0.135E-02    0.386E-03
DAV:   4    -0.140385812336E+03   -0.23988E-06   -0.11385E-06 17280   0.399E-03
  21 F= -.14227932E+03 E0= -.14227807E+03  d E =-.502821E-04  mag=     0.0000
       N       E                     dE             d eps       ncg     rms          rms(c)
DAV:   1    -0.140386051009E+03   -0.23891E-03   -0.71497E-02 14208   0.120E+00    0.540E-02
DAV:   2    -0.140386069077E+03   -0.18068E-04   -0.58623E-04 14400   0.106E-01    0.361E-02
DAV:   3    -0.140386066131E+03    0.29454E-05   -0.47805E-05 14496   0.271E-02    0.759E-03
DAV:   4    -0.140386066936E+03   -0.80454E-06   -0.46327E-06 19776   0.795E-03
  22 F= -.14227936E+03 E0= -.14227812E+03  d E =-.958959E-04  mag=     0.0000
       N       E                     dE             d eps       ncg     rms          rms(c)
DAV:   1    -0.140386466023E+03   -0.39989E-03   -0.28602E-01 14208   0.239E+00    0.108E-01
DAV:   2    -0.140386544490E+03   -0.78466E-04   -0.23456E-03 15264   0.212E-01    0.721E-02
DAV:   3    -0.140386525444E+03    0.19046E-04   -0.19086E-04 15120   0.537E-02    0.149E-02
DAV:   4    -0.140386527812E+03   -0.23683E-05   -0.18372E-05 19104   0.158E-02    0.611E-03
DAV:   5    -0.140386527945E+03   -0.13320E-06   -0.17922E-06 15312   0.473E-03
  23 F= -.14227941E+03 E0= -.14227815E+03  d E =-.139959E-03  mag=    -0.0000
       N       E                     dE             d eps       ncg     rms          rms(c)
DAV:   1    -0.140386561780E+03   -0.33968E-04   -0.10782E-03 16800   0.147E-01    0.661E-03
DAV:   2    -0.140386561863E+03   -0.83709E-07   -0.82928E-06 16464   0.124E-02
  24 F= -.14227941E+03 E0= -.14227816E+03  d E =-.813759E-05  mag=     0.0000
       N       E                     dE             d eps       ncg     rms          rms(c)
DAV:   1    -0.140386660415E+03   -0.98635E-04   -0.96335E-03 14208   0.440E-01    0.201E-02
DAV:   2    -0.140386662587E+03   -0.21720E-05   -0.79736E-05 16848   0.390E-02    0.136E-02
DAV:   3    -0.140386662796E+03   -0.20881E-06   -0.63006E-06 14544   0.983E-03
  25 F= -.14227944E+03 E0= -.14227818E+03  d E =-.317576E-04  mag=     0.0000
       N       E                     dE             d eps       ncg     rms          rms(c)
DAV:   1    -0.140386850813E+03   -0.18823E-03   -0.38751E-02 14208   0.882E-01    0.394E-02
DAV:   2    -0.140386861698E+03   -0.10885E-04   -0.31710E-04 14592   0.781E-02    0.266E-02
DAV:   3    -0.140386860546E+03    0.11522E-05   -0.24723E-05 14304   0.197E-02    0.559E-03
DAV:   4    -0.140386861032E+03   -0.48665E-06   -0.24460E-06 15936   0.599E-03
  26 F= -.14227948E+03 E0= -.14227822E+03  d E =-.754898E-04  mag=     0.0000
       N       E                     dE             d eps       ncg     rms          rms(c)
DAV:   1    -0.140387205669E+03   -0.34512E-03   -0.15502E-01 14208   0.176E+00    0.787E-02
DAV:   2    -0.140387249863E+03   -0.44194E-04   -0.12612E-03 14592   0.156E-01    0.528E-02
DAV:   3    -0.140387240489E+03    0.93737E-05   -0.10039E-04 14400   0.394E-02    0.110E-02
DAV:   4    -0.140387241938E+03   -0.14494E-05   -0.99118E-06 17904   0.118E-02    0.450E-03
DAV:   5    -0.140387241953E+03   -0.14676E-07   -0.10692E-06 14784   0.389E-03
  27 F= -.14227955E+03 E0= -.14227829E+03  d E =-.147826E-03  mag=    -0.0000
       N       E                     dE             d eps       ncg     rms          rms(c)
DAV:   1    -0.140387804474E+03   -0.56254E-03   -0.61956E-01 14208   0.353E+00    0.157E-01
DAV:   2    -0.140387989653E+03   -0.18518E-03   -0.50367E-03 16176   0.311E-01    0.105E-01
DAV:   3    -0.140387938101E+03    0.51552E-04   -0.40282E-04 15312   0.776E-02    0.213E-02
DAV:   4    -0.140387942230E+03   -0.41292E-05   -0.39397E-05 22560   0.232E-02    0.868E-03
DAV:   5    -0.140387942331E+03   -0.10179E-06   -0.43277E-06 15984   0.705E-03
  28 F= -.14227964E+03 E0= -.14227837E+03  d E =-.233152E-03  mag=     0.0000
       N       E                     dE             d eps       ncg     rms          rms(c)
DAV:   1    -0.140388555735E+03   -0.61351E-03   -0.24773E+00 14208   0.705E+00    0.314E-01
DAV:   2    -0.140389318274E+03   -0.76254E-03   -0.20001E-02 17616   0.619E-01    0.210E-01
DAV:   3    -0.140389078724E+03    0.23955E-03   -0.15945E-03 15456   0.153E-01    0.417E-02
DAV:   4    -0.140389092111E+03   -0.13387E-04   -0.15628E-04 22704   0.464E-02    0.170E-02
DAV:   5    -0.140389091815E+03    0.29647E-06   -0.16395E-05 15840   0.137E-02    0.399E-03
DAV:   6    -0.140389092076E+03   -0.26132E-06   -0.15025E-06 18432   0.549E-03
  29 F= -.14227957E+03 E0= -.14227829E+03  d E =-.160768E-03  mag=    -0.0000
       N       E                     dE             d eps       ncg     rms          rms(c)
DAV:   1    -0.140388041693E+03    0.10501E-02   -0.12471E+00 14208   0.500E+00    0.223E-01
DAV:   2    -0.140388418611E+03   -0.37692E-03   -0.10079E-02 17280   0.439E-01    0.149E-01
DAV:   3    -0.140388304511E+03    0.11410E-03   -0.81128E-04 17952   0.109E-01    0.298E-02
DAV:   4    -0.140388310881E+03   -0.63706E-05   -0.72311E-05 15168   0.320E-02    0.120E-02
DAV:   5    -0.140388311024E+03   -0.14271E-06   -0.90592E-06 17664   0.104E-02
  30 F= -.14227965E+03 E0= -.14227838E+03  d E =-.245741E-03  mag=     0.0000
       N       E                     dE             d eps       ncg     rms          rms(c)
DAV:   1    -0.140388564646E+03   -0.25376E-03   -0.84516E-02 14208   0.130E+00    0.576E-02
DAV:   2    -0.140388586859E+03   -0.22214E-04   -0.68565E-04 15360   0.115E-01    0.388E-02
DAV:   3    -0.140388582134E+03    0.47255E-05   -0.54938E-05 16608   0.290E-02    0.826E-03
DAV:   4    -0.140388583002E+03   -0.86774E-06   -0.52639E-06 18816   0.877E-03
  31 F= -.14227970E+03 E0= -.14227843E+03  d E =-.509278E-04  mag=     0.0000
       N       E                     dE             d eps       ncg     rms          rms(c)
DAV:   1    -0.140389043628E+03   -0.46149E-03   -0.43747E-01 14208   0.297E+00    0.131E-01
DAV:   2    -0.140389174671E+03   -0.13104E-03   -0.35369E-03 14928   0.261E-01    0.883E-02
DAV:   3    -0.140389140477E+03    0.34195E-04   -0.28051E-04 15408   0.654E-02    0.185E-02
DAV:   4    -0.140389143614E+03   -0.31371E-05   -0.28174E-05 17808   0.199E-02    0.756E-03
DAV:   5    -0.140389143515E+03    0.98353E-07   -0.31998E-06 15408   0.675E-03
  32 F= -.14227976E+03 E0= -.14227848E+03  d E =-.109835E-03  mag=    -0.0000
       N       E                     dE             d eps       ncg     rms          rms(c)
DAV:   1    -0.140389307569E+03   -0.16395E-03   -0.53258E-02 14208   0.104E+00    0.455E-02
DAV:   2    -0.140389322804E+03   -0.15236E-04   -0.43986E-04 14400   0.923E-02    0.307E-02
DAV:   3    -0.140389320152E+03    0.26526E-05   -0.34842E-05 14304   0.234E-02    0.674E-03
DAV:   4    -0.140389320792E+03   -0.64016E-06   -0.36502E-06 14784   0.780E-03
  33 F= -.14227976E+03 E0= -.14227848E+03  d E =-.112439E-03  mag=    -0.0000
       N       E                     dE             d eps       ncg     rms          rms(c)
DAV:   1    -0.140389247834E+03    0.72317E-04   -0.88447E-03 14208   0.422E-01    0.182E-02
DAV:   2    -0.140389249771E+03   -0.19368E-05   -0.73334E-05 14976   0.378E-02    0.123E-02
DAV:   3    -0.140389249403E+03    0.36833E-06   -0.58967E-06 16320   0.994E-03
  34 F= -.14227976E+03 E0= -.14227848E+03  d E =-.112343E-03  mag=     0.0000
       N       E                     dE             d eps       ncg     rms          rms(c)
DAV:   1    -0.140389284259E+03   -0.34488E-04   -0.21109E-03 14544   0.206E-01    0.876E-03
DAV:   2    -0.140389284688E+03   -0.42869E-06   -0.18384E-05 14496   0.190E-02    0.587E-03
DAV:   3    -0.140389284444E+03    0.24360E-06   -0.16088E-06 14544   0.573E-03
  35 F= -.14227977E+03 E0= -.14227848E+03  d E =-.112604E-03  mag=     0.0000
       N       E                     dE             d eps       ncg     rms          rms(c)
DAV:   1    -0.140389338457E+03   -0.53770E-04   -0.39105E-03 14208   0.282E-01    0.122E-02
DAV:   2    -0.140389339614E+03   -0.11568E-05   -0.31544E-05 14208   0.252E-02    0.842E-03
DAV:   3    -0.140389339581E+03    0.33567E-07   -0.21799E-06 14880   0.683E-03
  36 F= -.14227978E+03 E0= -.14227850E+03  d E =-.184971E-04  mag=     0.0000
       N       E                     dE             d eps       ncg     rms          rms(c)
DAV:   1    -0.140389476099E+03   -0.13648E-03   -0.35223E-02 14208   0.845E-01    0.362E-02
DAV:   2    -0.140389487710E+03   -0.11610E-04   -0.27817E-04 14208   0.744E-02    0.248E-02
DAV:   3    -0.140389486231E+03    0.14786E-05   -0.18861E-05 14400   0.184E-02    0.552E-03
DAV:   4    -0.140389486710E+03   -0.47923E-06   -0.21306E-06 14304   0.693E-03
  37 F= -.14227982E+03 E0= -.14227853E+03  d E =-.557638E-04  mag=    -0.0000
       N       E                     dE             d eps       ncg     rms          rms(c)
DAV:   1    -0.140389658367E+03   -0.17214E-03   -0.14103E-01 14208   0.169E+00    0.726E-02
DAV:   2    -0.140389706091E+03   -0.47724E-04   -0.11085E-03 14256   0.149E-01    0.495E-02
DAV:   3    -0.140389697205E+03    0.88861E-05   -0.75730E-05 14736   0.363E-02    0.108E-02
DAV:   4    -0.140389698623E+03   -0.14174E-05   -0.78373E-06 16992   0.122E-02    0.387E-03
DAV:   5    -0.140389698248E+03    0.37460E-06   -0.14476E-06 16992   0.651E-03
  38 F= -.14227981E+03 E0= -.14227852E+03  d E =-.478192E-04  mag=    -0.0000
       N       E                     dE             d eps       ncg     rms          rms(c)
DAV:   1    -0.140389572078E+03    0.12654E-03   -0.49484E-02 14208   0.100E+00    0.427E-02
DAV:   2    -0.140389588095E+03   -0.16017E-04   -0.39398E-04 14208   0.885E-02    0.292E-02
DAV:   3    -0.140389585727E+03    0.23674E-05   -0.26726E-05 14496   0.216E-02    0.655E-03
DAV:   4    -0.140389586302E+03   -0.57427E-06   -0.28137E-06 14592   0.746E-03
  39 F= -.14227983E+03 E0= -.14227854E+03  d E =-.659261E-04  mag=    -0.0000
       N       E                     dE             d eps       ncg     rms          rms(c)
DAV:   1    -0.140389657274E+03   -0.71547E-04   -0.68704E-03 14208   0.374E-01    0.155E-02
DAV:   2    -0.140389659812E+03   -0.25380E-05   -0.55326E-05 14304   0.334E-02    0.108E-02
DAV:   3    -0.140389659325E+03    0.48759E-06   -0.37458E-06 14352   0.940E-03
  40 F= -.14227986E+03 E0= -.14227856E+03  d E =-.242673E-04  mag=     0.0000
       N       E                     dE             d eps       ncg     rms          rms(c)
DAV:   1    -0.140389818425E+03   -0.15861E-03   -0.56597E-02 14208   0.107E+00    0.453E-02
DAV:   2    -0.140389841514E+03   -0.23090E-04   -0.44575E-04 15120   0.940E-02    0.316E-02
DAV:   3    -0.140389838373E+03    0.31413E-05   -0.27386E-05 15264   0.229E-02    0.680E-03
DAV:   4    -0.140389839000E+03   -0.62662E-06   -0.35486E-06 14208   0.996E-03
  41 F= -.14227990E+03 E0= -.14227861E+03  d E =-.645047E-04  mag=     0.0000
       N       E                     dE             d eps       ncg     rms          rms(c)
DAV:   1    -0.140389880931E+03   -0.42558E-04   -0.49400E-03 14208   0.317E-01    0.136E-02
DAV:   2    -0.140389883199E+03   -0.22678E-05   -0.40972E-05 14208   0.293E-02    0.952E-03
DAV:   3    -0.140389882810E+03    0.38821E-06   -0.32480E-06 16128   0.975E-03
  42 F= -.14227990E+03 E0= -.14227861E+03  d E =-.672408E-04  mag=    -0.0000
       N       E                     dE             d eps       ncg     rms          rms(c)
DAV:   1    -0.140389933556E+03   -0.50358E-04   -0.54138E-03 14208   0.333E-01    0.142E-02
DAV:   2    -0.140389936136E+03   -0.25798E-05   -0.46105E-05 16128   0.311E-02    0.978E-03
DAV:   3    -0.140389935612E+03    0.52392E-06   -0.30538E-06 16080   0.922E-03
  43 F= -.14227992E+03 E0= -.14227863E+03  d E =-.183870E-04  mag=     0.0000
       N       E                     dE             d eps       ncg     rms          rms(c)
DAV:   1    -0.140389984943E+03   -0.48807E-04   -0.89665E-03 14208   0.429E-01    0.183E-02
DAV:   2    -0.140389989075E+03   -0.41319E-05   -0.75727E-05 14688   0.396E-02    0.126E-02
DAV:   3    -0.140389988362E+03    0.71336E-06   -0.49640E-06 14736   0.115E-02
  44 F= -.14227992E+03 E0= -.14227864E+03  d E =-.267224E-04  mag=    -0.0000
       N       E                     dE             d eps       ncg     rms          rms(c)
DAV:   1    -0.140390026899E+03   -0.37824E-04   -0.70496E-03 14208   0.381E-01    0.158E-02
DAV:   2    -0.140390030438E+03   -0.35384E-05   -0.53488E-05 14208   0.335E-02    0.112E-02
DAV:   3    -0.140390029861E+03    0.57631E-06   -0.37709E-06 15648   0.111E-02
  45 F= -.14227995E+03 E0= -.14227866E+03  d E =-.201171E-04  mag=     0.0000
       N       E                     dE             d eps       ncg     rms          rms(c)
DAV:   1    -0.140390090702E+03   -0.60264E-04   -0.56472E-02 14208   0.108E+00    0.434E-02
DAV:   2    -0.140390117613E+03   -0.26911E-04   -0.41840E-04 16080   0.908E-02    0.309E-02
DAV:   3    -0.140390114345E+03    0.32680E-05   -0.20172E-05 16128   0.215E-02    0.816E-03
DAV:   4    -0.140390114707E+03   -0.36192E-06   -0.44495E-06 14208   0.122E-02
  46 F= -.14227997E+03 E0= -.14227868E+03  d E =-.445528E-04  mag=     0.0000
       N       E                     dE             d eps       ncg     rms          rms(c)
DAV:   1    -0.140390147991E+03   -0.33646E-04   -0.15277E-02 14208   0.557E-01    0.234E-02
DAV:   2    -0.140390155141E+03   -0.71497E-05   -0.12068E-04 15264   0.488E-02    0.166E-02
DAV:   3    -0.140390154237E+03    0.90396E-06   -0.68176E-06 15264   0.134E-02
  47 F= -.14228000E+03 E0= -.14227871E+03  d E =-.323866E-04  mag=    -0.0000
       N       E                     dE             d eps       ncg     rms          rms(c)
DAV:   1    -0.140390169035E+03   -0.13894E-04   -0.13704E-01 14208   0.167E+00    0.699E-02
DAV:   2    -0.140390231130E+03   -0.62096E-04   -0.10575E-03 16128   0.142E-01    0.493E-02
DAV:   3    -0.140390222033E+03    0.90970E-05   -0.52069E-05 16128   0.325E-02    0.138E-02
DAV:   4    -0.140390222612E+03   -0.57893E-06   -0.81263E-06 14208   0.156E-02
  48 F= -.14228005E+03 E0= -.14227875E+03  d E =-.792656E-04  mag=    -0.0000
       N       E                     dE             d eps       ncg     rms          rms(c)
DAV:   1    -0.140390246566E+03   -0.24533E-04   -0.41375E-03 14208   0.291E-01    0.122E-02
DAV:   2    -0.140390248746E+03   -0.21799E-05   -0.33309E-05 14208   0.278E-02    0.873E-03
DAV:   3    -0.140390248294E+03    0.45242E-06   -0.43208E-06 16032   0.126E-02
  49 F= -.14228007E+03 E0= -.14227877E+03  d E =-.196538E-04  mag=     0.0000
       N       E                     dE             d eps       ncg     rms          rms(c)
DAV:   1    -0.140390308165E+03   -0.59419E-04   -0.36937E-02 14208   0.868E-01    0.355E-02
DAV:   2    -0.140390324774E+03   -0.16609E-04   -0.27466E-04 16128   0.734E-02    0.253E-02
DAV:   3    -0.140390322473E+03    0.23014E-05   -0.14818E-05 16128   0.194E-02    0.642E-03
DAV:   4    -0.140390323053E+03   -0.58030E-06   -0.50795E-06 14208   0.135E-02
  50 F= -.14228013E+03 E0= -.14227883E+03  d E =-.764038E-04  mag=     0.0000
       N       E                     dE             d eps       ncg     rms          rms(c)
DAV:   1    -0.140390396567E+03   -0.74095E-04   -0.14800E-01 14208   0.174E+00    0.717E-02
DAV:   2    -0.140390463447E+03   -0.66880E-04   -0.10910E-03 17088   0.145E-01    0.510E-02
DAV:   3    -0.140390453063E+03    0.10383E-04   -0.51092E-05 16032   0.311E-02    0.118E-02
DAV:   4    -0.140390453950E+03   -0.88679E-06   -0.63436E-06 14208   0.132E-02
  51 F= -.14228022E+03 E0= -.14227892E+03  d E =-.171458E-03  mag=     0.0000
       N       E                     dE             d eps       ncg     rms          rms(c)
DAV:   1    -0.140390423383E+03    0.29680E-04   -0.59212E-01 14208   0.347E+00    0.144E-01
DAV:   2    -0.140390690219E+03   -0.26684E-03   -0.43180E-03 16320   0.288E-01    0.102E-01
DAV:   3    -0.140390643094E+03    0.47125E-04   -0.20955E-04 16320   0.629E-02    0.237E-02
DAV:   4    -0.140390645927E+03   -0.28330E-05   -0.23744E-05 14400   0.248E-02    0.607E-03
DAV:   5    -0.140390646280E+03   -0.35290E-06   -0.95496E-06 14784   0.179E-02
  52 F= -.14228034E+03 E0= -.14227904E+03  d E =-.292411E-03  mag=     0.0000
       N       E                     dE             d eps       ncg     rms          rms(c)
DAV:   1    -0.140389873574E+03    0.77235E-03   -0.23668E+00 14208   0.694E+00    0.287E-01
DAV:   2    -0.140390955046E+03   -0.10815E-02   -0.17361E-02 18528   0.575E-01    0.204E-01
DAV:   3    -0.140390741292E+03    0.21375E-03   -0.79874E-04 16752   0.117E-01    0.445E-02
DAV:   4    -0.140390750270E+03   -0.89774E-05   -0.73437E-05 14976   0.371E-02    0.116E-02
DAV:   5    -0.140390748673E+03    0.15970E-05   -0.14101E-05 17088   0.186E-02    0.380E-03
DAV:   6    -0.140390748900E+03   -0.22768E-06   -0.56933E-06 14880   0.140E-02
  53 F= -.14228030E+03 E0= -.14227899E+03  d E =-.253265E-03  mag=    -0.0000
       N       E                     dE             d eps       ncg     rms          rms(c)
DAV:   1    -0.140390404884E+03    0.34379E-03   -0.87396E-01 14208   0.422E+00    0.174E-01
DAV:   2    -0.140390799548E+03   -0.39466E-03   -0.64167E-03 15552   0.350E-01    0.123E-01
DAV:   3    -0.140390727055E+03    0.72493E-04   -0.30202E-04 14880   0.740E-02    0.297E-02
DAV:   4    -0.140390731313E+03   -0.42580E-05   -0.28506E-05 14592   0.220E-02    0.733E-03
DAV:   5    -0.140390730251E+03    0.10614E-05   -0.49847E-06 15840   0.953E-03    0.237E-03
DAV:   6    -0.140390730389E+03   -0.13746E-06   -0.89955E-07 14208   0.532E-03
  54 F= -.14228037E+03 E0= -.14227906E+03  d E =-.320720E-03  mag=    -0.0000
       N       E                     dE             d eps       ncg     rms          rms(c)
DAV:   1    -0.140390754455E+03   -0.24204E-04   -0.51875E-03 14208   0.325E-01    0.134E-02
DAV:   2    -0.140390756523E+03   -0.20675E-05   -0.38610E-05 14208   0.274E-02    0.956E-03
DAV:   3    -0.140390756257E+03    0.26562E-06   -0.19810E-06 14880   0.663E-03
  55 F= -.14228039E+03 E0= -.14227908E+03  d E =-.197941E-04  mag=     0.0000
       N       E                     dE             d eps       ncg     rms          rms(c)
DAV:   1    -0.140390815252E+03   -0.58729E-04   -0.46658E-02 14208   0.975E-01    0.401E-02
DAV:   2    -0.140390835577E+03   -0.20325E-04   -0.34081E-04 14208   0.808E-02    0.284E-02
DAV:   3    -0.140390832992E+03    0.25852E-05   -0.16306E-05 14208   0.178E-02    0.707E-03
DAV:   4    -0.140390833445E+03   -0.45379E-06   -0.19010E-06 14208   0.675E-03
  56 F= -.14228045E+03 E0= -.14227914E+03  d E =-.784626E-04  mag=     0.0000
       N       E                     dE             d eps       ncg     rms          rms(c)
DAV:   1    -0.140390912126E+03   -0.79134E-04   -0.18695E-01 14208   0.195E+00    0.806E-02
DAV:   2    -0.140390994319E+03   -0.82193E-04   -0.13605E-03 14208   0.162E-01    0.570E-02
DAV:   3    -0.140390981188E+03    0.13131E-04   -0.66646E-05 14208   0.358E-02    0.139E-02
DAV:   4    -0.140390982368E+03   -0.11807E-05   -0.75700E-06 14208   0.134E-02    0.356E-03
DAV:   5    -0.140390982094E+03    0.27382E-06   -0.28201E-06 16224   0.935E-03
  57 F= -.14228056E+03 E0= -.14227925E+03  d E =-.190277E-03  mag=    -0.0000
       N       E                     dE             d eps       ncg     rms          rms(c)
DAV:   1    -0.140390983643E+03   -0.12750E-05   -0.74709E-01 14208   0.390E+00    0.161E-01
DAV:   2    -0.140391319153E+03   -0.33551E-03   -0.54477E-03 17472   0.323E-01    0.114E-01
DAV:   3    -0.140391256131E+03    0.63021E-04   -0.25795E-04 15744   0.671E-02    0.254E-02
DAV:   4    -0.140391259585E+03   -0.34541E-05   -0.24577E-05 14880   0.214E-02    0.669E-03
DAV:   5    -0.140391258823E+03    0.76215E-06   -0.51408E-06 16368   0.110E-02
  58 F= -.14228076E+03 E0= -.14227945E+03  d E =-.393732E-03  mag=     0.0000
       N       E                     dE             d eps       ncg     rms          rms(c)
DAV:   1    -0.140390641058E+03    0.61853E-03   -0.29879E+00 14208   0.780E+00    0.322E-01
DAV:   2    -0.140391992649E+03   -0.13516E-02   -0.21667E-02 17952   0.645E-01    0.228E-01
DAV:   3    -0.140391721570E+03    0.27108E-03   -0.10260E-03 16752   0.132E-01    0.499E-02
DAV:   4    -0.140391732273E+03   -0.10703E-04   -0.93863E-05 14880   0.412E-02    0.132E-02
DAV:   5    -0.140391729907E+03    0.23655E-05   -0.17590E-05 17520   0.193E-02    0.443E-03
DAV:   6    -0.140391730221E+03   -0.31386E-06   -0.55350E-06 14304   0.134E-02
  59 F= -.14228109E+03 E0= -.14227977E+03  d E =-.720343E-03  mag=     0.0000
       N       E                     dE             d eps       ncg     rms          rms(c)
DAV:   1    -0.140387924352E+03    0.38056E-02   -0.11944E+01 14208   0.156E+01    0.644E-01
DAV:   2    -0.140393465383E+03   -0.55410E-02   -0.87550E-02 19488   0.129E+00    0.456E-01
DAV:   3    -0.140392312898E+03    0.11525E-02   -0.40209E-03 16848   0.258E-01    0.101E-01
DAV:   4    -0.140392347904E+03   -0.35006E-04   -0.36632E-04 17040   0.780E-02    0.261E-02
DAV:   5    -0.140392338632E+03    0.92723E-05   -0.56276E-05 21120   0.288E-02    0.811E-03
DAV:   6    -0.140392339296E+03   -0.66386E-06   -0.62660E-06 15696   0.118E-02
  60 F= -.14228141E+03 E0= -.14228007E+03  d E =-.104541E-02  mag=     0.0000
       N       E                     dE             d eps       ncg     rms          rms(c)
DAV:   1    -0.140392342519E+03   -0.38871E-05   -0.98616E-01 14208   0.449E+00    0.185E-01
DAV:   2    -0.140392782734E+03   -0.44022E-03   -0.72198E-03 14592   0.374E-01    0.130E-01
DAV:   3    -0.140392702599E+03    0.80135E-04   -0.35425E-04 14592   0.807E-02    0.327E-02
DAV:   4    -0.140392706909E+03   -0.43104E-05   -0.37464E-05 15168   0.262E-02    0.844E-03
DAV:   5    -0.140392705801E+03    0.11085E-05   -0.73414E-06 16272   0.128E-02    0.331E-03
DAV:   6    -0.140392705998E+03   -0.19677E-06   -0.23945E-06 14688   0.868E-03
  61 F= -.14228177E+03 E0= -.14228043E+03  d E =-.359194E-03  mag=     0.0000
       N       E                     dE             d eps       ncg     rms          rms(c)
DAV:   1    -0.140391386984E+03    0.13188E-02   -0.44748E+00 14208   0.956E+00    0.394E-01
DAV:   2    -0.140393427704E+03   -0.20407E-02   -0.32953E-02 18192   0.794E-01    0.279E-01
DAV:   3    -0.140393012958E+03    0.41475E-03   -0.15543E-03 16800   0.162E-01    0.650E-02
DAV:   4    -0.140393026342E+03   -0.13384E-04   -0.15395E-04 15456   0.506E-02    0.168E-02
DAV:   5    -0.140393022987E+03    0.33551E-05   -0.22721E-05 22368   0.186E-02    0.582E-03
DAV:   6    -0.140393023089E+03   -0.10203E-06   -0.31163E-06 14688   0.794E-03
  62 F= -.14228208E+03 E0= -.14228072E+03  d E =-.661135E-03  mag=     0.0000
       N       E                     dE             d eps       ncg     rms          rms(c)
DAV:   1    -0.140392872580E+03    0.15041E-03   -0.14008E+00 14208   0.535E+00    0.220E-01
DAV:   2    -0.140393495589E+03   -0.62301E-03   -0.10091E-02 15168   0.442E-01    0.155E-01
DAV:   3    -0.140393378335E+03    0.11725E-03   -0.48712E-04 15168   0.935E-02    0.368E-02
DAV:   4    -0.140393384304E+03   -0.59692E-05   -0.47484E-05 15168   0.286E-02    0.953E-03
DAV:   5    -0.140393382546E+03    0.17587E-05   -0.84164E-06 18048   0.124E-02    0.349E-03
DAV:   6    -0.140393382885E+03   -0.33984E-06   -0.15370E-06 14832   0.671E-03
  63 F= -.14228242E+03 E0= -.14228105E+03  d E =-.339657E-03  mag=     0.0000
       N       E                     dE             d eps       ncg     rms          rms(c)
DAV:   1    -0.140392488540E+03    0.89401E-03   -0.30392E+00 14208   0.787E+00    0.324E-01
DAV:   2    -0.140393863119E+03   -0.13746E-02   -0.22053E-02 18384   0.650E-01    0.230E-01
DAV:   3    -0.140393585922E+03    0.27720E-03   -0.10338E-03 16800   0.132E-01    0.503E-02
DAV:   4    -0.140393596797E+03   -0.10875E-04   -0.94980E-05 16080   0.396E-02    0.133E-02
DAV:   5    -0.140393594251E+03    0.25461E-05   -0.14619E-05 22080   0.148E-02    0.429E-03
DAV:   6    -0.140393594452E+03   -0.20088E-06   -0.16449E-06 15024   0.592E-03
  64 F= -.14228260E+03 E0= -.14228123E+03  d E =-.522804E-03  mag=     0.0000
       N       E                     dE             d eps       ncg     rms          rms(c)
DAV:   1    -0.140393673432E+03   -0.79181E-04   -0.73088E-01 14208   0.385E+00    0.160E-01
DAV:   2    -0.140393988904E+03   -0.31547E-03   -0.53459E-03 15312   0.321E-01    0.113E-01
DAV:   3    -0.140393931770E+03    0.57134E-04   -0.26306E-04 14880   0.688E-02    0.276E-02
DAV:   4    -0.140393935196E+03   -0.34262E-05   -0.25129E-05 15264   0.204E-02    0.700E-03
DAV:   5    -0.140393934427E+03    0.76893E-06   -0.33502E-06 17328   0.765E-03
  65 F= -.14228287E+03 E0= -.14228150E+03  d E =-.273047E-03  mag=    -0.0000
       N       E                     dE             d eps       ncg     rms          rms(c)
DAV:   1    -0.140393794761E+03    0.14044E-03   -0.89383E-01 14208   0.426E+00    0.177E-01
DAV:   2    -0.140394180009E+03   -0.38525E-03   -0.65163E-03 15168   0.354E-01    0.124E-01
DAV:   3    -0.140394108751E+03    0.71258E-04   -0.32390E-04 15072   0.764E-02    0.305E-02
DAV:   4    -0.140394112645E+03   -0.38941E-05   -0.30809E-05 14400   0.229E-02    0.779E-03
DAV:   5    -0.140394111591E+03    0.10540E-05   -0.42207E-06 18000   0.910E-03    0.304E-03
DAV:   6    -0.140394112057E+03   -0.46572E-06   -0.78837E-07 14928   0.490E-03
  66 F= -.14228297E+03 E0= -.14228160E+03  d E =-.376074E-03  mag=    -0.0000
       N       E                     dE             d eps       ncg     rms          rms(c)
DAV:   1    -0.140394122539E+03   -0.10948E-04   -0.26142E-01 14208   0.231E+00    0.955E-02
DAV:   2    -0.140394239925E+03   -0.11739E-03   -0.19097E-03 14208   0.191E-01    0.675E-02
DAV:   3    -0.140394221086E+03    0.18839E-04   -0.91014E-05 14208   0.412E-02    0.163E-02
DAV:   4    -0.140394222614E+03   -0.15287E-05   -0.86634E-06 17184   0.120E-02    0.405E-03
DAV:   5    -0.140394222318E+03    0.29592E-06   -0.12963E-06 15600   0.449E-03
  67 F= -.14228312E+03 E0= -.14228175E+03  d E =-.148353E-03  mag=     0.0000
       N       E                     dE             d eps       ncg     rms          rms(c)
DAV:   1    -0.140394175244E+03    0.47371E-04   -0.13519E-01 14208   0.166E+00    0.688E-02
DAV:   2    -0.140394234555E+03   -0.59311E-04   -0.97880E-04 14208   0.137E-01    0.485E-02
DAV:   3    -0.140394225254E+03    0.93015E-05   -0.47517E-05 14208   0.297E-02    0.116E-02
DAV:   4    -0.140394226103E+03   -0.84901E-06   -0.45290E-06 15120   0.879E-03
  68 F= -.14228315E+03 E0= -.14228178E+03  d E =-.179692E-03  mag=     0.0000
       N       E                     dE             d eps       ncg     rms          rms(c)
DAV:   1    -0.140394151081E+03    0.74173E-04   -0.31510E-01 14208   0.254E+00    0.105E-01
DAV:   2    -0.140394291490E+03   -0.14041E-03   -0.22817E-03 14208   0.211E-01    0.738E-02
DAV:   3    -0.140394268525E+03    0.22965E-04   -0.11116E-04 15552   0.456E-02    0.185E-02
DAV:   4    -0.140394269938E+03   -0.14122E-05   -0.11331E-05 17760   0.141E-02    0.460E-03
DAV:   5    -0.140394269438E+03    0.49992E-06   -0.18701E-06 18672   0.590E-03
  69 F= -.14228331E+03 E0= -.14228193E+03  d E =-.152023E-03  mag=    -0.0000
       N       E                     dE             d eps       ncg     rms          rms(c)
DAV:   1    -0.140394222019E+03    0.47918E-04   -0.57998E-02 14208   0.109E+00    0.446E-02
DAV:   2    -0.140394248111E+03   -0.26092E-04   -0.42555E-04 15216   0.908E-02    0.316E-02
DAV:   3    -0.140394244206E+03    0.39048E-05   -0.20377E-05 15696   0.196E-02    0.795E-03
DAV:   4    -0.140394244574E+03   -0.36809E-06   -0.23613E-06 16368   0.733E-03
  70 F= -.14228333E+03 E0= -.14228196E+03  d E =-.173731E-03  mag=     0.0000
       N       E                     dE             d eps       ncg     rms          rms(c)
DAV:   1    -0.140394257620E+03   -0.13414E-04   -0.19718E-02 14208   0.631E-01    0.272E-02
DAV:   2    -0.140394265475E+03   -0.78551E-05   -0.16273E-04 15216   0.572E-02    0.184E-02
DAV:   3    -0.140394263024E+03    0.24505E-05   -0.10277E-05 15216   0.142E-02    0.570E-03
DAV:   4    -0.140394263213E+03   -0.18829E-06   -0.18289E-06 14208   0.673E-03
  71 F= -.14228337E+03 E0= -.14228200E+03  d E =-.444507E-04  mag=    -0.0000
       N       E                     dE             d eps       ncg     rms          rms(c)
DAV:   1    -0.140394260138E+03    0.28867E-05   -0.47695E-04 14208   0.982E-02    0.444E-03
DAV:   2    -0.140394260590E+03   -0.45180E-06   -0.43517E-06 15408   0.101E-02
  72 F= -.14228337E+03 E0= -.14228200E+03  d E =-.458103E-04  mag=    -0.0000
       N       E                     dE             d eps       ncg     rms          rms(c)
DAV:   1    -0.140394236436E+03    0.23702E-04   -0.53990E-03 14208   0.334E-01    0.150E-02
DAV:   2    -0.140394238467E+03   -0.20317E-05   -0.46901E-05 14208   0.309E-02    0.101E-02
DAV:   3    -0.140394237951E+03    0.51662E-06   -0.31795E-06 14208   0.861E-03
  73 F= -.14228340E+03 E0= -.14228203E+03  d E =-.249169E-04  mag=     0.0000
       N       E                     dE             d eps       ncg     rms          rms(c)
DAV:   1    -0.140394191421E+03    0.47047E-04   -0.69186E-03 14208   0.378E-01    0.163E-02
DAV:   2    -0.140394194302E+03   -0.28812E-05   -0.59894E-05 14400   0.350E-02    0.110E-02
DAV:   3    -0.140394193734E+03    0.56779E-06   -0.37746E-06 14400   0.953E-03
  74 F= -.14228341E+03 E0= -.14228204E+03  d E =-.345819E-04  mag=    -0.0000
       N       E                     dE             d eps       ncg     rms          rms(c)
DAV:   1    -0.140394159095E+03    0.35206E-04   -0.21062E-03 14208   0.207E-01    0.915E-03
DAV:   2    -0.140394160113E+03   -0.10176E-05   -0.19583E-05 14208   0.205E-02    0.636E-03
DAV:   3    -0.140394159707E+03    0.40612E-06   -0.19804E-06 15168   0.781E-03
  75 F= -.14228343E+03 E0= -.14228205E+03  d E =-.176688E-04  mag=     0.0000
       N       E                     dE             d eps       ncg     rms          rms(c)
DAV:   1    -0.140394032171E+03    0.12794E-03   -0.19014E-02 14208   0.622E-01    0.266E-02
DAV:   2    -0.140394039797E+03   -0.76269E-05   -0.16944E-04 15744   0.578E-02    0.184E-02
DAV:   3    -0.140394038692E+03    0.11054E-05   -0.11027E-05 15936   0.153E-02    0.468E-03
DAV:   4    -0.140394038975E+03   -0.28301E-06   -0.27886E-06 14208   0.940E-03
  76 F= -.14228346E+03 E0= -.14228209E+03  d E =-.519130E-04  mag=     0.0000
       N       E                     dE             d eps       ncg     rms          rms(c)
DAV:   1    -0.140393685007E+03    0.35368E-03   -0.76137E-02 14208   0.124E+00    0.534E-02
DAV:   2    -0.140393714740E+03   -0.29732E-04   -0.67060E-04 17328   0.114E-01    0.369E-02
DAV:   3    -0.140393710471E+03    0.42688E-05   -0.40592E-05 16608   0.268E-02    0.883E-03
DAV:   4    -0.140393710910E+03   -0.43852E-06   -0.59926E-06 15744   0.122E-02
  77 F= -.14228344E+03 E0= -.14228207E+03  d E =-.339963E-04  mag=     0.0000
       N       E                     dE             d eps       ncg     rms          rms(c)
DAV:   1    -0.140393934652E+03   -0.22418E-03   -0.34892E-02 14208   0.843E-01    0.357E-02
DAV:   2    -0.140393947801E+03   -0.13149E-04   -0.31105E-04 15936   0.781E-02    0.246E-02
DAV:   3    -0.140393945534E+03    0.22671E-05   -0.20174E-05 15648   0.200E-02    0.632E-03
DAV:   4    -0.140393945886E+03   -0.35158E-06   -0.44056E-06 14496   0.116E-02
  78 F= -.14228347E+03 E0= -.14228210E+03  d E =-.587470E-04  mag=     0.0000
       N       E                     dE             d eps       ncg     rms          rms(c)
DAV:   1    -0.140393853368E+03    0.92167E-04   -0.86060E-03 14208   0.415E-01    0.180E-02
DAV:   2    -0.140393855907E+03   -0.25395E-05   -0.83568E-05 14208   0.408E-02    0.121E-02
DAV:   3    -0.140393855100E+03    0.80746E-06   -0.66823E-06 14784   0.121E-02
  79 F= -.14228350E+03 E0= -.14228213E+03  d E =-.363810E-04  mag=    -0.0000
       N       E                     dE             d eps       ncg     rms          rms(c)
DAV:   1    -0.140393564768E+03    0.29114E-03   -0.56457E-02 14208   0.106E+00    0.476E-02
DAV:   2    -0.140393582981E+03   -0.18213E-04   -0.53174E-04 16128   0.102E-01    0.320E-02
DAV:   3    -0.140393579511E+03    0.34699E-05   -0.37890E-05 16176   0.263E-02    0.893E-03
DAV:   4    -0.140393580034E+03   -0.52245E-06   -0.70610E-06 15072   0.138E-02
  80 F= -.14228355E+03 E0= -.14228218E+03  d E =-.865600E-04  mag=    -0.0000
       N       E                     dE             d eps       ncg     rms          rms(c)
DAV:   1    -0.140393514614E+03    0.64897E-04   -0.68443E-03 14208   0.371E-01    0.167E-02
DAV:   2    -0.140393517130E+03   -0.25161E-05   -0.67198E-05 14592   0.378E-02    0.112E-02
DAV:   3    -0.140393516655E+03    0.47553E-06   -0.71217E-06 15840   0.140E-02
  81 F= -.14228359E+03 E0= -.14228222E+03  d E =-.402116E-04  mag=     0.0000
       N       E                     dE             d eps       ncg     rms          rms(c)
DAV:   1    -0.140393278287E+03    0.23884E-03   -0.61371E-02 14208   0.111E+00    0.497E-02
DAV:   2    -0.140393297585E+03   -0.19298E-04   -0.56962E-04 17808   0.106E-01    0.332E-02
DAV:   3    -0.140393293623E+03    0.39619E-05   -0.41761E-05 16896   0.280E-02    0.857E-03
DAV:   4    -0.140393294139E+03   -0.51555E-06   -0.11040E-05 15264   0.183E-02    0.332E-03
DAV:   5    -0.140393294076E+03    0.62258E-07   -0.45095E-06 14304   0.122E-02
  82 F= -.14228368E+03 E0= -.14228231E+03  d E =-.128625E-03  mag=    -0.0000
       N       E                     dE             d eps       ncg     rms          rms(c)
DAV:   1    -0.140392640785E+03    0.65335E-03   -0.24554E-01 14208   0.222E+00    0.988E-02
DAV:   2    -0.140392715521E+03   -0.74737E-04   -0.22547E-03 19200   0.207E-01    0.658E-02
DAV:   3    -0.140392693237E+03    0.22284E-04   -0.15183E-04 16128   0.475E-02    0.165E-02
DAV:   4    -0.140392695428E+03   -0.21904E-05   -0.18154E-05 19680   0.160E-02    0.557E-03
DAV:   5    -0.140392695395E+03    0.32626E-07   -0.16577E-06 17808   0.537E-03
  83 F= -.14228371E+03 E0= -.14228234E+03  d E =-.152596E-03  mag=     0.0000
       N       E                     dE             d eps       ncg     rms          rms(c)
DAV:   1    -0.140392942141E+03   -0.24671E-03   -0.36393E-02 14208   0.854E-01    0.381E-02
DAV:   2    -0.140392952120E+03   -0.99799E-05   -0.33392E-04 16800   0.804E-02    0.253E-02
DAV:   3    -0.140392949781E+03    0.23392E-05   -0.24099E-05 15936   0.198E-02    0.649E-03
DAV:   4    -0.140392950166E+03   -0.38508E-06   -0.33911E-06 16800   0.876E-03
  84 F= -.14228372E+03 E0= -.14228235E+03  d E =-.167485E-03  mag=     0.0000
       N       E                     dE             d eps       ncg     rms          rms(c)
DAV:   1    -0.140392874524E+03    0.75257E-04   -0.61074E-03 14304   0.350E-01    0.152E-02
DAV:   2    -0.140392876436E+03   -0.19117E-05   -0.58633E-05 15312   0.342E-02    0.102E-02
DAV:   3    -0.140392875761E+03    0.67506E-06   -0.51511E-06 15648   0.106E-02
  85 F= -.14228375E+03 E0= -.14228238E+03  d E =-.267193E-04  mag=    -0.0000
       N       E                     dE             d eps       ncg     rms          rms(c)
DAV:   1    -0.140392625168E+03    0.25127E-03   -0.55183E-02 14208   0.105E+00    0.470E-02
DAV:   2    -0.140392642328E+03   -0.17160E-04   -0.51427E-04 17520   0.996E-02    0.316E-02
DAV:   3    -0.140392638917E+03    0.34105E-05   -0.38745E-05 16704   0.254E-02    0.747E-03
DAV:   4    -0.140392639401E+03   -0.48359E-06   -0.68623E-06 14208   0.133E-02
  86 F= -.14228382E+03 E0= -.14228245E+03  d E =-.938229E-04  mag=    -0.0000
       N       E                     dE             d eps       ncg     rms          rms(c)
DAV:   1    -0.140392051804E+03    0.58711E-03   -0.22082E-01 14208   0.210E+00    0.938E-02
DAV:   2    -0.140392121838E+03   -0.70034E-04   -0.20388E-03 18720   0.197E-01    0.630E-02
DAV:   3    -0.140392103116E+03    0.18723E-04   -0.14934E-04 17088   0.475E-02    0.144E-02
DAV:   4    -0.140392104269E+03   -0.11536E-05   -0.20237E-05 16896   0.196E-02    0.552E-03
DAV:   5    -0.140392104240E+03    0.29300E-07   -0.39343E-06 16176   0.107E-02
  87 F= -.14228389E+03 E0= -.14228252E+03  d E =-.166421E-03  mag=     0.0000
       N       E                     dE             d eps       ncg     rms          rms(c)
DAV:   1    -0.140391847261E+03    0.25701E-03   -0.38317E-02 14208   0.876E-01    0.387E-02
DAV:   2    -0.140391859254E+03   -0.11993E-04   -0.36361E-04 18336   0.836E-02    0.262E-02
DAV:   3    -0.140391856994E+03    0.22599E-05   -0.26425E-05 16992   0.206E-02    0.624E-03
DAV:   4    -0.140391857225E+03   -0.23012E-06   -0.44805E-06 15552   0.105E-02
  88 F= -.14228389E+03 E0= -.14228253E+03  d E =-.172927E-03  mag=     0.0000
       N       E                     dE             d eps       ncg     rms          rms(c)
DAV:   1    -0.140391646972E+03    0.21002E-03   -0.38067E-02 14208   0.871E-01    0.393E-02
DAV:   2    -0.140391658349E+03   -0.11377E-04   -0.37085E-04 18144   0.845E-02    0.263E-02
DAV:   3    -0.140391656195E+03    0.21547E-05   -0.25677E-05 16992   0.208E-02    0.680E-03
DAV:   4    -0.140391656554E+03   -0.35963E-06   -0.47846E-06 15312   0.112E-02
  89 F= -.14228398E+03 E0= -.14228262E+03  d E =-.865846E-04  mag=    -0.0000
       N       E                     dE             d eps       ncg     rms          rms(c)
DAV:   1    -0.140390861476E+03    0.79472E-03   -0.34245E-01 14208   0.261E+00    0.118E-01
DAV:   2    -0.140390964571E+03   -0.10309E-03   -0.32519E-03 18864   0.249E-01    0.783E-02
DAV:   3    -0.140390932968E+03    0.31603E-04   -0.22181E-04 16992   0.577E-02    0.195E-02
DAV:   4    -0.140390935798E+03   -0.28302E-05   -0.28536E-05 19296   0.218E-02    0.670E-03
DAV:   5    -0.140390935372E+03    0.42567E-06   -0.42577E-06 18720   0.107E-02
  90 F= -.14228412E+03 E0= -.14228276E+03  d E =-.228174E-03  mag=    -0.0000
       N       E                     dE             d eps       ncg     rms          rms(c)
DAV:   1    -0.140390668545E+03    0.26725E-03   -0.74200E-02 14208   0.122E+00    0.546E-02
DAV:   2    -0.140390690090E+03   -0.21545E-04   -0.71236E-04 18960   0.117E-01    0.363E-02
DAV:   3    -0.140390684989E+03    0.51006E-05   -0.48574E-05 16704   0.274E-02    0.942E-03
DAV:   4    -0.140390685552E+03   -0.56232E-06   -0.69881E-06 17184   0.121E-02
  91 F= -.14228427E+03 E0= -.14228291E+03  d E =-.148646E-03  mag=    -0.0000
       N       E                     dE             d eps       ncg     rms          rms(c)
DAV:   1    -0.140390132579E+03    0.55241E-03   -0.17150E-01 14208   0.185E+00    0.836E-02
DAV:   2    -0.140390184340E+03   -0.51762E-04   -0.16269E-03 18624   0.177E-01    0.555E-02
DAV:   3    -0.140390169364E+03    0.14976E-04   -0.11237E-04 17040   0.417E-02    0.141E-02
DAV:   4    -0.140390170862E+03   -0.14974E-05   -0.15806E-05 17472   0.181E-02    0.511E-03
DAV:   5    -0.140390170777E+03    0.84918E-07   -0.36224E-06 15888   0.107E-02
  92 F= -.14228436E+03 E0= -.14228300E+03  d E =-.240187E-03  mag=     0.0000
       N       E                     dE             d eps       ncg     rms          rms(c)
DAV:   1    -0.140389945735E+03    0.22513E-03   -0.43462E-02 14208   0.930E-01    0.419E-02
DAV:   2    -0.140389957703E+03   -0.11968E-04   -0.43011E-04 18912   0.901E-02    0.280E-02
DAV:   3    -0.140389955483E+03    0.22204E-05   -0.30704E-05 16416   0.213E-02    0.707E-03
DAV:   4    -0.140389955813E+03   -0.33048E-06   -0.41166E-06 17568   0.857E-03
  93 F= -.14228442E+03 E0= -.14228306E+03  d E =-.582665E-04  mag=     0.0000
       N       E                     dE             d eps       ncg     rms          rms(c)
DAV:   1    -0.140389632367E+03    0.32312E-03   -0.65924E-02 14208   0.115E+00    0.521E-02
DAV:   2    -0.140389650396E+03   -0.18029E-04   -0.64044E-04 18384   0.110E-01    0.346E-02
DAV:   3    -0.140389646368E+03    0.40281E-05   -0.47206E-05 16752   0.267E-02    0.854E-03
DAV:   4    -0.140389646739E+03   -0.37090E-06   -0.67089E-06 16560   0.115E-02
  94 F= -.14228445E+03 E0= -.14228309E+03  d E =-.857674E-04  mag=    -0.0000
       N       E                     dE             d eps       ncg     rms          rms(c)
DAV:   1    -0.140389459237E+03    0.18713E-03   -0.23600E-02 14208   0.685E-01    0.311E-02
DAV:   2    -0.140389466995E+03   -0.77583E-05   -0.23685E-04 17616   0.675E-02    0.208E-02
DAV:   3    -0.140389465554E+03    0.14412E-05   -0.17195E-05 16992   0.173E-02    0.549E-03
DAV:   4    -0.140389465782E+03   -0.22776E-06   -0.34461E-06 15216   0.965E-03
  95 F= -.14228449E+03 E0= -.14228314E+03  d E =-.454542E-04  mag=    -0.0000
       N       E                     dE             d eps       ncg     rms          rms(c)
DAV:   1    -0.140389147497E+03    0.31806E-03   -0.50537E-02 14208   0.100E+00    0.454E-02
DAV:   2    -0.140389163179E+03   -0.15682E-04   -0.50008E-04 18720   0.974E-02    0.304E-02
DAV:   3    -0.140389159894E+03    0.32847E-05   -0.34895E-05 16656   0.231E-02    0.761E-03
DAV:   4    -0.140389160314E+03   -0.41967E-06   -0.49195E-06 16848   0.956E-03
  96 F= -.14228452E+03 E0= -.14228317E+03  d E =-.717245E-04  mag=     0.0000
       N       E                     dE             d eps       ncg     rms          rms(c)
DAV:   1    -0.140389040903E+03    0.11899E-03   -0.88309E-03 15216   0.419E-01    0.190E-02
DAV:   2    -0.140389043705E+03   -0.28022E-05   -0.84870E-05 16896   0.403E-02    0.127E-02
DAV:   3    -0.140389043000E+03    0.70554E-06   -0.65751E-06 16560   0.112E-02
  97 F= -.14228455E+03 E0= -.14228320E+03  d E =-.303435E-04  mag=    -0.0000
       N       E                     dE             d eps       ncg     rms          rms(c)
DAV:   1    -0.140388636736E+03    0.40697E-03   -0.79266E-02 14208   0.126E+00    0.566E-02
DAV:   2    -0.140388662405E+03   -0.25668E-04   -0.76551E-04 18528   0.121E-01    0.378E-02
DAV:   3    -0.140388656280E+03    0.61250E-05   -0.51815E-05 16896   0.286E-02    0.961E-03
DAV:   4    -0.140388656832E+03   -0.55223E-06   -0.79410E-06 17088   0.134E-02
  98 F= -.14228461E+03 E0= -.14228325E+03  d E =-.873658E-04  mag=     0.0000
       N       E                     dE             d eps       ncg     rms          rms(c)
DAV:   1    -0.140387653380E+03    0.10029E-02   -0.31713E-01 14208   0.251E+00    0.113E-01
DAV:   2    -0.140387752399E+03   -0.99019E-04   -0.30304E-03 18960   0.240E-01    0.752E-02
DAV:   3    -0.140387725014E+03    0.27384E-04   -0.20534E-04 17088   0.554E-02    0.188E-02
DAV:   4    -0.140387727263E+03   -0.22488E-05   -0.26694E-05 19392   0.215E-02    0.665E-03
DAV:   5    -0.140387726898E+03    0.36538E-06   -0.40593E-06 18336   0.105E-02
  99 F= -.14228457E+03 E0= -.14228322E+03  d E =-.451440E-04  mag=     0.0000
       N       E                     dE             d eps       ncg     rms          rms(c)
DAV:   1    -0.140388382254E+03   -0.65499E-03   -0.16612E-01 14208   0.182E+00    0.813E-02
DAV:   2    -0.140388432290E+03   -0.50036E-04   -0.16027E-03 17664   0.174E-01    0.541E-02
DAV:   3    -0.140388420382E+03    0.11907E-04   -0.11395E-04 15648   0.417E-02    0.137E-02
DAV:   4    -0.140388422108E+03   -0.17255E-05   -0.13952E-05 18000   0.154E-02    0.494E-03
DAV:   5    -0.140388422129E+03   -0.21567E-07   -0.20380E-06 16224   0.743E-03
 100 F= -.14228462E+03 E0= -.14228327E+03  d E =-.973435E-04  mag=    -0.0000
       N       E                     dE             d eps       ncg     rms          rms(c)
DAV:   1    -0.140388363799E+03    0.58309E-04   -0.24823E-03 18096   0.221E-01    0.107E-02
DAV:   2    -0.140388364008E+03   -0.20892E-06   -0.22592E-05 18384   0.207E-02    0.674E-03
DAV:   3    -0.140388363701E+03    0.30671E-06   -0.21700E-06 15072   0.654E-03
 101 F= -.14228463E+03 E0= -.14228328E+03  d E =-.170149E-04  mag=     0.0000
       N       E                     dE             d eps       ncg     rms          rms(c)
DAV:   1    -0.140388254790E+03    0.10922E-03   -0.61316E-03 14544   0.348E-01    0.166E-02
DAV:   2    -0.140388256435E+03   -0.16453E-05   -0.65463E-05 16704   0.358E-02    0.109E-02
DAV:   3    -0.140388255901E+03    0.53423E-06   -0.52925E-06 16128   0.102E-02
 102 F= -.14228465E+03 E0= -.14228329E+03  d E =-.277507E-04  mag=    -0.0000
       N       E                     dE             d eps       ncg     rms          rms(c)
DAV:   1    -0.140388200791E+03    0.55645E-04   -0.21693E-03 14208   0.209E-01    0.982E-03
DAV:   2    -0.140388201730E+03   -0.93942E-06   -0.22804E-05 14976   0.219E-02    0.666E-03
DAV:   3    -0.140388201335E+03    0.39505E-06   -0.24340E-06 15024   0.826E-03
 103 F= -.14228466E+03 E0= -.14228331E+03  d E =-.144583E-04  mag=     0.0000
       N       E                     dE             d eps       ncg     rms          rms(c)
DAV:   1    -0.140388112765E+03    0.88965E-04   -0.41012E-03 14208   0.287E-01    0.129E-02
DAV:   2    -0.140388114382E+03   -0.16169E-05   -0.42393E-05 14208   0.294E-02    0.871E-03
DAV:   3    -0.140388113871E+03    0.51131E-06   -0.38503E-06 15168   0.993E-03
 104 F= -.14228467E+03 E0= -.14228331E+03  d E =-.220030E-04  mag=    -0.0000
       N       E                     dE             d eps       ncg     rms          rms(c)
DAV:   1    -0.140388031044E+03    0.83339E-04   -0.37559E-03 14208   0.276E-01    0.119E-02
DAV:   2    -0.140388032638E+03   -0.15941E-05   -0.37581E-05 14496   0.284E-02    0.812E-03
DAV:   3    -0.140388032165E+03    0.47255E-06   -0.36139E-06 15360   0.103E-02
 105 F= -.14228468E+03 E0= -.14228333E+03  d E =-.143461E-04  mag=     0.0000
       N       E                     dE             d eps       ncg     rms          rms(c)
DAV:   1    -0.140387937529E+03    0.95109E-04   -0.39643E-03 14208   0.283E-01    0.122E-02
DAV:   2    -0.140387939234E+03   -0.17045E-05   -0.39738E-05 15168   0.294E-02    0.828E-03
DAV:   3    -0.140387938821E+03    0.41251E-06   -0.39646E-06 15456   0.109E-02
 106 F= -.14228469E+03 E0= -.14228334E+03  d E =-.197764E-04  mag=    -0.0000
       N       E                     dE             d eps       ncg     rms          rms(c)
DAV:   1    -0.140387878173E+03    0.61060E-04   -0.18327E-03 14208   0.193E-01    0.846E-03
DAV:   2    -0.140387879159E+03   -0.98551E-06   -0.20899E-05 14784   0.222E-02    0.580E-03
DAV:   3    -0.140387878832E+03    0.32669E-06   -0.30221E-06 14784   0.987E-03
 107 F= -.14228470E+03 E0= -.14228334E+03  d E =-.929501E-05  mag=     0.0000
       N       E                     dE             d eps       ncg     rms          rms(c)
DAV:   1    -0.140387831595E+03    0.47564E-04   -0.90948E-04 14208   0.136E-01    0.603E-03
DAV:   2    -0.140387832183E+03   -0.58744E-06   -0.10677E-05 15744   0.163E-02    0.414E-03
DAV:   3    -0.140387831855E+03    0.32782E-06   -0.18640E-06 15648   0.786E-03
 108 F= -.14228470E+03 E0= -.14228335E+03  d E =-.111692E-04  mag=    -0.0000
       N       E                     dE             d eps       ncg     rms          rms(c)
DAV:   1    -0.140387778454E+03    0.53729E-04   -0.15008E-03 14400   0.175E-01    0.748E-03
DAV:   2    -0.140387779249E+03   -0.79519E-06   -0.15876E-05 16128   0.186E-02    0.515E-03
DAV:   3    -0.140387778920E+03    0.32885E-06   -0.16696E-06 16128   0.718E-03
 109 F= -.14228471E+03 E0= -.14228335E+03  d E =-.861616E-05  mag=     0.0000
       N       E                     dE             d eps       ncg     rms          rms(c)
DAV:   1    -0.140387696973E+03    0.82276E-04   -0.28873E-03 14208   0.242E-01    0.103E-02
DAV:   2    -0.140387698417E+03   -0.14437E-05   -0.30358E-05 15744   0.253E-02    0.712E-03
DAV:   3    -0.140387698030E+03    0.38679E-06   -0.26540E-06 15744   0.876E-03
 110 F= -.14228471E+03 E0= -.14228336E+03  d E =-.131499E-04  mag=    -0.0000
       N       E                     dE             d eps       ncg     rms          rms(c)
DAV:   1    -0.140387638607E+03    0.59809E-04   -0.18334E-03 14208   0.191E-01    0.849E-03
DAV:   2    -0.140387639560E+03   -0.95241E-06   -0.20660E-05 14976   0.216E-02    0.583E-03
DAV:   3    -0.140387639234E+03    0.32546E-06   -0.24847E-06 14976   0.889E-03
 111 F= -.14228472E+03 E0= -.14228337E+03  d E =-.897070E-05  mag=     0.0000
       N       E                     dE             d eps       ncg     rms          rms(c)
DAV:   1    -0.140387562193E+03    0.77367E-04   -0.25542E-03 14208   0.226E-01    0.100E-02
DAV:   2    -0.140387563443E+03   -0.12497E-05   -0.28457E-05 14496   0.251E-02    0.685E-03
DAV:   3    -0.140387563112E+03    0.33085E-06   -0.32336E-06 14496   0.100E-02
 112 F= -.14228472E+03 E0= -.14228337E+03  d E =-.127706E-04  mag=    -0.0000
       N       E                     dE             d eps       ncg     rms          rms(c)
DAV:   1    -0.140387503091E+03    0.60352E-04   -0.14987E-03 14208   0.174E-01    0.770E-03
DAV:   2    -0.140387503939E+03   -0.84863E-06   -0.17182E-05 14496   0.203E-02    0.537E-03
DAV:   3    -0.140387503761E+03    0.17787E-06   -0.27674E-06 14496   0.969E-03
 113 F= -.14228473E+03 E0= -.14228338E+03  d E =-.798489E-05  mag=     0.0000
       N       E                     dE             d eps       ncg     rms          rms(c)
DAV:   1    -0.140387324335E+03    0.17960E-03   -0.11128E-02 14208   0.472E-01    0.202E-02
DAV:   2    -0.140387329763E+03   -0.54282E-05   -0.11623E-04 15648   0.482E-02    0.140E-02
DAV:   3    -0.140387328952E+03    0.81111E-06   -0.76906E-06 15648   0.140E-02
 114 F= -.14228474E+03 E0= -.14228339E+03  d E =-.168382E-04  mag=    -0.0000
       N       E                     dE             d eps       ncg     rms          rms(c)
DAV:   1    -0.140387305220E+03    0.24543E-04   -0.26373E-04 14592   0.740E-02    0.377E-03
DAV:   2    -0.140387305446E+03   -0.22617E-06   -0.48761E-06 14304   0.126E-02
 115 F= -.14228474E+03 E0= -.14228339E+03  d E =-.373052E-05  mag=    -0.0000
       N       E                     dE             d eps       ncg     rms          rms(c)
DAV:   1    -0.140387231822E+03    0.73399E-04   -0.23411E-03 14208   0.218E-01    0.100E-02
DAV:   2    -0.140387233030E+03   -0.12084E-05   -0.26048E-05 14976   0.244E-02    0.696E-03
DAV:   3    -0.140387232867E+03    0.16286E-06   -0.36371E-06 15600   0.109E-02
 116 F= -.14228475E+03 E0= -.14228340E+03  d E =-.128613E-04  mag=     0.0000
       N       E                     dE             d eps       ncg     rms          rms(c)
DAV:   1    -0.140387078149E+03    0.15488E-03   -0.93596E-03 14208   0.434E-01    0.183E-02
DAV:   2    -0.140387082909E+03   -0.47595E-05   -0.97019E-05 15888   0.447E-02    0.128E-02
DAV:   3    -0.140387082304E+03    0.60426E-06   -0.70174E-06 15936   0.140E-02
 117 F= -.14228477E+03 E0= -.14228342E+03  d E =-.257439E-04  mag=    -0.0000
       N       E                     dE             d eps       ncg     rms          rms(c)
DAV:   1    -0.140386743287E+03    0.33962E-03   -0.37432E-02 14208   0.868E-01    0.366E-02
DAV:   2    -0.140386761660E+03   -0.18373E-04   -0.38207E-04 16752   0.867E-02    0.256E-02
DAV:   3    -0.140386759959E+03    0.17014E-05   -0.22265E-05 16080   0.230E-02    0.780E-03
DAV:   4    -0.140386759987E+03   -0.28322E-07   -0.93577E-06 16416   0.175E-02
 118 F= -.14228477E+03 E0= -.14228342E+03  d E =-.303999E-04  mag=    -0.0000
       N       E                     dE             d eps       ncg     rms          rms(c)
DAV:   1    -0.140386901705E+03   -0.14175E-03   -0.71206E-03 14928   0.379E-01    0.155E-02
DAV:   2    -0.140386904837E+03   -0.31318E-05   -0.73115E-05 17184   0.381E-02    0.107E-02
DAV:   3    -0.140386904263E+03    0.57416E-06   -0.50781E-06 16560   0.114E-02
 119 F= -.14228477E+03 E0= -.14228342E+03  d E =-.319330E-04  mag=     0.0000
       N       E                     dE             d eps       ncg     rms          rms(c)
DAV:   1    -0.140386851866E+03    0.52971E-04   -0.16308E-03 15984   0.181E-01    0.724E-03
DAV:   2    -0.140386852546E+03   -0.68089E-06   -0.18279E-05 15072   0.208E-02    0.488E-03
DAV:   3    -0.140386852315E+03    0.23126E-06   -0.29511E-06 14592   0.978E-03
 120 F= -.14228478E+03 E0= -.14228343E+03  d E =-.953350E-05  mag=    -0.0000
       N       E                     dE             d eps       ncg     rms          rms(c)
DAV:   1    -0.140386679353E+03    0.17319E-03   -0.14617E-02 14208   0.542E-01    0.230E-02
DAV:   2    -0.140386686381E+03   -0.70284E-05   -0.15163E-04 17328   0.550E-02    0.160E-02
DAV:   3    -0.140386685052E+03    0.13291E-05   -0.96497E-06 16368   0.150E-02    0.492E-03
DAV:   4    -0.140386685241E+03   -0.18859E-06   -0.40708E-06 14208   0.115E-02
 121 F= -.14228480E+03 E0= -.14228345E+03  d E =-.268708E-04  mag=    -0.0000
       N       E                     dE             d eps       ncg     rms          rms(c)
DAV:   1    -0.140386600616E+03    0.84436E-04   -0.31744E-03 14928   0.253E-01    0.109E-02
DAV:   2    -0.140386602145E+03   -0.15290E-05   -0.33034E-05 17232   0.259E-02    0.752E-03
DAV:   3    -0.140386601739E+03    0.40619E-06   -0.25307E-06 16704   0.818E-03
 122 F= -.14228480E+03 E0= -.14228346E+03  d E =-.291611E-04  mag=     0.0000
       N       E                     dE             d eps       ncg     rms          rms(c)
DAV:   1    -0.140386542574E+03    0.59571E-04   -0.17675E-03 14208   0.189E-01    0.818E-03
DAV:   2    -0.140386543651E+03   -0.10768E-05   -0.19037E-05 15168   0.204E-02    0.574E-03
DAV:   3    -0.140386543322E+03    0.32868E-06   -0.19849E-06 15216   0.793E-03
 123 F= -.14228481E+03 E0= -.14228347E+03  d E =-.975761E-05  mag=    -0.0000
       N       E                     dE             d eps       ncg     rms          rms(c)
DAV:   1    -0.140386354644E+03    0.18901E-03   -0.15889E-02 14208   0.565E-01    0.238E-02
DAV:   2    -0.140386362461E+03   -0.78162E-05   -0.16157E-04 16080   0.563E-02    0.166E-02
DAV:   3    -0.140386361188E+03    0.12726E-05   -0.94497E-06 15888   0.147E-02    0.511E-03
DAV:   4    -0.140386361292E+03   -0.10416E-06   -0.33349E-06 14400   0.104E-02
 124 F= -.14228483E+03 E0= -.14228349E+03  d E =-.323166E-04  mag=    -0.0000
       N       E                     dE             d eps       ncg     rms          rms(c)
DAV:   1    -0.140385940956E+03    0.42023E-03   -0.63630E-02 14208   0.113E+00    0.477E-02
DAV:   2    -0.140385970595E+03   -0.29639E-04   -0.63822E-04 17424   0.111E-01    0.332E-02
DAV:   3    -0.140385966368E+03    0.42270E-05   -0.33024E-05 16416   0.247E-02    0.982E-03
DAV:   4    -0.140385966379E+03   -0.10800E-07   -0.61705E-06 16992   0.126E-02
 125 F= -.14228485E+03 E0= -.14228351E+03  d E =-.464965E-04  mag=    -0.0000
       N       E                     dE             d eps       ncg     rms          rms(c)
DAV:   1    -0.140385891108E+03    0.75261E-04   -0.24546E-03 14256   0.222E-01    0.971E-03
DAV:   2    -0.140385892734E+03   -0.16261E-05   -0.26537E-05 15744   0.237E-02    0.684E-03
DAV:   3    -0.140385892301E+03    0.43233E-06   -0.22318E-06 16656   0.828E-03
 126 F= -.14228486E+03 E0= -.14228352E+03  d E =-.953391E-05  mag=     0.0000
       N       E                     dE             d eps       ncg     rms          rms(c)
DAV:   1    -0.140385656162E+03    0.23657E-03   -0.21929E-02 14208   0.663E-01    0.280E-02
DAV:   2    -0.140385667248E+03   -0.11086E-04   -0.22135E-04 17424   0.654E-02    0.197E-02
DAV:   3    -0.140385665539E+03    0.17094E-05   -0.11627E-05 16464   0.156E-02    0.587E-03
DAV:   4    -0.140385665584E+03   -0.45784E-07   -0.32498E-06 15168   0.100E-02
 127 F= -.14228488E+03 E0= -.14228354E+03  d E =-.336909E-04  mag=     0.0000
       N       E                     dE             d eps       ncg     rms          rms(c)
DAV:   1    -0.140385154945E+03    0.51059E-03   -0.87826E-02 14208   0.133E+00    0.562E-02
DAV:   2    -0.140385196460E+03   -0.41515E-04   -0.87759E-04 18912   0.129E-01    0.394E-02
DAV:   3    -0.140385190601E+03    0.58594E-05   -0.42344E-05 16464   0.268E-02    0.110E-02
DAV:   4    -0.140385190785E+03   -0.18387E-06   -0.62237E-06 17136   0.109E-02
 128 F= -.14228491E+03 E0= -.14228357E+03  d E =-.608886E-04  mag=     0.0000
