 ----------------------------------------------------
    OOO  PPPP  EEEEE N   N M   M PPPP
   O   O P   P E     NN  N MM MM P   P
   O   O PPPP  EEEEE N N N M M M PPPP   -- VERSION
   O   O P     E     N  NN M   M P
    OOO  P     EEEEE N   N M   M P
 ----------------------------------------------------
 running   48 mpi-ranks, with    1 threads/rank
 distrk:  each k-point on   48 cores,    1 groups
 distr:  one band on    1 cores,   48 groups
 vasp.6.3.2 27Jun22 (build Dec 22 2022 13:13:19) complex                        
  
 POSCAR found type information on POSCAR B C 
 POSCAR found :  2 types and      16 ions
 Reading from existing POTCAR
 -----------------------------------------------------------------------------
|                                                                             |
|           W    W    AA    RRRRR   N    N  II  N    N   GGGG   !!!           |
|           W    W   A  A   R    R  NN   N  II  NN   N  G    G  !!!           |
|           W    W  A    A  R    R  N N  N  II  N N  N  G       !!!           |
|           W WW W  AAAAAA  RRRRR   N  N N  II  N  N N  G  GGG   !            |
|           WW  WW  A    A  R   R   N   NN  II  N   NN  G    G                |
|           W    W  A    A  R    R  N    N  II  N    N   GGGG   !!!           |
|                                                                             |
|     You use a magnetic or noncollinear calculation, but did not specify     |
|     the initial magnetic moment with the MAGMOM tag. Note that a            |
|     default of 1 will be used for all atoms. This ferromagnetic setup       |
|     may break the symmetry of the crystal, in particular it may rule        |
|     out finding an antiferromagnetic solution. Thence, we recommend         |
|     setting the initial magnetic moment manually or verifying carefully     |
|     that this magnetic setup is desired.                                    |
|                                                                             |
 -----------------------------------------------------------------------------

 scaLAPACK will be used
 Reading from existing POTCAR
 LDA part: xc-table for Pade appr. of Perdew
 POSCAR found type information on POSCAR B C 
 POSCAR found :  2 types and      16 ions
 POSCAR, INCAR and KPOINTS ok, starting setup
 FFT: planning ... GRIDC
 FFT: planning ... GRID_SOFT
 FFT: planning ... GRID
 WAVECAR not read
 entering main loop
       N       E                     dE             d eps       ncg     rms          rms(c)
DAV:   1     0.187605546074E+03    0.18761E+03   -0.25376E+04  8256   0.862E+02
DAV:   2    -0.118365468235E+03   -0.30597E+03   -0.30510E+03 12960   0.158E+02
DAV:   3    -0.127822923101E+03   -0.94575E+01   -0.94342E+01 14352   0.368E+01
DAV:   4    -0.127844041749E+03   -0.21119E-01   -0.21115E-01 12864   0.162E+00
DAV:   5    -0.127844076308E+03   -0.34558E-04   -0.34558E-04 13152   0.672E-02    0.227E+01
DAV:   6    -0.945435291232E+02    0.33301E+02   -0.57392E+01 10464   0.216E+01    0.123E+01
DAV:   7    -0.105701759870E+03   -0.11158E+02   -0.14034E+01 12720   0.111E+01    0.670E+00
DAV:   8    -0.111494951328E+03   -0.57932E+01   -0.50329E+00 12144   0.643E+00    0.374E+00
DAV:   9    -0.116793631276E+03   -0.52987E+01   -0.28362E+00 10416   0.472E+00    0.253E+00
DAV:  10    -0.120921660835E+03   -0.41280E+01   -0.31772E+00 12528   0.471E+00    0.135E+00
DAV:  11    -0.122781683766E+03   -0.18600E+01   -0.14483E+00 12000   0.282E+00    0.818E-01
DAV:  12    -0.123760147683E+03   -0.97846E+00   -0.78322E-01 13344   0.192E+00    0.402E-01
DAV:  13    -0.124066549024E+03   -0.30640E+00   -0.18979E-01 12432   0.963E-01    0.195E-01
DAV:  14    -0.124121292046E+03   -0.54743E-01   -0.30004E-02 10416   0.402E-01    0.108E-01
DAV:  15    -0.124144688043E+03   -0.23396E-01   -0.14401E-02  9792   0.293E-01    0.576E-02
DAV:  16    -0.124146188812E+03   -0.15008E-02   -0.22257E-03 10032   0.179E-01    0.371E-02
DAV:  17    -0.124146729241E+03   -0.54043E-03   -0.76284E-04  9168   0.971E-02    0.152E-02
DAV:  18    -0.124146751938E+03   -0.22697E-04   -0.16449E-04  9024   0.476E-02    0.849E-03
DAV:  19    -0.124146798729E+03   -0.46791E-04   -0.43256E-05  8352   0.290E-02    0.510E-03
DAV:  20    -0.124146822317E+03   -0.23587E-04   -0.23439E-05  9024   0.199E-02    0.361E-03
DAV:  21    -0.124146873424E+03   -0.51108E-04   -0.19622E-05  8544   0.176E-02    0.232E-03
DAV:  22    -0.124146899992E+03   -0.26568E-04   -0.62212E-06  9600   0.101E-02    0.137E-03
DAV:  23    -0.124146903979E+03   -0.39873E-05   -0.19601E-06 10608   0.554E-03    0.629E-04
DAV:  24    -0.124146907179E+03   -0.31997E-05   -0.46255E-07 10992   0.261E-03    0.337E-04
DAV:  25    -0.124146908460E+03   -0.12813E-05   -0.17803E-07 11280   0.154E-03    0.176E-04
DAV:  26    -0.124146908792E+03   -0.33131E-06   -0.79701E-08 12288   0.112E-03
   1 F= -.12563439E+03 E0= -.12563136E+03  d E =-.125634E+03  mag=     0.0000
 curvature:   0.00 expect dE= 0.000E+00 dE for cont linesearch  0.000E+00
 trial: gam= 0.00000 g(F)=  0.741E-02 g(S)=  0.000E+00 ort = 0.000E+00 (trialstep = 0.100E+01)
 search vector abs. value=  0.741E-02
 bond charge predicted
       N       E                     dE             d eps       ncg     rms          rms(c)
DAV:   1    -0.124150157247E+03   -0.32488E-02   -0.55172E-01  8688   0.184E+00    0.250E-01
DAV:   2    -0.124147423362E+03    0.27339E-02   -0.13198E-02 12816   0.276E-01    0.110E-01
DAV:   3    -0.124146989944E+03    0.43342E-03   -0.20577E-03 12576   0.969E-02    0.304E-02
DAV:   4    -0.124146974405E+03    0.15538E-04   -0.15614E-04 12144   0.299E-02    0.109E-02
DAV:   5    -0.124146974107E+03    0.29824E-06   -0.76644E-06 12336   0.715E-03
   2 F= -.12563468E+03 E0= -.12563165E+03  d E =-.290823E-03  mag=     0.0000
 trial-energy change:   -0.000291  1 .order   -0.000289   -0.007413    0.006836
 step:   0.5203(harm=  0.5203)  dis= 0.00400  next Energy=  -125.636315 (dE=-0.193E-02)
 bond charge predicted
       N       E                     dE             d eps       ncg     rms          rms(c)
DAV:   1    -0.124149440024E+03   -0.24656E-02   -0.12619E-01  8448   0.880E-01    0.120E-01
DAV:   2    -0.124148815502E+03    0.62452E-03   -0.30853E-03 12720   0.134E-01    0.528E-02
DAV:   3    -0.124148716920E+03    0.98582E-04   -0.49119E-04 11232   0.471E-02    0.144E-02
DAV:   4    -0.124148714303E+03    0.26168E-05   -0.38790E-05 12528   0.148E-02    0.526E-03
DAV:   5    -0.124148714315E+03   -0.11264E-07   -0.16297E-06 12384   0.333E-03
   3 F= -.12563631E+03 E0= -.12563329E+03  d E =-.192372E-02  mag=     0.0000
 curvature:  -0.26 expect dE=-0.142E-04 dE for cont linesearch -0.348E-07
 ZBRENT: interpolating
 opt :   0.5225  next Energy=  -125.636310 (dE=-0.192E-02)
 bond charge predicted
       N       E                     dE             d eps       ncg     rms          rms(c)
DAV:   1    -0.124148713802E+03    0.50196E-06   -0.20448E-06 12576   0.392E-03    0.112E-03
DAV:   2    -0.124148713744E+03    0.57496E-07   -0.22356E-07 12912   0.992E-04
   4 F= -.12563631E+03 E0= -.12563329E+03  d E =-.192365E-02  mag=     0.0000
 curvature:  -0.26 expect dE=-0.143E-04 dE for cont linesearch -0.138E-07
 ZBRENT: interpolating
 opt :   0.5216  next Energy=  -125.636310 (dE=-0.192E-02)
 bond charge predicted
       N       E                     dE             d eps       ncg     rms          rms(c)
DAV:   1    -0.124148713961E+03   -0.15985E-06   -0.57197E-07 10656   0.182E-03    0.322E-04
DAV:   2    -0.124148713971E+03   -0.92787E-08   -0.14541E-08 11712   0.374E-04
   5 F= -.12563631E+03 E0= -.12563329E+03  d E =-.192368E-02  mag=     0.0000
 curvature:  -0.16 expect dE=-0.873E-05 dE for cont linesearch -0.791E-08
 ZBRENT: bisectioning
 opt :   0.5209  next Energy=  -125.636310 (dE=-0.192E-02)
 bond charge predicted
       N       E                     dE             d eps       ncg     rms          rms(c)
DAV:   1    -0.124148714140E+03   -0.17816E-06   -0.24125E-07 10416   0.124E-03    0.225E-04
DAV:   2    -0.124148714145E+03   -0.57785E-08   -0.69053E-09 10752   0.217E-04
   6 F= -.12563631E+03 E0= -.12563329E+03  d E =-.192370E-02  mag=     0.0000
 curvature:  -0.26 expect dE=-0.141E-04 dE for cont linesearch -0.365E-08
 trial: gam= 0.00879 g(F)=  0.549E-04 g(S)=  0.000E+00 ort =-0.103E-04 (trialstep = 0.904E+00)
 search vector abs. value=  0.552E-04
 bond charge predicted
       N       E                     dE             d eps       ncg     rms          rms(c)
DAV:   1    -0.124148720687E+03   -0.65470E-05   -0.44644E-03  8352   0.246E-01    0.118E-02
DAV:   2    -0.124148719675E+03    0.10118E-05   -0.51260E-05  9216   0.281E-02    0.727E-03
DAV:   3    -0.124148719043E+03    0.63133E-06   -0.66295E-06  9888   0.884E-03
   7 F= -.12563636E+03 E0= -.12563334E+03  d E =-.494666E-04  mag=    -0.0000
 ZBRENT: can't locate minimum, use default step
 trial-energy change:   -0.000049  1 .order   -0.000049   -0.000050   -0.000048
 step:   3.6167(harm= 24.1549)  dis= 0.00169  next Energy=  -125.636971 (dE=-0.661E-03)
 bond charge predicted
       N       E                     dE             d eps       ncg     rms          rms(c)
DAV:   1    -0.124148747005E+03   -0.27330E-04   -0.40324E-02  8352   0.740E-01    0.361E-02
DAV:   2    -0.124148737889E+03    0.91158E-05   -0.46118E-04  9600   0.845E-02    0.222E-02
DAV:   3    -0.124148732211E+03    0.56782E-05   -0.60280E-05 11280   0.265E-02    0.536E-03
DAV:   4    -0.124148732635E+03   -0.42379E-06   -0.71697E-06  9168   0.930E-03
   8 F= -.12563651E+03 E0= -.12563349E+03  d E =-.196863E-03  mag=    -0.0000
 curvature:  -2.68 expect dE=-0.170E-03 dE for cont linesearch -0.142E-03
 ZBRENT: increasing intervall
 opt :   9.0419  next Energy=  -125.636809 (dE=-0.499E-03)
 bond charge predicted
       N       E                     dE             d eps       ncg     rms          rms(c)
DAV:   1    -0.124148810800E+03   -0.78589E-04   -0.16082E-01  8256   0.148E+00    0.709E-02
DAV:   2    -0.124148779922E+03    0.30878E-04   -0.18558E-03  9600   0.169E-01    0.436E-02
DAV:   3    -0.124148752338E+03    0.27584E-04   -0.23678E-04 11232   0.525E-02    0.107E-02
DAV:   4    -0.124148753827E+03   -0.14887E-05   -0.27657E-05 11136   0.182E-02    0.457E-03
DAV:   5    -0.124148754431E+03   -0.60430E-06   -0.13383E-06  8928   0.390E-03
   9 F= -.12563680E+03 E0= -.12563378E+03  d E =-.487119E-03  mag=     0.0000
 curvature:  -5.68 expect dE=-0.637E-03 dE for cont linesearch -0.284E-03
 ZBRENT: increasing intervall
 opt :  19.8921  next Energy=  -125.637349 (dE=-0.104E-02)
 bond charge predicted
       N       E                     dE             d eps       ncg     rms          rms(c)
DAV:   1    -0.124149003455E+03   -0.24963E-03   -0.64313E-01  8256   0.296E+00    0.142E-01
DAV:   2    -0.124148893010E+03    0.11044E-03   -0.74433E-03  9600   0.338E-01    0.873E-02
DAV:   3    -0.124148776102E+03    0.11691E-03   -0.94941E-04 11040   0.105E-01    0.216E-02
DAV:   4    -0.124148778788E+03   -0.26855E-05   -0.11150E-04 12480   0.364E-02    0.914E-03
DAV:   5    -0.124148778071E+03    0.71715E-06   -0.50528E-06  9984   0.753E-03
  10 F= -.12563736E+03 E0= -.12563434E+03  d E =-.105121E-02  mag=    -0.0000
 curvature: -11.05 expect dE=-0.381E-02 dE for cont linesearch -0.501E-03
 ZBRENT: increasing intervall
 opt :  41.5926  next Energy=  -125.638394 (dE=-0.208E-02)
 bond charge predicted
       N       E                     dE             d eps       ncg     rms          rms(c)
DAV:   1    -0.124149667909E+03   -0.88912E-03   -0.25726E+00  8256   0.591E+00    0.284E-01
DAV:   2    -0.124149215450E+03    0.45246E-03   -0.29737E-02  9504   0.676E-01    0.174E-01
DAV:   3    -0.124148758552E+03    0.45690E-03   -0.38077E-03 11136   0.210E-01    0.424E-02
DAV:   4    -0.124148765934E+03   -0.73814E-05   -0.42860E-04 13440   0.725E-02    0.184E-02
DAV:   5    -0.124148760835E+03    0.50992E-05   -0.21123E-05 10944   0.159E-02    0.449E-03
DAV:   6    -0.124148760228E+03    0.60670E-06   -0.44427E-06 10080   0.804E-03
  11 F= -.12563844E+03 E0= -.12563542E+03  d E =-.212838E-02  mag=    -0.0000
 curvature: -22.77 expect dE=-0.307E-01 dE for cont linesearch -0.930E-03
 ZBRENT: increasing intervall
 opt :  84.9936  next Energy=  -125.640388 (dE=-0.408E-02)
 bond charge predicted
       N       E                     dE             d eps       ncg     rms          rms(c)
DAV:   1    -0.124152087907E+03   -0.33271E-02   -0.10284E+01  8256   0.118E+01    0.568E-01
DAV:   2    -0.124150368214E+03    0.17197E-02   -0.11920E-01 10416   0.135E+00    0.348E-01
DAV:   3    -0.124148461098E+03    0.19071E-02   -0.15280E-02 11952   0.417E-01    0.839E-02
DAV:   4    -0.124148474271E+03   -0.13172E-04   -0.15914E-03 13248   0.143E-01    0.375E-02
DAV:   5    -0.124148441204E+03    0.33067E-04   -0.77074E-05 11136   0.285E-02    0.730E-03
DAV:   6    -0.124148440145E+03    0.10587E-05   -0.16957E-05 10512   0.134E-02    0.447E-03
DAV:   7    -0.124148446265E+03   -0.61198E-05   -0.43553E-06 11424   0.821E-03    0.240E-03
DAV:   8    -0.124148461428E+03   -0.15164E-04   -0.41540E-06 10896   0.624E-03    0.191E-03
DAV:   9    -0.124148471838E+03   -0.10409E-04   -0.21652E-06 11376   0.547E-03    0.896E-04
DAV:  10    -0.124148484648E+03   -0.12810E-04   -0.57788E-06 10464   0.973E-03    0.637E-04
DAV:  11    -0.124148486910E+03   -0.22622E-05   -0.41571E-06 10896   0.877E-03    0.544E-04
DAV:  12    -0.124148490927E+03   -0.40166E-05   -0.10575E-06  9984   0.345E-03    0.165E-04
DAV:  13    -0.124148491159E+03   -0.23234E-06   -0.10014E-07 13776   0.126E-03
  12 F= -.12564042E+03 E0= -.12563741E+03  d E =-.410709E-02  mag=     0.0000
 curvature: -47.76 expect dE=-0.262E+00 dE for cont linesearch -0.149E-02
 ZBRENT: increasing intervall
 opt : 171.7956  next Energy=  -125.643511 (dE=-0.720E-02)
 bond charge predicted
       N       E                     dE             d eps       ncg     rms          rms(c)
DAV:   1    -0.124160245936E+03   -0.11755E-01   -0.41058E+01  8256   0.236E+01    0.113E+00
DAV:   2    -0.124154282015E+03    0.59639E-02   -0.48278E-01  8928   0.273E+00    0.700E-01
DAV:   3    -0.124146780975E+03    0.75010E-02   -0.61718E-02 14160   0.841E-01    0.171E-01
DAV:   4    -0.124146812397E+03   -0.31422E-04   -0.55295E-03 13008   0.267E-01    0.769E-02
DAV:   5    -0.124146714906E+03    0.97491E-04   -0.30177E-04 11328   0.535E-02    0.148E-02
DAV:   6    -0.124146702410E+03    0.12496E-04   -0.65680E-05 12960   0.215E-02    0.703E-03
DAV:   7    -0.124146723530E+03   -0.21121E-04   -0.11235E-05 11232   0.907E-03    0.407E-03
DAV:   8    -0.124146741425E+03   -0.17895E-04   -0.21893E-06 11232   0.344E-03    0.353E-03
DAV:   9    -0.124146761820E+03   -0.20395E-04   -0.18702E-06 11088   0.278E-03    0.148E-03
DAV:  10    -0.124146782138E+03   -0.20318E-04   -0.23089E-06 10992   0.288E-03    0.108E-03
DAV:  11    -0.124146791912E+03   -0.97734E-05   -0.10717E-06 10272   0.241E-03    0.608E-04
DAV:  12    -0.124146797659E+03   -0.57471E-05   -0.76519E-07 10944   0.221E-03    0.244E-04
DAV:  13    -0.124146799003E+03   -0.13446E-05   -0.21037E-07 10608   0.147E-03    0.863E-05
DAV:  14    -0.124146799087E+03   -0.83935E-07   -0.50541E-08 13680   0.964E-04
  13 F= -.12564346E+03 E0= -.12564047E+03  d E =-.715137E-02  mag=     0.0000
 curvature: -98.93 expect dE=-0.220E+01 dE for cont linesearch -0.149E-02
 ZBRENT: increasing intervall
 opt : 345.3995  next Energy=  -125.646277 (dE=-0.997E-02)
 bond charge predicted
       N       E                     dE             d eps       ncg     rms          rms(c)
DAV:   1    -0.124184785589E+03   -0.37987E-01   -0.16329E+02  8256   0.471E+01    0.225E+00
DAV:   2    -0.124168974497E+03    0.15811E-01   -0.19959E+00  9120   0.561E+00    0.140E+00
DAV:   3    -0.124139131227E+03    0.29843E-01   -0.23882E-01 14016   0.165E+00    0.363E-01
DAV:   4    -0.124139370776E+03   -0.23955E-03   -0.20906E-02 12768   0.517E-01    0.159E-01
DAV:   5    -0.124138888030E+03    0.48275E-03   -0.13494E-03 13248   0.104E-01    0.317E-02
DAV:   6    -0.124138838378E+03    0.49652E-04   -0.22698E-04 12192   0.401E-02    0.146E-02
DAV:   7    -0.124138898946E+03   -0.60568E-04   -0.53836E-05  9984   0.200E-02    0.862E-03
DAV:   8    -0.124138942186E+03   -0.43241E-04   -0.78930E-06 11712   0.723E-03    0.730E-03
DAV:   9    -0.124138991853E+03   -0.49667E-04   -0.68081E-06 11232   0.597E-03    0.282E-03
DAV:  10    -0.124139034329E+03   -0.42475E-04   -0.58348E-06 10752   0.501E-03    0.196E-03
DAV:  11    -0.124139059071E+03   -0.24742E-04   -0.38394E-06 10944   0.457E-03    0.108E-03
DAV:  12    -0.124139067450E+03   -0.83792E-05   -0.17392E-06 11088   0.466E-03    0.433E-04
DAV:  13    -0.124139070868E+03   -0.34178E-05   -0.81074E-07 10944   0.343E-03    0.180E-04
DAV:  14    -0.124139071969E+03   -0.11017E-05   -0.20671E-07 10800   0.172E-03    0.886E-05
DAV:  15    -0.124139072130E+03   -0.16117E-06   -0.46336E-08 13392   0.891E-04
  14 F= -.12564625E+03 E0= -.12564334E+03  d E =-.994135E-02  mag=    -0.0000
 curvature: ****** expect dE=-0.167E+02 dE for cont linesearch -0.442E-04
 trial: gam=******** g(F)=  0.898E-01 g(S)=  0.000E+00 ort = 0.362E-05 (trialstep = 0.260E-04)
 search vector abs. value=  0.148E+03
 bond charge predicted
       N       E                     dE             d eps       ncg     rms          rms(c)
DAV:   1    -0.124139071886E+03    0.83175E-07   -0.99592E-06 12336   0.116E-02    0.561E-04
DAV:   2    -0.124139071885E+03    0.89995E-09   -0.10698E-07 14640   0.128E-03
  15 F= -.12564625E+03 E0= -.12564334E+03  d E =-.252720E-05  mag=    -0.0000
 ZBRENT: can't locate minimum, use default step
 trial-energy change:   -0.000003  1 .order   -0.000002   -0.000002   -0.000002
 step:   0.0001(harm=  0.0001)  dis= 0.00008  next Energy=  -125.646261 (dE=-0.100E-04)
 bond charge predicted
       N       E                     dE             d eps       ncg     rms          rms(c)
DAV:   1    -0.124139071080E+03    0.80644E-06   -0.87843E-05  9888   0.347E-02    0.173E-03
DAV:   2    -0.124139071054E+03    0.25282E-07   -0.94014E-07 13536   0.376E-03
  16 F= -.12564626E+03 E0= -.12564335E+03  d E =-.100123E-04  mag=    -0.0000
 curvature:  -0.12 expect dE=-0.109E-01 dE for cont linesearch -0.761E-05
 ZBRENT: increasing intervall
 opt :   0.0003  next Energy=  -125.646276 (dE=-0.252E-04)
 bond charge predicted
       N       E                     dE             d eps       ncg     rms          rms(c)
DAV:   1    -0.124139069471E+03    0.16086E-05   -0.34860E-04  8400   0.692E-02    0.349E-03
DAV:   2    -0.124139069390E+03    0.81215E-07   -0.38623E-06 10080   0.777E-03
  17 F= -.12564628E+03 E0= -.12564336E+03  d E =-.249862E-04  mag=     0.0000
 curvature:  -0.24 expect dE=-0.216E-01 dE for cont linesearch -0.153E-04
 ZBRENT: increasing intervall
 opt :   0.0006  next Energy=  -125.646307 (dE=-0.554E-04)
 bond charge predicted
       N       E                     dE             d eps       ncg     rms          rms(c)
DAV:   1    -0.124139066427E+03    0.30441E-05   -0.13961E-03  8352   0.138E-01    0.701E-03
DAV:   2    -0.124139066089E+03    0.33789E-06   -0.15532E-05  8640   0.157E-02    0.434E-03
DAV:   3    -0.124139065938E+03    0.15090E-06   -0.20723E-06  9312   0.501E-03
  18 F= -.12564631E+03 E0= -.12564339E+03  d E =-.548216E-04  mag=    -0.0000
 curvature:  -0.48 expect dE=-0.431E-01 dE for cont linesearch -0.285E-04
 ZBRENT: increasing intervall
 opt :   0.0012  next Energy=  -125.646363 (dE=-0.112E-03)
 bond charge predicted
       N       E                     dE             d eps       ncg     rms          rms(c)
DAV:   1    -0.124139061109E+03    0.49803E-05   -0.57436E-03  8256   0.279E-01    0.137E-02
DAV:   2    -0.124139059795E+03    0.13140E-05   -0.65416E-05  8448   0.320E-02    0.846E-03
DAV:   3    -0.124139059010E+03    0.78454E-06   -0.86600E-06 10944   0.101E-02
  19 F= -.12564637E+03 E0= -.12564345E+03  d E =-.114470E-03  mag=     0.0000
 curvature:  -0.95 expect dE=-0.858E-01 dE for cont linesearch -0.548E-04
 ZBRENT: increasing intervall
 opt :   0.0024  next Energy=  -125.646479 (dE=-0.228E-03)
 bond charge predicted
       N       E                     dE             d eps       ncg     rms          rms(c)
DAV:   1    -0.124139053280E+03    0.65147E-05   -0.22963E-02  8256   0.559E-01    0.275E-02
DAV:   2    -0.124139047800E+03    0.54797E-05   -0.26177E-04  8928   0.640E-02    0.169E-02
DAV:   3    -0.124139044865E+03    0.29351E-05   -0.34133E-05  9984   0.202E-02    0.416E-03
DAV:   4    -0.124139045163E+03   -0.29759E-06   -0.47203E-06  9504   0.760E-03
  20 F= -.12564649E+03 E0= -.12564357E+03  d E =-.233987E-03  mag=    -0.0000
 curvature:  -1.97 expect dE=-0.178E+00 dE for cont linesearch -0.122E-03
 ZBRENT: increasing intervall
 opt :   0.0049  next Energy=  -125.646733 (dE=-0.482E-03)
 bond charge predicted
       N       E                     dE             d eps       ncg     rms          rms(c)
DAV:   1    -0.124139049613E+03   -0.47482E-05   -0.91414E-02  8256   0.111E+00    0.536E-02
DAV:   2    -0.124139030307E+03    0.19306E-04   -0.10511E-03  8832   0.128E-01    0.330E-02
DAV:   3    -0.124139015565E+03    0.14742E-04   -0.13682E-04 12000   0.401E-02    0.810E-03
DAV:   4    -0.124139016829E+03   -0.12644E-05   -0.16006E-05  8544   0.147E-02    0.350E-03
DAV:   5    -0.124139017543E+03   -0.71342E-06   -0.22612E-06  9936   0.648E-03
  21 F= -.12564673E+03 E0= -.12564381E+03  d E =-.473791E-03  mag=    -0.0000
 curvature:  -4.00 expect dE=-0.363E+00 dE for cont linesearch -0.246E-03
 ZBRENT: increasing intervall
 opt :   0.0099  next Energy=  -125.647200 (dE=-0.949E-03)
 bond charge predicted
       N       E                     dE             d eps       ncg     rms          rms(c)
DAV:   1    -0.124139088503E+03   -0.71674E-04   -0.36549E-01  8256   0.223E+00    0.107E-01
DAV:   2    -0.124139022272E+03    0.66231E-04   -0.42099E-03  8832   0.255E-01    0.658E-02
DAV:   3    -0.124138956620E+03    0.65653E-04   -0.54946E-04 12384   0.800E-02    0.160E-02
DAV:   4    -0.124138958245E+03   -0.16258E-05   -0.57106E-05 11712   0.266E-02    0.697E-03
DAV:   5    -0.124138958732E+03   -0.48714E-06   -0.34895E-06  9312   0.692E-03
  22 F= -.12564720E+03 E0= -.12564429E+03  d E =-.952475E-03  mag=    -0.0000
 curvature:  -7.73 expect dE=-0.705E+00 dE for cont linesearch -0.469E-03
 ZBRENT: increasing intervall
 opt :   0.0199  next Energy=  -125.648144 (dE=-0.189E-02)
 bond charge predicted
       N       E                     dE             d eps       ncg     rms          rms(c)
DAV:   1    -0.124139354830E+03   -0.39658E-03   -0.14620E+00  8256   0.446E+00    0.214E-01
DAV:   2    -0.124139093126E+03    0.26170E-03   -0.16832E-02  8496   0.510E-01    0.131E-01
DAV:   3    -0.124138836345E+03    0.25678E-03   -0.21781E-03 10224   0.160E-01    0.322E-02
DAV:   4    -0.124138841942E+03   -0.55970E-05   -0.26468E-04 14160   0.556E-02    0.137E-02
DAV:   5    -0.124138839176E+03    0.27657E-05   -0.10611E-05  9984   0.107E-02    0.320E-03
DAV:   6    -0.124138839123E+03    0.53119E-07   -0.22690E-06 11184   0.537E-03
  23 F= -.12564817E+03 E0= -.12564526E+03  d E =-.191857E-02  mag=    -0.0000
 curvature: -15.50 expect dE=-0.144E+01 dE for cont linesearch -0.982E-03
 ZBRENT: increasing intervall
 opt :   0.0399  next Energy=  -125.650148 (dE=-0.390E-02)
 bond charge predicted
       N       E                     dE             d eps       ncg     rms          rms(c)
DAV:   1    -0.124140694209E+03   -0.18550E-02   -0.58466E+00  8256   0.892E+00    0.428E-01
DAV:   2    -0.124139608689E+03    0.10855E-02   -0.67446E-02  9408   0.102E+00    0.263E-01
DAV:   3    -0.124138597763E+03    0.10109E-02   -0.88395E-03 11856   0.319E-01    0.634E-02
DAV:   4    -0.124138604339E+03   -0.65755E-05   -0.92186E-04 13968   0.107E-01    0.280E-02
DAV:   5    -0.124138589921E+03    0.14418E-04   -0.42069E-05 11088   0.206E-02    0.541E-03
DAV:   6    -0.124138589950E+03   -0.28811E-07   -0.10696E-05 11376   0.101E-02    0.303E-03
DAV:   7    -0.124138594247E+03   -0.42966E-05   -0.28433E-06 10752   0.662E-03    0.177E-03
DAV:   8    -0.124138602250E+03   -0.80031E-05   -0.19389E-06 11040   0.473E-03    0.146E-03
DAV:   9    -0.124138610870E+03   -0.86202E-05   -0.14115E-06 11088   0.405E-03    0.471E-04
DAV:  10    -0.124138616261E+03   -0.53911E-05   -0.18721E-06 10896   0.560E-03    0.535E-04
DAV:  11    -0.124138619511E+03   -0.32497E-05   -0.92540E-07 10368   0.372E-03    0.400E-04
DAV:  12    -0.124138621405E+03   -0.18941E-05   -0.20168E-07 11040   0.114E-03    0.123E-04
DAV:  13    -0.124138621711E+03   -0.30661E-06   -0.28542E-08 12096   0.466E-04
  24 F= -.12565017E+03 E0= -.12564725E+03  d E =-.391597E-02  mag=     0.0000
 curvature: -31.22 expect dE=-0.298E+01 dE for cont linesearch -0.212E-02
 ZBRENT: increasing intervall
 opt :   0.0798  next Energy=  -125.654304 (dE=-0.805E-02)
 bond charge predicted
       N       E                     dE             d eps       ncg     rms          rms(c)
DAV:   1    -0.124145966063E+03   -0.73447E-02   -0.23354E+01  8256   0.178E+01    0.854E-01
DAV:   2    -0.124142286576E+03    0.36795E-02   -0.27230E-01  8448   0.205E+00    0.528E-01
DAV:   3    -0.124138033494E+03    0.42531E-02   -0.35746E-02 13680   0.641E-01    0.128E-01
DAV:   4    -0.124138093713E+03   -0.60219E-04   -0.32168E-03 13392   0.201E-01    0.572E-02
DAV:   5    -0.124138038515E+03    0.55198E-04   -0.17329E-04 12192   0.405E-02    0.112E-02
DAV:   6    -0.124138032808E+03    0.57070E-05   -0.39031E-05 12576   0.166E-02    0.507E-03
DAV:   7    -0.124138046078E+03   -0.13270E-04   -0.56479E-06  9696   0.653E-03    0.344E-03
DAV:   8    -0.124138056131E+03   -0.10053E-04   -0.86451E-07 12240   0.238E-03    0.272E-03
DAV:   9    -0.124138074211E+03   -0.18080E-04   -0.20344E-06 10800   0.296E-03    0.822E-04
DAV:  10    -0.124138085083E+03   -0.10872E-04   -0.11102E-06 11376   0.196E-03    0.933E-04
DAV:  11    -0.124138090942E+03   -0.58586E-05   -0.51422E-07 10464   0.139E-03    0.443E-04
DAV:  12    -0.124138093926E+03   -0.29843E-05   -0.24112E-07 10896   0.103E-03    0.156E-04
DAV:  13    -0.124138095082E+03   -0.11559E-05   -0.10738E-07 11232   0.710E-04    0.725E-05
DAV:  14    -0.124138095151E+03   -0.68381E-07   -0.84263E-09 13968   0.365E-04
  25 F= -.12565425E+03 E0= -.12565134E+03  d E =-.799873E-02  mag=     0.0000
 curvature: -61.04 expect dE=-0.619E+01 dE for cont linesearch -0.451E-02
 ZBRENT: increasing intervall
 opt :   0.1597  next Energy=  -125.662960 (dE=-0.167E-01)
 bond charge predicted
       N       E                     dE             d eps       ncg     rms          rms(c)
DAV:   1    -0.124165319467E+03   -0.27224E-01   -0.93108E+01  8256   0.356E+01    0.170E+00
DAV:   2    -0.124153163770E+03    0.12156E-01   -0.11145E+00  8976   0.417E+00    0.106E+00
DAV:   3    -0.124136890127E+03    0.16274E-01   -0.13990E-01 13632   0.127E+00    0.264E-01
DAV:   4    -0.124137004381E+03   -0.11425E-03   -0.12468E-02 13440   0.397E-01    0.118E-01
DAV:   5    -0.124136761721E+03    0.24266E-03   -0.72662E-04 12528   0.795E-02    0.243E-02
DAV:   6    -0.124136739013E+03    0.22708E-04   -0.14002E-04 12768   0.316E-02    0.106E-02
DAV:   7    -0.124136780930E+03   -0.41917E-04   -0.27243E-05  9696   0.144E-02    0.672E-03
DAV:   8    -0.124136809872E+03   -0.28942E-04   -0.33198E-06 11616   0.458E-03    0.527E-03
DAV:   9    -0.124136851328E+03   -0.41456E-04   -0.61015E-06 10512   0.529E-03    0.163E-03
DAV:  10    -0.124136874478E+03   -0.23150E-04   -0.27760E-06 11568   0.335E-03    0.148E-03
DAV:  11    -0.124136888966E+03   -0.14488E-04   -0.18516E-06 11088   0.270E-03    0.805E-04
DAV:  12    -0.124136894756E+03   -0.57897E-05   -0.72418E-07 11376   0.238E-03    0.255E-04
DAV:  13    -0.124136896548E+03   -0.17926E-05   -0.24623E-07 11328   0.177E-03    0.135E-04
DAV:  14    -0.124136897342E+03   -0.79420E-06   -0.71789E-08 10560   0.839E-04
  26 F= -.12566303E+03 E0= -.12566012E+03  d E =-.167832E-01  mag=     0.0000
 curvature: ****** expect dE=-0.134E+02 dE for cont linesearch -0.104E-01
 ZBRENT: increasing intervall
 opt :   0.3195  next Energy=  -125.682924 (dE=-0.367E-01)
 bond charge predicted
       N       E                     dE             d eps       ncg     rms          rms(c)
DAV:   1    -0.124211718650E+03   -0.74822E-01   -0.36761E+02  8256   0.705E+01    0.336E+00
DAV:   2    -0.124200746034E+03    0.10973E-01   -0.47378E+00  8640   0.877E+00    0.213E+00
DAV:   3    -0.124132902880E+03    0.67843E-01   -0.51599E-01 14400   0.244E+00    0.610E-01
DAV:   4    -0.124134299499E+03   -0.13966E-02   -0.40804E-02 12768   0.730E-01    0.245E-01
DAV:   5    -0.124133299546E+03    0.99995E-03   -0.36941E-03 13824   0.156E-01    0.469E-02
DAV:   6    -0.124133222348E+03    0.77198E-04   -0.40743E-04 10992   0.570E-02    0.218E-02
DAV:   7    -0.124133354644E+03   -0.13230E-03   -0.15639E-04  9600   0.360E-02    0.145E-02
DAV:   8    -0.124133440817E+03   -0.86173E-04   -0.18448E-05 11040   0.117E-02    0.912E-03
DAV:   9    -0.124133508779E+03   -0.67962E-04   -0.11661E-05 11184   0.834E-03    0.370E-03
DAV:  10    -0.124133554206E+03   -0.45427E-04   -0.65445E-06 11088   0.543E-03    0.310E-03
DAV:  11    -0.124133586017E+03   -0.31811E-04   -0.56734E-06 12096   0.476E-03    0.203E-03
DAV:  12    -0.124133596361E+03   -0.10344E-04   -0.13312E-06 11280   0.289E-03    0.515E-04
DAV:  13    -0.124133599100E+03   -0.27389E-05   -0.24256E-07 11808   0.178E-03    0.287E-04
DAV:  14    -0.124133601024E+03   -0.19241E-05   -0.12297E-07 10368   0.102E-03    0.141E-04
DAV:  15    -0.124133602213E+03   -0.11894E-05   -0.88109E-08 10224   0.638E-04    0.622E-05
DAV:  16    -0.124133602387E+03   -0.17356E-06   -0.12896E-08 12336   0.331E-04
  27 F= -.12568316E+03 E0= -.12568024E+03  d E =-.369046E-01  mag=     0.0000
 curvature: ****** expect dE=-0.319E+02 dE for cont linesearch -0.288E-01
 ZBRENT: increasing intervall
 opt :   0.6391  next Energy=  -125.734637 (dE=-0.884E-01)
 bond charge predicted
       N       E                     dE             d eps       ncg     rms          rms(c)
DAV:   1    -0.124025198343E+03    0.10840E+00   -0.13956E+03  8256   0.136E+02    0.651E+00
DAV:   2    -0.124408321570E+03   -0.38312E+00   -0.22246E+01  9120   0.196E+01    0.425E+00
DAV:   3    -0.124133505964E+03    0.27482E+00   -0.15696E+00 14112   0.436E+00    0.168E+00
DAV:   4    -0.124124705150E+03    0.88008E-02   -0.17057E-01 14352   0.153E+00    0.466E-01
DAV:   5    -0.124121056082E+03    0.36491E-02   -0.20316E-02 13248   0.380E-01    0.820E-02
DAV:   6    -0.124120839060E+03    0.21702E-03   -0.10277E-03 14112   0.984E-02    0.406E-02
DAV:   7    -0.124121112586E+03   -0.27353E-03   -0.55125E-04 10560   0.687E-02    0.247E-02
DAV:   8    -0.124121309360E+03   -0.19677E-03   -0.89675E-05  9120   0.235E-02    0.151E-02
DAV:   9    -0.124121451494E+03   -0.14213E-03   -0.46352E-05 10944   0.178E-02    0.947E-03
DAV:  10    -0.124121532656E+03   -0.81162E-04   -0.19063E-05 11424   0.985E-03    0.817E-03
DAV:  11    -0.124121578720E+03   -0.46064E-04   -0.17765E-05 11328   0.970E-03    0.263E-03
DAV:  12    -0.124121598215E+03   -0.19495E-04   -0.30386E-06 12624   0.454E-03    0.138E-03
DAV:  13    -0.124121604377E+03   -0.61618E-05   -0.48221E-07 14064   0.172E-03    0.974E-04
DAV:  14    -0.124121607200E+03   -0.28236E-05   -0.11833E-07 10896   0.802E-04    0.466E-04
DAV:  15    -0.124121609384E+03   -0.21833E-05   -0.13290E-07 10800   0.738E-04    0.122E-04
DAV:  16    -0.124121609757E+03   -0.37343E-06   -0.85950E-09 14256   0.191E-04
  28 F= -.12573557E+03 E0= -.12573265E+03  d E =-.893214E-01  mag=     0.0000
 curvature: ****** expect dE=-0.847E+02 dE for cont linesearch -0.990E-01
 ZBRENT: increasing intervall
 opt :   1.2782  next Energy=  -125.891768 (dE=-0.246E+00)
 bond charge predicted
       N       E                     dE             d eps       ncg     rms          rms(c)
DAV:   1    -0.120391375405E+03    0.37302E+01   -0.45621E+03  8256   0.228E+02    0.137E+01
DAV:   2    -0.125265115500E+03   -0.48737E+01   -0.10785E+02  8352   0.441E+01    0.842E+00
DAV:   3    -0.124371801043E+03    0.89331E+00   -0.36333E+00 14784   0.721E+00    0.541E+00
DAV:   4    -0.123997484603E+03    0.37432E+00   -0.19391E+00 14352   0.448E+00    0.799E-01
DAV:   5    -0.123998935467E+03   -0.14509E-02   -0.68626E-02 10752   0.986E-01    0.420E-01
DAV:   6    -0.123993665173E+03    0.52703E-02   -0.23546E-02 14112   0.437E-01    0.923E-02
DAV:   7    -0.123993040947E+03    0.62423E-03   -0.19542E-03 13248   0.144E-01    0.443E-02
DAV:   8    -0.123993298337E+03   -0.25739E-03   -0.89173E-04 12240   0.763E-02    0.357E-02
DAV:   9    -0.123993453385E+03   -0.15505E-03   -0.12117E-04 12192   0.283E-02    0.213E-02
DAV:  10    -0.123993586755E+03   -0.13337E-03   -0.13521E-04 10128   0.323E-02    0.174E-02
DAV:  11    -0.123993637760E+03   -0.51005E-04   -0.33128E-05 12000   0.137E-02    0.989E-03
DAV:  12    -0.123993663985E+03   -0.26225E-04   -0.19218E-05 11328   0.116E-02    0.605E-03
DAV:  13    -0.123993671978E+03   -0.79927E-05   -0.12313E-06 14016   0.352E-03    0.383E-03
DAV:  14    -0.123993679399E+03   -0.74215E-05   -0.10564E-06 11904   0.305E-03    0.904E-04
DAV:  15    -0.123993682620E+03   -0.32206E-05   -0.30447E-07 13008   0.139E-03    0.642E-04
DAV:  16    -0.123993684064E+03   -0.14445E-05   -0.93663E-08 12000   0.724E-04    0.360E-04
DAV:  17    -0.123993684837E+03   -0.77218E-06   -0.50387E-08 11088   0.463E-04
  29 F= -.12583825E+03 E0= -.12583559E+03  d E =-.192001E+00  mag=     0.0000
 curvature: ****** expect dE=-0.254E+03 dE for cont linesearch -0.167E-01
 ZBRENT: bracketing found
 ZBRENT: interpolating
 opt :   1.1208  next Energy=  -125.843171 (dE=-0.197E+00)
 bond charge predicted
       N       E                     dE             d eps       ncg     rms          rms(c)
DAV:   1    -0.124149871896E+03   -0.15619E+00   -0.35755E+02  8256   0.700E+01    0.335E+00
DAV:   2    -0.124118510810E+03    0.31361E-01   -0.45252E+00  9216   0.871E+00    0.209E+00
DAV:   3    -0.124056170812E+03    0.62340E-01   -0.46584E-01 14976   0.232E+00    0.639E-01
DAV:   4    -0.124057161698E+03   -0.99089E-03   -0.35943E-02 11136   0.701E-01    0.233E-01
DAV:   5    -0.124056607327E+03    0.55437E-03   -0.39889E-03 11904   0.169E-01    0.439E-02
DAV:   6    -0.124056544964E+03    0.62362E-04   -0.33367E-04 13488   0.573E-02    0.205E-02
DAV:   7    -0.124056573311E+03   -0.28346E-04   -0.78011E-05  9696   0.310E-02    0.129E-02
DAV:   8    -0.124056607644E+03   -0.34333E-04   -0.11708E-05 10032   0.843E-03    0.101E-02
DAV:   9    -0.124056664122E+03   -0.56479E-04   -0.71855E-06  9552   0.725E-03    0.423E-03
DAV:  10    -0.124056714693E+03   -0.50571E-04   -0.46741E-06 12912   0.519E-03    0.335E-03
DAV:  11    -0.124056757842E+03   -0.43149E-04   -0.28279E-06 12816   0.410E-03    0.249E-03
DAV:  12    -0.124056776399E+03   -0.18557E-04   -0.38971E-07 13248   0.186E-03    0.765E-04
DAV:  13    -0.124056784516E+03   -0.81170E-05   -0.11644E-07 12720   0.102E-03    0.440E-04
DAV:  14    -0.124056787591E+03   -0.30757E-05   -0.50432E-08 13104   0.579E-04    0.389E-04
DAV:  15    -0.124056788458E+03   -0.86691E-06   -0.16657E-08 13104   0.315E-04
  30 F= -.12583005E+03 E0= -.12582729E+03  d E =-.183798E+00  mag=     0.0000
 curvature: ****** expect dE=-0.649E+02 dE for cont linesearch -0.232E-01
 ZBRENT: interpolating
 opt :   1.2286  next Energy=  -125.839804 (dE=-0.194E+00)
 bond charge predicted
       N       E                     dE             d eps       ncg     rms          rms(c)
DAV:   1    -0.124066342014E+03   -0.95544E-02   -0.16890E+02  8256   0.481E+01    0.229E+00
DAV:   2    -0.124048049027E+03    0.18293E-01   -0.20996E+00 11136   0.575E+00    0.142E+00
DAV:   3    -0.124018128621E+03    0.29920E-01   -0.22209E-01 14496   0.159E+00    0.389E-01
DAV:   4    -0.124018311876E+03   -0.18326E-03   -0.21284E-02 13632   0.515E-01    0.155E-01
DAV:   5    -0.124017953303E+03    0.35857E-03   -0.13593E-03 15360   0.105E-01    0.319E-02
DAV:   6    -0.124017921776E+03    0.31527E-04   -0.18799E-04 11328   0.397E-02    0.135E-02
DAV:   7    -0.124017979283E+03   -0.57507E-04   -0.54033E-05 12096   0.219E-02    0.847E-03
DAV:   8    -0.124018029161E+03   -0.49878E-04   -0.10339E-05  9504   0.822E-03    0.595E-03
DAV:   9    -0.124018062830E+03   -0.33669E-04   -0.48250E-06 12240   0.520E-03    0.299E-03
DAV:  10    -0.124018089267E+03   -0.26438E-04   -0.47154E-06 10896   0.425E-03    0.182E-03
DAV:  11    -0.124018102795E+03   -0.13527E-04   -0.23426E-06 12672   0.296E-03    0.122E-03
DAV:  12    -0.124018107449E+03   -0.46540E-05   -0.57179E-07 13632   0.173E-03    0.499E-04
DAV:  13    -0.124018109090E+03   -0.16411E-05   -0.12827E-07 13104   0.123E-03    0.253E-04
DAV:  14    -0.124018109910E+03   -0.82013E-06   -0.66573E-08 12624   0.862E-04
  31 F= -.12583918E+03 E0= -.12583654E+03  d E =-.192933E+00  mag=     0.0000
 curvature: -12.52 expect dE=-0.480E+01 dE for cont linesearch -0.367E-04
 trial: gam= 2.29912 g(F)=  0.383E+00 g(S)=  0.000E+00 ort = 0.209E-01 (trialstep = 0.465E-01)
 search vector abs. value=  0.784E+03
 bond charge predicted
       N       E                     dE             d eps       ncg     rms          rms(c)
DAV:   1    -0.124024332833E+03   -0.62237E-02   -0.16607E+02  8256   0.478E+01    0.228E+00
DAV:   2    -0.124004918880E+03    0.19414E-01   -0.20530E+00 11232   0.570E+00    0.141E+00
DAV:   3    -0.123975800637E+03    0.29118E-01   -0.21581E-01 14256   0.157E+00    0.390E-01
DAV:   4    -0.123975850459E+03   -0.49822E-04   -0.21541E-02 13536   0.517E-01    0.151E-01
DAV:   5    -0.123975450033E+03    0.40043E-03   -0.13489E-03 15312   0.109E-01    0.306E-02
DAV:   6    -0.123975410375E+03    0.39658E-04   -0.19644E-04 11232   0.418E-02    0.135E-02
DAV:   7    -0.123975464930E+03   -0.54555E-04   -0.60128E-05 11904   0.241E-02    0.813E-03
DAV:   8    -0.123975508465E+03   -0.43535E-04   -0.13042E-05 11664   0.984E-03    0.691E-03
DAV:   9    -0.123975541262E+03   -0.32797E-04   -0.48909E-06 11760   0.564E-03    0.339E-03
DAV:  10    -0.123975575244E+03   -0.33982E-04   -0.72108E-06 11328   0.560E-03    0.194E-03
DAV:  11    -0.123975587239E+03   -0.11995E-04   -0.18678E-06 13152   0.293E-03    0.134E-03
DAV:  12    -0.123975592896E+03   -0.56576E-05   -0.82648E-07 13632   0.206E-03    0.694E-04
DAV:  13    -0.123975594677E+03   -0.17805E-05   -0.14029E-07 13776   0.961E-04    0.336E-04
DAV:  14    -0.123975595824E+03   -0.11474E-05   -0.97107E-08 12336   0.750E-04    0.157E-04
DAV:  15    -0.123975596154E+03   -0.32994E-06   -0.17550E-08 14064   0.416E-04
  32 F= -.12584834E+03 E0= -.12584561E+03  d E =-.915385E-02  mag=    -0.0000
 trial-energy change:   -0.009154  1 .order   -0.008089   -0.020029    0.003851
 step:   0.0404(harm=  0.0390)  dis= 0.07075  next Energy=  -125.848588 (dE=-0.940E-02)
 bond charge predicted
       N       E                     dE             d eps       ncg     rms          rms(c)
DAV:   1    -0.123983882631E+03   -0.82868E-02   -0.28657E+00  8256   0.628E+00    0.300E-01
DAV:   2    -0.123983280274E+03    0.60236E-03   -0.33268E-02 12192   0.719E-01    0.183E-01
DAV:   3    -0.123982799596E+03    0.48068E-03   -0.39784E-03 12768   0.212E-01    0.464E-02
DAV:   4    -0.123982816754E+03   -0.17158E-04   -0.43669E-04 10944   0.740E-02    0.195E-02
DAV:   5    -0.123982816725E+03    0.28952E-07   -0.21449E-05 12432   0.164E-02    0.376E-03
DAV:   6    -0.123982816101E+03    0.62466E-06   -0.39326E-06 12288   0.600E-03
  33 F= -.12584858E+03 E0= -.12584587E+03  d E =-.939331E-02  mag=    -0.0000
 curvature: -34.19 expect dE=-0.105E+02 dE for cont linesearch -0.185E-06
 trial: gam=-0.09261 g(F)=  0.307E+00 g(S)=  0.000E+00 ort =-0.206E-02 (trialstep = 0.452E-01)
 search vector abs. value=  0.703E+01
 bond charge predicted
       N       E                     dE             d eps       ncg     rms          rms(c)
DAV:   1    -0.124000865958E+03   -0.18049E-01   -0.14308E+00  8256   0.448E+00    0.213E-01
DAV:   2    -0.124000566969E+03    0.29899E-03   -0.16850E-02 12384   0.517E-01    0.131E-01
DAV:   3    -0.124000344710E+03    0.22226E-03   -0.21061E-03 14976   0.156E-01    0.353E-02
DAV:   4    -0.124000347358E+03   -0.26482E-05   -0.25827E-04 10416   0.579E-02    0.177E-02
DAV:   5    -0.124000349550E+03   -0.21920E-05   -0.10729E-05 10560   0.137E-02    0.511E-03
DAV:   6    -0.124000350486E+03   -0.93551E-06   -0.35235E-06 11280   0.636E-03
  34 F= -.12586139E+03 E0= -.12585869E+03  d E =-.128096E-01  mag=     0.0000
 ZBRENT: can't locate minimum, use default step
 trial-energy change:   -0.012810  1 .order   -0.012818   -0.013896   -0.011739
 step:   0.1810(harm=  0.2915)  dis= 0.02788  next Energy=  -125.893344 (dE=-0.448E-01)
 bond charge predicted
       N       E                     dE             d eps       ncg     rms          rms(c)
DAV:   1    -0.124044520176E+03   -0.44171E-01   -0.12872E+01  8256   0.134E+01    0.638E-01
DAV:   2    -0.124042155709E+03    0.23645E-02   -0.15226E-01 13584   0.155E+00    0.392E-01
DAV:   3    -0.124039982669E+03    0.21730E-02   -0.18681E-02 14592   0.461E-01    0.106E-01
DAV:   4    -0.124039959504E+03    0.23166E-04   -0.22075E-03 10800   0.170E-01    0.531E-02
DAV:   5    -0.124039969126E+03   -0.96226E-05   -0.93969E-05 11808   0.393E-02    0.153E-02
DAV:   6    -0.124039966050E+03    0.30766E-05   -0.29242E-05 11184   0.169E-02    0.552E-03
DAV:   7    -0.124039967979E+03   -0.19299E-05   -0.24282E-06  9888   0.639E-03    0.343E-03
DAV:   8    -0.124039973687E+03   -0.57075E-05   -0.26654E-06 10032   0.561E-03    0.195E-03
DAV:   9    -0.124039978735E+03   -0.50477E-05   -0.65305E-07 13152   0.271E-03    0.199E-03
DAV:  10    -0.124039990167E+03   -0.11433E-04   -0.11215E-06 13056   0.295E-03    0.563E-04
DAV:  11    -0.124039994626E+03   -0.44582E-05   -0.18761E-07 14016   0.148E-03    0.498E-04
DAV:  12    -0.124039999015E+03   -0.43897E-05   -0.17375E-07 11952   0.161E-03    0.285E-04
DAV:  13    -0.124040001177E+03   -0.21614E-05   -0.10411E-07 14400   0.126E-03    0.135E-04
DAV:  14    -0.124040001837E+03   -0.66010E-06   -0.15503E-08 13104   0.471E-04
  35 F= -.12588698E+03 E0= -.12588431E+03  d E =-.384069E-01  mag=    -0.0000
 curvature:  -2.67 expect dE=-0.139E+00 dE for cont linesearch -0.525E-02
 ZBRENT: increasing intervall
 opt :   0.4524  next Energy=  -125.880468 (dE=-0.319E-01)
 bond charge predicted
       N       E                     dE             d eps       ncg     rms          rms(c)
DAV:   1    -0.124078326829E+03   -0.38326E-01   -0.51388E+01  8256   0.268E+01    0.127E+00
DAV:   2    -0.124070100001E+03    0.82268E-02   -0.61803E-01 13056   0.314E+00    0.786E-01
DAV:   3    -0.124061410192E+03    0.86898E-02   -0.75095E-02 14880   0.924E-01    0.216E-01
DAV:   4    -0.124061324926E+03    0.85266E-04   -0.83822E-03 11616   0.332E-01    0.108E-01
DAV:   5    -0.124061305151E+03    0.19775E-04   -0.35435E-04 12576   0.744E-02    0.299E-02
DAV:   6    -0.124061288087E+03    0.17064E-04   -0.10779E-04 10656   0.315E-02    0.101E-02
DAV:   7    -0.124061290509E+03   -0.24216E-05   -0.92355E-06  9216   0.118E-02    0.513E-03
DAV:   8    -0.124061305484E+03   -0.14976E-04   -0.89576E-06  8736   0.987E-03    0.376E-03
DAV:   9    -0.124061315651E+03   -0.10167E-04   -0.16997E-06  8640   0.502E-03    0.292E-03
DAV:  10    -0.124061331467E+03   -0.15816E-04   -0.18859E-06 11136   0.425E-03    0.110E-03
DAV:  11    -0.124061340802E+03   -0.93352E-05   -0.55937E-07 14256   0.204E-03    0.808E-04
DAV:  12    -0.124061351007E+03   -0.10205E-04   -0.45857E-07 11760   0.166E-03    0.426E-04
DAV:  13    -0.124061353456E+03   -0.24494E-05   -0.69400E-08 14592   0.110E-03    0.208E-04
DAV:  14    -0.124061354772E+03   -0.13159E-05   -0.35880E-08 12528   0.772E-04    0.125E-04
DAV:  15    -0.124061355312E+03   -0.53972E-06   -0.14736E-08 13200   0.448E-04
  36 F= -.12588082E+03 E0= -.12587814E+03  d E =-.322459E-01  mag=     0.0000
 curvature:   3.31 expect dE= 0.350E+00 dE for cont linesearch  0.124E-01
 ZBRENT: bracketing found
 ZBRENT: interpolating
 opt :   0.2951  next Energy=  -125.893702 (dE=-0.451E-01)
 bond charge predicted
       N       E                     dE             d eps       ncg     rms          rms(c)
DAV:   1    -0.124063813305E+03   -0.24585E-02   -0.17284E+01  8256   0.156E+01    0.736E-01
DAV:   2    -0.124061520415E+03    0.22929E-02   -0.21094E-01 14112   0.181E+00    0.456E-01
DAV:   3    -0.124058394571E+03    0.31258E-02   -0.24415E-02 14976   0.526E-01    0.123E-01
DAV:   4    -0.124058350094E+03    0.44477E-04   -0.29570E-03 14688   0.197E-01    0.621E-02
DAV:   5    -0.124058323585E+03    0.26509E-04   -0.10475E-04 14400   0.401E-02    0.195E-02
DAV:   6    -0.124058307924E+03    0.15661E-04   -0.38579E-05 14688   0.188E-02    0.602E-03
DAV:   7    -0.124058311636E+03   -0.37119E-05   -0.33691E-06 10752   0.687E-03    0.312E-03
DAV:   8    -0.124058322051E+03   -0.10415E-04   -0.37308E-06 10848   0.594E-03    0.223E-03
DAV:   9    -0.124058327144E+03   -0.50931E-05   -0.49943E-07 13776   0.234E-03    0.183E-03
DAV:  10    -0.124058337443E+03   -0.10300E-04   -0.16468E-06 11568   0.304E-03    0.598E-04
DAV:  11    -0.124058340330E+03   -0.28867E-05   -0.20956E-07 14400   0.111E-03    0.460E-04
DAV:  12    -0.124058344321E+03   -0.39908E-05   -0.47902E-07 12960   0.133E-03    0.209E-04
DAV:  13    -0.124058344958E+03   -0.63681E-06   -0.46330E-08 14640   0.753E-04
  37 F= -.12589366E+03 E0= -.12589100E+03  d E =-.450835E-01  mag=    -0.0000
 curvature:  -1.79 expect dE=-0.182E-01 dE for cont linesearch -0.801E-07
 trial: gam= 0.01914 g(F)=  0.102E-01 g(S)=  0.000E+00 ort =-0.561E-03 (trialstep = 0.952E-01)
 search vector abs. value=  0.127E-01
 bond charge predicted
       N       E                     dE             d eps       ncg     rms          rms(c)
DAV:   1    -0.124059404463E+03   -0.10601E-02   -0.11793E-02 11040   0.424E-01    0.206E-02
DAV:   2    -0.124059403764E+03    0.69919E-06   -0.11452E-04 12912   0.427E-02    0.126E-02
DAV:   3    -0.124059401639E+03    0.21246E-05   -0.14166E-05 14448   0.139E-02    0.254E-03
DAV:   4    -0.124059401717E+03   -0.77842E-07   -0.15862E-06 12432   0.479E-03
  38 F= -.12589454E+03 E0= -.12589188E+03  d E =-.880591E-03  mag=    -0.0000
 ZBRENT: can't locate minimum, use default step
 trial-energy change:   -0.000881  1 .order   -0.000880   -0.000967   -0.000793
 step:   0.3808(harm=  0.5302)  dis= 0.00414  next Energy=  -125.896352 (dE=-0.269E-02)
 bond charge predicted
       N       E                     dE             d eps       ncg     rms          rms(c)
DAV:   1    -0.124061555775E+03   -0.21541E-02   -0.10610E-01 10080   0.127E+00    0.619E-02
DAV:   2    -0.124061550397E+03    0.53779E-05   -0.10275E-03 14256   0.129E-01    0.376E-02
DAV:   3    -0.124061528069E+03    0.22328E-04   -0.12360E-04 14160   0.408E-02    0.756E-03
DAV:   4    -0.124061528398E+03   -0.32937E-06   -0.14049E-05 11520   0.140E-02    0.396E-03
DAV:   5    -0.124061528787E+03   -0.38916E-06   -0.64634E-07 12528   0.350E-03
  39 F= -.12589614E+03 E0= -.12589347E+03  d E =-.247987E-02  mag=     0.0000
 curvature:  -0.29 expect dE=-0.203E-02 dE for cont linesearch -0.188E-03
 ZBRENT: increasing intervall
 opt :   0.9521  next Energy=  -125.894651 (dE=-0.990E-03)
 bond charge predicted
       N       E                     dE             d eps       ncg     rms          rms(c)
DAV:   1    -0.124061235132E+03    0.29327E-03   -0.42457E-01 10176   0.254E+00    0.124E-01
DAV:   2    -0.124061201221E+03    0.33912E-04   -0.39795E-03 15360   0.254E-01    0.747E-02
DAV:   3    -0.124061106442E+03    0.94778E-04   -0.48441E-04 13440   0.807E-02    0.149E-02
DAV:   4    -0.124061107355E+03   -0.91257E-06   -0.56089E-05 11616   0.279E-02    0.776E-03
DAV:   5    -0.124061108487E+03   -0.11319E-05   -0.24415E-06 11760   0.686E-03    0.289E-03
DAV:   6    -0.124061108693E+03   -0.20625E-06   -0.95456E-07 11088   0.448E-03
  40 F= -.12589467E+03 E0= -.12589197E+03  d E =-.100746E-02  mag=     0.0000
 curvature:   2.32 expect dE= 0.102E+00 dE for cont linesearch  0.117E-01
 ZBRENT: bracketing found
 ZBRENT: interpolating
 opt :   0.5313  next Energy=  -125.896356 (dE=-0.270E-02)
 bond charge predicted
       N       E                     dE             d eps       ncg     rms          rms(c)
DAV:   1    -0.124062083494E+03   -0.97501E-03   -0.23008E-01  9696   0.187E+00    0.912E-02
DAV:   2    -0.124062074028E+03    0.94654E-05   -0.22208E-03 15360   0.190E-01    0.552E-02
DAV:   3    -0.124062020947E+03    0.53081E-04   -0.26183E-04 12816   0.595E-02    0.111E-02
DAV:   4    -0.124062021578E+03   -0.63105E-06   -0.31465E-05 10848   0.211E-02    0.575E-03
DAV:   5    -0.124062022398E+03   -0.81961E-06   -0.15398E-06 12192   0.569E-03
  41 F= -.12589636E+03 E0= -.12589368E+03  d E =-.269598E-02  mag=    -0.0000
 curvature:  -0.04 expect dE=-0.505E-03 dE for cont linesearch -0.868E-09
 trial: gam= 1.16009 g(F)=  0.118E-01 g(S)=  0.000E+00 ort = 0.161E-04 (trialstep = 0.801E-01)
 search vector abs. value=  0.290E-01
 bond charge predicted
       N       E                     dE             d eps       ncg     rms          rms(c)
DAV:   1    -0.124063091959E+03   -0.10704E-02   -0.15860E-02  8256   0.490E-01    0.212E-02
DAV:   2    -0.124063092153E+03   -0.19428E-06   -0.11515E-04 12672   0.451E-02    0.128E-02
DAV:   3    -0.124063091609E+03    0.54401E-06   -0.14223E-05 11184   0.140E-02    0.228E-03
DAV:   4    -0.124063091677E+03   -0.68013E-07   -0.22045E-06  9792   0.731E-03
  42 F= -.12589727E+03 E0= -.12589459E+03  d E =-.911110E-03  mag=    -0.0000
 ZBRENT: can't locate minimum, use default step
 trial-energy change:   -0.000911  1 .order   -0.000912   -0.000948   -0.000876
 step:   0.3203(harm=  1.0504)  dis= 0.00591  next Energy=  -125.902573 (dE=-0.622E-02)
 bond charge predicted
       N       E                     dE             d eps       ncg     rms          rms(c)
DAV:   1    -0.124065871495E+03   -0.27799E-02   -0.14322E-01  8256   0.147E+00    0.642E-02
DAV:   2    -0.124065878205E+03   -0.67101E-05   -0.10076E-03 13056   0.133E-01    0.384E-02
DAV:   3    -0.124065866524E+03    0.11681E-04   -0.12168E-04 10032   0.387E-02    0.665E-03
DAV:   4    -0.124065867465E+03   -0.94065E-06   -0.13138E-05 12768   0.153E-02    0.322E-03
DAV:   5    -0.124065868610E+03   -0.11447E-05   -0.27676E-06  9552   0.822E-03    0.134E-03
DAV:   6    -0.124065867535E+03    0.10751E-05   -0.15667E-06 10656   0.612E-03    0.431E-04
DAV:   7    -0.124065867405E+03    0.13002E-06   -0.13087E-07 14736   0.176E-03
  43 F= -.12589957E+03 E0= -.12589690E+03  d E =-.321406E-02  mag=    -0.0000
 curvature:  -0.56 expect dE=-0.343E-02 dE for cont linesearch -0.132E-02
 ZBRENT: increasing intervall
 opt :   0.8008  next Energy=  -125.902265 (dE=-0.591E-02)
 bond charge predicted
       N       E                     dE             d eps       ncg     rms          rms(c)
DAV:   1    -0.124069530089E+03   -0.36626E-02   -0.57262E-01  8256   0.294E+00    0.128E-01
DAV:   2    -0.124069559740E+03   -0.29652E-04   -0.39709E-03 15456   0.263E-01    0.762E-02
DAV:   3    -0.124069497709E+03    0.62031E-04   -0.47181E-04 12096   0.733E-02    0.130E-02
DAV:   4    -0.124069500056E+03   -0.23474E-05   -0.39117E-05 14352   0.237E-02    0.622E-03
DAV:   5    -0.124069501154E+03   -0.10979E-05   -0.23654E-06 12912   0.555E-03    0.147E-03
DAV:   6    -0.124069501273E+03   -0.11909E-06   -0.40349E-07 11088   0.308E-03
  44 F= -.12590227E+03 E0= -.12589959E+03  d E =-.590996E-02  mag=     0.0000
 curvature:  -1.14 expect dE=-0.358E-02 dE for cont linesearch -0.346E-03
 ZBRENT: increasing intervall
 opt :   1.7617  next Energy=  -125.900014 (dE=-0.366E-02)
 bond charge predicted
       N       E                     dE             d eps       ncg     rms          rms(c)
DAV:   1    -0.124069238407E+03    0.26275E-03   -0.22890E+00  8256   0.588E+00    0.256E-01
DAV:   2    -0.124069389720E+03   -0.15131E-03   -0.15883E-02 16032   0.525E-01    0.152E-01
DAV:   3    -0.124069120816E+03    0.26890E-03   -0.18690E-03 12000   0.145E-01    0.259E-02
DAV:   4    -0.124069129954E+03   -0.91374E-05   -0.15241E-04 14592   0.473E-02    0.124E-02
DAV:   5    -0.124069133027E+03   -0.30737E-05   -0.95735E-06 11952   0.116E-02    0.310E-03
DAV:   6    -0.124069133651E+03   -0.62368E-06   -0.22902E-06 11568   0.752E-03
  45 F= -.12590005E+03 E0= -.12589736E+03  d E =-.369747E-02  mag=     0.0000
 curvature:   7.43 expect dE= 0.125E+00 dE for cont linesearch  0.146E-01
 ZBRENT: bracketing found
 ZBRENT: interpolating
 opt :   1.0720  next Energy=  -125.902669 (dE=-0.631E-02)
 bond charge predicted
       N       E                     dE             d eps       ncg     rms          rms(c)
DAV:   1    -0.124070470123E+03   -0.13371E-02   -0.11796E+00  8256   0.422E+00    0.184E-01
DAV:   2    -0.124070552955E+03   -0.82832E-04   -0.82019E-03 16032   0.378E-01    0.109E-01
DAV:   3    -0.124070420562E+03    0.13239E-03   -0.96287E-04 12144   0.105E-01    0.184E-02
DAV:   4    -0.124070424793E+03   -0.42315E-05   -0.77772E-05 13008   0.352E-02    0.891E-03
DAV:   5    -0.124070428214E+03   -0.34206E-05   -0.79355E-06 12960   0.127E-02    0.223E-03
DAV:   6    -0.124070427825E+03    0.38857E-06   -0.49000E-06 11520   0.110E-02
  46 F= -.12590267E+03 E0= -.12589999E+03  d E =-.631168E-02  mag=     0.0000
 curvature:  -0.20 expect dE=-0.890E-03 dE for cont linesearch -0.431E-08
 trial: gam= 0.37744 g(F)=  0.434E-02 g(S)=  0.000E+00 ort =-0.247E-04 (trialstep = 0.278E+00)
 search vector abs. value=  0.845E-02
 bond charge predicted
       N       E                     dE             d eps       ncg     rms          rms(c)
DAV:   1    -0.124071565079E+03   -0.11369E-02   -0.38377E-02  8256   0.773E-01    0.456E-02
DAV:   2    -0.124071529365E+03    0.35715E-04   -0.55839E-04 16320   0.913E-02    0.245E-02
DAV:   3    -0.124071517858E+03    0.11507E-04   -0.57884E-05 11136   0.257E-02    0.765E-03
DAV:   4    -0.124071517941E+03   -0.83218E-07   -0.74251E-06 12480   0.103E-02
  47 F= -.12590364E+03 E0= -.12590099E+03  d E =-.966460E-03  mag=     0.0000
 trial-energy change:   -0.000966  1 .order   -0.000969   -0.001207   -0.000731
 step:   0.7056(harm=  0.7056)  dis= 0.00329  next Energy=  -125.904198 (dE=-0.153E-02)
 bond charge predicted
       N       E                     dE             d eps       ncg     rms          rms(c)
DAV:   1    -0.124072374017E+03   -0.85616E-03   -0.90305E-02  8256   0.119E+00    0.703E-02
DAV:   2    -0.124072289838E+03    0.84179E-04   -0.12875E-03 12480   0.139E-01    0.377E-02
DAV:   3    -0.124072264618E+03    0.25221E-04   -0.14917E-04 13392   0.415E-02    0.122E-02
DAV:   4    -0.124072264425E+03    0.19281E-06   -0.17711E-05 11376   0.155E-02    0.519E-03
DAV:   5    -0.124072264812E+03   -0.38716E-06   -0.10843E-06  9600   0.484E-03
  48 F= -.12590419E+03 E0= -.12590159E+03  d E =-.152256E-02  mag=    -0.0000
 curvature:  -0.69 expect dE=-0.228E-02 dE for cont linesearch -0.110E-06
 trial: gam= 0.76893 g(F)=  0.331E-02 g(S)=  0.000E+00 ort =-0.368E-04 (trialstep = 0.364E+00)
 search vector abs. value=  0.826E-02
 bond charge predicted
       N       E                     dE             d eps       ncg     rms          rms(c)
DAV:   1    -0.124073318377E+03   -0.10540E-02   -0.48350E-02  8256   0.828E-01    0.461E-02
DAV:   2    -0.124073301287E+03    0.17091E-04   -0.44851E-04 14976   0.841E-02    0.262E-02
DAV:   3    -0.124073290563E+03    0.10723E-04   -0.60951E-05 10464   0.262E-02    0.686E-03
DAV:   4    -0.124073290643E+03   -0.79671E-07   -0.88508E-06  9600   0.124E-02
  49 F= -.12590516E+03 E0= -.12590259E+03  d E =-.967337E-03  mag=    -0.0000
 trial-energy change:   -0.000967  1 .order   -0.000969   -0.001195   -0.000743
 step:   0.9615(harm=  0.9615)  dis= 0.00358  next Energy=  -125.905771 (dE=-0.158E-02)
 bond charge predicted
       N       E                     dE             d eps       ncg     rms          rms(c)
DAV:   1    -0.124074063406E+03   -0.77284E-03   -0.13039E-01  8256   0.136E+00    0.759E-02
DAV:   2    -0.124074018377E+03    0.45028E-04   -0.12150E-03 16224   0.138E-01    0.433E-02
DAV:   3    -0.124073989919E+03    0.28458E-04   -0.15751E-04 10848   0.416E-02    0.114E-02
DAV:   4    -0.124073989886E+03    0.33795E-07   -0.21702E-05 11136   0.186E-02    0.519E-03
DAV:   5    -0.124073989922E+03   -0.36637E-07   -0.22533E-06 11472   0.766E-03
  50 F= -.12590576E+03 E0= -.12590323E+03  d E =-.156952E-02  mag=    -0.0000
 curvature:  -1.21 expect dE=-0.627E-02 dE for cont linesearch -0.110E-06
 trial: gam= 1.54970 g(F)=  0.519E-02 g(S)=  0.000E+00 ort =-0.275E-04 (trialstep = 0.160E+00)
 search vector abs. value=  0.249E-01
 bond charge predicted
       N       E                     dE             d eps       ncg     rms          rms(c)
DAV:   1    -0.124074774955E+03   -0.78507E-03   -0.26806E-02  8256   0.605E-01    0.309E-02
DAV:   2    -0.124074771171E+03    0.37838E-05   -0.18117E-04 14400   0.520E-02    0.182E-02
DAV:   3    -0.124074769828E+03    0.13427E-05   -0.22311E-05  9312   0.174E-02    0.414E-03
DAV:   4    -0.124074770298E+03   -0.46937E-06   -0.83371E-06  9216   0.137E-02
  51 F= -.12590652E+03 E0= -.12590399E+03  d E =-.757961E-03  mag=     0.0000
 ZBRENT: can't locate minimum, use default step
 trial-energy change:   -0.000758  1 .order   -0.000757   -0.000824   -0.000689
 step:   0.6402(harm=  0.9774)  dis= 0.00452  next Energy=  -125.908278 (dE=-0.252E-02)
 bond charge predicted
       N       E                     dE             d eps       ncg     rms          rms(c)
DAV:   1    -0.124076357263E+03   -0.15874E-02   -0.24119E-01  8256   0.181E+00    0.927E-02
DAV:   2    -0.124076331274E+03    0.25989E-04   -0.15872E-03 15024   0.152E-01    0.544E-02
DAV:   3    -0.124076301089E+03    0.30185E-04   -0.16977E-04 11664   0.408E-02    0.119E-02
DAV:   4    -0.124076302992E+03   -0.19027E-05   -0.17105E-05 10800   0.171E-02    0.406E-03
DAV:   5    -0.124076305566E+03   -0.25738E-05   -0.69209E-06 11280   0.126E-02    0.172E-03
DAV:   6    -0.124076302516E+03    0.30499E-05   -0.50283E-06 11232   0.104E-02    0.658E-04
DAV:   7    -0.124076301871E+03    0.64521E-06   -0.61353E-07 12288   0.364E-03
  52 F= -.12590798E+03 E0= -.12590546E+03  d E =-.222364E-02  mag=     0.0000
 curvature:  -1.96 expect dE=-0.535E-02 dE for cont linesearch -0.261E-03
 ZBRENT: increasing intervall
 opt :   1.6005  next Energy=  -125.907343 (dE=-0.158E-02)
 bond charge predicted
       N       E                     dE             d eps       ncg     rms          rms(c)
DAV:   1    -0.124076045067E+03    0.25745E-03   -0.96405E-01  8256   0.363E+00    0.185E-01
DAV:   2    -0.124075937858E+03    0.10721E-03   -0.61987E-03 15408   0.299E-01    0.108E-01
DAV:   3    -0.124075805265E+03    0.13259E-03   -0.66192E-04 11088   0.788E-02    0.230E-02
DAV:   4    -0.124075811547E+03   -0.62815E-05   -0.53074E-05 14256   0.251E-02    0.782E-03
DAV:   5    -0.124075812217E+03   -0.66983E-06   -0.20961E-06 11280   0.583E-03
  53 F= -.12590737E+03 E0= -.12590483E+03  d E =-.160803E-02  mag=     0.0000
 curvature:   4.83 expect dE= 0.711E-01 dE for cont linesearch  0.184E-02
 ZBRENT: bracketing found
 ZBRENT: interpolating
 opt :   0.9965  next Energy=  -125.908309 (dE=-0.255E-02)
 bond charge predicted
       N       E                     dE             d eps       ncg     rms          rms(c)
DAV:   1    -0.124076759302E+03   -0.94776E-03   -0.38124E-01  8256   0.228E+00    0.116E-01
DAV:   2    -0.124076716600E+03    0.42702E-04   -0.24455E-03 14448   0.188E-01    0.681E-02
DAV:   3    -0.124076667683E+03    0.48917E-04   -0.26579E-04 11904   0.502E-02    0.143E-02
DAV:   4    -0.124076671103E+03   -0.34207E-05   -0.21055E-05 12720   0.162E-02    0.492E-03
DAV:   5    -0.124076672049E+03   -0.94597E-06   -0.14153E-06 10416   0.560E-03
  54 F= -.12590831E+03 E0= -.12590578E+03  d E =-.254608E-02  mag=     0.0000
 curvature:  -0.85 expect dE=-0.424E-02 dE for cont linesearch -0.264E-08
 trial: gam= 0.95262 g(F)=  0.499E-02 g(S)=  0.000E+00 ort =-0.880E-05 (trialstep = 0.296E+00)
 search vector abs. value=  0.276E-01
 bond charge predicted
       N       E                     dE             d eps       ncg     rms          rms(c)
DAV:   1    -0.124077607034E+03   -0.93593E-03   -0.11963E-01  8256   0.137E+00    0.710E-02
DAV:   2    -0.124077569600E+03    0.37434E-04   -0.10611E-03 16416   0.131E-01    0.405E-02
DAV:   3    -0.124077544766E+03    0.24834E-04   -0.13448E-04 10224   0.394E-02    0.101E-02
DAV:   4    -0.124077545024E+03   -0.25747E-06   -0.16598E-05 10464   0.167E-02    0.442E-03
DAV:   5    -0.124077545414E+03   -0.39068E-06   -0.22349E-06 10944   0.771E-03
  55 F= -.12590919E+03 E0= -.12590664E+03  d E =-.879680E-03  mag=    -0.0000
 trial-energy change:   -0.000880  1 .order   -0.000878   -0.001473   -0.000283
 step:   0.3659(harm=  0.3659)  dis= 0.00264  next Energy=  -125.909218 (dE=-0.911E-03)
 bond charge predicted
       N       E                     dE             d eps       ncg     rms          rms(c)
DAV:   1    -0.124077581771E+03   -0.36747E-04   -0.67643E-03  8256   0.326E-01    0.168E-02
DAV:   2    -0.124077579518E+03    0.22525E-05   -0.62048E-05 12288   0.328E-02    0.971E-03
DAV:   3    -0.124077579466E+03    0.51940E-07   -0.10346E-05  8400   0.136E-02    0.264E-03
DAV:   4    -0.124077579354E+03    0.11197E-06   -0.48828E-06  8544   0.110E-02
  56 F= -.12590922E+03 E0= -.12590667E+03  d E =-.915070E-03  mag=    -0.0000
 curvature:  -1.01 expect dE=-0.424E-03 dE for cont linesearch -0.943E-08
 trial: gam= 0.09010 g(F)=  0.418E-03 g(S)=  0.000E+00 ort = 0.160E-04 (trialstep = 0.310E+00)
 search vector abs. value=  0.645E-03
 bond charge predicted
       N       E                     dE             d eps       ncg     rms          rms(c)
DAV:   1    -0.124077615205E+03   -0.35739E-04   -0.42089E-03  8928   0.250E-01    0.197E-02
DAV:   2    -0.124077602508E+03    0.12697E-04   -0.10749E-04 10224   0.365E-02    0.902E-03
DAV:   3    -0.124077601152E+03    0.13556E-05   -0.11178E-05  9936   0.118E-02    0.331E-03
DAV:   4    -0.124077601366E+03   -0.21359E-06   -0.23917E-06  8640   0.689E-03
  57 F= -.12590930E+03 E0= -.12590675E+03  d E =-.803340E-04  mag=    -0.0000
 trial-energy change:   -0.000080  1 .order   -0.000081   -0.000130   -0.000032
 step:   0.4126(harm=  0.4126)  dis= 0.00060  next Energy=  -125.909308 (dE=-0.865E-04)
 bond charge predicted
       N       E                     dE             d eps       ncg     rms          rms(c)
DAV:   1    -0.124077588662E+03    0.12490E-04   -0.45994E-04  8448   0.831E-02    0.663E-03
DAV:   2    -0.124077587146E+03    0.15155E-05   -0.12562E-05  9120   0.135E-02    0.307E-03
DAV:   3    -0.124077587154E+03   -0.79044E-08   -0.19754E-06  8256   0.602E-03
  58 F= -.12590931E+03 E0= -.12590675E+03  d E =-.854640E-04  mag=     0.0000
 curvature:  -0.32 expect dE=-0.232E-04 dE for cont linesearch -0.487E-08
 trial: gam= 0.18790 g(F)=  0.731E-04 g(S)=  0.000E+00 ort =-0.315E-05 (trialstep = 0.330E+00)
 search vector abs. value=  0.947E-04
 bond charge predicted
       N       E                     dE             d eps       ncg     rms          rms(c)
DAV:   1    -0.124077530749E+03    0.56398E-04   -0.72174E-04  8352   0.108E-01    0.501E-03
DAV:   2    -0.124077530420E+03    0.32865E-06   -0.91427E-06  9792   0.134E-02
  59 F= -.12590933E+03 E0= -.12590677E+03  d E =-.206882E-04  mag=     0.0000
 trial-energy change:   -0.000021  1 .order   -0.000021   -0.000024   -0.000018
 step:   1.3009(harm=  1.3009)  dis= 0.00111  next Energy=  -125.909355 (dE=-0.472E-04)
 bond charge predicted
       N       E                     dE             d eps       ncg     rms          rms(c)
DAV:   1    -0.124077328505E+03    0.20224E-03   -0.61602E-03  8256   0.316E-01    0.151E-02
DAV:   2    -0.124077327056E+03    0.14486E-05   -0.69578E-05 11520   0.344E-02    0.919E-03
DAV:   3    -0.124077326755E+03    0.30119E-06   -0.86070E-06 11520   0.122E-02
  60 F= -.12590935E+03 E0= -.12590680E+03  d E =-.445750E-04  mag=    -0.0000
 curvature:  -0.85 expect dE=-0.865E-04 dE for cont linesearch -0.317E-06
 trial: gam= 1.45863 g(F)=  0.102E-03 g(S)=  0.000E+00 ort =-0.594E-05 (trialstep = 0.174E+00)
 search vector abs. value=  0.286E-03
 bond charge predicted
       N       E                     dE             d eps       ncg     rms          rms(c)
DAV:   1    -0.124077248936E+03    0.78120E-04   -0.80176E-04  8304   0.111E-01    0.564E-03
DAV:   2    -0.124077248218E+03    0.71848E-06   -0.12949E-05  8448   0.168E-02    0.361E-03
DAV:   3    -0.124077248941E+03   -0.72360E-06   -0.36100E-06  9360   0.946E-03
  61 F= -.12590937E+03 E0= -.12590681E+03  d E =-.143890E-04  mag=     0.0000
 trial-energy change:   -0.000014  1 .order   -0.000013   -0.000016   -0.000011
 step:   0.5116(harm=  0.5116)  dis= 0.00051  next Energy=  -125.909376 (dE=-0.238E-04)
 bond charge predicted
       N       E                     dE             d eps       ncg     rms          rms(c)
DAV:   1    -0.124077080514E+03    0.16770E-03   -0.29842E-03  8352   0.213E-01    0.104E-02
DAV:   2    -0.124077079434E+03    0.10793E-05   -0.40939E-05  9120   0.274E-02    0.661E-03
DAV:   3    -0.124077079614E+03   -0.17935E-06   -0.67224E-06 11808   0.118E-02
  62 F= -.12590938E+03 E0= -.12590682E+03  d E =-.245117E-04  mag=    -0.0000
 curvature:  -0.79 expect dE=-0.696E-04 dE for cont linesearch -0.394E-07
 trial: gam= 0.80209 g(F)=  0.886E-04 g(S)=  0.000E+00 ort =-0.379E-05 (trialstep = 0.241E+00)
 search vector abs. value=  0.266E-03
 bond charge predicted
       N       E                     dE             d eps       ncg     rms          rms(c)
DAV:   1    -0.124076953959E+03    0.12548E-03   -0.15168E-03  8256   0.146E-01    0.745E-03
DAV:   2    -0.124076952882E+03    0.10771E-05   -0.21326E-05  8640   0.210E-02    0.472E-03
DAV:   3    -0.124076953756E+03   -0.87406E-06   -0.54750E-06  9168   0.112E-02
  63 F= -.12590940E+03 E0= -.12590684E+03  d E =-.211402E-04  mag=     0.0000
 ZBRENT: can't locate minimum, use default step
 trial-energy change:   -0.000021  1 .order   -0.000020   -0.000021   -0.000019
 step:   0.9651(harm=  3.7851)  dis= 0.00101  next Energy=  -125.909538 (dE=-0.162E-03)
 bond charge predicted
       N       E                     dE             d eps       ncg     rms          rms(c)
DAV:   1    -0.124076571502E+03    0.38138E-03   -0.13494E-02  8256   0.435E-01    0.213E-02
DAV:   2    -0.124076567207E+03    0.42946E-05   -0.16503E-04  8544   0.533E-02    0.132E-02
DAV:   3    -0.124076566644E+03    0.56269E-06   -0.24484E-05 11184   0.200E-02    0.361E-03
DAV:   4    -0.124076567624E+03   -0.97922E-06   -0.90704E-06  8448   0.148E-02
  64 F= -.12590945E+03 E0= -.12590690E+03  d E =-.762395E-04  mag=     0.0000
 curvature:  -2.16 expect dE=-0.195E-03 dE for cont linesearch -0.350E-04
 ZBRENT: increasing intervall
 opt :   2.4127  next Energy=  -125.909527 (dE=-0.151E-03)
 bond charge predicted
       N       E                     dE             d eps       ncg     rms          rms(c)
DAV:   1    -0.124075774750E+03    0.79189E-03   -0.53845E-02  8256   0.869E-01    0.425E-02
DAV:   2    -0.124075759928E+03    0.14822E-04   -0.64777E-04  9312   0.103E-01    0.261E-02
DAV:   3    -0.124075752729E+03    0.71984E-05   -0.83505E-05  9312   0.334E-02    0.703E-03
DAV:   4    -0.124075753983E+03   -0.12542E-05   -0.17047E-05 11568   0.181E-02    0.303E-03
DAV:   5    -0.124075754481E+03   -0.49766E-06   -0.69409E-06 10896   0.127E-02
  65 F= -.12590952E+03 E0= -.12590697E+03  d E =-.146366E-03  mag=    -0.0000
 curvature:  -4.59 expect dE=-0.143E-02 dE for cont linesearch -0.169E-04
 ZBRENT: increasing intervall
 opt :   5.3079  next Energy=  -125.909514 (dE=-0.138E-03)
 bond charge predicted
       N       E                     dE             d eps       ncg     rms          rms(c)
DAV:   1    -0.124074065219E+03    0.16888E-02   -0.21535E-01  8256   0.174E+00    0.843E-02
DAV:   2    -0.124074008389E+03    0.56830E-04   -0.25659E-03 10368   0.201E-01    0.513E-02
DAV:   3    -0.124073973021E+03    0.35368E-04   -0.31383E-04 10800   0.611E-02    0.136E-02
DAV:   4    -0.124073974656E+03   -0.16352E-05   -0.43939E-05 14448   0.233E-02    0.564E-03
DAV:   5    -0.124073975198E+03   -0.54234E-06   -0.22083E-06 11280   0.692E-03
  66 F= -.12590951E+03 E0= -.12590697E+03  d E =-.137144E-03  mag=     0.0000
 curvature:   2.40 expect dE= 0.371E-02 dE for cont linesearch  0.128E-04
 ZBRENT: bracketing found
 ZBRENT: interpolating
 opt :   3.7260  next Energy=  -125.909543 (dE=-0.167E-03)
 bond charge predicted
       N       E                     dE             d eps       ncg     rms          rms(c)
DAV:   1    -0.124074997477E+03   -0.10228E-02   -0.64103E-02  8256   0.949E-01    0.461E-02
DAV:   2    -0.124074980677E+03    0.16800E-04   -0.77589E-04 10944   0.110E-01    0.283E-02
DAV:   3    -0.124074971353E+03    0.93240E-05   -0.96721E-05 11568   0.340E-02    0.749E-03
DAV:   4    -0.124074972548E+03   -0.11952E-05   -0.14006E-05 10128   0.158E-02    0.335E-03
DAV:   5    -0.124074972778E+03   -0.22947E-06   -0.28025E-06  9120   0.829E-03
  67 F= -.12590954E+03 E0= -.12590700E+03  d E =-.167019E-03  mag=     0.0000
 curvature:  -3.85 expect dE=-0.285E-02 dE for cont linesearch -0.396E-07
 trial: gam= 8.56876 g(F)=  0.740E-03 g(S)=  0.000E+00 ort = 0.166E-05 (trialstep = 0.123E-01)
 search vector abs. value=  0.203E-01
 bond charge predicted
       N       E                     dE             d eps       ncg     rms          rms(c)
DAV:   1    -0.124074915452E+03    0.57097E-04   -0.29514E-04 11472   0.646E-02    0.321E-03
DAV:   2    -0.124074915329E+03    0.12236E-06   -0.34337E-06 13536   0.740E-03
  68 F= -.12590955E+03 E0= -.12590701E+03  d E =-.883387E-05  mag=    -0.0000
 ZBRENT: can't locate minimum, use default step
 trial-energy change:   -0.000009  1 .order   -0.000009   -0.000009   -0.000009
 step:   0.0492(harm=  0.0492)  dis= 0.00045  next Energy=  -125.909581 (dE=-0.377E-04)
 bond charge predicted
       N       E                     dE             d eps       ncg     rms          rms(c)
DAV:   1    -0.124074743892E+03    0.17156E-03   -0.26277E-03  8256   0.192E-01    0.945E-03
DAV:   2    -0.124074743196E+03    0.69577E-06   -0.31227E-05  8640   0.224E-02    0.595E-03
DAV:   3    -0.124074743031E+03    0.16577E-06   -0.40947E-06  9264   0.734E-03
  69 F= -.12590958E+03 E0= -.12590703E+03  d E =-.354250E-04  mag=     0.0000
 curvature:  -1.00 expect dE=-0.672E-03 dE for cont linesearch -0.231E-04
 ZBRENT: increasing intervall
 opt :   0.1230  next Energy=  -125.909624 (dE=-0.806E-04)
 bond charge predicted
       N       E                     dE             d eps       ncg     rms          rms(c)
DAV:   1    -0.124074400029E+03    0.34317E-03   -0.10753E-02  8256   0.387E-01    0.189E-02
DAV:   2    -0.124074397003E+03    0.30265E-05   -0.12493E-04  8352   0.449E-02    0.117E-02
DAV:   3    -0.124074395967E+03    0.10356E-05   -0.16599E-05 10080   0.145E-02    0.309E-03
DAV:   4    -0.124074396221E+03   -0.25416E-06   -0.27829E-06  8304   0.690E-03
  70 F= -.12590963E+03 E0= -.12590708E+03  d E =-.865401E-04  mag=     0.0000
 curvature:  -1.95 expect dE=-0.116E-02 dE for cont linesearch -0.428E-04
 ZBRENT: increasing intervall
 opt :   0.2705  next Energy=  -125.909726 (dE=-0.182E-03)
 bond charge predicted
       N       E                     dE             d eps       ncg     rms          rms(c)
DAV:   1    -0.124073706208E+03    0.68976E-03   -0.42776E-02  8256   0.773E-01    0.370E-02
DAV:   2    -0.124073695920E+03    0.10288E-04   -0.50046E-04  8256   0.897E-02    0.228E-02
DAV:   3    -0.124073690594E+03    0.53259E-05   -0.65527E-05 11328   0.289E-02    0.602E-03
DAV:   4    -0.124073691256E+03   -0.66219E-06   -0.10251E-05  9984   0.135E-02    0.255E-03
DAV:   5    -0.124073692005E+03   -0.74899E-06   -0.35479E-06 11184   0.916E-03
  71 F= -.12590972E+03 E0= -.12590718E+03  d E =-.178986E-03  mag=    -0.0000
 curvature:  -4.37 expect dE=-0.205E-02 dE for cont linesearch -0.695E-04
 ZBRENT: increasing intervall
 opt :   0.5656  next Energy=  -125.909861 (dE=-0.317E-03)
 bond charge predicted
       N       E                     dE             d eps       ncg     rms          rms(c)
DAV:   1    -0.124072298386E+03    0.13929E-02   -0.17111E-01  8256   0.154E+00    0.739E-02
DAV:   2    -0.124072258534E+03    0.39852E-04   -0.19902E-03  9984   0.177E-01    0.453E-02
DAV:   3    -0.124072232611E+03    0.25923E-04   -0.24178E-04 10272   0.536E-02    0.119E-02
DAV:   4    -0.124072234219E+03   -0.16078E-05   -0.34159E-05 13536   0.201E-02    0.481E-03
DAV:   5    -0.124072234638E+03   -0.41927E-06   -0.14800E-06 11616   0.532E-03
  72 F= -.12590986E+03 E0= -.12590732E+03  d E =-.317918E-03  mag=     0.0000
 curvature:  -8.70 expect dE=-0.341E-02 dE for cont linesearch -0.584E-04
 ZBRENT: increasing intervall
 opt :   1.1558  next Energy=  -125.909962 (dE=-0.418E-03)
 bond charge predicted
       N       E                     dE             d eps       ncg     rms          rms(c)
DAV:   1    -0.124069396433E+03    0.28378E-02   -0.68454E-01  8256   0.309E+00    0.148E-01
DAV:   2    -0.124069256385E+03    0.14005E-03   -0.79951E-03 11040   0.352E-01    0.903E-02
DAV:   3    -0.124069136141E+03    0.12024E-03   -0.95076E-04 11424   0.105E-01    0.235E-02
DAV:   4    -0.124069138807E+03   -0.26659E-05   -0.12500E-04 14640   0.387E-02    0.971E-03
DAV:   5    -0.124069139010E+03   -0.20260E-06   -0.47628E-06 12048   0.917E-03
  73 F= -.12590997E+03 E0= -.12590743E+03  d E =-.426692E-03  mag=     0.0000
 curvature: -14.94 expect dE=-0.137E-01 dE for cont linesearch -0.398E-06
 trial: gam= 1.29276 g(F)=  0.916E-03 g(S)=  0.000E+00 ort =-0.233E-04 (trialstep = 0.141E+00)
 search vector abs. value=  0.348E-01
 bond charge predicted
       N       E                     dE             d eps       ncg     rms          rms(c)
DAV:   1    -0.124068274008E+03    0.86480E-03   -0.66858E-02  8256   0.966E-01    0.462E-02
DAV:   2    -0.124068260831E+03    0.13177E-04   -0.79794E-04 11328   0.112E-01    0.281E-02
DAV:   3    -0.124068250187E+03    0.10644E-04   -0.90647E-05 10368   0.328E-02    0.752E-03
DAV:   4    -0.124068251252E+03   -0.10651E-05   -0.13210E-05 10176   0.129E-02    0.297E-03
DAV:   5    -0.124068252025E+03   -0.77326E-06   -0.12561E-06  9504   0.518E-03
  74 F= -.12591008E+03 E0= -.12590754E+03  d E =-.113933E-03  mag=     0.0000
 ZBRENT: can't locate minimum, use default step
 trial-energy change:   -0.000114  1 .order   -0.000111   -0.000125   -0.000096
 step:   0.5626(harm=  0.6202)  dis= 0.00662  next Energy=  -125.910245 (dE=-0.275E-03)
 bond charge predicted
       N       E                     dE             d eps       ncg     rms          rms(c)
DAV:   1    -0.124065646625E+03    0.26046E-02   -0.60061E-01  8256   0.290E+00    0.140E-01
DAV:   2    -0.124065501086E+03    0.14554E-03   -0.70632E-03 11424   0.331E-01    0.847E-02
DAV:   3    -0.124065394811E+03    0.10627E-03   -0.83524E-04 11568   0.983E-02    0.222E-02
DAV:   4    -0.124065396855E+03   -0.20437E-05   -0.10727E-04 14160   0.355E-02    0.885E-03
DAV:   5    -0.124065397052E+03   -0.19718E-06   -0.40368E-06 11616   0.791E-03
  75 F= -.12591024E+03 E0= -.12590769E+03  d E =-.271018E-03  mag=    -0.0000
 curvature: -12.01 expect dE=-0.320E-02 dE for cont linesearch -0.154E-06
 trial: gam= 0.19744 g(F)=  0.267E-03 g(S)=  0.000E+00 ort = 0.211E-04 (trialstep = 0.225E+00)
 search vector abs. value=  0.163E-02
 bond charge predicted
       N       E                     dE             d eps       ncg     rms          rms(c)
DAV:   1    -0.124065121063E+03    0.27579E-03   -0.80431E-03  8256   0.341E-01    0.158E-02
DAV:   2    -0.124065121008E+03    0.54684E-07   -0.99693E-05 12960   0.401E-02    0.982E-03
DAV:   3    -0.124065120432E+03    0.57637E-06   -0.10462E-05  9936   0.117E-02    0.292E-03
DAV:   4    -0.124065120952E+03   -0.51958E-06   -0.18745E-06 13440   0.534E-03
  76 F= -.12591029E+03 E0= -.12590774E+03  d E =-.508216E-04  mag=    -0.0000
 trial-energy change:   -0.000051  1 .order   -0.000049   -0.000061   -0.000037
 step:   0.5721(harm=  0.5721)  dis= 0.00126  next Energy=  -125.910319 (dE=-0.775E-04)
 bond charge predicted
       N       E                     dE             d eps       ncg     rms          rms(c)
DAV:   1    -0.124064649052E+03    0.47138E-03   -0.19013E-02  8256   0.525E-01    0.253E-02
DAV:   2    -0.124064646129E+03    0.29228E-05   -0.23318E-04 14016   0.607E-02    0.157E-02
DAV:   3    -0.124064643579E+03    0.25506E-05   -0.25818E-05  8832   0.179E-02    0.435E-03
DAV:   4    -0.124064643960E+03   -0.38166E-06   -0.45480E-06 13104   0.758E-03
  77 F= -.12591032E+03 E0= -.12590776E+03  d E =-.782363E-04  mag=    -0.0000
 curvature:  -1.72 expect dE=-0.387E-03 dE for cont linesearch -0.126E-06
 trial: gam= 0.93152 g(F)=  0.224E-03 g(S)=  0.000E+00 ort =-0.109E-04 (trialstep = 0.294E+00)
 search vector abs. value=  0.162E-02
 bond charge predicted
       N       E                     dE             d eps       ncg     rms          rms(c)
DAV:   1    -0.124064286088E+03    0.35749E-03   -0.12723E-02  8256   0.432E-01    0.202E-02
DAV:   2    -0.124064284036E+03    0.20527E-05   -0.14301E-04 11568   0.479E-02    0.123E-02
DAV:   3    -0.124064282664E+03    0.13715E-05   -0.15670E-05  9168   0.140E-02    0.328E-03
DAV:   4    -0.124064282972E+03   -0.30793E-06   -0.25199E-06 11472   0.577E-03
  78 F= -.12591037E+03 E0= -.12590781E+03  d E =-.496913E-04  mag=    -0.0000
 trial-energy change:   -0.000050  1 .order   -0.000049   -0.000063   -0.000035
 step:   0.6679(harm=  0.6679)  dis= 0.00180  next Energy=  -125.910391 (dE=-0.715E-04)
 bond charge predicted
       N       E                     dE             d eps       ncg     rms          rms(c)
DAV:   1    -0.124063790241E+03    0.49242E-03   -0.20467E-02  8256   0.548E-01    0.254E-02
DAV:   2    -0.124063786650E+03    0.35914E-05   -0.23000E-04 10848   0.608E-02    0.155E-02
DAV:   3    -0.124063784125E+03    0.25247E-05   -0.25258E-05  9024   0.179E-02    0.419E-03
DAV:   4    -0.124063784506E+03   -0.38141E-06   -0.41771E-06 10272   0.781E-03
  79 F= -.12591039E+03 E0= -.12590783E+03  d E =-.724023E-04  mag=    -0.0000
 curvature:  -2.53 expect dE=-0.221E-03 dE for cont linesearch -0.137E-09
 trial: gam= 0.23449 g(F)=  0.875E-04 g(S)=  0.000E+00 ort = 0.296E-06 (trialstep = 0.369E+00)
 search vector abs. value=  0.177E-03
 bond charge predicted
       N       E                     dE             d eps       ncg     rms          rms(c)
DAV:   1    -0.124063674978E+03    0.10915E-03   -0.22676E-03  8256   0.187E-01    0.101E-02
DAV:   2    -0.124063674283E+03    0.69472E-06   -0.34861E-05 10416   0.245E-02    0.611E-03
DAV:   3    -0.124063673945E+03    0.33763E-06   -0.45657E-06  9168   0.855E-03
  80 F= -.12591041E+03 E0= -.12590786E+03  d E =-.212649E-04  mag=     0.0000
 trial-energy change:   -0.000021  1 .order   -0.000021   -0.000032   -0.000009
 step:   0.5116(harm=  0.5116)  dis= 0.00061  next Energy=  -125.910414 (dE=-0.224E-04)
 bond charge predicted
       N       E                     dE             d eps       ncg     rms          rms(c)
DAV:   1    -0.124063625630E+03    0.48653E-04   -0.34839E-04  9696   0.733E-02    0.474E-03
DAV:   2    -0.124063625430E+03    0.20051E-06   -0.54593E-06 11280   0.103E-02
  81 F= -.12591042E+03 E0= -.12590786E+03  d E =-.236340E-04  mag=     0.0000
 curvature:  -0.52 expect dE=-0.271E-04 dE for cont linesearch -0.121E-06
 trial: gam= 0.54231 g(F)=  0.526E-04 g(S)=  0.000E+00 ort = 0.643E-05 (trialstep = 0.398E+00)
 search vector abs. value=  0.112E-03
 bond charge predicted
[...]
       N       E                     dE             d eps       ncg     rms          rms(c)
DAV:   1    -0.124063405888E+03    0.14973E-03   -0.39780E-03  8256   0.249E-01    0.127E-02
DAV:   2    -0.124063405110E+03    0.77803E-06   -0.45523E-05 10800   0.279E-02    0.749E-03
DAV:   3    -0.124063404536E+03    0.57379E-06   -0.53703E-06  9360   0.917E-03
  83 F= -.12591045E+03 E0= -.12590790E+03  d E =-.333799E-04  mag=     0.0000
 curvature:  -1.14 expect dE=-0.639E-04 dE for cont linesearch -0.528E-07
 trial: gam= 1.11967 g(F)=  0.561E-04 g(S)=  0.000E+00 ort = 0.228E-05 (trialstep = 0.303E+00)
 search vector abs. value=  0.201E-03
 bond charge predicted
       N       E                     dE             d eps       ncg     rms          rms(c)
DAV:   1    -0.124063343030E+03    0.62080E-04   -0.10520E-03  8256   0.127E-01    0.664E-03
DAV:   2    -0.124063342885E+03    0.14562E-06   -0.12724E-05 10656   0.150E-02    0.395E-03
DAV:   3    -0.124063342970E+03   -0.84997E-07   -0.16699E-06  8256   0.588E-03
  84 F= -.12591046E+03 E0= -.12590791E+03  d E =-.158072E-04  mag=    -0.0000
 trial-energy change:   -0.000016  1 .order   -0.000015   -0.000018   -0.000013
 step:   1.1157(harm=  1.1157)  dis= 0.00202  next Energy=  -125.910482 (dE=-0.327E-04)
 bond charge predicted
       N       E                     dE             d eps       ncg     rms          rms(c)
DAV:   1    -0.124063154758E+03    0.18813E-03   -0.75039E-03  8256   0.337E-01    0.169E-02
DAV:   2    -0.124063153875E+03    0.88254E-06   -0.85042E-05 10848   0.372E-02    0.987E-03
DAV:   3    -0.124063152938E+03    0.93735E-06   -0.78917E-06  9456   0.109E-02
  85 F= -.12591048E+03 E0= -.12590793E+03  d E =-.330564E-04  mag=     0.0000
 curvature:  -1.91 expect dE=-0.125E-03 dE for cont linesearch -0.277E-07
 trial: gam= 1.24950 g(F)=  0.656E-04 g(S)=  0.000E+00 ort =-0.171E-05 (trialstep = 0.250E+00)
 search vector abs. value=  0.375E-03
 bond charge predicted
       N       E                     dE             d eps       ncg     rms          rms(c)
DAV:   1    -0.124063083468E+03    0.70407E-04   -0.13201E-03  8256   0.143E-01    0.709E-03
DAV:   2    -0.124063083543E+03   -0.74575E-07   -0.14718E-05  9504   0.170E-02    0.443E-03
DAV:   3    -0.124063083964E+03   -0.42193E-06   -0.25886E-06  8688   0.792E-03
  86 F= -.12591050E+03 E0= -.12590794E+03  d E =-.133943E-04  mag=    -0.0000
 trial-energy change:   -0.000013  1 .order   -0.000013   -0.000016   -0.000009
 step:   0.6122(harm=  0.6122)  dis= 0.00155  next Energy=  -125.910501 (dE=-0.194E-04)
 bond charge predicted
       N       E                     dE             d eps       ncg     rms          rms(c)
DAV:   1    -0.124062970983E+03    0.11256E-03   -0.27774E-03  8256   0.208E-01    0.973E-03
DAV:   2    -0.124062971385E+03   -0.40222E-06   -0.29309E-05 10656   0.229E-02    0.605E-03
DAV:   3    -0.124062971421E+03   -0.35893E-07   -0.34016E-06  8832   0.846E-03
  87 F= -.12591050E+03 E0= -.12590794E+03  d E =-.204768E-04  mag=     0.0000
 curvature:  -1.81 expect dE=-0.121E-03 dE for cont linesearch -0.381E-08
 trial: gam= 0.95738 g(F)=  0.670E-04 g(S)=  0.000E+00 ort =-0.889E-06 (trialstep = 0.295E+00)
 search vector abs. value=  0.409E-03
 bond charge predicted
       N       E                     dE             d eps       ncg     rms          rms(c)
DAV:   1    -0.124062889657E+03    0.81727E-04   -0.19028E-03  8352   0.172E-01    0.819E-03
DAV:   2    -0.124062889659E+03   -0.17099E-08   -0.20557E-05  9600   0.193E-02    0.501E-03
DAV:   3    -0.124062889917E+03   -0.25832E-06   -0.27724E-06  8592   0.790E-03
  88 F= -.12591052E+03 E0= -.12590796E+03  d E =-.161510E-04  mag=    -0.0000
 trial-energy change:   -0.000016  1 .order   -0.000016   -0.000020   -0.000012
 step:   0.7744(harm=  0.7744)  dis= 0.00198  next Energy=  -125.910528 (dE=-0.256E-04)
 bond charge predicted
       N       E                     dE             d eps       ncg     rms          rms(c)
DAV:   1    -0.124062741331E+03    0.14833E-03   -0.49947E-03  8352   0.278E-01    0.131E-02
DAV:   2    -0.124062741592E+03   -0.26136E-06   -0.51731E-05 10224   0.299E-02    0.797E-03
DAV:   3    -0.124062741576E+03    0.15977E-07   -0.53761E-06  9648   0.104E-02
  89 F= -.12591053E+03 E0= -.12590797E+03  d E =-.262358E-04  mag=     0.0000
 curvature:  -2.40 expect dE=-0.645E-04 dE for cont linesearch -0.151E-08
 trial: gam= 0.42737 g(F)=  0.269E-04 g(S)=  0.000E+00 ort =-0.508E-06 (trialstep = 0.391E+00)
 search vector abs. value=  0.101E-03
 bond charge predicted
       N       E                     dE             d eps       ncg     rms          rms(c)
DAV:   1    -0.124062690419E+03    0.51173E-04   -0.92136E-04  8352   0.121E-01    0.689E-03
DAV:   2    -0.124062689364E+03    0.10554E-05   -0.14824E-05  8400   0.169E-02    0.385E-03
DAV:   3    -0.124062689654E+03   -0.29049E-06   -0.30723E-06  8352   0.833E-03
  90 F= -.12591054E+03 E0= -.12590798E+03  d E =-.677895E-05  mag=    -0.0000
 trial-energy change:   -0.000007  1 .order   -0.000007   -0.000010   -0.000003
 step:   0.5367(harm=  0.5367)  dis= 0.00059  next Energy=  -125.910536 (dE=-0.717E-05)
 bond charge predicted
       N       E                     dE             d eps       ncg     rms          rms(c)
DAV:   1    -0.124062668349E+03    0.21014E-04   -0.12904E-04  8352   0.462E-02    0.283E-03
DAV:   2    -0.124062667934E+03    0.41555E-06   -0.32103E-06  8832   0.873E-03
  91 F= -.12591054E+03 E0= -.12590798E+03  d E =-.689181E-05  mag=    -0.0000
 curvature:  -1.02 expect dE=-0.640E-05 dE for cont linesearch -0.684E-08
 trial: gam= 0.21385 g(F)=  0.629E-05 g(S)=  0.000E+00 ort = 0.825E-06 (trialstep = 0.420E+00)
 search vector abs. value=  0.113E-04
 bond charge predicted
       N       E                     dE             d eps       ncg     rms          rms(c)
DAV:   1    -0.124062652381E+03    0.15969E-04   -0.14826E-04  8256   0.507E-02    0.301E-03
DAV:   2    -0.124062652075E+03    0.30599E-06   -0.29854E-06  8640   0.879E-03
  92 F= -.12591054E+03 E0= -.12590798E+03  d E =-.187681E-05  mag=    -0.0000
 trial-energy change:   -0.000002  1 .order   -0.000002   -0.000003   -0.000001
 step:   0.7100(harm=  0.7100)  dis= 0.00015  next Energy=  -125.910538 (dE=-0.230E-05)
 bond charge predicted
       N       E                     dE             d eps       ncg     rms          rms(c)
DAV:   1    -0.124062640580E+03    0.11800E-04   -0.68966E-05  8256   0.352E-02    0.231E-03
DAV:   2    -0.124062640225E+03    0.35560E-06   -0.22476E-06  9312   0.780E-03
  93 F= -.12591054E+03 E0= -.12590798E+03  d E =-.225239E-05  mag=    -0.0000
 curvature:  -0.62 expect dE=-0.335E-05 dE for cont linesearch -0.241E-08
 trial: gam= 0.90495 g(F)=  0.541E-05 g(S)=  0.000E+00 ort =-0.210E-06 (trialstep = 0.378E+00)
 search vector abs. value=  0.143E-04
 bond charge predicted
       N       E                     dE             d eps       ncg     rms          rms(c)
DAV:   1    -0.124062623998E+03    0.16583E-04   -0.15787E-04  8256   0.522E-02    0.296E-03
DAV:   2    -0.124062623610E+03    0.38794E-06   -0.32701E-06  9984   0.916E-03
  94 F= -.12591054E+03 E0= -.12590798E+03  d E =-.104005E-05  mag=    -0.0000
 trial-energy change:   -0.000001  1 .order   -0.000001   -0.000002   -0.000001
 step:   0.6225(harm=  0.6225)  dis= 0.00019  next Energy=  -125.910539 (dE=-0.162E-05)
 bond charge predicted
       N       E                     dE             d eps       ncg     rms          rms(c)
DAV:   1    -0.124062612770E+03    0.11227E-04   -0.65257E-05  8256   0.342E-02    0.226E-03
DAV:   2    -0.124062612421E+03    0.34939E-06   -0.21468E-06  9600   0.758E-03
  95 F= -.12591054E+03 E0= -.12590798E+03  d E =-.126837E-05  mag=    -0.0000
 curvature:  -0.85 expect dE=-0.404E-05 dE for cont linesearch -0.151E-08
 trial: gam= 0.76778 g(F)=  0.474E-05 g(S)=  0.000E+00 ort =-0.159E-06 (trialstep = 0.427E+00)
 search vector abs. value=  0.129E-04
 bond charge predicted
       N       E                     dE             d eps       ncg     rms          rms(c)
DAV:   1    -0.124062595388E+03    0.17382E-04   -0.17739E-04  8256   0.561E-02    0.270E-03
DAV:   2    -0.124062595118E+03    0.27012E-06   -0.31746E-06  9120   0.924E-03
  96 F= -.12591054E+03 E0= -.12590799E+03  d E =-.174261E-05  mag=    -0.0000
 trial-energy change:   -0.000002  1 .order   -0.000002   -0.000002   -0.000001
 step:   1.4239(harm=  1.4239)  dis= 0.00035  next Energy=  -125.910542 (dE=-0.329E-05)
 bond charge predicted
       N       E                     dE             d eps       ncg     rms          rms(c)
DAV:   1    -0.124062552655E+03    0.42734E-04   -0.96204E-04  8256   0.129E-01    0.598E-03
DAV:   2    -0.124062552492E+03    0.16284E-06   -0.11024E-05  8736   0.156E-02    0.395E-03
DAV:   3    -0.124062553117E+03   -0.62541E-06   -0.25503E-06  8256   0.817E-03
  97 F= -.12591054E+03 E0= -.12590799E+03  d E =-.421433E-05  mag=     0.0000
 curvature:  -1.99 expect dE=-0.300E-04 dE for cont linesearch -0.341E-09
 trial: gam= 3.08865 g(F)=  0.151E-04 g(S)=  0.000E+00 ort = 0.470E-07 (trialstep = 0.584E-01)
 search vector abs. value=  0.139E-03
 bond charge predicted
       N       E                     dE             d eps       ncg     rms          rms(c)
DAV:   1    -0.124062545288E+03    0.72041E-05   -0.36115E-05  9120   0.271E-02    0.131E-03
DAV:   2    -0.124062544916E+03    0.37182E-06   -0.18638E-06 10800   0.710E-03
  98 F= -.12591054E+03 E0= -.12590799E+03  d E =-.313681E-06  mag=     0.0000
 ZBRENT: can't locate minimum, use default step
 trial-energy change:   -0.000000  1 .order   -0.000001   -0.000001   -0.000001
 step:   0.2335(harm=  2.0828)  dis= 0.00021  next Energy=  -125.910559 (dE=-0.159E-04)
 bond charge predicted
       N       E                     dE             d eps       ncg     rms          rms(c)
DAV:   1    -0.124062521648E+03    0.23640E-04   -0.30140E-04  9024   0.729E-02    0.325E-03
DAV:   2    -0.124062521639E+03    0.92377E-08   -0.29752E-06  9504   0.811E-03
  99 F= -.12591055E+03 E0= -.12590799E+03  d E =-.258228E-05  mag=     0.0000
 curvature:  -1.57 expect dE=-0.160E-04 dE for cont linesearch -0.172E-05
 ZBRENT: increasing intervall
 opt :   0.5837  next Energy=  -125.910549 (dE=-0.604E-05)
 bond charge predicted
       N       E                     dE             d eps       ncg     rms          rms(c)
DAV:   1    -0.124062474193E+03    0.47455E-04   -0.11971E-03  8304   0.145E-01    0.605E-03
DAV:   2    -0.124062474451E+03   -0.25802E-06   -0.11275E-05  8928   0.151E-02    0.422E-03
DAV:   3    -0.124062474855E+03   -0.40366E-06   -0.17997E-06  8448   0.692E-03
 100 F= -.12591055E+03 E0= -.12590799E+03  d E =-.689491E-05  mag=    -0.0000
 curvature:  -3.14 expect dE=-0.253E-04 dE for cont linesearch -0.166E-05
 ZBRENT: increasing intervall
 opt :   1.2840  next Energy=  -125.910554 (dE=-0.102E-04)
 bond charge predicted
       N       E                     dE             d eps       ncg     rms          rms(c)
DAV:   1    -0.124062374375E+03    0.10008E-03   -0.48149E-03  8256   0.290E-01    0.113E-02
DAV:   2    -0.124062375990E+03   -0.16150E-05   -0.43157E-05  8256   0.282E-02    0.793E-03
DAV:   3    -0.124062376292E+03   -0.30215E-06   -0.38861E-06  9024   0.977E-03
 101 F= -.12591055E+03 E0= -.12590799E+03  d E =-.105344E-04  mag=     0.0000
 curvature:  -6.32 expect dE=-0.128E-03 dE for cont linesearch -0.723E-08
 trial: gam= 1.40694 g(F)=  0.202E-04 g(S)=  0.000E+00 ort = 0.398E-06 (trialstep = 0.142E+00)
 search vector abs. value=  0.296E-03
 bond charge predicted
       N       E                     dE             d eps       ncg     rms          rms(c)
DAV:   1    -0.124062349289E+03    0.26700E-04   -0.42190E-04  8400   0.867E-02    0.374E-03
DAV:   2    -0.124062348978E+03    0.31120E-06   -0.54162E-06  8352   0.118E-02
 102 F= -.12591056E+03 E0= -.12590800E+03  d E =-.263979E-05  mag=     0.0000
 ZBRENT: can't locate minimum, use default step
 trial-energy change:   -0.000003  1 .order   -0.000003   -0.000003   -0.000003
 step:   0.5690(harm=  1.4003)  dis= 0.00059  next Energy=  -125.910568 (dE=-0.146E-04)
 bond charge predicted
       N       E                     dE             d eps       ncg     rms          rms(c)
DAV:   1    -0.124062266500E+03    0.82789E-04   -0.37726E-03  8256   0.257E-01    0.108E-02
DAV:   2    -0.124062267166E+03   -0.66575E-06   -0.35052E-05  8256   0.264E-02    0.752E-03
DAV:   3    -0.124062268337E+03   -0.11714E-05   -0.52815E-06  9648   0.118E-02    0.233E-03
DAV:   4    -0.124062268104E+03    0.23337E-06   -0.54250E-06  8304   0.114E-02
 103 F= -.12591057E+03 E0= -.12590801E+03  d E =-.116333E-04  mag=     0.0000
 curvature:  -5.61 expect dE=-0.764E-04 dE for cont linesearch -0.469E-05
 ZBRENT: increasing intervall
 opt :   1.4225  next Energy=  -125.910576 (dE=-0.225E-04)
 bond charge predicted
       N       E                     dE             d eps       ncg     rms          rms(c)
DAV:   1    -0.124062092524E+03    0.17581E-03   -0.15116E-02  8256   0.513E-01    0.202E-02
DAV:   2    -0.124062098227E+03   -0.57028E-05   -0.13064E-04  8256   0.467E-02    0.141E-02
DAV:   3    -0.124062097221E+03    0.10054E-05   -0.78565E-06  9552   0.114E-02    0.436E-03
DAV:   4    -0.124062097336E+03   -0.11463E-06   -0.13415E-06  8256   0.575E-03
 104 F= -.12591057E+03 E0= -.12590802E+03  d E =-.206339E-04  mag=     0.0000
 curvature: -13.02 expect dE=-0.326E-03 dE for cont linesearch -0.233E-05
 ZBRENT: increasing intervall
 opt :   3.1294  next Energy=  -125.910572 (dE=-0.186E-04)
 bond charge predicted
       N       E                     dE             d eps       ncg     rms          rms(c)
DAV:   1    -0.124061720173E+03    0.37705E-03   -0.60472E-02  8256   0.103E+00    0.403E-02
DAV:   2    -0.124061742108E+03   -0.21934E-04   -0.50587E-04  8256   0.919E-02    0.281E-02
DAV:   3    -0.124061737480E+03    0.46275E-05   -0.31285E-05 11136   0.223E-02    0.851E-03
DAV:   4    -0.124061737637E+03   -0.15626E-06   -0.43202E-06  8256   0.101E-02
 105 F= -.12591057E+03 E0= -.12590802E+03  d E =-.206521E-04  mag=     0.0000
 curvature:  11.20 expect dE= 0.137E-02 dE for cont linesearch  0.354E-05
 ZBRENT: bracketing found
 ZBRENT: interpolating
 opt :   2.1555  next Energy=  -125.910577 (dE=-0.233E-04)
 bond charge predicted
       N       E                     dE             d eps       ncg     rms          rms(c)
DAV:   1    -0.124061940706E+03   -0.20323E-03   -0.19628E-02  8256   0.585E-01    0.227E-02
DAV:   2    -0.124061947764E+03   -0.70580E-05   -0.17052E-04 10560   0.540E-02    0.160E-02
DAV:   3    -0.124061947028E+03    0.73522E-06   -0.11174E-05  8880   0.149E-02    0.465E-03
DAV:   4    -0.124061947510E+03   -0.48202E-06   -0.55094E-06  9312   0.119E-02
 106 F= -.12591058E+03 E0= -.12590802E+03  d E =-.252469E-04  mag=     0.0000
 curvature:  -8.44 expect dE=-0.450E-03 dE for cont linesearch -0.151E-06
 trial: gam= 2.73815 g(F)=  0.533E-04 g(S)=  0.000E+00 ort = 0.230E-05 (trialstep = 0.706E-01)
 search vector abs. value=  0.228E-02
 bond charge predicted
       N       E                     dE             d eps       ncg     rms          rms(c)
DAV:   1    -0.124061909922E+03    0.37106E-04   -0.80052E-04  8400   0.119E-01    0.432E-03
DAV:   2    -0.124061909943E+03   -0.20664E-07   -0.78842E-06  8448   0.131E-02
 107 F= -.12591058E+03 E0= -.12590802E+03  d E =-.265548E-05  mag=     0.0000
 ZBRENT: can't locate minimum, use default step
 trial-energy change:   -0.000003  1 .order   -0.000004   -0.000004   -0.000003
 step:   0.2823(harm=  0.4175)  dis= 0.00076  next Energy=  -125.910592 (dE=-0.124E-04)
 bond charge predicted
       N       E                     dE             d eps       ncg     rms          rms(c)
DAV:   1    -0.124061798926E+03    0.11100E-03   -0.71973E-03  8256   0.354E-01    0.147E-02
DAV:   2    -0.124061801278E+03   -0.23522E-05   -0.61415E-05  8256   0.330E-02    0.103E-02
DAV:   3    -0.124061801473E+03   -0.19431E-06   -0.52983E-06  8448   0.111E-02
 108 F= -.12591059E+03 E0= -.12590804E+03  d E =-.149074E-04  mag=    -0.0000
 curvature:  -6.78 expect dE=-0.321E-03 dE for cont linesearch -0.735E-05
 ZBRENT: increasing intervall
 opt :   0.7058  next Energy=  -125.910615 (dE=-0.361E-04)
 bond charge predicted
       N       E                     dE             d eps       ncg     rms          rms(c)
DAV:   1    -0.124061571982E+03    0.22930E-03   -0.28833E-02  8256   0.708E-01    0.278E-02
DAV:   2    -0.124061583258E+03   -0.11276E-04   -0.24116E-04  8256   0.643E-02    0.196E-02
DAV:   3    -0.124061582259E+03    0.99934E-06   -0.15883E-05  9840   0.181E-02    0.600E-03
DAV:   4    -0.124061582575E+03   -0.31642E-06   -0.61940E-06  8256   0.128E-02
 109 F= -.12591062E+03 E0= -.12590805E+03  d E =-.374385E-04  mag=    -0.0000
 curvature: -19.51 expect dE=-0.852E-03 dE for cont linesearch -0.164E-04
 ZBRENT: increasing intervall
 opt :   1.5527  next Energy=  -125.910649 (dE=-0.695E-04)
 bond charge predicted
       N       E                     dE             d eps       ncg     rms          rms(c)
DAV:   1    -0.124061098181E+03    0.48408E-03   -0.11542E-01  8256   0.142E+00    0.554E-02
DAV:   2    -0.124061143202E+03   -0.45021E-04   -0.94933E-04  8832   0.126E-01    0.389E-02
DAV:   3    -0.124061135437E+03    0.77644E-05   -0.55993E-05 10032   0.310E-02    0.116E-02
DAV:   4    -0.124061135761E+03   -0.32328E-06   -0.11678E-05  9120   0.173E-02    0.303E-03
DAV:   5    -0.124061136134E+03   -0.37324E-06   -0.78434E-06  8736   0.137E-02
 110 F= -.12591065E+03 E0= -.12590809E+03  d E =-.741955E-04  mag=     0.0000
 curvature: -38.14 expect dE=-0.216E-02 dE for cont linesearch -0.216E-04
 ZBRENT: increasing intervall
 opt :   3.2466  next Energy=  -125.910701 (dE=-0.122E-03)
 bond charge predicted
       N       E                     dE             d eps       ncg     rms          rms(c)
DAV:   1    -0.124060065524E+03    0.10702E-02   -0.46143E-01  8256   0.283E+00    0.110E-01
DAV:   2    -0.124060249433E+03   -0.18391E-03   -0.38013E-03 10560   0.248E-01    0.779E-02
DAV:   3    -0.124060208525E+03    0.40908E-04   -0.19248E-04  9984   0.520E-02    0.217E-02
DAV:   4    -0.124060208327E+03    0.19799E-06   -0.24537E-05 12048   0.201E-02    0.576E-03
DAV:   5    -0.124060208293E+03    0.34439E-07   -0.39180E-06  9456   0.943E-03
 111 F= -.12591069E+03 E0= -.12590811E+03  d E =-.113469E-03  mag=    -0.0000
 curvature: -84.13 expect dE=-0.139E-01 dE for cont linesearch -0.589E-05
 ZBRENT: increasing intervall
 opt :   6.6344  next Energy=  -125.910656 (dE=-0.773E-04)
 bond charge predicted
       N       E                     dE             d eps       ncg     rms          rms(c)
DAV:   1    -0.124057680874E+03    0.25275E-02   -0.18457E+00  8256   0.566E+00    0.221E-01
DAV:   2    -0.124058415640E+03   -0.73477E-03   -0.15119E-02 11712   0.494E-01    0.156E-01
DAV:   3    -0.124058238949E+03    0.17669E-03   -0.75706E-04 10896   0.101E-01    0.419E-02
DAV:   4    -0.124058237899E+03    0.10505E-05   -0.93037E-05 12864   0.383E-02    0.115E-02
DAV:   5    -0.124058237323E+03    0.57531E-06   -0.12081E-05 11472   0.162E-02    0.367E-03
DAV:   6    -0.124058238246E+03   -0.92299E-06   -0.90050E-06  9216   0.149E-02
 112 F= -.12591066E+03 E0= -.12590806E+03  d E =-.819311E-04  mag=    -0.0000
 curvature: 516.47 expect dE= 0.369E+00 dE for cont linesearch  0.236E-03
 ZBRENT: bracketing found
 ZBRENT: interpolating
 opt :   4.1998  next Energy=  -125.910699 (dE=-0.119E-03)
 bond charge predicted
       N       E                     dE             d eps       ncg     rms          rms(c)
DAV:   1    -0.124059371602E+03   -0.11343E-02   -0.95303E-01  8256   0.407E+00    0.159E-01
DAV:   2    -0.124059759985E+03   -0.38838E-03   -0.79296E-03 11520   0.356E-01    0.112E-01
DAV:   3    -0.124059670348E+03    0.89637E-04   -0.38765E-04 12672   0.713E-02    0.304E-02
DAV:   4    -0.124059670491E+03   -0.14244E-06   -0.43069E-05 10128   0.245E-02    0.820E-03
