Lattice                                 
           1
     4.317137    2.492500    0.000000
    -4.317137    2.492500    0.000000
     0.000000    0.000000   15.000000
   B    C 
     8     8
Direct configuration=     1
   0.66888689  0.00000000  0.10000000
   0.33111211  0.00000000  0.10000000
   0.00000000  0.33111211  0.10000000
   0.00000000  0.66888689  0.10000000
   0.33111211  0.33111211  0.10000000
   0.66888689  0.66888689  0.10000000
   0.66666600  0.33333300  0.09922189
   0.33333300  0.66666600  0.10077811
   0.27777711  0.22222189  0.46960000
   0.44444411  0.05555489  0.46960000
   0.27777711  0.72222189  0.46960000
   0.44444411  0.55555489  0.46960000
   0.77777711  0.22222189  0.46960000
   0.94444411  0.05555489  0.46960000
   0.77777711  0.72222189  0.46960000
   0.94444411  0.55555489  0.46960000
Direct configuration=     2
   0.67042988 -0.00000011  0.10002613
   0.32956922 -0.00000013  0.10002619
   0.00000011  0.32956912  0.10002613
   0.00000013  0.67042978  0.10002619
   0.32956890  0.32956889  0.10002622
   0.67043011  0.67043010  0.10002622
   0.66666614  0.33333286  0.09924593
   0.33333260  0.66666640  0.10081257
   0.27777228  0.22221748  0.46957336
   0.44444188  0.05555714  0.46957275
   0.27777719  0.72222181  0.46957225
   0.44444491  0.55555409  0.46957297
   0.77778051  0.22221849  0.46957318
   0.94444465  0.05555435  0.46957382
   0.77778152  0.72222672  0.46957336
   0.94444186  0.55555712  0.46957275
Direct configuration=     3
   0.66968965 -0.00000005  0.10001360
   0.33030941 -0.00000007  0.10001362
   0.00000005  0.33030935  0.10001360
   0.00000007  0.66968959  0.10001362
   0.33030924  0.33030923  0.10001364
   0.66968977  0.66968976  0.10001364
   0.66666607  0.33333293  0.09923439
   0.33333279  0.66666621  0.10079604
   0.27777460  0.22221960  0.46958614
   0.44444295  0.05555606  0.46958582
   0.27777715  0.72222185  0.46958556
   0.44444453  0.55555447  0.46958594
   0.77777888  0.22222012  0.46958605
   0.94444439  0.05555461  0.46958638
   0.77777940  0.72222440  0.46958614
   0.94444294  0.55555605  0.46958582
Direct configuration=     4
   0.66969304 -0.00000005  0.10001365
   0.33030601 -0.00000007  0.10001368
   0.00000005  0.33030596  0.10001365
   0.00000007  0.66969299  0.10001368
   0.33030584  0.33030584  0.10001370
   0.66969316  0.66969316  0.10001370
   0.66666607  0.33333293  0.09923445
   0.33333279  0.66666621  0.10079611
   0.27777459  0.22221959  0.46958608
   0.44444294  0.05555607  0.46958576
   0.27777715  0.72222185  0.46958550
   0.44444453  0.55555447  0.46958588
   0.77777889  0.22222011  0.46958599
   0.94444439  0.05555461  0.46958632
   0.77777941  0.72222441  0.46958608
   0.94444293  0.55555606  0.46958576
Direct configuration=     5
   0.66969173 -0.00000005  0.10001363
   0.33030733 -0.00000007  0.10001366
   0.00000005  0.33030727  0.10001363
   0.00000007  0.66969167  0.10001366
   0.33030716  0.33030715  0.10001367
   0.66969185  0.66969184  0.10001367
   0.66666607  0.33333293  0.09923443
   0.33333279  0.66666621  0.10079608
   0.27777459  0.22221959  0.46958611
   0.44444295  0.05555606  0.46958578
   0.27777715  0.72222185  0.46958552
   0.44444453  0.55555447  0.46958590
   0.77777889  0.22222011  0.46958601
   0.94444439  0.05555461  0.46958635
   0.77777941  0.72222441  0.46958611
   0.94444294  0.55555605  0.46958578
Direct configuration=     6
   0.66969069 -0.00000005  0.10001361
   0.33030837 -0.00000007  0.10001364
   0.00000005  0.33030831  0.10001361
   0.00000007  0.66969063  0.10001364
   0.33030820  0.33030819  0.10001366
   0.66969081  0.66969080  0.10001366
   0.66666607  0.33333293  0.09923441
   0.33333279  0.66666621  0.10079606
   0.27777460  0.22221959  0.46958612
   0.44444295  0.05555606  0.46958580
   0.27777715  0.72222185  0.46958554
   0.44444453  0.55555447  0.46958592
   0.77777888  0.22222012  0.46958603
   0.94444439  0.05555461  0.46958636
   0.77777941  0.72222440  0.46958612
   0.94444294  0.55555605  0.46958580
Direct configuration=     7
   0.66969078 -0.00000008  0.10003755
   0.33030838 -0.00000003  0.10003763
   0.00000008  0.33030822  0.10003755
   0.00000003  0.66969062  0.10003763
   0.33030826  0.33030824  0.10003767
   0.66969076  0.66969074  0.10003767
   0.66666605  0.33333295  0.09925892
   0.33333277  0.66666623  0.10082424
   0.27777786  0.22222330  0.46956177
   0.44444496  0.05555392  0.46956101
   0.27777669  0.72222231  0.46956043
   0.44444424  0.55555476  0.46956128
   0.77777587  0.22222313  0.46956155
   0.94444436  0.05555464  0.46956231
   0.77777570  0.72222114  0.46956177
   0.94444508  0.55555404  0.46956101
Direct configuration=     8
   0.66969107 -0.00000014  0.10010937
   0.33030842  0.00000008  0.10010959
   0.00000014  0.33030793  0.10010937
  -0.00000008  0.66969058  0.10010959
   0.33030843  0.33030837  0.10010970
   0.66969063  0.66969057  0.10010970
   0.66666600  0.33333300  0.09933246
   0.33333272  0.66666628  0.10090878
   0.27778766  0.22223444  0.46948871
   0.44445102  0.05554751  0.46948664
   0.27777532  0.72222368  0.46948508
   0.44444338  0.55555562  0.46948737
   0.77776685  0.22223215  0.46948812
   0.94444427  0.05555473  0.46949016
   0.77776456  0.72221134  0.46948871
   0.94445149  0.55554798  0.46948664
Direct configuration=     9
   0.66969166 -0.00000027  0.10025301
   0.33030851  0.00000029  0.10025352
   0.00000027  0.33030734  0.10025301
  -0.00000029  0.66969049  0.10025352
   0.33030878  0.33030863  0.10025377
   0.66969037  0.66969022  0.10025377
   0.66666588  0.33333312  0.09947953
   0.33333261  0.66666639  0.10107787
   0.27780725  0.22225670  0.46934260
   0.44446312  0.05553468  0.46933789
   0.27777257  0.72222643  0.46933439
   0.44444165  0.55555735  0.46933954
   0.77774880  0.22225020  0.46934125
   0.94444408  0.05555492  0.46934584
   0.77774230  0.72219175  0.46934260
   0.94446432  0.55553588  0.46933789
Direct configuration=    10
   0.66969282 -0.00000053  0.10054028
   0.33030869  0.00000072  0.10054136
   0.00000053  0.33030618  0.10054028
  -0.00000072  0.66969031  0.10054136
   0.33030948  0.33030916  0.10054192
   0.66968984  0.66968952  0.10054192
   0.66666566  0.33333334  0.09977366
   0.33333240  0.66666660  0.10141604
   0.27784644  0.22230123  0.46905036
   0.44448733  0.05550901  0.46904041
   0.27776706  0.72223194  0.46903302
   0.44443820  0.55556080  0.46904389
   0.77771270  0.22228630  0.46904752
   0.94444371  0.05555529  0.46905722
   0.77769777  0.72215256  0.46905036
   0.94448999  0.55551167  0.46904041
Direct configuration=    11
   0.66969514 -0.00000106  0.10111482
   0.33030904  0.00000159  0.10111706
   0.00000106  0.33030386  0.10111482
  -0.00000159  0.66968996  0.10111706
   0.33031088  0.33031022  0.10111820
   0.66968878  0.66968812  0.10111820
   0.66666521  0.33333379  0.10036194
   0.33333197  0.66666703  0.10209239
   0.27792481  0.22239029  0.46846589
   0.44453574  0.05545768  0.46844543
   0.27775606  0.72224294  0.46843026
   0.44443129  0.55556771  0.46845259
   0.77764050  0.22235850  0.46846005
   0.94444297  0.05555603  0.46847997
   0.77760871  0.72207419  0.46846589
   0.94454132  0.55546326  0.46844543
Direct configuration=    12
   0.66969978 -0.00000210  0.10226390
   0.33030973  0.00000331  0.10226845
   0.00000210  0.33029922  0.10226390
  -0.00000331  0.66968927  0.10226845
   0.33031369  0.33031234  0.10227077
   0.66968666  0.66968531  0.10227077
   0.66666431  0.33333469  0.10153849
   0.33333112  0.66666788  0.10344507
   0.27808156  0.22256841  0.46729696
   0.44463257  0.05535502  0.46725547
   0.27773405  0.72226495  0.46722474
   0.44441748  0.55558152  0.46727000
   0.77749611  0.22250289  0.46728512
   0.94444148  0.05555752  0.46732548
   0.77743059  0.72191744  0.46729696
   0.94464398  0.55536643  0.46725547
Direct configuration=    13
   0.66970908 -0.00000419  0.10456207
   0.33031113  0.00000677  0.10457124
   0.00000419  0.33028992  0.10456207
  -0.00000677  0.66968787  0.10457124
   0.33031929  0.33031657  0.10457590
   0.66968243  0.66967971  0.10457590
   0.66666250  0.33333650  0.10389160
   0.33332940  0.66666960  0.10615045
   0.27839505  0.22292464  0.46495909
   0.44482623  0.05514971  0.46487556
   0.27769002  0.72230898  0.46481371
   0.44438986  0.55560914  0.46490480
   0.77720732  0.22279168  0.46493525
   0.94443851  0.05556049  0.46501648
   0.77707436  0.72160395  0.46495909
   0.94484929  0.55517277  0.46487556
Direct configuration=    14
   0.66972766 -0.00000836  0.10915840
   0.33031393  0.00001367  0.10917681
   0.00000836  0.33027134  0.10915840
  -0.00001367  0.66968507  0.10917681
   0.33033050  0.33032503  0.10918616
   0.66967397  0.66966850  0.10918616
   0.66665889  0.33334011  0.10859781
   0.33332598  0.66667302  0.11156119
   0.27902203  0.22363711  0.46028335
   0.44521354  0.05473908  0.46011573
   0.27760198  0.72239702  0.45999165
   0.44433462  0.55566438  0.46017441
   0.77662973  0.22336927  0.46023553
   0.94443256  0.05556644  0.46039850
   0.77636189  0.72097697  0.46028335
   0.94525992  0.55478546  0.46011573
Direct configuration=    15
   0.66972766 -0.00000837  0.10915953
   0.33031393  0.00001367  0.10917795
   0.00000837  0.33027134  0.10915953
  -0.00001367  0.66968507  0.10917795
   0.33033050  0.33032504  0.10918729
   0.66967396  0.66966850  0.10918729
   0.66665889  0.33334011  0.10859897
   0.33332598  0.66667302  0.11156252
   0.27902208  0.22363715  0.46028220
   0.44521355  0.05473906  0.46011456
   0.27760198  0.72239702  0.45999047
   0.44433461  0.55566439  0.46017324
   0.77662971  0.22336929  0.46023437
   0.94443255  0.05556645  0.46039736
   0.77636185  0.72097692  0.46028220
   0.94525994  0.55478545  0.46011456
Direct configuration=    16
   0.66972766 -0.00000837  0.10916292
   0.33031393  0.00001367  0.10918134
   0.00000837  0.33027134  0.10916292
  -0.00001367  0.66968507  0.10918134
   0.33033051  0.33032504  0.10919069
   0.66967396  0.66966849  0.10919069
   0.66665889  0.33334011  0.10860243
   0.33332598  0.66667302  0.11156650
   0.27902222  0.22363725  0.46027875
   0.44521359  0.05473902  0.46011106
   0.27760200  0.72239700  0.45998693
   0.44433457  0.55566443  0.46016976
   0.77662963  0.22336937  0.46023091
   0.94443251  0.05556649  0.46039395
   0.77636175  0.72097678  0.46027875
   0.94525998  0.55478541  0.46011106
Direct configuration=    17
   0.66972767 -0.00000838  0.10916969
   0.33031394  0.00001367  0.10918813
   0.00000838  0.33027133  0.10916969
  -0.00001367  0.66968506  0.10918813
   0.33033053  0.33032506  0.10919749
   0.66967394  0.66966847  0.10919749
   0.66665889  0.33334011  0.10860935
   0.33332597  0.66667303  0.11157446
   0.27902250  0.22363745  0.46027186
   0.44521367  0.05473893  0.46010405
   0.27760203  0.72239697  0.45997984
   0.44433449  0.55566451  0.46016279
   0.77662948  0.22336952  0.46022398
   0.94443245  0.05556655  0.46038713
   0.77636155  0.72097650  0.46027186
   0.94526007  0.55478533  0.46010405
Direct configuration=    18
   0.66972769 -0.00000841  0.10918324
   0.33031395  0.00001367  0.10920171
   0.00000841  0.33027131  0.10918324
  -0.00001367  0.66968505  0.10920171
   0.33033055  0.33032510  0.10921108
   0.66967390  0.66966845  0.10921108
   0.66665889  0.33334011  0.10862320
   0.33332596  0.66667304  0.11159038
   0.27902307  0.22363785  0.46025807
   0.44521382  0.05473875  0.46009004
   0.27760208  0.72239692  0.45996566
   0.44433433  0.55566467  0.46014886
   0.77662917  0.22336983  0.46021013
   0.94443233  0.05556667  0.46037350
   0.77636115  0.72097593  0.46025807
   0.94526025  0.55478518  0.46009004
Direct configuration=    19
   0.66972774 -0.00000846  0.10921034
   0.33031397  0.00001366  0.10922886
   0.00000846  0.33027126  0.10921034
  -0.00001366  0.66968503  0.10922886
   0.33033061  0.33032516  0.10923826
   0.66967384  0.66966839  0.10923826
   0.66665889  0.33334011  0.10865089
   0.33332594  0.66667306  0.11162223
   0.27902420  0.22363866  0.46023049
   0.44521414  0.05473839  0.46006201
   0.27760219  0.72239681  0.45993731
   0.44433400  0.55566500  0.46012099
   0.77662856  0.22337044  0.46018242
   0.94443208  0.05556692  0.46034622
   0.77636034  0.72097480  0.46023049
   0.94526061  0.55478486  0.46006201
Direct configuration=    20
   0.66972782 -0.00000856  0.10926454
   0.33031402  0.00001365  0.10928316
   0.00000856  0.33027118  0.10926454
  -0.00001365  0.66968498  0.10928316
   0.33033073  0.33032530  0.10929262
   0.66967370  0.66966827  0.10929262
   0.66665888  0.33334012  0.10870628
   0.33332590  0.66667310  0.11168592
   0.27902645  0.22364028  0.46017534
   0.44521476  0.05473768  0.46000597
   0.27760242  0.72239658  0.45988061
   0.44433335  0.55566565  0.46006524
   0.77662733  0.22337167  0.46012701
   0.94443159  0.05556741  0.46029168
   0.77635872  0.72097255  0.46017534
   0.94526132  0.55478424  0.46000597
Direct configuration=    21
   0.66972799 -0.00000876  0.10937294
   0.33031410  0.00001362  0.10939178
   0.00000876  0.33027101  0.10937294
  -0.00001362  0.66968490  0.10939178
   0.33033096  0.33032557  0.10940134
   0.66967343  0.66966804  0.10940134
   0.66665886  0.33334014  0.10881706
   0.33332582  0.66667318  0.11181331
   0.27903097  0.22364351  0.46006502
   0.44521601  0.05473626  0.45989387
   0.27760286  0.72239614  0.45976720
   0.44433205  0.55566695  0.45995376
   0.77662488  0.22337412  0.46001619
   0.94443060  0.05556840  0.46018258
   0.77635549  0.72096803  0.46006502
   0.94526274  0.55478299  0.45989387
Direct configuration=    22
   0.66972832 -0.00000916  0.10958974
   0.33031428  0.00001357  0.10960900
   0.00000916  0.33027068  0.10958974
  -0.00001357  0.66968472  0.10960900
   0.33033142  0.33032611  0.10961878
   0.66967289  0.66966758  0.10961878
   0.66665882  0.33334018  0.10903861
   0.33332565  0.66667335  0.11206808
   0.27904000  0.22364998  0.45984440
   0.44521851  0.05473342  0.45966967
   0.27760375  0.72239525  0.45954038
   0.44432945  0.55566955  0.45973079
   0.77661998  0.22337902  0.45979456
   0.94442863  0.05557037  0.45996439
   0.77634902  0.72095900  0.45984440
   0.94526558  0.55478049  0.45966967
Direct configuration=    23
   0.66972898 -0.00000995  0.11002334
   0.33031464  0.00001346  0.11004346
   0.00000995  0.33027002  0.11002334
  -0.00001346  0.66968436  0.11004346
   0.33033234  0.33032720  0.11005366
   0.66967180  0.66966666  0.11005366
   0.66665874  0.33334026  0.10948171
   0.33332532  0.66667368  0.11257762
   0.27905807  0.22366291  0.45940315
   0.44522351  0.05472774  0.45922128
   0.27760554  0.72239346  0.45908676
   0.44432424  0.55567476  0.45928486
   0.77661017  0.22338883  0.45935128
   0.94442468  0.05557432  0.45952801
   0.77633609  0.72094093  0.45940315
   0.94527126  0.55477549  0.45922128
Direct configuration=    24
   0.66973031 -0.00001155  0.11089053
   0.33031536  0.00001325  0.11091236
   0.00001155  0.33026869  0.11089053
  -0.00001325  0.66968364  0.11091236
   0.33033418  0.33032937  0.11092342
   0.66966963  0.66966482  0.11092342
   0.66665859  0.33334041  0.11036792
   0.33332467  0.66667433  0.11359670
   0.27909420  0.22368877  0.45852065
   0.44523352  0.05471637  0.45832450
   0.27760911  0.72238989  0.45817950
   0.44431384  0.55568516  0.45839298
   0.77659056  0.22340844  0.45846472
   0.94441678  0.05558222  0.45865524
   0.77631023  0.72090480  0.45852065
   0.94528263  0.55476548  0.45832450
Direct configuration=    25
   0.66973297 -0.00001473  0.11262492
   0.33031678  0.00001283  0.11265017
   0.00001473  0.33026603  0.11262492
  -0.00001283  0.66968222  0.11265017
   0.33033787  0.33033372  0.11266295
   0.66966528  0.66966113  0.11266295
   0.66665829  0.33334071  0.11214034
   0.33332336  0.66667564  0.11563487
   0.27916647  0.22374050  0.45675566
   0.44525352  0.05469364  0.45653093
   0.27761625  0.72238275  0.45636498
   0.44429302  0.55570598  0.45660924
   0.77655134  0.22344766  0.45669161
   0.94440098  0.05559802  0.45690972
   0.77625850  0.72083253  0.45675566
   0.94530536  0.55474548  0.45653093
Direct configuration=    26
   0.66973828 -0.00002111  0.11609369
   0.33031964  0.00001198  0.11612579
   0.00002111  0.33026072  0.11609369
  -0.00001198  0.66967936  0.11612579
   0.33034524  0.33034241  0.11614200
   0.66965659  0.66965376  0.11614200
   0.66665768  0.33334132  0.11568517
   0.33332073  0.66667827  0.11971120
   0.27931100  0.22384396  0.45322567
   0.44529353  0.05464818  0.45294380
   0.27763053  0.72236847  0.45273595
   0.44425139  0.55574761  0.45304175
   0.77647290  0.22352610  0.45314538
   0.94436938  0.05562962  0.45341866
   0.77615504  0.72068800  0.45322567
   0.94535082  0.55470547  0.45294380
Direct configuration=    27
   0.66974891 -0.00003386  0.12303123
   0.33032536  0.00001029  0.12307703
   0.00003386  0.33025009  0.12303123
  -0.00001029  0.66967364  0.12307703
   0.33035998  0.33035980  0.12310011
   0.66963920  0.66963902  0.12310011
   0.66665646  0.33334254  0.12277483
   0.33331549  0.66668351  0.12786387
   0.27960007  0.22405086  0.44616568
   0.44537355  0.05455725  0.44576953
   0.27765909  0.72233991  0.44547788
   0.44416813  0.55583087  0.44590676
   0.77631601  0.22368299  0.44605293
   0.94430619  0.05569281  0.44643656
   0.77594814  0.72039893  0.44616568
   0.94544175  0.55462545  0.44576953
Direct configuration=    28
   0.66977017 -0.00005936  0.13690632
   0.33033680  0.00000691  0.13697951
   0.00005936  0.33022883  0.13690632
  -0.00000691  0.66966220  0.13697951
   0.33038947  0.33039458  0.13701633
   0.66960442  0.66960953  0.13701633
   0.66665402  0.33334498  0.13695415
   0.33330500  0.66669400  0.14416920
   0.28017820  0.22446468  0.43204572
   0.44553358  0.05437539  0.43142100
   0.27771620  0.72228280  0.43096175
   0.44400161  0.55599739  0.43163680
   0.77600224  0.22399676  0.43186803
   0.94417980  0.05581920  0.43247234
   0.77553432  0.71982080  0.43204572
   0.94562361  0.55446542  0.43142100
Direct configuration=    29
   0.66981268 -0.00011037  0.16465649
   0.33035967  0.00000014  0.16478446
   0.00011037  0.33018632  0.16465649
  -0.00000014  0.66963933  0.16478446
   0.33044845  0.33046413  0.16484876
   0.66953487  0.66955055  0.16484876
   0.66664914  0.33334986  0.16531280
   0.33328402  0.66671498  0.17677987
   0.28133446  0.22529232  0.40380579
   0.44585365  0.05401167  0.40272393
   0.27783043  0.72216857  0.40192948
   0.44366856  0.55633044  0.40309687
   0.77537470  0.22462430  0.40349823
   0.94392701  0.05607199  0.40454391
   0.77470668  0.71866454  0.40380579
   0.94598733  0.55414535  0.40272393
Direct configuration=    30
   0.66980221 -0.00009780  0.15781953
   0.33035403  0.00000181  0.15793401
   0.00009780  0.33019679  0.15781953
  -0.00000181  0.66964497  0.15793401
   0.33043392  0.33044699  0.15799153
   0.66955201  0.66956508  0.15799153
   0.66665034  0.33334866  0.15832593
   0.33328919  0.66670981  0.16874540
   0.28104958  0.22508841  0.41076341
   0.44577479  0.05410128  0.40979418
   0.27780229  0.72219671  0.40908232
   0.44375062  0.55624838  0.41012841
   0.77552931  0.22446969  0.41048785
   0.94398929  0.05600971  0.41142479
   0.77491059  0.71894942  0.41076341
   0.94589772  0.55422421  0.40979418
Direct configuration=    31
   0.66980938 -0.00010640  0.16249948
   0.33035789  0.00000067  0.16262320
   0.00010640  0.33018962  0.16249948
  -0.00000067  0.66964111  0.16262320
   0.33044386  0.33045872  0.16268536
   0.66954028  0.66955514  0.16268536
   0.66664952  0.33334948  0.16310850
   0.33328565  0.66671335  0.17424506
   0.28124458  0.22522799  0.40600086
   0.44582877  0.05403994  0.40495453
   0.27782156  0.72217744  0.40418614
   0.44369445  0.55630455  0.40531526
   0.77542348  0.22457552  0.40570339
   0.94394666  0.05605234  0.40671476
   0.77477101  0.71875442  0.40600086
   0.94595906  0.55417023  0.40495453
Direct configuration=    32
   0.66975185 -0.00016446  0.16714626
   0.33037180 -0.00004808  0.16727855
   0.00016446  0.33024715  0.16714626
   0.00004808  0.66962720  0.16727855
   0.33045419  0.33050920  0.16734501
   0.66948980  0.66954481  0.16734501
   0.66664824  0.33335076  0.16782959
   0.33327991  0.66671909  0.17967197
   0.28089459  0.22485073  0.40126808
   0.44561913  0.05426349  0.40017039
   0.27785469  0.72214431  0.39936102
   0.44373902  0.55625998  0.40054934
   0.77572952  0.22426948  0.40095700
   0.94395283  0.05604617  0.40201452
   0.77514827  0.71910441  0.40126808
   0.94573551  0.55437987  0.40017039
Direct configuration=    33
   0.66975937 -0.00015687  0.16653832
   0.33036998 -0.00004170  0.16666949
   0.00015687  0.33023963  0.16653832
   0.00004170  0.66962902  0.16666949
   0.33045284  0.33050259  0.16673539
   0.66949641  0.66954616  0.16673539
   0.66664840  0.33335060  0.16721193
   0.33328066  0.66671834  0.17896197
   0.28094038  0.22490008  0.40188727
   0.44564656  0.05423425  0.40079630
   0.27785035  0.72214865  0.39999229
   0.44373319  0.55626581  0.40117287
   0.77568948  0.22430952  0.40157797
   0.94395202  0.05604698  0.40262946
   0.77509892  0.71905862  0.40188727
   0.94576475  0.55435244  0.40079630
Direct configuration=    34
   0.66969757 -0.00020450  0.16612643
   0.33038218 -0.00008368  0.16625603
   0.00020450  0.33030143  0.16612643
   0.00008368  0.66961682  0.16625603
   0.33045352  0.33053631  0.16632125
   0.66946269  0.66954548  0.16632125
   0.66664516  0.33335384  0.16676462
   0.33327765  0.66672135  0.17844595
   0.28048782  0.22449029  0.40230261
   0.44544516  0.05445915  0.40124274
   0.27785113  0.72214787  0.40045702
   0.44382685  0.55617215  0.40161006
   0.77601399  0.22398501  0.40200303
   0.94400144  0.05599756  0.40302116
   0.77550871  0.71951118  0.40230261
   0.94553985  0.55455384  0.40124274
Direct configuration=    35
   0.66951215 -0.00034741  0.16489077
   0.33041877 -0.00020961  0.16501568
   0.00034741  0.33048685  0.16489077
   0.00020961  0.66958023  0.16501568
   0.33045556  0.33063748  0.16507884
   0.66936152  0.66954344  0.16507884
   0.66663542  0.33336358  0.16542270
   0.33326862  0.66673038  0.17689791
   0.27913014  0.22326089  0.40354866
   0.44484096  0.05513387  0.40258207
   0.27785347  0.72214553  0.40185122
   0.44410781  0.55589119  0.40292162
   0.77698753  0.22301147  0.40327823
   0.94414970  0.05584930  0.40419628
   0.77673811  0.72086886  0.40354866
   0.94486513  0.55515804  0.40258207
Direct configuration=    36
   0.66914132 -0.00063322  0.16241944
   0.33049197 -0.00046147  0.16253497
   0.00063322  0.33085768  0.16241944
   0.00046147  0.66950703  0.16253497
   0.33045965  0.33083981  0.16259403
   0.66915919  0.66953935  0.16259403
   0.66661593  0.33338307  0.16273885
   0.33325055  0.66674845  0.17380183
   0.27641479  0.22080210  0.40604074
   0.44363255  0.05648331  0.40526072
   0.27785815  0.72214085  0.40463962
   0.44466973  0.55532927  0.40554475
   0.77893459  0.22106441  0.40582862
   0.94444620  0.05555280  0.40654652
   0.77919690  0.72358421  0.40604074
   0.94351569  0.55636645  0.40526072
Direct configuration=    37
   0.66935627 -0.00046755  0.16385192
   0.33044954 -0.00031548  0.16397289
   0.00046755  0.33064273  0.16385192
   0.00031548  0.66954946  0.16397289
   0.33045728  0.33072253  0.16403433
   0.66927647  0.66954172  0.16403433
   0.66662723  0.33337177  0.16429452
   0.33326102  0.66673798  0.17559644
   0.27798871  0.22222732  0.40459623
   0.44433299  0.05570112  0.40370806
   0.27785544  0.72214356  0.40302335
   0.44434401  0.55565499  0.40402428
   0.77780599  0.22219301  0.40435031
   0.94427434  0.05572466  0.40518423
   0.77777168  0.72201029  0.40459623
   0.94429788  0.55566601  0.40370806
Direct configuration=    38
   0.66931374 -0.00048217  0.16385179
   0.33047103 -0.00033497  0.16397160
   0.00048217  0.33068526  0.16385179
   0.00033497  0.66952797  0.16397160
   0.33046741  0.33074088  0.16403221
   0.66925812  0.66953159  0.16403221
   0.66662543  0.33337357  0.16423815
   0.33326183  0.66673717  0.17553201
   0.27788043  0.22223283  0.40459047
   0.44436941  0.05566859  0.40374707
   0.27780551  0.72219349  0.40309235
   0.44439685  0.55560215  0.40404963
   0.77778378  0.22221522  0.40435661
   0.94433463  0.05566437  0.40514495
   0.77776617  0.72211857  0.40459047
   0.94433041  0.55562959  0.40374707
Direct configuration=    39
   0.66918616 -0.00052603  0.16385138
   0.33053550 -0.00039344  0.16396774
   0.00052603  0.33081284  0.16385138
   0.00039344  0.66946350  0.16396774
   0.33049779  0.33079592  0.16402587
   0.66920308  0.66950121  0.16402587
   0.66662003  0.33337897  0.16406902
   0.33326427  0.66673473  0.17533871
   0.27755559  0.22224939  0.40457321
   0.44447866  0.05557099  0.40386409
   0.27765571  0.72234329  0.40329934
   0.44455535  0.55544365  0.40412570
   0.77771716  0.22228184  0.40437551
   0.94451551  0.05548349  0.40502712
   0.77774961  0.72244341  0.40457321
   0.94442801  0.55552034  0.40386409
Direct configuration=    40
   0.66893098 -0.00061374  0.16385057
   0.33066443 -0.00051037  0.16396002
   0.00061374  0.33106802  0.16385057
   0.00051037  0.66933457  0.16396002
   0.33055855  0.33090600  0.16401319
   0.66909300  0.66944045  0.16401319
   0.66660924  0.33338976  0.16373077
   0.33326915  0.66672985  0.17495211
   0.27690590  0.22228249  0.40453870
   0.44469715  0.05537579  0.40409814
   0.27735611  0.72264289  0.40371332
   0.44487235  0.55512665  0.40427782
   0.77758392  0.22241508  0.40441331
   0.94487726  0.05512174  0.40479145
   0.77771651  0.72309310  0.40453870
   0.94462321  0.55530185  0.40409814
Direct configuration=    41
   0.66911896 -0.00054912  0.16385117
   0.33056945 -0.00042422  0.16396571
   0.00054912  0.33088004  0.16385117
   0.00042422  0.66942955  0.16396571
   0.33051379  0.33082490  0.16402253
   0.66917410  0.66948521  0.16402253
   0.66661719  0.33338181  0.16397996
   0.33326556  0.66673344  0.17523691
   0.27738452  0.22225810  0.40456412
   0.44453619  0.05551959  0.40392572
   0.27757682  0.72242218  0.40340834
   0.44463882  0.55536018  0.40416575
   0.77768208  0.22231692  0.40438546
   0.94461076  0.05538824  0.40496506
   0.77774090  0.72261448  0.40456412
   0.94447941  0.55546281  0.40392572
Direct configuration=    42
   0.66908620 -0.00055125  0.16386391
   0.33059419 -0.00043316  0.16397657
   0.00055125  0.33091280  0.16386391
   0.00043316  0.66940481  0.16397657
   0.33052416  0.33083163  0.16403185
   0.66916737  0.66947484  0.16403185
   0.66661349  0.33338551  0.16389460
   0.33326963  0.66672937  0.17514148
   0.27740277  0.22224833  0.40454391
   0.44452361  0.05553140  0.40397640
   0.27759050  0.72240850  0.40350678
   0.44461941  0.55537959  0.40419444
   0.77769238  0.22230662  0.40438484
   0.94459550  0.05540350  0.40489259
   0.77775067  0.72259623  0.40454391
   0.94446760  0.55547539  0.40397640
Direct configuration=    43
   0.66898791 -0.00055762  0.16390213
   0.33066840 -0.00045995  0.16400916
   0.00055762  0.33101109  0.16390213
   0.00045995  0.66933060  0.16400916
   0.33055528  0.33085181  0.16405979
   0.66914719  0.66944372  0.16405979
   0.66660239  0.33339661  0.16363852
   0.33328184  0.66671716  0.17485517
   0.27745751  0.22221900  0.40448327
   0.44448590  0.05556685  0.40412845
   0.27763156  0.72236744  0.40380209
   0.44456118  0.55543782  0.40428050
   0.77772329  0.22227571  0.40438297
   0.94454972  0.05544928  0.40467517
   0.77778000  0.72254149  0.40448327
   0.94443215  0.55551310  0.40412845
Direct configuration=    44
   0.66879133 -0.00057036  0.16397856
   0.33081683 -0.00051355  0.16407433
   0.00057036  0.33120767  0.16397856
   0.00051355  0.66918217  0.16407433
   0.33061752  0.33089217  0.16411567
   0.66910683  0.66938148  0.16411567
   0.66658018  0.33341882  0.16312638
   0.33330627  0.66669273  0.17428257
   0.27756700  0.22216034  0.40436199
   0.44441046  0.05563773  0.40443253
   0.27771366  0.72228534  0.40439272
   0.44444473  0.55555427  0.40445261
   0.77778510  0.22221390  0.40437922
   0.94445815  0.05554085  0.40424032
   0.77783866  0.72243200  0.40436199
   0.94436127  0.55558854  0.40443253
Direct configuration=    45
   0.66839817 -0.00059584  0.16413144
   0.33111369 -0.00062073  0.16420467
   0.00059584  0.33160083  0.16413144
   0.00062073  0.66888531  0.16420467
   0.33074200  0.33097288  0.16422744
   0.66902612  0.66925700  0.16422744
   0.66653576  0.33346324  0.16210209
   0.33335513  0.66664387  0.17313736
   0.27778597  0.22204304  0.40411943
   0.44425959  0.05577951  0.40504070
   0.27787787  0.72212113  0.40557397
   0.44421182  0.55578718  0.40479685
   0.77790873  0.22209027  0.40437172
   0.94427501  0.05572399  0.40337064
   0.77795596  0.72221303  0.40411943
   0.94421949  0.55573941  0.40504070
Direct configuration=    46
   0.66868038 -0.00057755  0.16402171
   0.33090061 -0.00054379  0.16411111
   0.00057755  0.33131862  0.16402171
   0.00054379  0.66909839  0.16411111
   0.33065265  0.33091494  0.16414722
   0.66908406  0.66934635  0.16414722
   0.66656764  0.33343136  0.16283732
   0.33332006  0.66667894  0.17395939
   0.27762879  0.22212724  0.40429354
   0.44436789  0.05567774  0.40460416
   0.27776000  0.72223900  0.40472607
   0.44437900  0.55562000  0.40454976
   0.77781999  0.22217901  0.40437710
   0.94440647  0.05559253  0.40399490
   0.77787176  0.72237021  0.40429354
   0.94432126  0.55563111  0.40460416
Direct configuration=    47
   0.66896333 -0.00043986  0.16407178
   0.33079396 -0.00040352  0.16415811
   0.00043986  0.33103567  0.16407178
   0.00040352  0.66920504  0.16415811
   0.33057782  0.33073663  0.16418870
   0.66926237  0.66942118  0.16418870
   0.66656249  0.33343651  0.16264656
   0.33334436  0.66665464  0.17376335
   0.27776507  0.22227703  0.40427761
   0.44441300  0.05563525  0.40464540
   0.27772847  0.72227053  0.40481251
   0.44441213  0.55558687  0.40457439
   0.77773566  0.22226334  0.40437973