 ----------------------------------------------------
    OOO  PPPP  EEEEE N   N M   M PPPP
   O   O P   P E     NN  N MM MM P   P
   O   O PPPP  EEEEE N N N M M M PPPP   -- VERSION
   O   O P     E     N  NN M   M P
    OOO  P     EEEEE N   N M   M P
 ----------------------------------------------------
 running   48 mpi-ranks, with    1 threads/rank
 distrk:  each k-point on   48 cores,    1 groups
 distr:  one band on    1 cores,   48 groups
 vasp.6.3.2 27Jun22 (build Dec 22 2022 13:13:19) complex                        
  
 POSCAR found type information on POSCAR B C 
 POSCAR found :  2 types and      16 ions
 Reading from existing POTCAR
 -----------------------------------------------------------------------------
|                                                                             |
|           W    W    AA    RRRRR   N    N  II  N    N   GGGG   !!!           |
|           W    W   A  A   R    R  NN   N  II  NN   N  G    G  !!!           |
|           W    W  A    A  R    R  N N  N  II  N N  N  G       !!!           |
|           W WW W  AAAAAA  RRRRR   N  N N  II  N  N N  G  GGG   !            |
|           WW  WW  A    A  R   R   N   NN  II  N   NN  G    G                |
|           W    W  A    A  R    R  N    N  II  N    N   GGGG   !!!           |
|                                                                             |
|     You use a magnetic or noncollinear calculation, but did not specify     |
|     the initial magnetic moment with the MAGMOM tag. Note that a            |
|     default of 1 will be used for all atoms. This ferromagnetic setup       |
|     may break the symmetry of the crystal, in particular it may rule        |
|     out finding an antiferromagnetic solution. Thence, we recommend         |
|     setting the initial magnetic moment manually or verifying carefully     |
|     that this magnetic setup is desired.                                    |
|                                                                             |
 -----------------------------------------------------------------------------

 scaLAPACK will be used
 Reading from existing POTCAR
 LDA part: xc-table for Pade appr. of Perdew
 POSCAR found type information on POSCAR B C 
 POSCAR found :  2 types and      16 ions
 POSCAR, INCAR and KPOINTS ok, starting setup
 FFT: planning ... GRIDC
 FFT: planning ... GRID_SOFT
 FFT: planning ... GRID
 WAVECAR not read
 entering main loop
       N       E                     dE             d eps       ncg     rms          rms(c)
DAV:   1     0.189233502657E+03    0.18923E+03   -0.25681E+04  3648   0.866E+02
DAV:   2    -0.119946476603E+03   -0.30918E+03   -0.30812E+03  5904   0.159E+02
DAV:   3    -0.128841023893E+03   -0.88945E+01   -0.88640E+01  5904   0.360E+01
DAV:   4    -0.128867050540E+03   -0.26027E-01   -0.26023E-01  5808   0.175E+00
DAV:   5    -0.128867082759E+03   -0.32219E-04   -0.32219E-04  5424   0.698E-02    0.233E+01
DAV:   6    -0.948876856293E+02    0.33979E+02   -0.55600E+01  4752   0.216E+01    0.128E+01
DAV:   7    -0.105841040070E+03   -0.10953E+02   -0.15048E+01  5376   0.115E+01    0.683E+00
DAV:   8    -0.111468914543E+03   -0.56279E+01   -0.49254E+00  5520   0.644E+00    0.384E+00
DAV:   9    -0.116697945883E+03   -0.52290E+01   -0.27687E+00  5040   0.469E+00    0.254E+00
DAV:  10    -0.120830657369E+03   -0.41327E+01   -0.31748E+00  5616   0.470E+00    0.135E+00
DAV:  11    -0.122591992623E+03   -0.17613E+01   -0.13388E+00  5280   0.278E+00    0.833E-01
DAV:  12    -0.123578591701E+03   -0.98660E+00   -0.81287E-01  5904   0.196E+00    0.396E-01
DAV:  13    -0.123882084920E+03   -0.30349E+00   -0.18281E-01  5472   0.960E-01    0.193E-01
DAV:  14    -0.123936408508E+03   -0.54324E-01   -0.28010E-02  4560   0.394E-01    0.108E-01
DAV:  15    -0.123959757517E+03   -0.23349E-01   -0.14567E-02  4752   0.290E-01    0.578E-02
DAV:  16    -0.123961805729E+03   -0.20482E-02   -0.20792E-03  4224   0.174E-01    0.388E-02
DAV:  17    -0.123962053088E+03   -0.24736E-03   -0.83461E-04  3840   0.104E-01    0.147E-02
DAV:  18    -0.123962083718E+03   -0.30630E-04   -0.13383E-04  3936   0.438E-02    0.902E-03
DAV:  19    -0.123962144531E+03   -0.60814E-04   -0.41638E-05  3888   0.287E-02    0.532E-03
DAV:  20    -0.123962173928E+03   -0.29397E-04   -0.21636E-05  3936   0.190E-02    0.374E-03
DAV:  21    -0.123962227298E+03   -0.53370E-04   -0.15072E-05  3744   0.161E-02    0.255E-03
DAV:  22    -0.123962252302E+03   -0.25004E-04   -0.57245E-06  4320   0.968E-03    0.138E-03
DAV:  23    -0.123962256935E+03   -0.46327E-05   -0.11918E-06  4848   0.417E-03    0.584E-04
DAV:  24    -0.123962259655E+03   -0.27201E-05   -0.23257E-07  5040   0.173E-03    0.334E-04
DAV:  25    -0.123962261153E+03   -0.14978E-05   -0.16593E-07  4512   0.139E-03    0.174E-04
DAV:  26    -0.123962261431E+03   -0.27886E-06   -0.65724E-08  6192   0.104E-03
   1 F= -.12547559E+03 E0= -.12547258E+03  d E =-.125476E+03  mag=     0.0000
 curvature:   0.00 expect dE= 0.000E+00 dE for cont linesearch  0.000E+00
 trial: gam= 0.00000 g(F)=  0.326E-01 g(S)=  0.000E+00 ort = 0.000E+00 (trialstep = 0.100E+01)
 search vector abs. value=  0.326E-01
 bond charge predicted
       N       E                     dE             d eps       ncg     rms          rms(c)
DAV:   1    -0.123974509092E+03   -0.12248E-01   -0.24920E+00  3648   0.373E+00    0.548E-01
DAV:   2    -0.123961326628E+03    0.13182E-01   -0.61319E-02  5376   0.577E-01    0.238E-01
DAV:   3    -0.123959328164E+03    0.19985E-02   -0.10173E-02  5088   0.211E-01    0.657E-02
DAV:   4    -0.123959255675E+03    0.72489E-04   -0.80102E-04  5472   0.661E-02    0.238E-02
DAV:   5    -0.123959255921E+03   -0.24585E-06   -0.49726E-05  5616   0.169E-02    0.763E-03
DAV:   6    -0.123959258786E+03   -0.28655E-05   -0.10770E-05  3936   0.741E-03    0.261E-03
DAV:   7    -0.123959262335E+03   -0.35487E-05   -0.70328E-07  4800   0.215E-03    0.132E-03
DAV:   8    -0.123959267361E+03   -0.50260E-05   -0.32445E-07  3936   0.107E-03    0.656E-04
DAV:   9    -0.123959272557E+03   -0.51957E-05   -0.43168E-07  4128   0.103E-03    0.407E-04
DAV:  10    -0.123959275520E+03   -0.29631E-05   -0.23108E-07  4176   0.744E-04    0.282E-04
DAV:  11    -0.123959276770E+03   -0.12499E-05   -0.10193E-07  4176   0.517E-04    0.140E-04
DAV:  12    -0.123959277077E+03   -0.30680E-06   -0.23222E-08  5424   0.261E-04
   2 F= -.12547301E+03 E0= -.12547005E+03  d E =0.258039E-02  mag=    -0.0000
 trial-energy change:    0.002580  1 .order    0.002331   -0.032642    0.037304
 step:   0.4614(harm=  0.4667)  dis= 0.00747  next Energy=  -125.483095 (dE=-0.751E-02)
 bond charge predicted
       N       E                     dE             d eps       ncg     rms          rms(c)
DAV:   1    -0.123973938794E+03   -0.14662E-01   -0.72124E-01  3648   0.201E+00    0.294E-01
DAV:   2    -0.123970162642E+03    0.37762E-02   -0.17774E-02  5376   0.311E-01    0.128E-01
DAV:   3    -0.123969590479E+03    0.57216E-03   -0.29512E-03  6000   0.113E-01    0.352E-02
DAV:   4    -0.123969569346E+03    0.21133E-04   -0.20087E-04  5328   0.335E-02    0.130E-02
DAV:   5    -0.123969569444E+03   -0.98421E-07   -0.12945E-05  6000   0.887E-03    0.398E-03
DAV:   6    -0.123969569787E+03   -0.34221E-06   -0.35026E-06  3840   0.414E-03
   3 F= -.12548309E+03 E0= -.12548009E+03  d E =-.749865E-02  mag=     0.0000
 curvature:  -0.23 expect dE=-0.132E-04 dE for cont linesearch -0.250E-08
 ZBRENT: interpolating
 opt :   0.4616  next Energy=  -125.483088 (dE=-0.750E-02)
 bond charge predicted
       N       E                     dE             d eps       ncg     rms          rms(c)
DAV:   1    -0.123969570616E+03   -0.11713E-05   -0.28490E-07  4512   0.157E-03    0.656E-04
DAV:   2    -0.123969570998E+03   -0.38271E-06   -0.22608E-08  4800   0.477E-04
   4 F= -.12548309E+03 E0= -.12548010E+03  d E =-.749998E-02  mag=     0.0000
 curvature:  -0.24 expect dE=-0.133E-04 dE for cont linesearch -0.874E-09
 trial: gam= 0.00207 g(F)=  0.567E-04 g(S)=  0.000E+00 ort =-0.110E-04 (trialstep = 0.892E+00)
 search vector abs. value=  0.568E-04
 bond charge predicted
       N       E                     dE             d eps       ncg     rms          rms(c)
DAV:   1    -0.123969580917E+03   -0.10301E-04   -0.44265E-03  3648   0.246E-01    0.124E-02
DAV:   2    -0.123969579720E+03    0.11969E-05   -0.52177E-05  4224   0.283E-02    0.753E-03
DAV:   3    -0.123969579181E+03    0.53894E-06   -0.71544E-06  4608   0.913E-03
   5 F= -.12548314E+03 E0= -.12548015E+03  d E =-.515402E-04  mag=    -0.0000
 ZBRENT: can't locate minimum, use default step
 trial-energy change:   -0.000052  1 .order   -0.000050   -0.000051   -0.000049
 step:   3.5693(harm= 28.7889)  dis= 0.00245  next Energy=  -125.483905 (dE=-0.815E-03)
 bond charge predicted
       N       E                     dE             d eps       ncg     rms          rms(c)
DAV:   1    -0.123969623912E+03   -0.44192E-04   -0.39999E-02  3648   0.740E-01    0.379E-02
DAV:   2    -0.123969608871E+03    0.15041E-04   -0.45880E-04  4128   0.842E-02    0.229E-02
DAV:   3    -0.123969602520E+03    0.63512E-05   -0.63440E-05  4512   0.273E-02    0.552E-03
DAV:   4    -0.123969602956E+03   -0.43588E-06   -0.80836E-06  4512   0.992E-03
   6 F= -.12548330E+03 E0= -.12548030E+03  d E =-.205561E-03  mag=    -0.0000
 curvature:  -2.64 expect dE=-0.164E-03 dE for cont linesearch -0.149E-03
 ZBRENT: increasing intervall
 opt :   8.9233  next Energy=  -125.483608 (dE=-0.519E-03)
 bond charge predicted
       N       E                     dE             d eps       ncg     rms          rms(c)
DAV:   1    -0.123969729802E+03   -0.12728E-03   -0.15954E-01  3648   0.148E+00    0.747E-02
DAV:   2    -0.123969672955E+03    0.56847E-04   -0.18326E-03  4032   0.168E-01    0.450E-02
DAV:   3    -0.123969642907E+03    0.30048E-04   -0.25273E-04  4704   0.545E-02    0.109E-02
DAV:   4    -0.123969643931E+03   -0.10240E-05   -0.30299E-05  4416   0.197E-02    0.457E-03
DAV:   5    -0.123969644681E+03   -0.75010E-06   -0.24616E-06  3648   0.667E-03
   7 F= -.12548360E+03 E0= -.12548060E+03  d E =-.508427E-03  mag=    -0.0000
 curvature:  -5.53 expect dE=-0.495E-03 dE for cont linesearch -0.303E-03
 ZBRENT: increasing intervall
 opt :  19.6312  next Energy=  -125.484185 (dE=-0.110E-02)
 bond charge predicted
       N       E                     dE             d eps       ncg     rms          rms(c)
DAV:   1    -0.123970057567E+03   -0.41364E-03   -0.63792E-01  3648   0.296E+00    0.149E-01
DAV:   2    -0.123969840175E+03    0.21739E-03   -0.73282E-03  3648   0.337E-01    0.902E-02
DAV:   3    -0.123969715445E+03    0.12473E-03   -0.10224E-03  4320   0.110E-01    0.220E-02
DAV:   4    -0.123969718328E+03   -0.28827E-05   -0.12518E-04  5808   0.389E-02    0.910E-03
DAV:   5    -0.123969718052E+03    0.27576E-06   -0.66461E-06  3984   0.984E-03
   8 F= -.12548420E+03 E0= -.12548120E+03  d E =-.110746E-02  mag=     0.0000
 curvature: -10.72 expect dE=-0.236E-02 dE for cont linesearch -0.564E-03
 ZBRENT: increasing intervall
 opt :  41.0470  next Energy=  -125.485344 (dE=-0.225E-02)
 bond charge predicted
       N       E                     dE             d eps       ncg     rms          rms(c)
DAV:   1    -0.123971217302E+03   -0.14990E-02   -0.25518E+00  3648   0.591E+00    0.299E-01
DAV:   2    -0.123970349232E+03    0.86807E-03   -0.29376E-02  4032   0.673E-01    0.180E-01
DAV:   3    -0.123969849182E+03    0.50005E-03   -0.40430E-03  4512   0.218E-01    0.433E-02
DAV:   4    -0.123969855949E+03   -0.67662E-05   -0.47582E-04  5424   0.774E-02    0.183E-02
DAV:   5    -0.123969852641E+03    0.33074E-05   -0.28536E-05  4272   0.210E-02    0.411E-03
DAV:   6    -0.123969850620E+03    0.20211E-05   -0.12857E-05  3648   0.154E-02    0.259E-03
DAV:   7    -0.123969851350E+03   -0.72963E-06   -0.50909E-06  3744   0.947E-03
   9 F= -.12548539E+03 E0= -.12548240E+03  d E =-.230492E-02  mag=    -0.0000
 curvature: -21.80 expect dE=-0.172E-01 dE for cont linesearch -0.124E-02
 ZBRENT: increasing intervall
 opt :  83.8786  next Energy=  -125.487927 (dE=-0.484E-02)
 bond charge predicted
       N       E                     dE             d eps       ncg     rms          rms(c)
DAV:   1    -0.123975570967E+03   -0.57203E-02   -0.10197E+01  3648   0.118E+01    0.598E-01
DAV:   2    -0.123972188168E+03    0.33828E-02   -0.11777E-01  4896   0.135E+00    0.359E-01
DAV:   3    -0.123970090584E+03    0.20976E-02   -0.16163E-02  5472   0.428E-01    0.851E-02
DAV:   4    -0.123970092192E+03   -0.16074E-05   -0.16409E-03  5376   0.148E-01    0.375E-02
DAV:   5    -0.123970066447E+03    0.25744E-04   -0.10272E-04  4608   0.386E-02    0.726E-03
DAV:   6    -0.123970066656E+03   -0.20813E-06   -0.49830E-05  3648   0.300E-02    0.458E-03
DAV:   7    -0.123970062637E+03    0.40189E-05   -0.27514E-05  3648   0.230E-02    0.232E-03
DAV:   8    -0.123970073646E+03   -0.11010E-04   -0.12453E-05  3792   0.147E-02    0.184E-03
DAV:   9    -0.123970084770E+03   -0.11124E-04   -0.11279E-05  4320   0.145E-02    0.929E-04
DAV:  10    -0.123970091442E+03   -0.66719E-05   -0.12483E-05  4080   0.154E-02    0.529E-04
DAV:  11    -0.123970094296E+03   -0.28532E-05   -0.39680E-06  4464   0.843E-03    0.428E-04
DAV:  12    -0.123970099562E+03   -0.52661E-05   -0.78908E-07  3936   0.208E-03    0.173E-04
DAV:  13    -0.123970100087E+03   -0.52555E-06   -0.67294E-08  5856   0.755E-04
  10 F= -.12548782E+03 E0= -.12548482E+03  d E =-.473367E-02  mag=     0.0000
 curvature: -44.41 expect dE=-0.138E+00 dE for cont linesearch -0.246E-02
 ZBRENT: increasing intervall
 opt : 169.5419  next Energy=  -125.492563 (dE=-0.947E-02)
 bond charge predicted
       N       E                     dE             d eps       ncg     rms          rms(c)
DAV:   1    -0.123991046537E+03   -0.20947E-01   -0.40711E+01  3648   0.236E+01    0.119E+00
DAV:   2    -0.123978489986E+03    0.12557E-01   -0.47828E-01  4032   0.272E+00    0.721E-01
DAV:   3    -0.123970378917E+03    0.81111E-02   -0.66129E-02  6624   0.870E-01    0.173E-01
DAV:   4    -0.123970308491E+03    0.70427E-04   -0.55079E-03  5184   0.270E-01    0.774E-02
DAV:   5    -0.123970198851E+03    0.10964E-03   -0.34679E-04  4992   0.581E-02    0.148E-02
DAV:   6    -0.123970186835E+03    0.12016E-04   -0.60949E-05  6000   0.209E-02    0.707E-03
DAV:   7    -0.123970207669E+03   -0.20834E-04   -0.11224E-05  3840   0.930E-03    0.401E-03
DAV:   8    -0.123970226780E+03   -0.19111E-04   -0.27768E-06  4512   0.447E-03    0.328E-03
DAV:   9    -0.123970248076E+03   -0.21297E-04   -0.22983E-06  4272   0.358E-03    0.135E-03
DAV:  10    -0.123970266694E+03   -0.18618E-04   -0.20200E-06  4320   0.303E-03    0.909E-04
DAV:  11    -0.123970278997E+03   -0.12303E-04   -0.18699E-06  4032   0.371E-03    0.431E-04
DAV:  12    -0.123970284366E+03   -0.53687E-05   -0.15260E-06  4608   0.445E-03    0.244E-04
DAV:  13    -0.123970285270E+03   -0.90416E-06   -0.47756E-07  4896   0.278E-03
  11 F= -.12549259E+03 E0= -.12548956E+03  d E =-.949543E-02  mag=    -0.0000
 curvature: -85.46 expect dE=-0.107E+01 dE for cont linesearch -0.455E-02
 ZBRENT: increasing intervall
 opt : 340.8685  next Energy=  -125.501804 (dE=-0.187E-01)
 bond charge predicted
       N       E                     dE             d eps       ncg     rms          rms(c)
DAV:   1    -0.124043716910E+03   -0.73433E-01   -0.16173E+02  3648   0.470E+01    0.237E+00
DAV:   2    -0.124002057146E+03    0.41660E-01   -0.19835E+00  4368   0.559E+00    0.145E+00
DAV:   3    -0.123969494464E+03    0.32563E-01   -0.25340E-01  6336   0.170E+00    0.367E-01
DAV:   4    -0.123969423993E+03    0.70471E-04   -0.21168E-02  5376   0.526E-01    0.160E-01
DAV:   5    -0.123968891058E+03    0.53293E-03   -0.14345E-03  5760   0.109E-01    0.324E-02
DAV:   6    -0.123968836254E+03    0.54805E-04   -0.21475E-04  5712   0.393E-02    0.163E-02
DAV:   7    -0.123968871174E+03   -0.34920E-04   -0.24845E-05  4464   0.150E-02    0.897E-03
DAV:   8    -0.123968927743E+03   -0.56569E-04   -0.22589E-05  4656   0.111E-02    0.746E-03
DAV:   9    -0.123968981595E+03   -0.53852E-04   -0.86848E-06  4512   0.632E-03    0.335E-03
DAV:  10    -0.123969026898E+03   -0.45303E-04   -0.61966E-06  4704   0.528E-03    0.185E-03
DAV:  11    -0.123969046905E+03   -0.20007E-04   -0.18353E-06  5136   0.305E-03    0.144E-03
DAV:  12    -0.123969063657E+03   -0.16752E-04   -0.21927E-06  4464   0.289E-03    0.736E-04
DAV:  13    -0.123969069316E+03   -0.56591E-05   -0.52338E-07  4752   0.138E-03    0.320E-04
DAV:  14    -0.123969072229E+03   -0.29129E-05   -0.24591E-07  4512   0.782E-04    0.127E-04
DAV:  15    -0.123969072802E+03   -0.57285E-06   -0.34765E-08  5280   0.351E-04
  12 F= -.12550148E+03 E0= -.12549823E+03  d E =-.183857E-01  mag=     0.0000
 curvature: ****** expect dE=-0.867E+01 dE for cont linesearch -0.704E-02
 ZBRENT: increasing intervall
 opt : 683.5216  next Energy=  -125.515561 (dE=-0.325E-01)
 bond charge predicted
       N       E                     dE             d eps       ncg     rms          rms(c)
DAV:   1    -0.124160945397E+03   -0.19187E+00   -0.62960E+02  3648   0.925E+01    0.466E+00
DAV:   2    -0.124091733671E+03    0.69212E-01   -0.87574E+00  4992   0.120E+01    0.291E+00
DAV:   3    -0.123957375717E+03    0.13436E+00   -0.86166E-01  6240   0.315E+00    0.896E-01
DAV:   4    -0.123958187284E+03   -0.81157E-03   -0.71368E-02  5808   0.984E-01    0.324E-01
DAV:   5    -0.123956453582E+03    0.17337E-02   -0.63519E-03  5856   0.208E-01    0.626E-02
DAV:   6    -0.123956188577E+03    0.26501E-03   -0.84715E-04  6144   0.787E-02    0.313E-02
DAV:   7    -0.123956334898E+03   -0.14632E-03   -0.22244E-04  4032   0.434E-02    0.156E-02
DAV:   8    -0.123956446333E+03   -0.11144E-03   -0.37678E-05  5232   0.151E-02    0.148E-02
DAV:   9    -0.123956542878E+03   -0.96545E-04   -0.18654E-05  4512   0.103E-02    0.748E-03
DAV:  10    -0.123956637325E+03   -0.94447E-04   -0.20978E-05  4800   0.106E-02    0.399E-03
DAV:  11    -0.123956698086E+03   -0.60761E-04   -0.13519E-05  5184   0.747E-03    0.215E-03
DAV:  12    -0.123956711132E+03   -0.13047E-04   -0.14183E-06  5424   0.286E-03    0.106E-03
DAV:  13    -0.123956717815E+03   -0.66830E-05   -0.52757E-07  4560   0.167E-03    0.440E-04
DAV:  14    -0.123956721953E+03   -0.41377E-05   -0.29723E-07  4752   0.112E-03    0.183E-04
DAV:  15    -0.123956723868E+03   -0.19151E-05   -0.15059E-07  4704   0.732E-04    0.779E-05
DAV:  16    -0.123956724271E+03   -0.40237E-06   -0.27445E-08  5088   0.401E-04
  13 F= -.12551390E+03 E0= -.12550968E+03  d E =-.308153E-01  mag=     0.0000
 curvature: ****** expect dE=-0.717E+02 dE for cont linesearch -0.337E-02
 ZBRENT: increasing intervall
 opt : ********  next Energy=  -125.513188 (dE=-0.301E-01)
 bond charge predicted
       N       E                     dE             d eps       ncg     rms          rms(c)
DAV:   1    -0.123607610016E+03    0.34911E+00   -0.22627E+03  3648   0.171E+02    0.895E+00
DAV:   2    -0.124333631465E+03   -0.72602E+00   -0.42617E+01  4224   0.272E+01    0.576E+00
DAV:   3    -0.123855901946E+03    0.47773E+00   -0.24841E+00  7152   0.553E+00    0.261E+00
DAV:   4    -0.123805572053E+03    0.50330E-01   -0.33825E-01  5904   0.209E+00    0.654E-01
DAV:   5    -0.123801305815E+03    0.42662E-02   -0.27187E-02  6384   0.524E-01    0.142E-01
DAV:   6    -0.123799924489E+03    0.13813E-02   -0.42775E-03  6864   0.178E-01    0.682E-02
DAV:   7    -0.123800010845E+03   -0.86357E-04   -0.10305E-03  4416   0.963E-02    0.305E-02
DAV:   8    -0.123800290942E+03   -0.28010E-03   -0.19895E-04  5280   0.387E-02    0.259E-02
DAV:   9    -0.123800514254E+03   -0.22331E-03   -0.94125E-05  4320   0.238E-02    0.154E-02
DAV:  10    -0.123800678729E+03   -0.16447E-03   -0.71446E-05  5280   0.217E-02    0.106E-02
DAV:  11    -0.123800772496E+03   -0.93767E-04   -0.39428E-05  5088   0.142E-02    0.415E-03
DAV:  12    -0.123800797794E+03   -0.25299E-04   -0.40230E-06  5664   0.516E-03    0.267E-03
DAV:  13    -0.123800814595E+03   -0.16801E-04   -0.20167E-06  5952   0.345E-03    0.140E-03
DAV:  14    -0.123800823523E+03   -0.89278E-05   -0.92847E-07  5760   0.202E-03    0.630E-04
DAV:  15    -0.123800826999E+03   -0.34759E-05   -0.20590E-07  5136   0.991E-04    0.272E-04
DAV:  16    -0.123800828992E+03   -0.19932E-05   -0.13036E-07  5184   0.659E-04    0.133E-04
DAV:  17    -0.123800829859E+03   -0.86686E-06   -0.58943E-08  4992   0.339E-04
  14 F= -.12543377E+03 E0= -.12543237E+03  d E =0.493177E-01  mag=    -0.0000
 curvature:  73.70 expect dE= 0.645E+02 dE for cont linesearch  0.153E+00
 ZBRENT: bracketing found
 ZBRENT: interpolating
 opt : 727.3898  next Energy=  -125.514420 (dE=-0.313E-01)
 bond charge predicted
       N       E                     dE             d eps       ncg     rms          rms(c)
DAV:   1    -0.123754570506E+03    0.46258E-01   -0.20221E+03  3648   0.162E+02    0.844E+00
DAV:   2    -0.124453362511E+03   -0.69879E+00   -0.36147E+01  4320   0.255E+01    0.543E+00
DAV:   3    -0.123992227369E+03    0.46114E+00   -0.21428E+00  6816   0.512E+00    0.242E+00
DAV:   4    -0.123957887529E+03    0.34340E-01   -0.31146E-01  6048   0.204E+00    0.602E-01
DAV:   5    -0.123954921420E+03    0.29661E-02   -0.31990E-02  6192   0.547E-01    0.115E-01
DAV:   6    -0.123953932862E+03    0.98856E-03   -0.24492E-03  5184   0.140E-01    0.691E-02
DAV:   7    -0.123953361116E+03    0.57175E-03   -0.13195E-03  5088   0.977E-02    0.310E-02
DAV:   8    -0.123953369783E+03   -0.86674E-05   -0.56752E-05  3648   0.219E-02    0.218E-02
DAV:   9    -0.123953510756E+03   -0.14097E-03   -0.11608E-04  3840   0.277E-02    0.118E-02
DAV:  10    -0.123953607368E+03   -0.96612E-04   -0.78590E-06  4992   0.866E-03    0.104E-02
DAV:  11    -0.123953851683E+03   -0.24432E-03   -0.19851E-05  4416   0.125E-02    0.306E-03
DAV:  12    -0.123953903818E+03   -0.52135E-04   -0.31623E-06  4416   0.641E-03    0.262E-03
DAV:  13    -0.123953923585E+03   -0.19767E-04   -0.14350E-06  4224   0.453E-03    0.147E-03
DAV:  14    -0.123953929079E+03   -0.54946E-05   -0.28107E-07  5520   0.206E-03    0.517E-04
DAV:  15    -0.123953930860E+03   -0.17810E-05   -0.66865E-08  5376   0.808E-04    0.173E-04
DAV:  16    -0.123953931394E+03   -0.53389E-06   -0.25414E-08  5616   0.574E-04
  15 F= -.12551480E+03 E0= -.12551078E+03  d E =-.317134E-01  mag=     0.0000
 curvature:  -0.25 expect dE=-0.584E-01 dE for cont linesearch -0.129E-05
 ZBRENT: interpolating
 opt : 841.0890  next Energy=  -125.515826 (dE=-0.327E-01)
 bond charge predicted
       N       E                     dE             d eps       ncg     rms          rms(c)
DAV:   1    -0.123978639567E+03   -0.24709E-01   -0.71020E+01  3648   0.312E+01    0.158E+00
DAV:   2    -0.123957649967E+03    0.20990E-01   -0.87237E-01  4512   0.368E+00    0.959E-01
DAV:   3    -0.123944403580E+03    0.13246E-01   -0.11148E-01  6624   0.112E+00    0.243E-01
DAV:   4    -0.123944281171E+03    0.12241E-03   -0.98036E-03  6000   0.356E-01    0.106E-01
DAV:   5    -0.123944128286E+03    0.15289E-03   -0.54039E-04  5520   0.742E-02    0.208E-02
DAV:   6    -0.123944105294E+03    0.22991E-04   -0.11227E-04  6384   0.284E-02    0.103E-02
DAV:   7    -0.123944135488E+03   -0.30194E-04   -0.17854E-05  3936   0.126E-02    0.432E-03
DAV:   8    -0.123944163192E+03   -0.27703E-04   -0.47502E-06  4800   0.523E-03    0.372E-03
DAV:   9    -0.123944189680E+03   -0.26489E-04   -0.32123E-06  4752   0.444E-03    0.192E-03
DAV:  10    -0.123944210483E+03   -0.20803E-04   -0.25523E-06  5232   0.350E-03    0.125E-03
DAV:  11    -0.123944224693E+03   -0.14210E-04   -0.19410E-06  4704   0.312E-03    0.471E-04
DAV:  12    -0.123944230866E+03   -0.61730E-05   -0.86442E-07  4992   0.268E-03    0.287E-04
DAV:  13    -0.123944232498E+03   -0.16321E-05   -0.25647E-07  5424   0.202E-03    0.161E-04
DAV:  14    -0.123944233890E+03   -0.13920E-05   -0.14584E-07  4800   0.112E-03    0.629E-05
DAV:  15    -0.123944234245E+03   -0.35467E-06   -0.32045E-08  5376   0.547E-04
  16 F= -.12551531E+03 E0= -.12551211E+03  d E =-.322165E-01  mag=    -0.0000
 curvature: ****** expect dE=-0.627E+02 dE for cont linesearch -0.460E-03
 ZBRENT: interpolating
 opt : 795.4571  next Energy=  -125.515569 (dE=-0.325E-01)
 bond charge predicted
       N       E                     dE             d eps       ncg     rms          rms(c)
DAV:   1    -0.123954650110E+03   -0.10416E-01   -0.11472E+01  3648   0.126E+01    0.639E-01
DAV:   2    -0.123950688049E+03    0.39621E-02   -0.13570E-01  4512   0.145E+00    0.384E-01
DAV:   3    -0.123948616129E+03    0.20719E-02   -0.18588E-02  6624   0.459E-01    0.934E-02
DAV:   4    -0.123948628562E+03   -0.12433E-04   -0.16563E-03  5856   0.146E-01    0.416E-02
DAV:   5    -0.123948622270E+03    0.62918E-05   -0.86718E-05  5472   0.308E-02    0.755E-03
DAV:   6    -0.123948618053E+03    0.42165E-05   -0.16739E-05  6432   0.111E-02    0.409E-03
DAV:   7    -0.123948619199E+03   -0.11457E-05   -0.16646E-06  4224   0.390E-03    0.225E-03
DAV:   8    -0.123948622559E+03   -0.33603E-05   -0.83110E-07  5232   0.242E-03    0.156E-03
DAV:   9    -0.123948627876E+03   -0.53166E-05   -0.34862E-07  4752   0.123E-03    0.805E-04
DAV:  10    -0.123948634493E+03   -0.66174E-05   -0.41096E-07  4704   0.131E-03    0.498E-04
DAV:  11    -0.123948637574E+03   -0.30805E-05   -0.11252E-07  4704   0.745E-04    0.359E-04
DAV:  12    -0.123948639576E+03   -0.20023E-05   -0.10491E-07  4272   0.646E-04    0.145E-04
DAV:  13    -0.123948639977E+03   -0.40113E-06   -0.19295E-08  5904   0.381E-04
  17 F= -.12551550E+03 E0= -.12551196E+03  d E =-.324149E-01  mag=    -0.0000
 curvature: ****** expect dE=-0.319E+02 dE for cont linesearch -0.109E-04
 trial: gam=******** g(F)=  0.284E+00 g(S)=  0.000E+00 ort = 0.235E-05 (trialstep = 0.637E-05)
 search vector abs. value=  0.142E+04
 bond charge predicted
       N       E                     dE             d eps       ncg     rms          rms(c)
DAV:   1    -0.123948639062E+03    0.51419E-06   -0.56579E-06  5040   0.881E-03    0.450E-04
DAV:   2    -0.123948639076E+03   -0.13810E-07   -0.65982E-08  6192   0.102E-03
  18 F= -.12551551E+03 E0= -.12551196E+03  d E =-.200000E-05  mag=    -0.0000
 ZBRENT: can't locate minimum, use default step
 trial-energy change:   -0.000002  1 .order   -0.000002   -0.000002   -0.000002
 step:   0.0000(harm=  0.0000)  dis= 0.00009  next Energy=  -125.515512 (dE=-0.757E-05)
 bond charge predicted
       N       E                     dE             d eps       ncg     rms          rms(c)
DAV:   1    -0.123948636067E+03    0.29948E-05   -0.49783E-05  4944   0.262E-02    0.139E-03
DAV:   2    -0.123948636043E+03    0.24656E-07   -0.52339E-07  5808   0.279E-03
  19 F= -.12551551E+03 E0= -.12551197E+03  d E =-.767178E-05  mag=     0.0000
 curvature:  -0.09 expect dE=-0.262E-01 dE for cont linesearch -0.574E-05
 ZBRENT: increasing intervall
 opt :   0.0001  next Energy=  -125.515524 (dE=-0.191E-04)
 bond charge predicted
       N       E                     dE             d eps       ncg     rms          rms(c)
DAV:   1    -0.123948630013E+03    0.60543E-05   -0.19732E-04  3648   0.523E-02    0.279E-03
DAV:   2    -0.123948629921E+03    0.91917E-07   -0.22937E-06  4272   0.598E-03
  20 F= -.12551552E+03 E0= -.12551198E+03  d E =-.189624E-04  mag=     0.0000
 curvature:  -0.18 expect dE=-0.521E-01 dE for cont linesearch -0.115E-04
 ZBRENT: increasing intervall
 opt :   0.0001  next Energy=  -125.515546 (dE=-0.419E-04)
 bond charge predicted
       N       E                     dE             d eps       ncg     rms          rms(c)
DAV:   1    -0.123948618032E+03    0.11981E-04   -0.79021E-04  3648   0.105E-01    0.561E-03
DAV:   2    -0.123948617611E+03    0.42134E-06   -0.90917E-06  4032   0.120E-02
  21 F= -.12551555E+03 E0= -.12551200E+03  d E =-.414844E-04  mag=     0.0000
 curvature:  -0.37 expect dE=-0.104E+00 dE for cont linesearch -0.233E-04
 ZBRENT: increasing intervall
 opt :   0.0003  next Energy=  -125.515592 (dE=-0.880E-04)
 bond charge predicted
       N       E                     dE             d eps       ncg     rms          rms(c)
DAV:   1    -0.123948594541E+03    0.23491E-04   -0.31625E-03  3648   0.210E-01    0.112E-02
DAV:   2    -0.123948593006E+03    0.15353E-05   -0.36208E-05  4512   0.240E-02    0.681E-03
DAV:   3    -0.123948592792E+03    0.21391E-06   -0.47884E-06  3648   0.760E-03
  22 F= -.12551559E+03 E0= -.12551206E+03  d E =-.863688E-04  mag=     0.0000
 curvature:  -0.73 expect dE=-0.207E+00 dE for cont linesearch -0.418E-04
 ZBRENT: increasing intervall
 opt :   0.0006  next Energy=  -125.515674 (dE=-0.169E-03)
 bond charge predicted
       N       E                     dE             d eps       ncg     rms          rms(c)
DAV:   1    -0.123948549864E+03    0.43141E-04   -0.13024E-02  3648   0.423E-01    0.220E-02
DAV:   2    -0.123948544126E+03    0.57385E-05   -0.15206E-04  4368   0.487E-02    0.132E-02
DAV:   3    -0.123948542469E+03    0.16569E-05   -0.20228E-05  4608   0.154E-02    0.328E-03
DAV:   4    -0.123948542842E+03   -0.37341E-06   -0.27478E-06  3888   0.600E-03
  23 F= -.12551568E+03 E0= -.12551216E+03  d E =-.175945E-03  mag=    -0.0000
 curvature:  -1.44 expect dE=-0.410E+00 dE for cont linesearch -0.869E-04
 ZBRENT: increasing intervall
 opt :   0.0012  next Energy=  -125.515864 (dE=-0.360E-03)
 bond charge predicted
       N       E                     dE             d eps       ncg     rms          rms(c)
DAV:   1    -0.123948469156E+03    0.73312E-04   -0.51792E-02  3648   0.843E-01    0.429E-02
DAV:   2    -0.123948448954E+03    0.20202E-04   -0.61145E-04  4464   0.974E-02    0.258E-02
DAV:   3    -0.123948440276E+03    0.86786E-05   -0.79232E-05  4560   0.304E-02    0.647E-03
DAV:   4    -0.123948441274E+03   -0.99792E-06   -0.10891E-05  3744   0.124E-02    0.269E-03
DAV:   5    -0.123948442011E+03   -0.73722E-06   -0.18782E-06  3648   0.628E-03
  24 F= -.12551586E+03 E0= -.12551236E+03  d E =-.354688E-03  mag=    -0.0000
 curvature:  -3.05 expect dE=-0.871E+00 dE for cont linesearch -0.177E-03
 ZBRENT: increasing intervall
 opt :   0.0024  next Energy=  -125.516205 (dE=-0.701E-03)
 bond charge predicted
       N       E                     dE             d eps       ncg     rms          rms(c)
DAV:   1    -0.123948338688E+03    0.10259E-03   -0.20708E-01  3648   0.169E+00    0.856E-02
DAV:   2    -0.123948264309E+03    0.74378E-04   -0.24400E-03  3648   0.195E-01    0.518E-02
DAV:   3    -0.123948227724E+03    0.36585E-04   -0.33991E-04  4896   0.636E-02    0.129E-02
DAV:   4    -0.123948229213E+03   -0.14885E-05   -0.40461E-05  4272   0.220E-02    0.544E-03
DAV:   5    -0.123948229905E+03   -0.69278E-06   -0.21829E-06  3648   0.596E-03
  25 F= -.12551621E+03 E0= -.12551276E+03  d E =-.703878E-03  mag=     0.0000
 curvature:  -5.94 expect dE=-0.171E+01 dE for cont linesearch -0.324E-03
 ZBRENT: increasing intervall
 opt :   0.0049  next Energy=  -125.516866 (dE=-0.136E-02)
 bond charge predicted
       N       E                     dE             d eps       ncg     rms          rms(c)
DAV:   1    -0.123948208250E+03    0.20963E-04   -0.82824E-01  3648   0.337E+00    0.171E-01
DAV:   2    -0.123947919382E+03    0.28887E-03   -0.97764E-03  3648   0.389E-01    0.103E-01
DAV:   3    -0.123947773295E+03    0.14609E-03   -0.13378E-03  4416   0.127E-01    0.260E-02
DAV:   4    -0.123947776576E+03   -0.32813E-05   -0.17609E-04  5568   0.450E-02    0.107E-02
DAV:   5    -0.123947776239E+03    0.33698E-06   -0.67971E-06  3744   0.961E-03
  26 F= -.12551689E+03 E0= -.12551354E+03  d E =-.138093E-02  mag=     0.0000
 curvature: -12.08 expect dE=-0.353E+01 dE for cont linesearch -0.572E-03
 ZBRENT: increasing intervall
 opt :   0.0098  next Energy=  -125.518064 (dE=-0.256E-02)
 bond charge predicted
       N       E                     dE             d eps       ncg     rms          rms(c)
DAV:   1    -0.123948483601E+03   -0.70702E-03   -0.33121E+00  3648   0.675E+00    0.343E-01
DAV:   2    -0.123947353561E+03    0.11300E-02   -0.39312E-02  4368   0.778E-01    0.206E-01
DAV:   3    -0.123946750103E+03    0.60346E-03   -0.51957E-03  5472   0.244E-01    0.508E-02
DAV:   4    -0.123946747438E+03    0.26659E-05   -0.55839E-04  5952   0.834E-02    0.219E-02
DAV:   5    -0.123946743118E+03    0.43196E-05   -0.28204E-05  4464   0.196E-02    0.445E-03
DAV:   6    -0.123946742504E+03    0.61396E-06   -0.10296E-05  4416   0.130E-02    0.275E-03
DAV:   7    -0.123946743579E+03   -0.10754E-05   -0.42013E-06  4176   0.883E-03    0.143E-03
DAV:   8    -0.123946748078E+03   -0.44990E-05   -0.18101E-06  4512   0.536E-03    0.102E-03
DAV:   9    -0.123946752475E+03   -0.43969E-05   -0.11906E-06  4992   0.452E-03    0.575E-04
DAV:  10    -0.123946756651E+03   -0.41754E-05   -0.15520E-06  4416   0.522E-03    0.343E-04
DAV:  11    -0.123946759106E+03   -0.24551E-05   -0.62593E-07  4704   0.319E-03    0.266E-04
DAV:  12    -0.123946761416E+03   -0.23100E-05   -0.25925E-07  4032   0.136E-03    0.112E-04
DAV:  13    -0.123946762210E+03   -0.79362E-06   -0.73049E-08  5040   0.665E-04
  27 F= -.12551817E+03 E0= -.12551501E+03  d E =-.266315E-02  mag=    -0.0000
 curvature: -24.90 expect dE=-0.747E+01 dE for cont linesearch -0.106E-02
 ZBRENT: increasing intervall
 opt :   0.0196  next Energy=  -125.520454 (dE=-0.495E-02)
 bond charge predicted
       N       E                     dE             d eps       ncg     rms          rms(c)
DAV:   1    -0.123950936400E+03   -0.41750E-02   -0.13220E+01  3648   0.135E+01    0.685E-01
DAV:   2    -0.123946534838E+03    0.44016E-02   -0.15816E-01  4128   0.156E+00    0.414E-01
DAV:   3    -0.123944108016E+03    0.24268E-02   -0.21376E-02  6240   0.495E-01    0.102E-01
DAV:   4    -0.123944121551E+03   -0.13535E-04   -0.20405E-03  5712   0.159E-01    0.448E-02
DAV:   5    -0.123944093625E+03    0.27926E-04   -0.97093E-05  4992   0.329E-02    0.854E-03
DAV:   6    -0.123944088880E+03    0.47451E-05   -0.21478E-05  6048   0.127E-02    0.440E-03
DAV:   7    -0.123944095293E+03   -0.64132E-05   -0.28915E-06  3936   0.510E-03    0.213E-03
DAV:   8    -0.123944101005E+03   -0.57120E-05   -0.59724E-07  5184   0.189E-03    0.180E-03
DAV:   9    -0.123944109241E+03   -0.82358E-05   -0.67609E-07  4512   0.161E-03    0.872E-04
DAV:  10    -0.123944118054E+03   -0.88126E-05   -0.90822E-07  4656   0.177E-03    0.546E-04
DAV:  11    -0.123944124280E+03   -0.62262E-05   -0.67456E-07  4032   0.147E-03    0.246E-04
DAV:  12    -0.123944126257E+03   -0.19774E-05   -0.13063E-07  5184   0.665E-04    0.131E-04
DAV:  13    -0.123944127355E+03   -0.10974E-05   -0.81888E-08  4608   0.461E-04    0.520E-05
DAV:  14    -0.123944127551E+03   -0.19669E-06   -0.10231E-08  5856   0.209E-04
  28 F= -.12552027E+03 E0= -.12551748E+03  d E =-.476126E-02  mag=    -0.0000
 curvature: -53.52 expect dE=-0.170E+02 dE for cont linesearch -0.121E-02
 ZBRENT: increasing intervall
 opt :   0.0391  next Energy=  -125.522461 (dE=-0.696E-02)
 bond charge predicted
       N       E                     dE             d eps       ncg     rms          rms(c)
DAV:   1    -0.123961975434E+03   -0.17848E-01   -0.52682E+01  3648   0.269E+01    0.137E+00
DAV:   2    -0.123945802859E+03    0.16173E-01   -0.64636E-01  4608   0.315E+00    0.826E-01
DAV:   3    -0.123936037379E+03    0.97655E-02   -0.81859E-02  6624   0.957E-01    0.210E-01
DAV:   4    -0.123935929131E+03    0.10825E-03   -0.73690E-03  6048   0.306E-01    0.909E-02
DAV:   5    -0.123935830995E+03    0.98136E-04   -0.39250E-04  5568   0.644E-02    0.178E-02
DAV:   6    -0.123935815137E+03    0.15859E-04   -0.81959E-05  6240   0.247E-02    0.898E-03
DAV:   7    -0.123935840593E+03   -0.25457E-04   -0.13755E-05  3840   0.111E-02    0.360E-03
DAV:   8    -0.123935864295E+03   -0.23702E-04   -0.37419E-06  4704   0.441E-03    0.299E-03
DAV:   9    -0.123935888331E+03   -0.24036E-04   -0.29286E-06  4992   0.376E-03    0.154E-03
DAV:  10    -0.123935901729E+03   -0.13397E-04   -0.13021E-06  5472   0.226E-03    0.111E-03
DAV:  11    -0.123935911780E+03   -0.10051E-04   -0.11183E-06  4800   0.214E-03    0.428E-04
DAV:  12    -0.123935917955E+03   -0.61743E-05   -0.71036E-07  4800   0.150E-03    0.214E-04
DAV:  13    -0.123935919427E+03   -0.14721E-05   -0.94595E-08  5184   0.813E-04    0.102E-04
DAV:  14    -0.123935920420E+03   -0.99374E-06   -0.81845E-08  4608   0.649E-04
  29 F= -.12552212E+03 E0= -.12551993E+03  d E =-.661124E-02  mag=     0.0000
 curvature: -97.15 expect dE=-0.342E+02 dE for cont linesearch -0.120E-08
 trial: gam= 0.13088 g(F)=  0.352E+00 g(S)=  0.000E+00 ort = 0.133E-03 (trialstep = 0.783E-02)
 search vector abs. value=  0.247E+02
 bond charge predicted
       N       E                     dE             d eps       ncg     rms          rms(c)
DAV:   1    -0.123938150773E+03   -0.22313E-02   -0.14726E-01  3648   0.143E+00    0.724E-02
DAV:   2    -0.123938097171E+03    0.53602E-04   -0.17732E-03  4512   0.165E-01    0.437E-02
DAV:   3    -0.123938071939E+03    0.25232E-04   -0.22689E-04  4608   0.516E-02    0.114E-02
DAV:   4    -0.123938073474E+03   -0.15354E-05   -0.31248E-05  3888   0.193E-02    0.494E-03
DAV:   5    -0.123938073996E+03   -0.52139E-06   -0.12594E-06  3648   0.416E-03
  30 F= -.12552484E+03 E0= -.12552269E+03  d E =-.272254E-02  mag=     0.0000
 ZBRENT: can't locate minimum, use default step
 trial-energy change:   -0.002723  1 .order   -0.002721   -0.002760   -0.002682
 step:   0.0313(harm=  0.2782)  dis= 0.01381  next Energy=  -125.571129 (dE=-0.490E-01)
 bond charge predicted
       N       E                     dE             d eps       ncg     rms          rms(c)
DAV:   1    -0.123944755860E+03   -0.66824E-02   -0.13255E+00  3648   0.428E+00    0.217E-01
DAV:   2    -0.123944310236E+03    0.44562E-03   -0.15972E-02  3840   0.497E-01    0.132E-01
DAV:   3    -0.123944081475E+03    0.22876E-03   -0.21833E-03  5856   0.160E-01    0.340E-02
DAV:   4    -0.123944082973E+03   -0.14978E-05   -0.24182E-04  6480   0.543E-02    0.156E-02
DAV:   5    -0.123944081394E+03    0.15792E-05   -0.84700E-06  4224   0.104E-02    0.308E-03
DAV:   6    -0.123944080952E+03    0.44140E-06   -0.28374E-06  6048   0.467E-03
  31 F= -.12553256E+03 E0= -.12553052E+03  d E =-.104473E-01  mag=     0.0000
 curvature:  -1.62 expect dE=-0.463E+00 dE for cont linesearch -0.651E-02
 ZBRENT: increasing intervall
 opt :   0.0783  next Energy=  -125.546066 (dE=-0.239E-01)
 bond charge predicted
       N       E                     dE             d eps       ncg     rms          rms(c)
DAV:   1    -0.123956783845E+03   -0.12702E-01   -0.52969E+00  3648   0.856E+00    0.435E-01
DAV:   2    -0.123955080764E+03    0.17031E-02   -0.64527E-02  5760   0.992E-01    0.261E-01
DAV:   3    -0.123954083693E+03    0.99707E-03   -0.77806E-03  5760   0.295E-01    0.675E-02
DAV:   4    -0.123954069375E+03    0.14318E-04   -0.87849E-04  6624   0.106E-01    0.298E-02
DAV:   5    -0.123954058915E+03    0.10460E-04   -0.33527E-05  5184   0.204E-02    0.600E-03
DAV:   6    -0.123954056921E+03    0.19946E-05   -0.10419E-05  6336   0.915E-03    0.317E-03
DAV:   7    -0.123954059921E+03   -0.30007E-05   -0.14563E-06  4176   0.501E-03    0.184E-03
DAV:   8    -0.123954064607E+03   -0.46853E-05   -0.13513E-06  4992   0.404E-03    0.110E-03
DAV:   9    -0.123954068450E+03   -0.38432E-05   -0.31955E-07  5328   0.177E-03    0.882E-04
DAV:  10    -0.123954076067E+03   -0.76172E-05   -0.10543E-06  4704   0.267E-03    0.388E-04
DAV:  11    -0.123954078372E+03   -0.23045E-05   -0.54334E-07  5952   0.307E-03    0.307E-04
DAV:  12    -0.123954080720E+03   -0.23480E-05   -0.34769E-07  4080   0.199E-03    0.124E-04
DAV:  13    -0.123954081888E+03   -0.11687E-05   -0.97986E-08  5184   0.624E-04    0.538E-05
DAV:  14    -0.123954082171E+03   -0.28287E-06   -0.14852E-08  4944   0.209E-04
  32 F= -.12554605E+03 E0= -.12554418E+03  d E =-.239334E-01  mag=     0.0000
 curvature:  -3.37 expect dE=-0.670E+00 dE for cont linesearch -0.908E-02
 ZBRENT: increasing intervall
 opt :   0.1724  next Energy=  -125.564996 (dE=-0.429E-01)
 bond charge predicted
       N       E                     dE             d eps       ncg     rms          rms(c)
DAV:   1    -0.123976267336E+03   -0.22185E-01   -0.21146E+01  3648   0.171E+01    0.868E-01
DAV:   2    -0.123969652535E+03    0.66148E-02   -0.25914E-01  4464   0.200E+00    0.525E-01
DAV:   3    -0.123965748214E+03    0.39043E-02   -0.33698E-02  6816   0.621E-01    0.137E-01
DAV:   4    -0.123965722726E+03    0.25489E-04   -0.32553E-03  6240   0.204E-01    0.628E-02
DAV:   5    -0.123965687344E+03    0.35382E-04   -0.13833E-04  5664   0.418E-02    0.126E-02
DAV:   6    -0.123965673361E+03    0.13983E-04   -0.39251E-05  6576   0.170E-02    0.678E-03
DAV:   7    -0.123965677758E+03   -0.43977E-05   -0.19477E-06  4224   0.488E-03    0.401E-03
DAV:   8    -0.123965689485E+03   -0.11726E-04   -0.35082E-06  4800   0.509E-03    0.194E-03
DAV:   9    -0.123965698428E+03   -0.89433E-05   -0.69385E-07  5088   0.200E-03    0.169E-03
DAV:  10    -0.123965712598E+03   -0.14170E-04   -0.19786E-06  5184   0.283E-03    0.669E-04
DAV:  11    -0.123965717154E+03   -0.45556E-05   -0.30016E-07  5568   0.115E-03    0.545E-04
DAV:  12    -0.123965722206E+03   -0.50523E-05   -0.45436E-07  4608   0.122E-03    0.237E-04
DAV:  13    -0.123965724303E+03   -0.20971E-05   -0.13970E-07  4944   0.644E-04    0.124E-04
DAV:  14    -0.123965725228E+03   -0.92450E-06   -0.47950E-08  5088   0.316E-04
  33 F= -.12556487E+03 E0= -.12556326E+03  d E =-.427517E-01  mag=    -0.0000
 curvature:  -7.03 expect dE=-0.532E+00 dE for cont linesearch -0.569E-02
 ZBRENT: increasing intervall
 opt :   0.3604  next Energy=  -125.569529 (dE=-0.474E-01)
 bond charge predicted
       N       E                     dE             d eps       ncg     rms          rms(c)
DAV:   1    -0.123994205761E+03   -0.28481E-01   -0.84138E+01  3648   0.341E+01    0.173E+00
DAV:   2    -0.123970405485E+03    0.23800E-01   -0.10670E+00  5472   0.404E+00    0.105E+00
DAV:   3    -0.123954748565E+03    0.15657E-01   -0.12356E-01  7008   0.118E+00    0.286E-01
DAV:   4    -0.123954458032E+03    0.29053E-03   -0.11891E-02  6336   0.395E-01    0.125E-01
DAV:   5    -0.123954282292E+03    0.17574E-03   -0.56201E-04  5664   0.810E-02    0.261E-02
DAV:   6    -0.123954241194E+03    0.41098E-04   -0.16993E-04  6528   0.354E-02    0.122E-02
DAV:   7    -0.123954269606E+03   -0.28412E-04   -0.18580E-05  4224   0.141E-02    0.407E-03
DAV:   8    -0.123954302832E+03   -0.33226E-04   -0.77430E-06  4800   0.719E-03    0.408E-03
DAV:   9    -0.123954337598E+03   -0.34765E-04   -0.50898E-06  4992   0.540E-03    0.218E-03
DAV:  10    -0.123954356378E+03   -0.18781E-04   -0.23114E-06  5664   0.309E-03    0.139E-03
DAV:  11    -0.123954367683E+03   -0.11304E-04   -0.12663E-06  5280   0.242E-03    0.699E-04
DAV:  12    -0.123954375885E+03   -0.82021E-05   -0.99146E-07  5472   0.181E-03    0.338E-04
DAV:  13    -0.123954378994E+03   -0.31086E-05   -0.22360E-07  5232   0.853E-04    0.162E-04
DAV:  14    -0.123954380037E+03   -0.10433E-05   -0.46690E-08  5472   0.381E-04    0.836E-05
DAV:  15    -0.123954380918E+03   -0.88094E-06   -0.67010E-08  4752   0.335E-04
  34 F= -.12556875E+03 E0= -.12556738E+03  d E =-.466369E-01  mag=     0.0000
 curvature:  -5.76 expect dE=-0.243E+00 dE for cont linesearch -0.245E-02
 ZBRENT: bracketing found
 ZBRENT: interpolating
 opt :   0.2814  next Energy=  -125.572803 (dE=-0.507E-01)
 bond charge predicted
       N       E                     dE             d eps       ncg     rms          rms(c)
DAV:   1    -0.123972535090E+03   -0.18155E-01   -0.14906E+01  3648   0.144E+01    0.731E-01
DAV:   2    -0.123967607667E+03    0.49274E-02   -0.18251E-01  6144   0.167E+00    0.438E-01
DAV:   3    -0.123964889039E+03    0.27186E-02   -0.21888E-02  6432   0.494E-01    0.114E-01
DAV:   4    -0.123964874394E+03    0.14645E-04   -0.23439E-03  6048   0.175E-01    0.509E-02
DAV:   5    -0.123964872952E+03    0.14419E-05   -0.10017E-04  5376   0.358E-02    0.994E-03
DAV:   6    -0.123964866576E+03    0.63761E-05   -0.26800E-05  6432   0.141E-02    0.495E-03
DAV:   7    -0.123964868837E+03   -0.22605E-05   -0.26186E-06  4320   0.550E-03    0.168E-03
DAV:   8    -0.123964873217E+03   -0.43804E-05   -0.91211E-07  4800   0.258E-03    0.163E-03
DAV:   9    -0.123964877483E+03   -0.42657E-05   -0.19506E-07  5040   0.120E-03    0.118E-03
DAV:  10    -0.123964885703E+03   -0.82201E-05   -0.69402E-07  5040   0.176E-03    0.546E-04
DAV:  11    -0.123964890182E+03   -0.44790E-05   -0.21816E-07  4656   0.102E-03    0.301E-04
DAV:  12    -0.123964892326E+03   -0.21444E-05   -0.83873E-08  5472   0.561E-04    0.156E-04
DAV:  13    -0.123964892961E+03   -0.63445E-06   -0.20025E-08  5280   0.313E-04
  35 F= -.12557272E+03 E0= -.12557128E+03  d E =-.506014E-01  mag=    -0.0000
 curvature:  -9.53 expect dE=-0.196E+00 dE for cont linesearch -0.123E-05
 trial: gam=-0.02449 g(F)=  0.206E-01 g(S)=  0.000E+00 ort = 0.179E-02 (trialstep = 0.625E-01)
 search vector abs. value=  0.354E-01
 bond charge predicted
       N       E                     dE             d eps       ncg     rms          rms(c)
DAV:   1    -0.123966267275E+03   -0.13749E-02   -0.99113E-03  3648   0.365E-01    0.251E-02
DAV:   2    -0.123966250773E+03    0.16502E-04   -0.15259E-04  6624   0.438E-02    0.128E-02
DAV:   3    -0.123966247343E+03    0.34296E-05   -0.22292E-05  4752   0.137E-02    0.328E-03
DAV:   4    -0.123966247516E+03   -0.17248E-06   -0.16883E-06  5184   0.453E-03
  36 F= -.12557395E+03 E0= -.12557252E+03  d E =-.123736E-02  mag=    -0.0000
 ZBRENT: can't locate minimum, use default step
 trial-energy change:   -0.001237  1 .order   -0.001237   -0.001287   -0.001187
 step:   0.2502(harm=  0.8059)  dis= 0.00262  next Energy=  -125.581007 (dE=-0.829E-02)
 bond charge predicted
       N       E                     dE             d eps       ncg     rms          rms(c)
DAV:   1    -0.123969895047E+03   -0.36477E-02   -0.89300E-02  3648   0.110E+00    0.756E-02
DAV:   2    -0.123969742848E+03    0.15220E-03   -0.13294E-03  6624   0.130E-01    0.382E-02
DAV:   3    -0.123969709696E+03    0.33152E-04   -0.20273E-04  6048   0.413E-02    0.971E-03
DAV:   4    -0.123969710303E+03   -0.60719E-06   -0.12905E-05  5424   0.126E-02    0.377E-03
DAV:   5    -0.123969710593E+03   -0.28981E-06   -0.55475E-07  4992   0.235E-03
  37 F= -.12557707E+03 E0= -.12557565E+03  d E =-.434926E-02  mag=    -0.0000
 curvature:  -0.31 expect dE=-0.335E-02 dE for cont linesearch -0.173E-02
 ZBRENT: increasing intervall
 opt :   0.6254  next Energy=  -125.580575 (dE=-0.786E-02)
 bond charge predicted
       N       E                     dE             d eps       ncg     rms          rms(c)
DAV:   1    -0.123974684000E+03   -0.49737E-02   -0.35775E-01  3648   0.219E+00    0.152E-01
DAV:   2    -0.123974067430E+03    0.61657E-03   -0.53022E-03  6624   0.259E-01    0.765E-02
DAV:   3    -0.123973932117E+03    0.13531E-03   -0.81748E-04  6240   0.828E-02    0.193E-02
DAV:   4    -0.123973933236E+03   -0.11190E-05   -0.51257E-05  5568   0.252E-02    0.753E-03
DAV:   5    -0.123973933973E+03   -0.73703E-06   -0.21848E-06  4992   0.464E-03
  38 F= -.12558059E+03 E0= -.12557918E+03  d E =-.787194E-02  mag=    -0.0000
 curvature:  -0.62 expect dE=-0.522E-02 dE for cont linesearch -0.360E-03
 ZBRENT: extrapolating
 opt :   0.8025  next Energy=  -125.580991 (dE=-0.827E-02)
 bond charge predicted
       N       E                     dE             d eps       ncg     rms          rms(c)
DAV:   1    -0.123974839715E+03   -0.90648E-03   -0.79875E-02  3648   0.104E+00    0.715E-02
DAV:   2    -0.123974703875E+03    0.13584E-03   -0.11886E-03  6816   0.123E-01    0.362E-02
DAV:   3    -0.123974673643E+03    0.30232E-04   -0.18015E-04  5856   0.389E-02    0.913E-03
DAV:   4    -0.123974674401E+03   -0.75801E-06   -0.11782E-05  4560   0.122E-02    0.355E-03
DAV:   5    -0.123974675135E+03   -0.73360E-06   -0.67391E-07  5376   0.296E-03
  39 F= -.12558100E+03 E0= -.12557960E+03  d E =-.828333E-02  mag=     0.0000
 curvature:  -0.69 expect dE=-0.846E-02 dE for cont linesearch -0.134E-07
 trial: gam= 0.59132 g(F)=  0.123E-01 g(S)=  0.000E+00 ort = 0.262E-04 (trialstep = 0.211E+00)
 search vector abs. value=  0.247E-01
 bond charge predicted
       N       E                     dE             d eps       ncg     rms          rms(c)
DAV:   1    -0.123977251441E+03   -0.25770E-02   -0.56738E-02  3648   0.893E-01    0.432E-02
DAV:   2    -0.123977249162E+03    0.22787E-05   -0.42782E-04  7104   0.863E-02    0.256E-02
DAV:   3    -0.123977242159E+03    0.70033E-05   -0.47801E-05  4896   0.240E-02    0.607E-03
DAV:   4    -0.123977242698E+03   -0.53859E-06   -0.60050E-06  5808   0.957E-03
  40 F= -.12558344E+03 E0= -.12558202E+03  d E =-.243625E-02  mag=     0.0000
 ZBRENT: can't locate minimum, use default step
 trial-energy change:   -0.002436  1 .order   -0.002435   -0.002588   -0.002282
 step:   0.8421(harm=  1.7802)  dis= 0.01295  next Energy=  -125.591940 (dE=-0.109E-01)
 bond charge predicted
       N       E                     dE             d eps       ncg     rms          rms(c)
DAV:   1    -0.123983234856E+03   -0.59927E-02   -0.51175E-01  3648   0.268E+00    0.131E-01
DAV:   2    -0.123983203632E+03    0.31224E-04   -0.38698E-03  7200   0.259E-01    0.771E-02
DAV:   3    -0.123983132453E+03    0.71179E-04   -0.42909E-04  5952   0.713E-02    0.187E-02
DAV:   4    -0.123983133937E+03   -0.14844E-05   -0.48811E-05  5664   0.265E-02    0.845E-03
DAV:   5    -0.123983135101E+03   -0.11640E-05   -0.23781E-06  5520   0.619E-03    0.350E-03
DAV:   6    -0.123983135581E+03   -0.47953E-06   -0.88343E-07  4848   0.421E-03
  41 F= -.12558894E+03 E0= -.12558744E+03  d E =-.793479E-02  mag=     0.0000
 curvature:  -1.15 expect dE=-0.687E-02 dE for cont linesearch -0.203E-02
 ZBRENT: increasing intervall
 opt :   2.1053  next Energy=  -125.591911 (dE=-0.109E-01)
 bond charge predicted
       N       E                     dE             d eps       ncg     rms          rms(c)
DAV:   1    -0.123987712380E+03   -0.45773E-02   -0.20576E+00  3648   0.537E+00    0.263E-01
DAV:   2    -0.123987517224E+03    0.19516E-03   -0.15829E-02  7296   0.521E-01    0.154E-01
DAV:   3    -0.123987209606E+03    0.30762E-03   -0.17040E-03  6144   0.142E-01    0.389E-02
DAV:   4    -0.123987214483E+03   -0.48761E-05   -0.18760E-04  4992   0.520E-02    0.170E-02
DAV:   5    -0.123987218384E+03   -0.39016E-05   -0.95214E-06  5664   0.117E-02    0.695E-03
DAV:   6    -0.123987219533E+03   -0.11489E-05   -0.26888E-06  4416   0.620E-03    0.184E-03
DAV:   7    -0.123987220165E+03   -0.63219E-06   -0.61058E-07  4512   0.391E-03
  42 F= -.12559223E+03 E0= -.12559037E+03  d E =-.112285E-01  mag=     0.0000
 curvature:  -1.69 expect dE=-0.302E-01 dE for cont linesearch -0.104E-03
 trial: gam= 1.63360 g(F)=  0.179E-01 g(S)=  0.000E+00 ort =-0.123E-02 (trialstep = 0.182E+00)
 search vector abs. value=  0.797E-01
 bond charge predicted
       N       E                     dE             d eps       ncg     rms          rms(c)
DAV:   1    -0.123989477427E+03   -0.22579E-02   -0.14803E-01  3648   0.151E+00    0.758E-02
DAV:   2    -0.123989454567E+03    0.22860E-04   -0.15900E-03  7296   0.172E-01    0.450E-02
DAV:   3    -0.123989431674E+03    0.22893E-04   -0.19493E-04  5424   0.505E-02    0.161E-02
DAV:   4    -0.123989430643E+03    0.10318E-05   -0.39944E-05  5472   0.215E-02    0.908E-03
DAV:   5    -0.123989431461E+03   -0.81822E-06   -0.20080E-06  4272   0.620E-03
  43 F= -.12559432E+03 E0= -.12559232E+03  d E =-.209459E-02  mag=    -0.0000
 trial-energy change:   -0.002095  1 .order   -0.002094   -0.002900   -0.001289
 step:   0.3283(harm=  0.3283)  dis= 0.00915  next Energy=  -125.594838 (dE=-0.261E-02)
 bond charge predicted
       N       E                     dE             d eps       ncg     rms          rms(c)
DAV:   1    -0.123990088128E+03   -0.65749E-03   -0.94836E-02  3648   0.121E+00    0.608E-02
DAV:   2    -0.123990074411E+03    0.13717E-04   -0.10083E-03  7200   0.137E-01    0.361E-02
DAV:   3    -0.123990060366E+03    0.14044E-04   -0.12255E-04  5040   0.403E-02    0.128E-02
DAV:   4    -0.123990059833E+03    0.53327E-06   -0.25797E-05  5040   0.178E-02    0.722E-03
DAV:   5    -0.123990060368E+03   -0.53489E-06   -0.14917E-06  4224   0.583E-03
  44 F= -.12559485E+03 E0= -.12559271E+03  d E =-.262346E-02  mag=     0.0000
 curvature:  -0.82 expect dE=-0.148E-02 dE for cont linesearch -0.256E-06
 trial: gam=-0.00423 g(F)=  0.180E-02 g(S)=  0.000E+00 ort = 0.157E-03 (trialstep = 0.212E+00)
 search vector abs. value=  0.180E-02
 bond charge predicted
       N       E                     dE             d eps       ncg     rms          rms(c)
DAV:   1    -0.123990360511E+03   -0.30068E-03   -0.78787E-03  3840   0.339E-01    0.226E-02
DAV:   2    -0.123990344656E+03    0.15855E-04   -0.12562E-04  4896   0.411E-02    0.111E-02
DAV:   3    -0.123990342770E+03    0.18865E-05   -0.15319E-05  4128   0.133E-02    0.358E-03
DAV:   4    -0.123990343152E+03   -0.38196E-06   -0.25253E-06  3936   0.697E-03
  45 F= -.12559519E+03 E0= -.12559307E+03  d E =-.335087E-03  mag=    -0.0000
 ZBRENT: can't locate minimum, use default step
 trial-energy change:   -0.000335  1 .order   -0.000335   -0.000382   -0.000288
 step:   0.8464(harm=  0.8625)  dis= 0.00229  next Energy=  -125.595630 (dE=-0.778E-03)
 bond charge predicted
       N       E                     dE             d eps       ncg     rms          rms(c)
DAV:   1    -0.123990789172E+03   -0.44640E-03   -0.71033E-02  3744   0.102E+00    0.681E-02
DAV:   2    -0.123990650221E+03    0.13895E-03   -0.11298E-03  6096   0.122E-01    0.332E-02
DAV:   3    -0.123990628978E+03    0.21243E-04   -0.12015E-04  5856   0.352E-02    0.105E-02
DAV:   4    -0.123990629559E+03   -0.58073E-06   -0.13329E-05  4896   0.128E-02    0.337E-03
DAV:   5    -0.123990630028E+03   -0.46944E-06   -0.95587E-07  4416   0.457E-03
  46 F= -.12559563E+03 E0= -.12559359E+03  d E =-.779481E-03  mag=    -0.0000
 curvature:  -0.43 expect dE=-0.686E-03 dE for cont linesearch -0.227E-06
 trial: gam= 0.86493 g(F)=  0.159E-02 g(S)=  0.000E+00 ort = 0.308E-04 (trialstep = 0.204E+00)
 search vector abs. value=  0.300E-02
 bond charge predicted
       N       E                     dE             d eps       ncg     rms          rms(c)
DAV:   1    -0.123990833919E+03   -0.20436E-03   -0.13252E-02  3744   0.426E-01    0.222E-02
DAV:   2    -0.123990827230E+03    0.66886E-05   -0.11520E-04  4800   0.433E-02    0.125E-02
DAV:   3    -0.123990825724E+03    0.15058E-05   -0.16544E-05  4512   0.142E-02    0.293E-03
DAV:   4    -0.123990826058E+03   -0.33415E-06   -0.20126E-06  4512   0.553E-03
  47 F= -.12559594E+03 E0= -.12559389E+03  d E =-.305776E-03  mag=     0.0000
 ZBRENT: can't locate minimum, use default step
 trial-energy change:   -0.000306  1 .order   -0.000306   -0.000330   -0.000281
 step:   0.8158(harm=  1.3718)  dis= 0.00303  next Energy=  -125.596742 (dE=-0.111E-02)
 bond charge predicted
       N       E                     dE             d eps       ncg     rms          rms(c)
DAV:   1    -0.123991187994E+03   -0.36227E-03   -0.11909E-01  3648   0.128E+00    0.668E-02
DAV:   2    -0.123991132089E+03    0.55905E-04   -0.10217E-03  5520   0.128E-01    0.374E-02
DAV:   3    -0.123991115029E+03    0.17060E-04   -0.14743E-04  4608   0.417E-02    0.856E-03
DAV:   4    -0.123991116393E+03   -0.13639E-05   -0.16375E-05  5568   0.150E-02    0.358E-03
DAV:   5    -0.123991116903E+03   -0.50984E-06   -0.70547E-07  4080   0.348E-03
  48 F= -.12559656E+03 E0= -.12559448E+03  d E =-.927341E-03  mag=     0.0000
 curvature:  -0.98 expect dE=-0.688E-03 dE for cont linesearch -0.139E-03
 ZBRENT: increasing intervall
 opt :   2.0394  next Energy=  -125.596467 (dE=-0.835E-03)
 bond charge predicted
       N       E                     dE             d eps       ncg     rms          rms(c)
DAV:   1    -0.123990644924E+03    0.47147E-03   -0.47639E-01  3648   0.256E+00    0.133E-01
DAV:   2    -0.123990430465E+03    0.21446E-03   -0.40829E-03  5712   0.256E-01    0.746E-02
DAV:   3    -0.123990356990E+03    0.73475E-04   -0.61217E-04  5712   0.844E-02    0.167E-02
DAV:   4    -0.123990359449E+03   -0.24586E-05   -0.55324E-05  5088   0.278E-02    0.703E-03
DAV:   5    -0.123990360755E+03   -0.13058E-05   -0.28023E-06  4320   0.588E-03    0.179E-03
DAV:   6    -0.123990360849E+03   -0.94506E-07   -0.42119E-07  5040   0.242E-03
  49 F= -.12559647E+03 E0= -.12559434E+03  d E =-.840278E-03  mag=     0.0000
 curvature:   0.65 expect dE= 0.229E-02 dE for cont linesearch  0.138E-03
 ZBRENT: bracketing found
 ZBRENT: interpolating
 opt :   1.3666  next Energy=  -125.596739 (dE=-0.111E-02)
 bond charge predicted
       N       E                     dE             d eps       ncg     rms          rms(c)
DAV:   1    -0.123991082528E+03   -0.72177E-03   -0.14391E-01  3648   0.140E+00    0.731E-02
DAV:   2    -0.123991016836E+03    0.65692E-04   -0.12376E-03  4752   0.141E-01    0.410E-02
DAV:   3    -0.123990997040E+03    0.19796E-04   -0.18681E-04  6480   0.466E-02    0.921E-03
DAV:   4    -0.123990998214E+03   -0.11740E-05   -0.16275E-05  4608   0.153E-02    0.392E-03
DAV:   5    -0.123990999007E+03   -0.79359E-06   -0.83827E-07  5520   0.333E-03
  50 F= -.12559674E+03 E0= -.12559464E+03  d E =-.110941E-02  mag=     0.0000
 curvature:  -0.85 expect dE=-0.114E-02 dE for cont linesearch -0.144E-07
 trial: gam= 0.89096 g(F)=  0.135E-02 g(S)=  0.000E+00 ort = 0.714E-05 (trialstep = 0.350E+00)
 search vector abs. value=  0.374E-02
 bond charge predicted
       N       E                     dE             d eps       ncg     rms          rms(c)
DAV:   1    -0.123991124151E+03   -0.12594E-03   -0.43416E-02  3648   0.793E-01    0.441E-02
DAV:   2    -0.123991083991E+03    0.40159E-04   -0.54291E-04  4848   0.901E-02    0.242E-02
DAV:   3    -0.123991075486E+03    0.85048E-05   -0.63608E-05  5616   0.276E-02    0.729E-03
DAV:   4    -0.123991076058E+03   -0.57158E-06   -0.79211E-06  4080   0.999E-03
  51 F= -.12559710E+03 E0= -.12559493E+03  d E =-.361892E-03  mag=     0.0000
 trial-energy change:   -0.000362  1 .order   -0.000364   -0.000473   -0.000254
 step:   0.7574(harm=  0.7574)  dis= 0.00337  next Energy=  -125.597253 (dE=-0.512E-03)
 bond charge predicted
       N       E                     dE             d eps       ncg     rms          rms(c)
DAV:   1    -0.123990953280E+03    0.12221E-03   -0.58901E-02  3648   0.923E-01    0.516E-02
DAV:   2    -0.123990901415E+03    0.51865E-04   -0.73296E-04  4560   0.105E-01    0.283E-02
DAV:   3    -0.123990889774E+03    0.11642E-04   -0.89468E-05  5424   0.330E-02    0.858E-03
DAV:   4    -0.123990890184E+03   -0.41060E-06   -0.10938E-05  4704   0.117E-02    0.336E-03
DAV:   5    -0.123990890380E+03   -0.19582E-06   -0.59567E-07  4080   0.324E-03
  52 F= -.12559725E+03 E0= -.12559498E+03  d E =-.508283E-03  mag=     0.0000
 curvature:  -1.05 expect dE=-0.101E-02 dE for cont linesearch -0.601E-08
 trial: gam= 0.71188 g(F)=  0.964E-03 g(S)=  0.000E+00 ort =-0.463E-05 (trialstep = 0.431E+00)
 search vector abs. value=  0.285E-02
 bond charge predicted
       N       E                     dE             d eps       ncg     rms          rms(c)
DAV:   1    -0.123990941108E+03   -0.50924E-04   -0.49767E-02  3648   0.836E-01    0.429E-02
DAV:   2    -0.123990919787E+03    0.21321E-04   -0.61632E-04  3648   0.980E-02    0.259E-02
DAV:   3    -0.123990912089E+03    0.76979E-05   -0.83935E-05  4320   0.323E-02    0.746E-03
DAV:   4    -0.123990912906E+03   -0.81674E-06   -0.12211E-05  4080   0.121E-02    0.354E-03
DAV:   5    -0.123990913254E+03   -0.34743E-06   -0.58404E-07  3648   0.350E-03
  53 F= -.12559764E+03 E0= -.12559533E+03  d E =-.386390E-03  mag=    -0.0000
 ZBRENT: can't locate minimum, use default step
 trial-energy change:   -0.000386  1 .order   -0.000385   -0.000414   -0.000356
 step:   1.7259(harm=  3.0499)  dis= 0.00829  next Energy=  -125.598714 (dE=-0.146E-02)
 bond charge predicted
       N       E                     dE             d eps       ncg     rms          rms(c)
DAV:   1    -0.123990884370E+03    0.28536E-04   -0.44744E-01  3648   0.251E+00    0.129E-01
DAV:   2    -0.123990709120E+03    0.17525E-03   -0.55295E-03  3648   0.293E-01    0.774E-02
DAV:   3    -0.123990627225E+03    0.81895E-04   -0.76959E-04  5808   0.965E-02    0.221E-02
DAV:   4    -0.123990627383E+03   -0.15815E-06   -0.89451E-05  6528   0.332E-02    0.109E-02
DAV:   5    -0.123990627656E+03   -0.27252E-06   -0.31832E-06  4128   0.734E-03
  54 F= -.12559844E+03 E0= -.12559602E+03  d E =-.119368E-02  mag=    -0.0000
 curvature:  -3.37 expect dE=-0.101E-01 dE for cont linesearch -0.202E-03
 ZBRENT: increasing intervall
 opt :   4.3148  next Energy=  -125.598451 (dE=-0.120E-02)
 bond charge predicted
       N       E                     dE             d eps       ncg     rms          rms(c)
DAV:   1    -0.123989507051E+03    0.11203E-02   -0.17907E+00  3648   0.501E+00    0.257E-01
DAV:   2    -0.123988829506E+03    0.67754E-03   -0.22387E-02  5184   0.585E-01    0.154E-01
DAV:   3    -0.123988501159E+03    0.32835E-03   -0.27798E-03  5376   0.180E-01    0.430E-02
DAV:   4    -0.123988495915E+03    0.52440E-05   -0.35128E-04  6480   0.666E-02    0.201E-02
DAV:   5    -0.123988492508E+03    0.34066E-05   -0.11651E-05  5280   0.136E-02    0.548E-03
DAV:   6    -0.123988492167E+03    0.34084E-06   -0.56201E-06  5280   0.856E-03
  55 F= -.12559850E+03 E0= -.12559583E+03  d E =-.125457E-02  mag=     0.0000
 curvature:  -0.13 expect dE=-0.225E-02 dE for cont linesearch -0.612E-05
 ZBRENT: bracketing found
 ZBRENT: interpolating
 opt :   3.0920  next Energy=  -125.598731 (dE=-0.148E-02)
 bond charge predicted
       N       E                     dE             d eps       ncg     rms          rms(c)
DAV:   1    -0.123989978765E+03   -0.14863E-02   -0.39892E-01  3648   0.237E+00    0.121E-01
DAV:   2    -0.123989827556E+03    0.15121E-03   -0.50240E-03  4704   0.277E-01    0.731E-02
DAV:   3    -0.123989761889E+03    0.65667E-04   -0.62609E-04  4704   0.861E-02    0.207E-02
DAV:   4    -0.123989765842E+03   -0.39523E-05   -0.85196E-05  4848   0.331E-02    0.947E-03
DAV:   5    -0.123989767401E+03   -0.15592E-05   -0.34542E-06  4128   0.847E-03    0.319E-03
DAV:   6    -0.123989768433E+03   -0.10327E-05   -0.12970E-06  5664   0.520E-03    0.160E-03
DAV:   7    -0.123989768939E+03   -0.50570E-06   -0.29584E-07  5232   0.252E-03
  56 F= -.12559874E+03 E0= -.12559619E+03  d E =-.149211E-02  mag=    -0.0000
 curvature:  -4.71 expect dE=-0.424E-01 dE for cont linesearch -0.381E-07
 trial: gam= 9.35123 g(F)=  0.901E-02 g(S)=  0.000E+00 ort = 0.480E-05 (trialstep = 0.106E-01)
 search vector abs. value=  0.258E+00
 bond charge predicted
       N       E                     dE             d eps       ncg     rms          rms(c)
DAV:   1    -0.123989780044E+03   -0.11611E-04   -0.27370E-03  4944   0.195E-01    0.101E-02
DAV:   2    -0.123989778357E+03    0.16872E-05   -0.29454E-05  5424   0.207E-02    0.593E-03
DAV:   3    -0.123989778285E+03    0.72471E-07   -0.42738E-06  5040   0.689E-03
  57 F= -.12559884E+03 E0= -.12559628E+03  d E =-.969472E-04  mag=    -0.0000
 ZBRENT: can't locate minimum, use default step
 trial-energy change:   -0.000097  1 .order   -0.000096   -0.000096   -0.000095
 step:   0.0425(harm=  0.9058)  dis= 0.00198  next Energy=  -125.602841 (dE=-0.410E-02)
 bond charge predicted
       N       E                     dE             d eps       ncg     rms          rms(c)
DAV:   1    -0.123989815193E+03   -0.36835E-04   -0.24710E-02  3648   0.585E-01    0.304E-02
DAV:   2    -0.123989804054E+03    0.11139E-04   -0.29335E-04  4704   0.668E-02    0.182E-02
DAV:   3    -0.123989800481E+03    0.35733E-05   -0.37727E-05  4128   0.208E-02    0.463E-03
DAV:   4    -0.123989800992E+03   -0.51145E-06   -0.53192E-06  3936   0.800E-03
  58 F= -.12559912E+03 E0= -.12559654E+03  d E =-.382702E-03  mag=    -0.0000
 curvature:  -0.90 expect dE=-0.789E-02 dE for cont linesearch -0.278E-03
 ZBRENT: increasing intervall
 opt :   0.1063  next Energy=  -125.599691 (dE=-0.950E-03)
 bond charge predicted
       N       E                     dE             d eps       ncg     rms          rms(c)
DAV:   1    -0.123989890988E+03   -0.90507E-04   -0.98551E-02  3648   0.117E+00    0.598E-02
DAV:   2    -0.123989851510E+03    0.39478E-04   -0.11754E-03  4752   0.134E-01    0.356E-02
DAV:   3    -0.123989834313E+03    0.17197E-04   -0.15125E-04  5136   0.413E-02    0.897E-03
DAV:   4    -0.123989835313E+03   -0.99953E-06   -0.17923E-05  4224   0.152E-02    0.367E-03
DAV:   5    -0.123989835643E+03   -0.33033E-06   -0.14998E-06  3792   0.564E-03
  59 F= -.12559969E+03 E0= -.12559706E+03  d E =-.944636E-03  mag=     0.0000
 curvature:  -1.84 expect dE=-0.153E-01 dE for cont linesearch -0.538E-03
 ZBRENT: increasing intervall
 opt :   0.2339  next Energy=  -125.600765 (dE=-0.202E-02)
 bond charge predicted
       N       E                     dE             d eps       ncg     rms          rms(c)
DAV:   1    -0.123990087401E+03   -0.25209E-03   -0.39420E-01  3648   0.234E+00    0.120E-01
DAV:   2    -0.123989935532E+03    0.15187E-03   -0.46473E-03  3648   0.268E-01    0.718E-02
DAV:   3    -0.123989861956E+03    0.73576E-04   -0.66294E-04  5376   0.878E-02    0.178E-02
DAV:   4    -0.123989863320E+03   -0.13641E-05   -0.68280E-05  5952   0.288E-02    0.759E-03
DAV:   5    -0.123989864038E+03   -0.71741E-06   -0.35308E-06  4080   0.750E-03
  60 F= -.12560077E+03 E0= -.12559805E+03  d E =-.203236E-02  mag=     0.0000
 curvature:  -3.69 expect dE=-0.277E-01 dE for cont linesearch -0.977E-03
 ZBRENT: increasing intervall
 opt :   0.4890  next Energy=  -125.602775 (dE=-0.403E-02)
 bond charge predicted
       N       E                     dE             d eps       ncg     rms          rms(c)
DAV:   1    -0.123990661008E+03   -0.79769E-03   -0.15774E+00  3648   0.467E+00    0.239E-01
DAV:   2    -0.123990052497E+03    0.60851E-03   -0.18681E-02  4416   0.534E-01    0.143E-01
DAV:   3    -0.123989773172E+03    0.27932E-03   -0.25078E-03  5184   0.169E-01    0.355E-02
DAV:   4    -0.123989773032E+03    0.13977E-06   -0.27288E-04  6480   0.577E-02    0.149E-02
DAV:   5    -0.123989770556E+03    0.24765E-05   -0.12953E-05  5424   0.133E-02    0.302E-03
DAV:   6    -0.123989770662E+03   -0.10644E-06   -0.43673E-06  4320   0.946E-03
  61 F= -.12560282E+03 E0= -.12559990E+03  d E =-.407689E-02  mag=     0.0000
 curvature:  -7.57 expect dE=-0.461E-01 dE for cont linesearch -0.173E-02
 ZBRENT: increasing intervall
 opt :   0.9993  next Energy=  -125.606455 (dE=-0.771E-02)
 bond charge predicted
       N       E                     dE             d eps       ncg     rms          rms(c)
DAV:   1    -0.123992658017E+03   -0.28875E-02   -0.63090E+00  3648   0.935E+00    0.479E-01
DAV:   2    -0.123990333650E+03    0.23244E-02   -0.74971E-02  5616   0.107E+00    0.284E-01
DAV:   3    -0.123989080541E+03    0.12531E-02   -0.95795E-03  5520   0.322E-01    0.700E-02
DAV:   4    -0.123989072085E+03    0.84556E-05   -0.95077E-04  6336   0.110E-01    0.297E-02
DAV:   5    -0.123989057572E+03    0.14513E-04   -0.48395E-05  6048   0.233E-02    0.609E-03
DAV:   6    -0.123989056720E+03    0.85265E-06   -0.73535E-06  4560   0.107E-02
  62 F= -.12560646E+03 E0= -.12560311E+03  d E =-.771583E-02  mag=    -0.0000
 curvature: -15.86 expect dE=-0.614E-01 dE for cont linesearch -0.269E-02
 ZBRENT: increasing intervall
 opt :   2.0199  next Energy=  -125.612109 (dE=-0.134E-01)
 bond charge predicted
       N       E                     dE             d eps       ncg     rms          rms(c)
DAV:   1    -0.124000229052E+03   -0.11171E-01   -0.25237E+01  3648   0.187E+01    0.954E-01
DAV:   2    -0.123991484155E+03    0.87449E-02   -0.30015E-01  5856   0.214E+00    0.569E-01
DAV:   3    -0.123986302614E+03    0.51815E-02   -0.38416E-02  6192   0.644E-01    0.139E-01
DAV:   4    -0.123986247985E+03    0.54629E-04   -0.35693E-03  6192   0.215E-01    0.600E-02
DAV:   5    -0.123986192606E+03    0.55379E-04   -0.19616E-04  6336   0.435E-02    0.110E-02
DAV:   6    -0.123986194288E+03   -0.16821E-05   -0.34288E-05  4224   0.177E-02    0.575E-03
DAV:   7    -0.123986216110E+03   -0.21821E-04   -0.90438E-06  4608   0.124E-02    0.348E-03
DAV:   8    -0.123986233132E+03   -0.17022E-04   -0.51599E-06  5040   0.933E-03    0.283E-03
DAV:   9    -0.123986252161E+03   -0.19030E-04   -0.27157E-06  5280   0.474E-03    0.122E-03
DAV:  10    -0.123986265777E+03   -0.13616E-04   -0.20406E-06  5376   0.445E-03    0.854E-04
DAV:  11    -0.123986270405E+03   -0.46277E-05   -0.76724E-07  6048   0.368E-03    0.589E-04
DAV:  12    -0.123986275276E+03   -0.48714E-05   -0.61195E-07  5136   0.246E-03    0.244E-04
DAV:  13    -0.123986276569E+03   -0.12934E-05   -0.96403E-08  5856   0.112E-03    0.125E-04
DAV:  14    -0.123986277374E+03   -0.80485E-06   -0.43566E-08  4896   0.516E-04
  63 F= -.12561271E+03 E0= -.12560865E+03  d E =-.139651E-01  mag=    -0.0000
 curvature: -33.35 expect dE=-0.723E-01 dE for cont linesearch -0.424E-02
 ZBRENT: increasing intervall
 opt :   4.0611  next Energy=  -125.622597 (dE=-0.239E-01)
 bond charge predicted
       N       E                     dE             d eps       ncg     rms          rms(c)
DAV:   1    -0.124028017274E+03   -0.41741E-01   -0.10070E+02  3648   0.374E+01    0.189E+00
DAV:   2    -0.123999038246E+03    0.28979E-01   -0.12277E+00  5376   0.437E+00    0.114E+00
DAV:   3    -0.123978793210E+03    0.20245E-01   -0.15455E-01  6720   0.130E+00    0.283E-01
DAV:   4    -0.123978646263E+03    0.14695E-03   -0.12759E-02  6048   0.410E-01    0.123E-01
DAV:   5    -0.123978377397E+03    0.26887E-03   -0.88061E-04  6048   0.865E-02    0.237E-02
DAV:   6    -0.123978365406E+03    0.11991E-04   -0.12531E-04  5088   0.312E-02    0.104E-02
DAV:   7    -0.123978415275E+03   -0.49869E-04   -0.25270E-05  4416   0.152E-02    0.596E-03
DAV:   8    -0.123978461996E+03   -0.46721E-04   -0.82938E-06  4656   0.677E-03    0.384E-03
DAV:   9    -0.123978490802E+03   -0.28806E-04   -0.35795E-06  5376   0.410E-03    0.211E-03
DAV:  10    -0.123978511493E+03   -0.20691E-04   -0.26409E-06  5376   0.319E-03    0.135E-03
DAV:  11    -0.123978523834E+03   -0.12341E-04   -0.16124E-06  5808   0.246E-03    0.736E-04
DAV:  12    -0.123978528686E+03   -0.48520E-05   -0.42233E-07  5664   0.140E-03    0.282E-04
DAV:  13    -0.123978530232E+03   -0.15457E-05   -0.76216E-08  5616   0.792E-04    0.151E-04
DAV:  14    -0.123978531021E+03   -0.78922E-06   -0.33590E-08  5424   0.504E-04
  64 F= -.12562439E+03 E0= -.12562061E+03  d E =-.256487E-01  mag=     0.0000
 curvature: -77.80 expect dE=-0.871E+00 dE for cont linesearch -0.981E-02
 ZBRENT: increasing intervall
 opt :   8.1435  next Energy=  -125.647593 (dE=-0.489E-01)
 bond charge predicted
       N       E                     dE             d eps       ncg     rms          rms(c)
DAV:   1    -0.124117161367E+03   -0.13863E+00   -0.39799E+02  3648   0.741E+01    0.372E+00
DAV:   2    -0.124040259768E+03    0.76902E-01   -0.51712E+00  5376   0.916E+00    0.229E+00
DAV:   3    -0.123954126398E+03    0.86133E-01   -0.55449E-01  6240   0.249E+00    0.642E-01
DAV:   4    -0.123955120021E+03   -0.99362E-03   -0.47464E-02  5568   0.787E-01    0.250E-01
DAV:   5    -0.123954105287E+03    0.10147E-02   -0.40643E-03  6528   0.168E-01    0.502E-02
DAV:   6    -0.123954008282E+03    0.97005E-04   -0.42488E-04  4704   0.589E-02    0.224E-02
DAV:   7    -0.123954144406E+03   -0.13612E-03   -0.13066E-04  4704   0.336E-02    0.122E-02
DAV:   8    -0.123954245064E+03   -0.10066E-03   -0.29578E-05  4512   0.135E-02    0.764E-03
DAV:   9    -0.123954312234E+03   -0.67170E-04   -0.14611E-05  5616   0.920E-03    0.415E-03
DAV:  10    -0.123954347843E+03   -0.35609E-04   -0.58765E-06  5328   0.589E-03    0.274E-03
DAV:  11    -0.123954373101E+03   -0.25258E-04   -0.51440E-06  5616   0.475E-03    0.166E-03
DAV:  12    -0.123954380140E+03   -0.70385E-05   -0.90574E-07  6000   0.281E-03    0.611E-04
DAV:  13    -0.123954382636E+03   -0.24964E-05   -0.27084E-07  5808   0.205E-03    0.340E-04
DAV:  14    -0.123954383812E+03   -0.11760E-05   -0.13581E-07  5232   0.153E-03    0.163E-04
DAV:  15    -0.123954384697E+03   -0.88508E-06   -0.69512E-08  5088   0.872E-04
  65 F= -.12564526E+03 E0= -.12564226E+03  d E =-.465167E-01  mag=     0.0000
 curvature: ****** expect dE=-0.155E+02 dE for cont linesearch -0.132E-01
 ZBRENT: increasing intervall
 opt :  16.3083  next Energy=  -125.668961 (dE=-0.702E-01)
 bond charge predicted
       N       E                     dE             d eps       ncg     rms          rms(c)
DAV:   1    -0.124113937159E+03   -0.15955E+00   -0.15018E+03  3648   0.142E+02    0.730E+00
DAV:   2    -0.124174943469E+03   -0.61006E-01   -0.24607E+01  5664   0.205E+01    0.459E+00
DAV:   3    -0.123829965076E+03    0.34498E+00   -0.16109E+00  6048   0.438E+00    0.179E+00
DAV:   4    -0.123817198754E+03    0.12766E-01   -0.20788E-01  6048   0.166E+00    0.484E-01
DAV:   5    -0.123814747825E+03    0.24509E-02   -0.15431E-02  6624   0.359E-01    0.103E-01
DAV:   6    -0.123814044548E+03    0.70328E-03   -0.21290E-03  6432   0.130E-01    0.459E-02
DAV:   7    -0.123814192563E+03   -0.14802E-03   -0.48641E-04  5520   0.658E-02    0.199E-02
DAV:   8    -0.123814398257E+03   -0.20569E-03   -0.10253E-04  4896   0.248E-02    0.154E-02
DAV:   9    -0.123814595898E+03   -0.19764E-03   -0.10278E-04  4800   0.245E-02    0.885E-03
DAV:  10    -0.123814651941E+03   -0.56043E-04   -0.14715E-05  5856   0.880E-03    0.733E-03
DAV:  11    -0.123814689695E+03   -0.37754E-04   -0.13152E-05  5280   0.810E-03    0.276E-03
DAV:  12    -0.123814703775E+03   -0.14080E-04   -0.28373E-06  6048   0.409E-03    0.184E-03
DAV:  13    -0.123814710483E+03   -0.67076E-05   -0.72947E-07  5760   0.248E-03    0.717E-04
DAV:  14    -0.123814713849E+03   -0.33666E-05   -0.39020E-07  6144   0.227E-03    0.315E-04
DAV:  15    -0.123814714593E+03   -0.74367E-06   -0.14401E-07  6096   0.167E-03
  66 F= -.12562459E+03 E0= -.12562051E+03  d E =-.258473E-01  mag=     0.0000
 curvature: ****** expect dE=-0.217E+03 dE for cont linesearch -0.323E+00
 ZBRENT: bracketing found
 ZBRENT: interpolating
 opt :   9.8840  next Energy=  -125.649005 (dE=-0.503E-01)
 bond charge predicted
       N       E                     dE             d eps       ncg     rms          rms(c)
DAV:   1    -0.124216003054E+03   -0.40129E+00   -0.95961E+02  3648   0.115E+02    0.586E+00
DAV:   2    -0.124161366614E+03    0.54636E-01   -0.14243E+01  5088   0.158E+01    0.363E+00
DAV:   3    -0.123941613814E+03    0.21975E+00   -0.11508E+00  6528   0.364E+00    0.128E+00
DAV:   4    -0.123940330924E+03    0.12829E-02   -0.10583E-01  5856   0.123E+00    0.384E-01
DAV:   5    -0.123938640635E+03    0.16903E-02   -0.13976E-02  5568   0.309E-01    0.670E-02
DAV:   6    -0.123938490361E+03    0.15027E-03   -0.76484E-04  4848   0.858E-02    0.335E-02
DAV:   7    -0.123938503795E+03   -0.13433E-04   -0.20397E-04  5184   0.488E-02    0.162E-02
DAV:   8    -0.123938556159E+03   -0.52364E-04   -0.36509E-05  3936   0.151E-02    0.977E-03
DAV:   9    -0.123938671487E+03   -0.11533E-03   -0.31383E-05  3936   0.150E-02    0.638E-03
DAV:  10    -0.123938752104E+03   -0.80617E-04   -0.74771E-06  3648   0.932E-03    0.508E-03
DAV:  11    -0.123938832965E+03   -0.80861E-04   -0.58326E-06  5616   0.642E-03    0.184E-03
DAV:  12    -0.123938864213E+03   -0.31247E-04   -0.69351E-07  5232   0.309E-03    0.953E-04
DAV:  13    -0.123938881186E+03   -0.16973E-04   -0.43306E-07  5856   0.261E-03    0.525E-04
DAV:  14    -0.123938885923E+03   -0.47367E-05   -0.20995E-07  5904   0.194E-03    0.232E-04
DAV:  15    -0.123938887904E+03   -0.19814E-05   -0.66265E-08  5520   0.902E-04    0.111E-04
DAV:  16    -0.123938888215E+03   -0.31050E-06   -0.11323E-08  6192   0.408E-04
  67 F= -.12565173E+03 E0= -.12564874E+03  d E =-.529874E-01  mag=    -0.0000
 curvature:  -3.83 expect dE=-0.566E+00 dE for cont linesearch -0.132E-03
 ZBRENT: interpolating
 opt :  13.2045  next Energy=  -125.657473 (dE=-0.587E-01)
 bond charge predicted
       N       E                     dE             d eps       ncg     rms          rms(c)
DAV:   1    -0.124023719430E+03   -0.84832E-01   -0.26587E+02  3648   0.607E+01    0.307E+00
DAV:   2    -0.123949304245E+03    0.74415E-01   -0.33916E+00  5856   0.731E+00    0.186E+00
DAV:   3    -0.123893134861E+03    0.56169E-01   -0.36302E-01  6048   0.202E+00    0.516E-01
DAV:   4    -0.123893486503E+03   -0.35164E-03   -0.34971E-02  5952   0.667E-01    0.200E-01
DAV:   5    -0.123892847065E+03    0.63944E-03   -0.22215E-03  6240   0.131E-01    0.433E-02
DAV:   6    -0.123892779672E+03    0.67393E-04   -0.34378E-04  5856   0.523E-02    0.187E-02
DAV:   7    -0.123892863644E+03   -0.83972E-04   -0.71700E-05  4512   0.252E-02    0.872E-03
DAV:   8    -0.123892922409E+03   -0.58765E-04   -0.11051E-05  4800   0.828E-03    0.615E-03
DAV:   9    -0.123892987052E+03   -0.64643E-04   -0.15385E-05  5040   0.851E-03    0.357E-03
DAV:  10    -0.123893014878E+03   -0.27826E-04   -0.45855E-06  5616   0.454E-03    0.218E-03
DAV:  11    -0.123893036447E+03   -0.21569E-04   -0.44428E-06  5088   0.422E-03    0.109E-03
DAV:  12    -0.123893042105E+03   -0.56584E-05   -0.66100E-07  6336   0.218E-03    0.505E-04
DAV:  13    -0.123893043984E+03   -0.18794E-05   -0.17198E-07  5952   0.166E-03    0.291E-04
DAV:  14    -0.123893045188E+03   -0.12031E-05   -0.92341E-08  5760   0.112E-03    0.125E-04
DAV:  15    -0.123893045763E+03   -0.57513E-06   -0.31749E-08  5472   0.577E-04
  68 F= -.12565284E+03 E0= -.12564963E+03  d E =-.540985E-01  mag=    -0.0000
 curvature: ****** expect dE=-0.575E+02 dE for cont linesearch -0.741E-02
 ZBRENT: interpolating
 opt :  11.4386  next Energy=  -125.654051 (dE=-0.553E-01)
 bond charge predicted
       N       E                     dE             d eps       ncg     rms          rms(c)
DAV:   1    -0.123964221008E+03   -0.71176E-01   -0.75956E+01  3648   0.325E+01    0.166E+00
DAV:   2    -0.123935867822E+03    0.28353E-01   -0.90064E-01  5088   0.377E+00    0.984E-01
DAV:   3    -0.123920652694E+03    0.15215E-01   -0.11447E-01  6240   0.114E+00    0.252E-01
DAV:   4    -0.123920858756E+03   -0.20606E-03   -0.10300E-02  5280   0.365E-01    0.102E-01
DAV:   5    -0.123920776963E+03    0.81793E-04   -0.63508E-04  4752   0.755E-02    0.191E-02
DAV:   6    -0.123920762413E+03    0.14550E-04   -0.93641E-05  5088   0.281E-02    0.860E-03
DAV:   7    -0.123920777289E+03   -0.14876E-04   -0.11354E-05  4032   0.122E-02    0.398E-03
DAV:   8    -0.123920790584E+03   -0.13295E-04   -0.25730E-06  3648   0.472E-03    0.333E-03
DAV:   9    -0.123920807154E+03   -0.16570E-04   -0.17301E-06  3696   0.370E-03    0.201E-03
DAV:  10    -0.123920828320E+03   -0.21166E-04   -0.20141E-06  4992   0.322E-03    0.105E-03
DAV:  11    -0.123920844931E+03   -0.16611E-04   -0.81767E-07  4944   0.225E-03    0.611E-04
DAV:  12    -0.123920850750E+03   -0.58185E-05   -0.17589E-07  5472   0.164E-03    0.304E-04
DAV:  13    -0.123920852699E+03   -0.19486E-05   -0.56580E-08  5808   0.104E-03    0.152E-04
DAV:  14    -0.123920853963E+03   -0.12646E-05   -0.35580E-08  5616   0.623E-04    0.820E-05
DAV:  15    -0.123920854132E+03   -0.16873E-06   -0.41977E-09  5712   0.241E-04
  69 F= -.12565484E+03 E0= -.12565181E+03  d E =-.560942E-01  mag=     0.0000
 curvature: -52.10 expect dE=-0.118E+02 dE for cont linesearch -0.129E-03
 trial: gam=28.86390 g(F)=  0.226E+00 g(S)=  0.000E+00 ort = 0.798E-03 (trialstep = 0.275E-02)
 search vector abs. value=  0.215E+03
 bond charge predicted
       N       E                     dE             d eps       ncg     rms          rms(c)
DAV:   1    -0.123920500631E+03    0.35333E-03   -0.15449E-01  3648   0.147E+00    0.741E-02
[...]
DAV:   1    -0.123912491360E+03    0.23918E-03   -0.69527E-03  3648   0.317E-01    0.189E-02
DAV:   2    -0.123912483932E+03    0.74273E-05   -0.94428E-05  4032   0.376E-02    0.102E-02
DAV:   3    -0.123912482738E+03    0.11943E-05   -0.13765E-05  4320   0.127E-02    0.296E-03
DAV:   4    -0.123912482959E+03   -0.22070E-06   -0.18626E-06  4512   0.522E-03
 102 F= -.12577012E+03 E0= -.12576788E+03  d E =-.719761E-04  mag=    -0.0000
 curvature:  -1.09 expect dE=-0.219E-03 dE for cont linesearch -0.238E-08
 trial: gam= 1.41087 g(F)=  0.201E-03 g(S)=  0.000E+00 ort =-0.878E-06 (trialstep = 0.222E+00)
 search vector abs. value=  0.902E-03
 bond charge predicted
       N       E                     dE             d eps       ncg     rms          rms(c)
DAV:   1    -0.123912305729E+03    0.17701E-03   -0.37929E-03  3648   0.231E-01    0.123E-02
DAV:   2    -0.123912303660E+03    0.20688E-05   -0.45810E-05  4128   0.267E-02    0.732E-03
DAV:   3    -0.123912303220E+03    0.44055E-06   -0.63697E-06  3984   0.880E-03
 103 F= -.12577016E+03 E0= -.12576792E+03  d E =-.433420E-04  mag=     0.0000
 ZBRENT: can't locate minimum, use default step
 trial-energy change:   -0.000043  1 .order   -0.000043   -0.000044   -0.000041
 step:   0.8873(harm=  2.7851)  dis= 0.00178  next Energy=  -125.770396 (dE=-0.278E-03)
 bond charge predicted
       N       E                     dE             d eps       ncg     rms          rms(c)
DAV:   1    -0.123911777721E+03    0.52594E-03   -0.34216E-02  3648   0.694E-01    0.372E-02
DAV:   2    -0.123911758162E+03    0.19559E-04   -0.40726E-04  4080   0.789E-02    0.219E-02
DAV:   3    -0.123911752969E+03    0.51924E-05   -0.58515E-05  5040   0.258E-02    0.571E-03
DAV:   4    -0.123911753438E+03   -0.46880E-06   -0.75601E-06  4176   0.103E-02
 104 F= -.12577028E+03 E0= -.12576804E+03  d E =-.163286E-03  mag=     0.0000
 curvature:  -2.84 expect dE=-0.495E-03 dE for cont linesearch -0.817E-04
 ZBRENT: increasing intervall
 opt :   2.2184  next Energy=  -125.770466 (dE=-0.347E-03)
 bond charge predicted
       N       E                     dE             d eps       ncg     rms          rms(c)
DAV:   1    -0.123910681142E+03    0.10718E-02   -0.13640E-01  3648   0.139E+00    0.735E-02
DAV:   2    -0.123910606475E+03    0.74667E-04   -0.16417E-03  4320   0.158E-01    0.432E-02
DAV:   3    -0.123910584215E+03    0.22260E-04   -0.22810E-04  5808   0.504E-02    0.112E-02
DAV:   4    -0.123910585070E+03   -0.85499E-06   -0.25760E-05  4896   0.186E-02    0.479E-03
DAV:   5    -0.123910585355E+03   -0.28510E-06   -0.18135E-06  4752   0.658E-03
 105 F= -.12577046E+03 E0= -.12576820E+03  d E =-.336897E-03  mag=     0.0000
 curvature:  -6.40 expect dE=-0.155E-02 dE for cont linesearch -0.720E-04
 ZBRENT: increasing intervall
 opt :   4.8804  next Energy=  -125.770563 (dE=-0.445E-03)
 bond charge predicted
       N       E                     dE             d eps       ncg     rms          rms(c)
DAV:   1    -0.123908399320E+03    0.21858E-02   -0.54555E-01  3648   0.277E+00    0.146E-01
DAV:   2    -0.123908110206E+03    0.28911E-03   -0.65208E-03  4992   0.312E-01    0.854E-02
DAV:   3    -0.123908005247E+03    0.10496E-03   -0.87821E-04  5904   0.975E-02    0.220E-02
DAV:   4    -0.123908006733E+03   -0.14861E-05   -0.97069E-05  6096   0.340E-02    0.879E-03
DAV:   5    -0.123908007120E+03   -0.38746E-06   -0.35186E-06  5472   0.680E-03
 106 F= -.12577057E+03 E0= -.12576829E+03  d E =-.450974E-03  mag=     0.0000
 curvature:  -9.57 expect dE=-0.742E-02 dE for cont linesearch -0.373E-05
 trial: gam= 3.64632 g(F)=  0.775E-03 g(S)=  0.000E+00 ort =-0.188E-04 (trialstep = 0.824E-01)
 search vector abs. value=  0.126E-01
 bond charge predicted
       N       E                     dE             d eps       ncg     rms          rms(c)
DAV:   1    -0.123907747085E+03    0.25965E-03   -0.75972E-03  3648   0.328E-01    0.169E-02
DAV:   2    -0.123907743829E+03    0.32560E-05   -0.97131E-05  5376   0.386E-02    0.997E-03
DAV:   3    -0.123907743052E+03    0.77667E-06   -0.11310E-05  4272   0.117E-02    0.290E-03
DAV:   4    -0.123907743600E+03   -0.54836E-06   -0.19330E-06  5088   0.546E-03
 107 F= -.12577063E+03 E0= -.12576833E+03  d E =-.560863E-04  mag=     0.0000
 ZBRENT: can't locate minimum, use default step
 trial-energy change:   -0.000056  1 .order   -0.000054   -0.000058   -0.000050
 step:   0.3295(harm=  0.6039)  dis= 0.00245  next Energy=  -125.770783 (dE=-0.213E-03)
 bond charge predicted
       N       E                     dE             d eps       ncg     rms          rms(c)
DAV:   1    -0.123906940199E+03    0.80285E-03   -0.67756E-02  3648   0.981E-01    0.517E-02
DAV:   2    -0.123906902865E+03    0.37334E-04   -0.84301E-04  5088   0.113E-01    0.303E-02
DAV:   3    -0.123906891676E+03    0.11189E-04   -0.10430E-04  4656   0.350E-02    0.872E-03
DAV:   4    -0.123906892554E+03   -0.87761E-06   -0.15080E-05  5328   0.140E-02    0.378E-03
DAV:   5    -0.123906892744E+03   -0.19040E-06   -0.74067E-07  4608   0.417E-03
 108 F= -.12577073E+03 E0= -.12576842E+03  d E =-.164758E-03  mag=     0.0000
 curvature:  -3.90 expect dE=-0.104E-02 dE for cont linesearch -0.201E-04
 ZBRENT: increasing intervall
 opt :   0.8238  next Energy=  -125.770685 (dE=-0.115E-03)
 bond charge predicted
       N       E                     dE             d eps       ncg     rms          rms(c)
DAV:   1    -0.123905116290E+03    0.17763E-02   -0.27101E-01  3648   0.196E+00    0.103E-01
DAV:   2    -0.123904971183E+03    0.14511E-03   -0.33646E-03  4992   0.226E-01    0.603E-02
DAV:   3    -0.123904922566E+03    0.48617E-04   -0.42305E-04  5664   0.697E-02    0.170E-02
DAV:   4    -0.123904923576E+03   -0.10105E-05   -0.53448E-05  6336   0.256E-02    0.718E-03
DAV:   5    -0.123904923965E+03   -0.38823E-06   -0.17246E-06  4992   0.533E-03
 109 F= -.12577069E+03 E0= -.12576831E+03  d E =-.118049E-03  mag=     0.0000
 curvature:   9.55 expect dE= 0.989E-02 dE for cont linesearch  0.155E-03
 ZBRENT: bracketing found
 ZBRENT: interpolating
 opt :   0.5077  next Energy=  -125.770757 (dE=-0.188E-03)
 bond charge predicted
       N       E                     dE             d eps       ncg     rms          rms(c)
DAV:   1    -0.123906301158E+03   -0.13776E-02   -0.11053E-01  3648   0.125E+00    0.658E-02
DAV:   2    -0.123906241707E+03    0.59451E-04   -0.13985E-03  5232   0.145E-01    0.387E-02
DAV:   3    -0.123906223088E+03    0.18619E-04   -0.17161E-04  5280   0.440E-02    0.110E-02
DAV:   4    -0.123906224547E+03   -0.14589E-05   -0.20967E-05  4416   0.168E-02    0.490E-03
DAV:   5    -0.123906225153E+03   -0.60541E-06   -0.91215E-07  4656   0.447E-03
 110 F= -.12577076E+03 E0= -.12576842E+03  d E =-.189732E-03  mag=     0.0000
 curvature:  -1.40 expect dE=-0.467E-03 dE for cont linesearch -0.633E-08
 trial: gam= 0.34548 g(F)=  0.333E-03 g(S)=  0.000E+00 ort = 0.755E-05 (trialstep = 0.167E+00)
 search vector abs. value=  0.185E-02
 bond charge predicted
       N       E                     dE             d eps       ncg     rms          rms(c)
DAV:   1    -0.123906027570E+03    0.19698E-03   -0.49787E-03  3648   0.266E-01    0.137E-02
DAV:   2    -0.123906024815E+03    0.27541E-05   -0.58599E-05  4128   0.305E-02    0.821E-03
DAV:   3    -0.123906024256E+03    0.55948E-06   -0.83852E-06  4704   0.997E-03
 111 F= -.12577081E+03 E0= -.12576846E+03  d E =-.507757E-04  mag=     0.0000
 ZBRENT: can't locate minimum, use default step
 trial-energy change:   -0.000051  1 .order   -0.000050   -0.000056   -0.000044
 step:   0.6698(harm=  0.7585)  dis= 0.00167  next Energy=  -125.770886 (dE=-0.127E-03)
 bond charge predicted
       N       E                     dE             d eps       ncg     rms          rms(c)
DAV:   1    -0.123905386542E+03    0.63827E-03   -0.45123E-02  3648   0.800E-01    0.419E-02
DAV:   2    -0.123905363461E+03    0.23081E-04   -0.50452E-04  3792   0.892E-02    0.248E-02
DAV:   3    -0.123905357192E+03    0.62685E-05   -0.74851E-05  4800   0.298E-02    0.635E-03
DAV:   4    -0.123905357909E+03   -0.71651E-06   -0.10028E-05  4656   0.112E-02    0.286E-03
DAV:   5    -0.123905358047E+03   -0.13803E-06   -0.47873E-07  4272   0.329E-03
 112 F= -.12577090E+03 E0= -.12576852E+03  d E =-.140197E-03  mag=     0.0000
 curvature:  -2.04 expect dE=-0.217E-03 dE for cont linesearch -0.767E-05
 ZBRENT: extrapolating
 opt :   0.9049  next Energy=  -125.770909 (dE=-0.150E-03)
 bond charge predicted
       N       E                     dE             d eps       ncg     rms          rms(c)
DAV:   1    -0.123905019557E+03    0.33835E-03   -0.98657E-03  3648   0.374E-01    0.192E-02
DAV:   2    -0.123905014545E+03    0.50118E-05   -0.11166E-04  3648   0.423E-02    0.114E-02
DAV:   3    -0.123905013406E+03    0.11396E-05   -0.16312E-05  4656   0.142E-02    0.296E-03
DAV:   4    -0.123905013571E+03   -0.16499E-06   -0.22596E-06  4512   0.563E-03
 113 F= -.12577091E+03 E0= -.12576852E+03  d E =-.149694E-03  mag=    -0.0000
 curvature:  -2.60 expect dE=-0.429E-03 dE for cont linesearch -0.566E-08
 trial: gam= 0.54062 g(F)=  0.165E-03 g(S)=  0.000E+00 ort =-0.200E-05 (trialstep = 0.315E+00)
 search vector abs. value=  0.702E-03
 bond charge predicted
       N       E                     dE             d eps       ncg     rms          rms(c)
DAV:   1    -0.123904765285E+03    0.24812E-03   -0.69813E-03  3648   0.315E-01    0.161E-02
DAV:   2    -0.123904762358E+03    0.29271E-05   -0.80092E-05  3744   0.362E-02    0.963E-03
DAV:   3    -0.123904761777E+03    0.58071E-06   -0.10896E-05  3744   0.120E-02    0.265E-03
DAV:   4    -0.123904761971E+03   -0.19378E-06   -0.19386E-06  4032   0.554E-03
 114 F= -.12577095E+03 E0= -.12576857E+03  d E =-.430544E-04  mag=     0.0000
 trial-energy change:   -0.000043  1 .order   -0.000043   -0.000051   -0.000034
 step:   0.9398(harm=  0.9398)  dis= 0.00174  next Energy=  -125.770986 (dE=-0.768E-04)
 bond charge predicted
       N       E                     dE             d eps       ncg     rms          rms(c)
DAV:   1    -0.123904225905E+03    0.53587E-03   -0.27476E-02  3648   0.625E-01    0.320E-02
DAV:   2    -0.123904214201E+03    0.11704E-04   -0.31181E-04  4176   0.707E-02    0.190E-02
DAV:   3    -0.123904210761E+03    0.34398E-05   -0.41854E-05  4368   0.230E-02    0.512E-03
DAV:   4    -0.123904211240E+03   -0.47924E-06   -0.64860E-06  4272   0.926E-03
 115 F= -.12577099E+03 E0= -.12576863E+03  d E =-.772828E-04  mag=     0.0000
 curvature:  -2.02 expect dE=-0.305E-03 dE for cont linesearch -0.130E-08
 trial: gam= 0.89995 g(F)=  0.151E-03 g(S)=  0.000E+00 ort = 0.674E-06 (trialstep = 0.428E+00)
 search vector abs. value=  0.721E-03
 bond charge predicted
       N       E                     dE             d eps       ncg     rms          rms(c)
DAV:   1    -0.123903853660E+03    0.35710E-03   -0.12463E-02  3648   0.421E-01    0.209E-02
DAV:   2    -0.123903850673E+03    0.29871E-05   -0.14980E-04  3984   0.494E-02    0.129E-02
DAV:   3    -0.123903849230E+03    0.14436E-05   -0.18514E-05  4224   0.158E-02    0.361E-03
DAV:   4    -0.123903849395E+03   -0.16503E-06   -0.32806E-06  3984   0.711E-03
 116 F= -.12577104E+03 E0= -.12576869E+03  d E =-.551890E-04  mag=    -0.0000
 trial-energy change:   -0.000055  1 .order   -0.000055   -0.000065   -0.000045
 step:   1.4037(harm=  1.4037)  dis= 0.00359  next Energy=  -125.771093 (dE=-0.107E-03)
 bond charge predicted
       N       E                     dE             d eps       ncg     rms          rms(c)
DAV:   1    -0.123902975857E+03    0.87337E-03   -0.64626E-02  3648   0.959E-01    0.476E-02
DAV:   2    -0.123902958503E+03    0.17354E-04   -0.76689E-04  4416   0.111E-01    0.290E-02
DAV:   3    -0.123902949396E+03    0.91076E-05   -0.93414E-05  4608   0.346E-02    0.802E-03
DAV:   4    -0.123902949976E+03   -0.58026E-06   -0.15592E-05  5472   0.142E-02    0.378E-03
DAV:   5    -0.123902950012E+03   -0.36371E-07   -0.85365E-07  4800   0.457E-03
 117 F= -.12577109E+03 E0= -.12576877E+03  d E =-.106304E-03  mag=     0.0000
 curvature:  -3.33 expect dE=-0.144E-02 dE for cont linesearch -0.418E-08
 trial: gam= 2.87826 g(F)=  0.433E-03 g(S)=  0.000E+00 ort =-0.951E-06 (trialstep = 0.702E-01)
 search vector abs. value=  0.640E-02
 bond charge predicted
       N       E                     dE             d eps       ncg     rms          rms(c)
DAV:   1    -0.123902774447E+03    0.17553E-03   -0.29071E-03  3648   0.202E-01    0.979E-03
DAV:   2    -0.123902774071E+03    0.37627E-06   -0.34219E-05  4752   0.237E-02    0.598E-03
DAV:   3    -0.123902773682E+03    0.38891E-06   -0.38282E-06  4224   0.748E-03
 118 F= -.12577112E+03 E0= -.12576880E+03  d E =-.298310E-04  mag=    -0.0000
 ZBRENT: can't locate minimum, use default step
 trial-energy change:   -0.000030  1 .order   -0.000029   -0.000030   -0.000028
 step:   0.2809(harm=  1.1788)  dis= 0.00242  next Energy=  -125.771346 (dE=-0.253E-03)
 bond charge predicted
       N       E                     dE             d eps       ncg     rms          rms(c)
DAV:   1    -0.123902246745E+03    0.52733E-03   -0.26130E-02  3648   0.606E-01    0.301E-02
DAV:   2    -0.123902239946E+03    0.67994E-05   -0.29542E-04  4752   0.689E-02    0.183E-02
DAV:   3    -0.123902236958E+03    0.29874E-05   -0.34601E-05  4656   0.210E-02    0.475E-03
DAV:   4    -0.123902237259E+03   -0.30118E-06   -0.57479E-06  4608   0.950E-03
 119 F= -.12577120E+03 E0= -.12576889E+03  d E =-.112273E-03  mag=    -0.0000
 curvature:  -3.02 expect dE=-0.964E-03 dE for cont linesearch -0.634E-04
 ZBRENT: increasing intervall
 opt :   0.7022  next Energy=  -125.771343 (dE=-0.251E-03)
 bond charge predicted
       N       E                     dE             d eps       ncg     rms          rms(c)
DAV:   1    -0.123901168714E+03    0.10682E-02   -0.10428E-01  3648   0.121E+00    0.599E-02
DAV:   2    -0.123901143514E+03    0.25200E-04   -0.11890E-03  4704   0.137E-01    0.363E-02
DAV:   3    -0.123901129007E+03    0.14506E-04   -0.13753E-04  4992   0.411E-02    0.924E-03
DAV:   4    -0.123901129808E+03   -0.80107E-06   -0.20714E-05  5520   0.160E-02    0.371E-03
DAV:   5    -0.123901129872E+03   -0.63109E-07   -0.13036E-06  4944   0.531E-03
 120 F= -.12577134E+03 E0= -.12576903E+03  d E =-.244248E-03  mag=     0.0000
 curvature:  -6.60 expect dE=-0.139E-02 dE for cont linesearch -0.710E-04
 ZBRENT: increasing intervall
 opt :   1.5448  next Energy=  -125.771470 (dE=-0.378E-03)
 bond charge predicted
       N       E                     dE             d eps       ncg     rms          rms(c)
DAV:   1    -0.123898939609E+03    0.21902E-02   -0.41701E-01  3648   0.242E+00    0.119E-01
DAV:   2    -0.123898848260E+03    0.91349E-04   -0.47344E-03  5184   0.272E-01    0.716E-02
DAV:   3    -0.123898779380E+03    0.68880E-04   -0.55044E-04  5568   0.811E-02    0.181E-02
DAV:   4    -0.123898779174E+03    0.20670E-06   -0.72346E-05  6432   0.290E-02    0.720E-03
DAV:   5    -0.123898779319E+03   -0.14567E-06   -0.28999E-06  5616   0.579E-03
 121 F= -.12577147E+03 E0= -.12576918E+03  d E =-.379017E-03  mag=     0.0000
 curvature: -12.38 expect dE=-0.263E-02 dE for cont linesearch -0.548E-05
 ZBRENT: extrapolating
 opt :   1.7591  next Energy=  -125.771477 (dE=-0.385E-03)
 bond charge predicted
       N       E                     dE             d eps       ncg     rms          rms(c)
DAV:   1    -0.123898163305E+03    0.61587E-03   -0.27070E-02  3648   0.616E-01    0.300E-02
DAV:   2    -0.123898157851E+03    0.54540E-05   -0.31159E-04  5232   0.702E-02    0.181E-02
DAV:   3    -0.123898154739E+03    0.31118E-05   -0.34946E-05  4320   0.209E-02    0.470E-03
DAV:   4    -0.123898155396E+03   -0.65636E-06   -0.57143E-06  4992   0.867E-03
 122 F= -.12577148E+03 E0= -.12576919E+03  d E =-.388400E-03  mag=     0.0000
 curvature: -12.88 expect dE=-0.336E-02 dE for cont linesearch -0.394E-06
 trial: gam= 0.54481 g(F)=  0.261E-03 g(S)=  0.000E+00 ort = 0.140E-04 (trialstep = 0.408E+00)
 search vector abs. value=  0.218E-02
 bond charge predicted
       N       E                     dE             d eps       ncg     rms          rms(c)
DAV:   1    -0.123897561906E+03    0.59283E-03   -0.33958E-02  3648   0.697E-01    0.343E-02
DAV:   2    -0.123897554858E+03    0.70481E-05   -0.38737E-04  5328   0.791E-02    0.208E-02
DAV:   3    -0.123897550393E+03    0.44649E-05   -0.45131E-05  4320   0.242E-02    0.577E-03
DAV:   4    -0.123897551035E+03   -0.64208E-06   -0.80728E-06  4992   0.112E-02
 123 F= -.12577155E+03 E0= -.12576927E+03  d E =-.741786E-04  mag=    -0.0000
 trial-energy change:   -0.000074  1 .order   -0.000074   -0.000110   -0.000038
 step:   0.6262(harm=  0.6262)  dis= 0.00302  next Energy=  -125.771565 (dE=-0.840E-04)
 bond charge predicted
       N       E                     dE             d eps       ncg     rms          rms(c)
DAV:   1    -0.123897200746E+03    0.34965E-03   -0.97160E-03  3648   0.373E-01    0.188E-02
DAV:   2    -0.123897198738E+03    0.20072E-05   -0.11289E-04  5184   0.430E-02    0.115E-02
DAV:   3    -0.123897198070E+03    0.66847E-06   -0.13205E-05  4176   0.135E-02    0.326E-03
DAV:   4    -0.123897198361E+03   -0.29096E-06   -0.27982E-06  4848   0.722E-03
 124 F= -.12577157E+03 E0= -.12576928E+03  d E =-.845435E-04  mag=     0.0000
 curvature:  -2.54 expect dE=-0.222E-03 dE for cont linesearch -0.196E-08
 trial: gam= 0.36694 g(F)=  0.875E-04 g(S)=  0.000E+00 ort =-0.130E-05 (trialstep = 0.452E+00)
 search vector abs. value=  0.380E-03
 bond charge predicted
       N       E                     dE             d eps       ncg     rms          rms(c)
DAV:   1    -0.123896930692E+03    0.26738E-03   -0.78807E-03  3648   0.338E-01    0.170E-02
DAV:   2    -0.123896929279E+03    0.14123E-05   -0.94983E-05  5232   0.397E-02    0.105E-02
DAV:   3    -0.123896928715E+03    0.56401E-06   -0.11413E-05  4080   0.125E-02    0.342E-03
DAV:   4    -0.123896928998E+03   -0.28221E-06   -0.24846E-06  4944   0.632E-03
 125 F= -.12577158E+03 E0= -.12576930E+03  d E =-.189820E-04  mag=    -0.0000
 trial-energy change:   -0.000019  1 .order   -0.000019   -0.000039    0.000002
 step:   0.4296(harm=  0.4296)  dis= 0.00070  next Energy=  -125.771584 (dE=-0.187E-04)
 bond charge predicted
       N       E                     dE             d eps       ncg     rms          rms(c)
DAV:   1    -0.123896943261E+03   -0.14545E-04   -0.19080E-05  4512   0.171E-02    0.823E-04
DAV:   2    -0.123896943396E+03   -0.13549E-06   -0.35774E-07  6000   0.286E-03
 126 F= -.12577158E+03 E0= -.12576930E+03  d E =-.193179E-04  mag=    -0.0000
 curvature:  -0.94 expect dE=-0.167E-04 dE for cont linesearch -0.389E-08
 trial: gam= 0.19854 g(F)=  0.178E-04 g(S)=  0.000E+00 ort =-0.126E-05 (trialstep = 0.447E+00)
 search vector abs. value=  0.323E-04
 bond charge predicted
       N       E                     dE             d eps       ncg     rms          rms(c)
DAV:   1    -0.123896883343E+03    0.59918E-04   -0.63965E-04  3792   0.955E-02    0.505E-03
DAV:   2    -0.123896883002E+03    0.34011E-06   -0.60615E-06  5136   0.996E-03
 127 F= -.12577159E+03 E0= -.12576932E+03  d E =-.663836E-05  mag=    -0.0000
 trial-energy change:   -0.000007  1 .order   -0.000007   -0.000008   -0.000005
 step:   1.3751(harm=  1.3751)  dis= 0.00037  next Energy=  -125.771597 (dE=-0.121E-04)
 bond charge predicted
       N       E                     dE             d eps       ncg     rms          rms(c)
DAV:   1    -0.123896748918E+03    0.13442E-03   -0.26854E-03  3648   0.197E-01    0.110E-02
DAV:   2    -0.123896747236E+03    0.16825E-05   -0.24744E-05  5232   0.200E-02    0.628E-03
DAV:   3    -0.123896747038E+03    0.19753E-06   -0.40557E-06  4560   0.711E-03
 128 F= -.12577159E+03 E0= -.12576934E+03  d E =-.979985E-05  mag=     0.0000
 curvature:  -1.26 expect dE=-0.295E-04 dE for cont linesearch -0.112E-05
 ZBRENT: interpolating
 opt :   1.0863  next Energy=  -125.771595 (dE=-0.106E-04)
