Automatically generated mesh
     313
Reciprocal lattice
    0.00000000000000    0.00000000000000    0.00000000000000             1
    0.04000000000000    0.00000000000000    0.00000000000000             2
    0.00000000000000    0.04000000000000    0.00000000000000             2
   -0.04000000000000    0.04000000000000    0.00000000000000             2
    0.08000000000000    0.00000000000000    0.00000000000000             2
    0.00000000000000    0.08000000000000    0.00000000000000             2
   -0.08000000000000    0.08000000000000    0.00000000000000             2
    0.12000000000000    0.00000000000000    0.00000000000000             2
    0.00000000000000    0.12000000000000    0.00000000000000             2
   -0.12000000000000    0.12000000000000    0.00000000000000             2
    0.16000000000000    0.00000000000000    0.00000000000000             2
    0.00000000000000    0.16000000000000    0.00000000000000             2
   -0.16000000000000    0.16000000000000    0.00000000000000             2
    0.20000000000000    0.00000000000000    0.00000000000000             2
    0.00000000000000    0.20000000000000    0.00000000000000             2
   -0.20000000000000    0.20000000000000    0.00000000000000             2
    0.24000000000000    0.00000000000000    0.00000000000000             2
    0.00000000000000    0.24000000000000    0.00000000000000             2
   -0.24000000000000    0.24000000000000    0.00000000000000             2
    0.28000000000000    0.00000000000000    0.00000000000000             2
    0.00000000000000    0.28000000000000    0.00000000000000             2
   -0.28000000000000    0.28000000000000    0.00000000000000             2
    0.32000000000000    0.00000000000000    0.00000000000000             2
   -0.00000000000000    0.32000000000000    0.00000000000000             2
   -0.32000000000000    0.32000000000000    0.00000000000000             2
    0.36000000000000    0.00000000000000    0.00000000000000             2
    0.00000000000000    0.36000000000000    0.00000000000000             2
   -0.36000000000000    0.36000000000000    0.00000000000000             2
    0.40000000000000    0.00000000000000    0.00000000000000             2
    0.00000000000000    0.40000000000000    0.00000000000000             2
   -0.40000000000000    0.40000000000000    0.00000000000000             2
    0.44000000000000    0.00000000000000    0.00000000000000             2
    0.00000000000000    0.44000000000000    0.00000000000000             2
   -0.44000000000000    0.44000000000000    0.00000000000000             2
    0.48000000000000    0.00000000000000    0.00000000000000             2
    0.00000000000000    0.48000000000000    0.00000000000000             2
   -0.48000000000000    0.48000000000000    0.00000000000000             2
    0.04000000000000    0.04000000000000    0.00000000000000             2
   -0.04000000000000    0.08000000000000    0.00000000000000             2
   -0.08000000000000    0.04000000000000    0.00000000000000             2
    0.08000000000000    0.04000000000000    0.00000000000000             2
   -0.04000000000000    0.12000000000000    0.00000000000000             2
   -0.12000000000000    0.08000000000000    0.00000000000000             2
   -0.08000000000000    0.12000000000000    0.00000000000000             2
    0.04000000000000    0.08000000000000    0.00000000000000             2
    0.12000000000000   -0.04000000000000    0.00000000000000             2
    0.12000000000000    0.04000000000000    0.00000000000000             2
   -0.04000000000000    0.16000000000000    0.00000000000000             2
   -0.16000000000000    0.12000000000000    0.00000000000000             2
   -0.12000000000000    0.16000000000000    0.00000000000000             2
    0.04000000000000    0.12000000000000    0.00000000000000             2
    0.16000000000000   -0.04000000000000    0.00000000000000             2
    0.16000000000000    0.04000000000000    0.00000000000000             2
   -0.04000000000000    0.20000000000000    0.00000000000000             2
   -0.20000000000000    0.16000000000000    0.00000000000000             2
   -0.16000000000000    0.20000000000000    0.00000000000000             2
    0.04000000000000    0.16000000000000    0.00000000000000             2
    0.20000000000000   -0.04000000000000    0.00000000000000             2
    0.20000000000000    0.04000000000000    0.00000000000000             2
   -0.04000000000000    0.24000000000000    0.00000000000000             2
   -0.24000000000000    0.20000000000000    0.00000000000000             2
   -0.20000000000000    0.24000000000000    0.00000000000000             2
    0.04000000000000    0.20000000000000    0.00000000000000             2
    0.24000000000000   -0.04000000000000    0.00000000000000             2
    0.24000000000000    0.04000000000000    0.00000000000000             2
   -0.04000000000000    0.28000000000000    0.00000000000000             2
   -0.28000000000000    0.24000000000000    0.00000000000000             2
   -0.24000000000000    0.28000000000000    0.00000000000000             2
    0.04000000000000    0.24000000000000    0.00000000000000             2
    0.28000000000000   -0.04000000000000    0.00000000000000             2
    0.28000000000000    0.04000000000000    0.00000000000000             2
   -0.04000000000000    0.32000000000000    0.00000000000000             2
   -0.32000000000000    0.28000000000000    0.00000000000000             2
   -0.28000000000000    0.32000000000000    0.00000000000000             2
    0.04000000000000    0.28000000000000    0.00000000000000             2
    0.32000000000000   -0.04000000000000    0.00000000000000             2
    0.32000000000000    0.04000000000000    0.00000000000000             2
   -0.04000000000000    0.36000000000000    0.00000000000000             2
   -0.36000000000000    0.32000000000000    0.00000000000000             2
   -0.32000000000000    0.36000000000000    0.00000000000000             2
    0.04000000000000    0.32000000000000    0.00000000000000             2
    0.36000000000000   -0.04000000000000    0.00000000000000             2
    0.36000000000000    0.04000000000000    0.00000000000000             2
   -0.04000000000000    0.40000000000000    0.00000000000000             2
   -0.40000000000000    0.36000000000000    0.00000000000000             2
   -0.36000000000000    0.40000000000000    0.00000000000000             2
    0.04000000000000    0.36000000000000    0.00000000000000             2
    0.40000000000000   -0.04000000000000    0.00000000000000             2
    0.40000000000000    0.04000000000000    0.00000000000000             2
   -0.04000000000000    0.44000000000000    0.00000000000000             2
   -0.44000000000000    0.40000000000000    0.00000000000000             2
   -0.40000000000000    0.44000000000000    0.00000000000000             2
    0.04000000000000    0.40000000000000    0.00000000000000             2
    0.44000000000000   -0.04000000000000    0.00000000000000             2
    0.44000000000000    0.04000000000000    0.00000000000000             2
   -0.04000000000000    0.48000000000000    0.00000000000000             2
   -0.48000000000000    0.44000000000000    0.00000000000000             2
   -0.44000000000000    0.48000000000000    0.00000000000000             2
    0.04000000000000    0.44000000000000    0.00000000000000             2
    0.48000000000000   -0.04000000000000    0.00000000000000             2
    0.48000000000000    0.04000000000000    0.00000000000000             2
   -0.04000000000000   -0.48000000000000    0.00000000000000             2
    0.48000000000000    0.48000000000000    0.00000000000000             2
    0.08000000000000    0.08000000000000    0.00000000000000             2
   -0.08000000000000    0.16000000000000    0.00000000000000             2
   -0.16000000000000    0.08000000000000    0.00000000000000             2
    0.12000000000000    0.08000000000000    0.00000000000000             2
   -0.08000000000000    0.20000000000000    0.00000000000000             2
   -0.20000000000000    0.12000000000000    0.00000000000000             2
   -0.12000000000000    0.20000000000000    0.00000000000000             2
    0.08000000000000    0.12000000000000    0.00000000000000             2
    0.20000000000000   -0.08000000000000    0.00000000000000             2
    0.16000000000000    0.08000000000000    0.00000000000000             2
   -0.08000000000000    0.23999999999999    0.00000000000000             2
   -0.23999999999999    0.16000000000000    0.00000000000000             2
   -0.16000000000000    0.23999999999999    0.00000000000000             2
    0.08000000000000    0.16000000000000    0.00000000000000             2
    0.23999999999999   -0.08000000000000    0.00000000000000             2
    0.20000000000000    0.08000000000000    0.00000000000000             2
   -0.08000000000000    0.28000000000000    0.00000000000000             2
   -0.28000000000000    0.20000000000000    0.00000000000000             2
   -0.20000000000000    0.28000000000000    0.00000000000000             2
    0.08000000000000    0.20000000000000    0.00000000000000             2
    0.28000000000000   -0.08000000000000    0.00000000000000             2
    0.24000000000000    0.08000000000000    0.00000000000000             2
   -0.08000000000000    0.32000000000000    0.00000000000000             2
   -0.32000000000000    0.24000000000000    0.00000000000000             2
   -0.24000000000000    0.32000000000000    0.00000000000000             2
    0.08000000000000    0.24000000000000    0.00000000000000             2
    0.32000000000000   -0.08000000000000    0.00000000000000             2
    0.28000000000000    0.08000000000000    0.00000000000000             2
   -0.08000000000000    0.36000000000000    0.00000000000000             2
   -0.36000000000000    0.28000000000000    0.00000000000000             2
   -0.28000000000000    0.36000000000000    0.00000000000000             2
    0.08000000000000    0.28000000000000    0.00000000000000             2
    0.36000000000000   -0.08000000000000    0.00000000000000             2
    0.32000000000000    0.08000000000000    0.00000000000000             2
   -0.08000000000000    0.40000000000000    0.00000000000000             2
   -0.40000000000000    0.32000000000000    0.00000000000000             2
   -0.32000000000000    0.40000000000000    0.00000000000000             2
    0.08000000000000    0.32000000000000    0.00000000000000             2
    0.40000000000000   -0.08000000000000    0.00000000000000             2
    0.36000000000000    0.08000000000000    0.00000000000000             2
   -0.08000000000000    0.44000000000000    0.00000000000000             2
   -0.44000000000000    0.36000000000000    0.00000000000000             2
   -0.36000000000000    0.44000000000000    0.00000000000000             2
    0.08000000000000    0.36000000000000    0.00000000000000             2
    0.44000000000000   -0.08000000000000    0.00000000000000             2
    0.40000000000000    0.08000000000000    0.00000000000000             2
   -0.08000000000000    0.48000000000000    0.00000000000000             2
   -0.48000000000000    0.40000000000000    0.00000000000000             2
   -0.40000000000000    0.48000000000000    0.00000000000000             2
    0.08000000000000    0.40000000000000    0.00000000000000             2
    0.48000000000000   -0.08000000000000    0.00000000000000             2
    0.44000000000000    0.08000000000000    0.00000000000000             2
   -0.08000000000000   -0.48000000000000    0.00000000000000             2
    0.48000000000000    0.44000000000000    0.00000000000000             2
   -0.44000000000000   -0.48000000000000    0.00000000000000             2
    0.08000000000000    0.44000000000000    0.00000000000000             2
   -0.48000000000000   -0.08000000000000    0.00000000000000             2
    0.12000000000000    0.12000000000000    0.00000000000000             2
   -0.12000000000000    0.23999999999999    0.00000000000000             2
   -0.23999999999999    0.12000000000000    0.00000000000000             2
    0.16000000000000    0.12000000000000    0.00000000000000             2
   -0.12000000000000    0.27999999999999    0.00000000000000             2
   -0.27999999999999    0.16000000000000    0.00000000000000             2
   -0.16000000000000    0.27999999999999    0.00000000000000             2
    0.12000000000000    0.16000000000000    0.00000000000000             2
    0.27999999999999   -0.12000000000000    0.00000000000000             2
    0.20000000000000    0.12000000000000    0.00000000000000             2
   -0.12000000000000    0.32000000000000    0.00000000000000             2
   -0.32000000000000    0.20000000000000    0.00000000000000             2
   -0.20000000000000    0.32000000000000    0.00000000000000             2
    0.12000000000000    0.20000000000000    0.00000000000000             2
    0.32000000000000   -0.12000000000000    0.00000000000000             2
    0.24000000000000    0.12000000000000    0.00000000000000             2
   -0.12000000000000    0.36000000000000    0.00000000000000             2
   -0.36000000000000    0.24000000000000    0.00000000000000             2
   -0.24000000000000    0.36000000000000    0.00000000000000             2
    0.12000000000000    0.24000000000000    0.00000000000000             2
    0.36000000000000   -0.12000000000000    0.00000000000000             2
    0.28000000000000    0.12000000000000    0.00000000000000             2
   -0.12000000000000    0.40000000000000    0.00000000000000             2
   -0.40000000000000    0.28000000000000    0.00000000000000             2
   -0.28000000000000    0.40000000000000    0.00000000000000             2
    0.12000000000000    0.28000000000000    0.00000000000000             2
    0.40000000000000   -0.12000000000000    0.00000000000000             2
    0.32000000000000    0.12000000000000    0.00000000000000             2
   -0.12000000000000    0.44000000000000    0.00000000000000             2
   -0.44000000000000    0.32000000000000    0.00000000000000             2
   -0.32000000000000    0.44000000000000    0.00000000000000             2
    0.12000000000000    0.32000000000000    0.00000000000000             2
    0.44000000000000   -0.12000000000000    0.00000000000000             2
    0.36000000000000    0.12000000000000    0.00000000000000             2
   -0.12000000000000    0.48000000000000    0.00000000000000             2
   -0.48000000000000    0.36000000000000    0.00000000000000             2
   -0.36000000000000    0.48000000000000    0.00000000000000             2
    0.12000000000000    0.36000000000000    0.00000000000000             2
    0.48000000000000   -0.12000000000000    0.00000000000000             2
    0.40000000000000    0.12000000000000    0.00000000000000             2
   -0.12000000000000   -0.48000000000000    0.00000000000000             2
    0.48000000000000    0.40000000000000    0.00000000000000             2
   -0.40000000000000   -0.48000000000000    0.00000000000000             2
    0.12000000000000    0.40000000000000    0.00000000000000             2
   -0.48000000000000   -0.12000000000000    0.00000000000000             2
    0.44000000000000    0.12000000000000    0.00000000000000             2
   -0.12000000000000   -0.44000000000000    0.00000000000000             2
    0.44000000000000    0.44000000000000    0.00000000000000             2
    0.16000000000000    0.16000000000000    0.00000000000000             2
   -0.16000000000000    0.31999999999999    0.00000000000000             2
   -0.31999999999999    0.16000000000000    0.00000000000000             2
    0.20000000000000    0.16000000000000    0.00000000000000             2
   -0.16000000000000    0.36000000000000    0.00000000000000             2
   -0.36000000000000    0.20000000000000    0.00000000000000             2
   -0.20000000000000    0.36000000000000    0.00000000000000             2
    0.16000000000000    0.20000000000000    0.00000000000000             2
    0.36000000000000   -0.16000000000000    0.00000000000000             2
    0.24000000000000    0.16000000000000    0.00000000000000             2
   -0.16000000000000    0.40000000000000    0.00000000000000             2
   -0.40000000000000    0.24000000000000    0.00000000000000             2
   -0.24000000000000    0.40000000000000    0.00000000000000             2
    0.16000000000000    0.24000000000000    0.00000000000000             2
    0.40000000000000   -0.16000000000000    0.00000000000000             2
    0.28000000000000    0.16000000000000    0.00000000000000             2
   -0.16000000000000    0.44000000000000    0.00000000000000             2
   -0.44000000000000    0.28000000000000    0.00000000000000             2
   -0.28000000000000    0.44000000000000    0.00000000000000             2
    0.16000000000000    0.28000000000000    0.00000000000000             2
    0.44000000000000   -0.16000000000000    0.00000000000000             2
    0.32000000000000    0.16000000000000    0.00000000000000             2
   -0.16000000000000    0.48000000000000    0.00000000000000             2
   -0.48000000000000    0.32000000000000    0.00000000000000             2
   -0.32000000000000    0.48000000000000    0.00000000000000             2
    0.16000000000000    0.32000000000000    0.00000000000000             2
    0.48000000000000   -0.16000000000000    0.00000000000000             2
    0.36000000000000    0.16000000000000    0.00000000000000             2
   -0.16000000000000   -0.48000000000000    0.00000000000000             2
    0.48000000000000    0.36000000000000    0.00000000000000             2
   -0.36000000000000   -0.48000000000000    0.00000000000000             2
    0.16000000000000    0.36000000000000    0.00000000000000             2
   -0.48000000000000   -0.16000000000000    0.00000000000000             2
    0.40000000000000    0.16000000000000    0.00000000000000             2
   -0.16000000000000   -0.44000000000000    0.00000000000000             2
    0.44000000000000    0.40000000000000    0.00000000000000             2
   -0.40000000000000   -0.44000000000000    0.00000000000000             2
    0.16000000000000    0.40000000000000    0.00000000000000             2
   -0.44000000000000   -0.16000000000000    0.00000000000000             2
    0.20000000000000    0.20000000000000    0.00000000000000             2
   -0.20000000000000    0.40000000000001    0.00000000000000             2
   -0.40000000000001    0.20000000000000    0.00000000000000             2
    0.24000000000000    0.20000000000000    0.00000000000000             2
   -0.20000000000000    0.44000000000000    0.00000000000000             2
   -0.44000000000000    0.24000000000000    0.00000000000000             2
   -0.24000000000000    0.44000000000000    0.00000000000000             2
    0.20000000000000    0.24000000000000    0.00000000000000             2
    0.44000000000000   -0.20000000000000    0.00000000000000             2
    0.28000000000000    0.20000000000000    0.00000000000000             2
   -0.20000000000000    0.48000000000000    0.00000000000000             2
   -0.48000000000000    0.28000000000000    0.00000000000000             2
   -0.28000000000000    0.48000000000000    0.00000000000000             2
    0.20000000000000    0.28000000000000    0.00000000000000             2
    0.48000000000000   -0.20000000000000    0.00000000000000             2
    0.32000000000000    0.20000000000000    0.00000000000000             2
   -0.20000000000000   -0.48000000000000    0.00000000000000             2
    0.48000000000000    0.32000000000000    0.00000000000000             2
   -0.32000000000000   -0.48000000000000    0.00000000000000             2
    0.20000000000000    0.32000000000000    0.00000000000000             2
   -0.48000000000000   -0.20000000000000    0.00000000000000             2
    0.36000000000000    0.20000000000000    0.00000000000000             2
   -0.20000000000000   -0.44000000000000    0.00000000000000             2
    0.44000000000000    0.36000000000000    0.00000000000000             2
   -0.36000000000000   -0.44000000000000    0.00000000000000             2
    0.20000000000000    0.36000000000000    0.00000000000000             2
   -0.44000000000000   -0.20000000000000    0.00000000000000             2
    0.40000000000000    0.20000000000000    0.00000000000000             2
   -0.20000000000000   -0.40000000000000    0.00000000000000             2
    0.40000000000000    0.40000000000000    0.00000000000000             2
    0.24000000000000    0.24000000000000    0.00000000000000             2
   -0.24000000000000    0.48000000000000    0.00000000000000             2
   -0.48000000000000    0.24000000000000    0.00000000000000             2
    0.28000000000000    0.24000000000000    0.00000000000000             2
   -0.24000000000000   -0.48000000000000    0.00000000000000             2
    0.48000000000000    0.28000000000000    0.00000000000000             2
   -0.28000000000000   -0.48000000000000    0.00000000000000             2
    0.24000000000000    0.28000000000000    0.00000000000000             2
   -0.48000000000000   -0.24000000000000    0.00000000000000             2
    0.32000000000000    0.24000000000000    0.00000000000000             2
   -0.24000000000000   -0.44000000000000    0.00000000000000             2
    0.44000000000000    0.32000000000000    0.00000000000000             2
   -0.32000000000000   -0.44000000000000    0.00000000000000             2
    0.24000000000000    0.32000000000000    0.00000000000000             2
   -0.44000000000000   -0.24000000000000    0.00000000000000             2
    0.36000000000000    0.24000000000000    0.00000000000000             2
   -0.24000000000000   -0.40000000000000    0.00000000000000             2
    0.40000000000000    0.36000000000000    0.00000000000000             2
   -0.36000000000000   -0.40000000000000    0.00000000000000             2
    0.24000000000000    0.36000000000000    0.00000000000000             2
   -0.40000000000000   -0.24000000000000    0.00000000000000             2
    0.28000000000000    0.28000000000000    0.00000000000000             2
   -0.28000000000000   -0.44000000000000    0.00000000000000             2
    0.44000000000000    0.28000000000000    0.00000000000000             2
    0.32000000000000    0.28000000000000    0.00000000000000             2
   -0.28000000000000   -0.40000000000000    0.00000000000000             2
    0.40000000000000    0.32000000000000    0.00000000000000             2
   -0.32000000000000   -0.40000000000000    0.00000000000000             2
    0.28000000000000    0.32000000000000    0.00000000000000             2
   -0.40000000000000   -0.28000000000000    0.00000000000000             2
    0.36000000000000    0.28000000000000    0.00000000000000             2
   -0.28000000000000   -0.36000000000000    0.00000000000000             2
    0.36000000000000    0.36000000000000    0.00000000000000             2
    0.32000000000000    0.32000000000000    0.00000000000000             2
   -0.32000000000000   -0.36000000000000    0.00000000000000             2
    0.36000000000000    0.32000000000000    0.00000000000000             2
