   8   8   1  16
  0.4338553E+02  0.5169000E-09  0.5169000E-09  0.1500000E-08  0.5000000E-15
  1.000000000000000E-004
  CAR 
 BS                                      
     12.48535462    -21.42625554  301     -3.47176788      1.00000000
    -21.426  0.0000E+00  0.0000E+00
    -21.313  0.0000E+00  0.0000E+00
    -21.200  0.0000E+00  0.0000E+00
    -21.087  0.0000E+00  0.0000E+00
    -20.974  0.0000E+00  0.0000E+00
    -20.861  0.0000E+00  0.0000E+00
    -20.748  0.0000E+00  0.0000E+00
    -20.635  0.0000E+00  0.0000E+00
    -20.522  0.0000E+00  0.0000E+00
    -20.409  0.6145E-13  0.6946E-14
    -20.296  0.3368E-08  0.3807E-09
    -20.183  0.1577E-04  0.1784E-05
    -20.070  0.6730E-02  0.7625E-03
    -19.957  0.2980E+00  0.3444E-01
    -19.844  0.1765E+01  0.2339E+00
    -19.731  0.2253E+01  0.4886E+00
    -19.618  0.1615E+01  0.6712E+00
    -19.505  0.1400E+01  0.8294E+00
    -19.392  0.1812E+01  0.1034E+01
    -19.279  0.3947E+01  0.1480E+01
    -19.165  0.3789E+01  0.1909E+01
    -19.052  0.7834E+00  0.1997E+01
    -18.939  0.2472E-01  0.2000E+01
    -18.826  0.8836E-04  0.2000E+01
    -18.713  0.2993E-07  0.2000E+01
    -18.600  0.8820E-12  0.2000E+01
    -18.487  0.0000E+00  0.2000E+01
    -18.374  0.0000E+00  0.2000E+01
    -18.261  0.0000E+00  0.2000E+01
    -18.148  0.2915E-13  0.2000E+01
    -18.035  0.1917E-08  0.2000E+01
    -17.922  0.1074E-04  0.2000E+01
    -17.809  0.5444E-02  0.2001E+01
    -17.696  0.2826E+00  0.2033E+01
    -17.583  0.1915E+01  0.2249E+01
    -17.470  0.2745E+01  0.2559E+01
    -17.357  0.2626E+01  0.2856E+01
    -17.244  0.2627E+01  0.3153E+01
    -17.131  0.2061E+01  0.3386E+01
    -17.018  0.1747E+01  0.3583E+01
    -16.905  0.1613E+01  0.3766E+01
    -16.792  0.1557E+01  0.3942E+01
    -16.679  0.1570E+01  0.4119E+01
    -16.566  0.1772E+01  0.4320E+01
    -16.453  0.2579E+01  0.4611E+01
    -16.340  0.2775E+01  0.4925E+01
    -16.226  0.2205E+01  0.5174E+01
    -16.113  0.2350E+01  0.5440E+01
    -16.000  0.2990E+01  0.5778E+01
    -15.887  0.1764E+01  0.5977E+01
    -15.774  0.1999E+00  0.6000E+01
    -15.661  0.2847E-02  0.6000E+01
    -15.548  0.4065E-05  0.6000E+01
    -15.435  0.5196E-09  0.6000E+01
    -15.322  0.5607E-14  0.6000E+01
    -15.209  0.0000E+00  0.6000E+01
    -15.096  0.0000E+00  0.6000E+01
    -14.983  0.0000E+00  0.6000E+01
    -14.870  0.0000E+00  0.6000E+01
    -14.757  0.3095E-15  0.6000E+01
    -14.644  0.4620E-10  0.6000E+01
    -14.531  0.5848E-06  0.6000E+01
    -14.418  0.6535E-03  0.6000E+01
    -14.305  0.7107E-01  0.6008E+01
    -14.192  0.9153E+00  0.6112E+01
    -14.079  0.2012E+01  0.6339E+01
    -13.966  0.1595E+01  0.6519E+01
    -13.853  0.1307E+01  0.6667E+01
    -13.740  0.2108E+01  0.6905E+01
    -13.627  0.4047E+01  0.7363E+01
    -13.514  0.3176E+01  0.7722E+01
    -13.401  0.1889E+01  0.7935E+01
    -13.287  0.1597E+01  0.8116E+01
    -13.174  0.1504E+01  0.8286E+01
    -13.061  0.1463E+01  0.8451E+01
    -12.948  0.1472E+01  0.8618E+01
    -12.835  0.1582E+01  0.8796E+01
    -12.722  0.1810E+01  0.9001E+01
    -12.609  0.1889E+01  0.9215E+01
    -12.496  0.1911E+01  0.9431E+01
    -12.383  0.1657E+01  0.9618E+01
    -12.270  0.1396E+01  0.9776E+01
    -12.157  0.1331E+01  0.9926E+01
    -12.044  0.1384E+01  0.1008E+02
    -11.931  0.1659E+01  0.1027E+02
    -11.818  0.1677E+01  0.1046E+02
    -11.705  0.7299E+00  0.1054E+02
    -11.592  0.3572E+00  0.1058E+02
    -11.479  0.3303E+00  0.1062E+02
    -11.366  0.3584E+00  0.1066E+02
    -11.253  0.7714E+00  0.1075E+02
    -11.140  0.1268E+01  0.1089E+02
    -11.027  0.1058E+01  0.1101E+02
    -10.914  0.1299E+01  0.1116E+02
    -10.801  0.2015E+01  0.1139E+02
    -10.688  0.1805E+01  0.1159E+02
    -10.575  0.1522E+01  0.1176E+02
    -10.462  0.1423E+01  0.1192E+02
    -10.348  0.1422E+01  0.1208E+02
    -10.235  0.1421E+01  0.1224E+02
    -10.122  0.1266E+01  0.1239E+02
    -10.009  0.1464E+01  0.1255E+02
     -9.896  0.1442E+01  0.1272E+02
     -9.783  0.1683E+01  0.1291E+02
     -9.670  0.1911E+01  0.1312E+02
     -9.557  0.1514E+01  0.1329E+02
     -9.444  0.1337E+01  0.1344E+02
     -9.331  0.1294E+01  0.1359E+02
     -9.218  0.1570E+01  0.1377E+02
     -9.105  0.2245E+01  0.1402E+02
     -8.992  0.2324E+01  0.1428E+02
     -8.879  0.2244E+01  0.1454E+02
     -8.766  0.2177E+01  0.1478E+02
     -8.653  0.3365E+01  0.1516E+02
     -8.540  0.4292E+01  0.1565E+02
     -8.427  0.4148E+01  0.1612E+02
     -8.314  0.3122E+01  0.1647E+02
     -8.201  0.2076E+01  0.1671E+02
     -8.088  0.1586E+01  0.1688E+02
     -7.975  0.1914E+01  0.1710E+02
     -7.862  0.2104E+01  0.1734E+02
     -7.749  0.2090E+01  0.1758E+02
     -7.636  0.3207E+01  0.1794E+02
     -7.522  0.5674E+01  0.1858E+02
     -7.409  0.4507E+01  0.1909E+02
     -7.296  0.4252E+01  0.1957E+02
     -7.183  0.4323E+01  0.2006E+02
     -7.070  0.1763E+01  0.2026E+02
     -6.957  0.9734E+00  0.2037E+02
     -6.844  0.9865E+00  0.2048E+02
     -6.731  0.1264E+01  0.2062E+02
     -6.618  0.2636E+01  0.2092E+02
     -6.505  0.3917E+01  0.2136E+02
     -6.392  0.6020E+01  0.2204E+02
     -6.279  0.8601E+01  0.2302E+02
     -6.166  0.6529E+01  0.2375E+02
     -6.053  0.4540E+01  0.2427E+02
     -5.940  0.2752E+01  0.2458E+02
     -5.827  0.2123E+01  0.2482E+02
     -5.714  0.2017E+01  0.2505E+02
     -5.601  0.1976E+01  0.2527E+02
     -5.488  0.1967E+01  0.2549E+02
     -5.375  0.1992E+01  0.2572E+02
     -5.262  0.2062E+01  0.2595E+02
     -5.149  0.2247E+01  0.2620E+02
     -5.036  0.2772E+01  0.2652E+02
     -4.923  0.2973E+01  0.2685E+02
     -4.810  0.2945E+01  0.2719E+02
     -4.697  0.3978E+01  0.2764E+02
     -4.583  0.4366E+01  0.2813E+02
     -4.470  0.4649E+01  0.2865E+02
     -4.357  0.2543E+01  0.2894E+02
     -4.244  0.1169E+01  0.2907E+02
     -4.131  0.1170E+01  0.2921E+02
     -4.018  0.1367E+01  0.2936E+02
     -3.905  0.1848E+01  0.2957E+02
     -3.792  0.2475E+01  0.2985E+02
     -3.679  0.1225E+01  0.2999E+02
     -3.566  0.1051E+00  0.3000E+02
     -3.453  0.1091E-02  0.3000E+02
     -3.340  0.5434E-02  0.3000E+02
     -3.227  0.2280E+00  0.3003E+02
     -3.114  0.1287E+01  0.3017E+02
     -3.001  0.1576E+01  0.3035E+02
     -2.888  0.1083E+01  0.3047E+02
     -2.775  0.8721E+00  0.3057E+02
     -2.662  0.1060E+01  0.3069E+02
     -2.549  0.1666E+01  0.3088E+02
     -2.436  0.1533E+01  0.3105E+02
     -2.323  0.1270E+01  0.3120E+02
     -2.210  0.1185E+01  0.3133E+02
     -2.097  0.1219E+01  0.3147E+02
     -1.984  0.1367E+01  0.3162E+02
     -1.871  0.1021E+01  0.3174E+02
     -1.758  0.5673E+00  0.3180E+02
     -1.644  0.5040E+00  0.3186E+02
     -1.531  0.5029E+00  0.3192E+02
     -1.418  0.5203E+00  0.3197E+02
     -1.305  0.5447E+00  0.3204E+02
     -1.192  0.5166E+00  0.3209E+02
     -1.079  0.5051E+00  0.3215E+02
     -0.966  0.5076E+00  0.3221E+02
     -0.853  0.5145E+00  0.3227E+02
     -0.740  0.5266E+00  0.3233E+02
     -0.627  0.5465E+00  0.3239E+02
     -0.514  0.5784E+00  0.3245E+02
     -0.401  0.6443E+00  0.3253E+02
     -0.288  0.1152E+01  0.3266E+02
     -0.175  0.3064E+01  0.3300E+02
     -0.062  0.3140E+01  0.3336E+02
      0.051  0.1557E+01  0.3353E+02
      0.164  0.1150E+01  0.3366E+02
      0.277  0.1116E+01  0.3379E+02
      0.390  0.1411E+01  0.3395E+02
      0.503  0.2227E+01  0.3420E+02
      0.616  0.2360E+01  0.3447E+02
      0.729  0.2295E+01  0.3473E+02
      0.842  0.2213E+01  0.3498E+02
      0.955  0.2516E+01  0.3526E+02
      1.068  0.2000E+01  0.3549E+02
      1.181  0.1655E+01  0.3568E+02
      1.295  0.1523E+01  0.3585E+02
      1.408  0.1499E+01  0.3602E+02
      1.521  0.1690E+01  0.3621E+02
      1.634  0.1840E+01  0.3642E+02
      1.747  0.1517E+01  0.3659E+02
      1.860  0.2162E+01  0.3683E+02
      1.973  0.2688E+01  0.3714E+02
      2.086  0.2173E+01  0.3738E+02
      2.199  0.2261E+01  0.3764E+02
      2.312  0.3212E+01  0.3800E+02
      2.425  0.3019E+01  0.3834E+02
      2.538  0.2535E+01  0.3863E+02
      2.651  0.3241E+01  0.3899E+02
      2.764  0.5077E+01  0.3957E+02
      2.877  0.4530E+01  0.4008E+02
      2.990  0.3656E+01  0.4049E+02
      3.103  0.3264E+01  0.4086E+02
      3.216  0.3026E+01  0.4120E+02
      3.329  0.2765E+01  0.4152E+02
      3.442  0.2681E+01  0.4182E+02
      3.555  0.4052E+01  0.4228E+02
      3.668  0.5247E+01  0.4287E+02
      3.781  0.4491E+01  0.4338E+02
      3.894  0.4022E+01  0.4383E+02
      4.007  0.3869E+01  0.4427E+02
      4.120  0.4863E+01  0.4482E+02
      4.234  0.6259E+01  0.4553E+02
      4.347  0.6008E+01  0.4621E+02
      4.460  0.5151E+01  0.4679E+02
      4.573  0.4353E+01  0.4728E+02
      4.686  0.4603E+01  0.4780E+02
      4.799  0.5316E+01  0.4840E+02
      4.912  0.6472E+01  0.4913E+02
      5.025  0.8073E+01  0.5005E+02
      5.138  0.8697E+01  0.5103E+02
      5.251  0.6864E+01  0.5181E+02
      5.364  0.5941E+01  0.5248E+02
      5.477  0.5654E+01  0.5312E+02
      5.590  0.5714E+01  0.5376E+02
      5.703  0.4211E+01  0.5424E+02
      5.816  0.3706E+01  0.5466E+02
      5.929  0.4817E+01  0.5520E+02
      6.042  0.5471E+01  0.5582E+02
      6.155  0.5183E+01  0.5641E+02
      6.268  0.6902E+01  0.5719E+02
      6.381  0.9162E+01  0.5822E+02
      6.494  0.8558E+01  0.5919E+02
      6.607  0.7211E+01  0.6000E+02
      6.720  0.7773E+01  0.6088E+02
      6.833  0.1144E+02  0.6218E+02
      6.946  0.1068E+02  0.6338E+02
      7.059  0.8314E+01  0.6432E+02
      7.173  0.8396E+01  0.6527E+02
      7.286  0.8046E+01  0.6618E+02
      7.399  0.7895E+01  0.6707E+02
      7.512  0.7265E+01  0.6789E+02
      7.625  0.6829E+01  0.6867E+02
      7.738  0.7611E+01  0.6953E+02
      7.851  0.9669E+01  0.7062E+02
      7.964  0.1008E+02  0.7176E+02
      8.077  0.9283E+01  0.7281E+02
      8.190  0.8833E+01  0.7381E+02
      8.303  0.8055E+01  0.7472E+02
      8.416  0.7985E+01  0.7562E+02
      8.529  0.7883E+01  0.7651E+02
      8.642  0.7559E+01  0.7737E+02
      8.755  0.7466E+01  0.7821E+02
      8.868  0.7700E+01  0.7908E+02
      8.981  0.7878E+01  0.7997E+02
      9.094  0.7128E+01  0.8078E+02
      9.207  0.7794E+01  0.8166E+02
      9.320  0.9798E+01  0.8277E+02
      9.433  0.9984E+01  0.8389E+02
      9.546  0.9353E+01  0.8495E+02
      9.659  0.8888E+01  0.8596E+02
      9.772  0.9451E+01  0.8702E+02
      9.885  0.9732E+01  0.8812E+02
      9.999  0.8824E+01  0.8912E+02
     10.112  0.9855E+01  0.9024E+02
     10.225  0.8764E+01  0.9123E+02
     10.338  0.7821E+01  0.9211E+02
     10.451  0.7087E+01  0.9291E+02
     10.564  0.7967E+01  0.9381E+02
     10.677  0.8966E+01  0.9483E+02
     10.790  0.6071E+01  0.9551E+02
     10.903  0.3246E+01  0.9588E+02
     11.016  0.9860E+00  0.9599E+02
     11.129  0.8802E-01  0.9600E+02
     11.242  0.1289E-02  0.9600E+02
     11.355  0.2285E-05  0.9600E+02
     11.468  0.4186E-09  0.9600E+02
     11.581  0.7105E-14  0.9600E+02
     11.694  0.0000E+00  0.9600E+02
     11.807  0.0000E+00  0.9600E+02
     11.920  0.0000E+00  0.9600E+02
     12.033  0.0000E+00  0.9600E+02
     12.146  0.0000E+00  0.9600E+02
     12.259  0.0000E+00  0.9600E+02
     12.372  0.0000E+00  0.9600E+02
     12.485  0.0000E+00  0.9600E+02
     12.48535462    -21.42625554  301     -3.47176788      1.00000000
    -21.426  0.0000E+00  0.0000E+00  0.0000E+00  0.0000E+00  0.0000E+00  0.0000E+00  0.0000E+00  0.0000E+00  0.0000E+00
    -21.313  0.0000E+00  0.0000E+00  0.0000E+00  0.0000E+00  0.0000E+00  0.0000E+00  0.0000E+00  0.0000E+00  0.0000E+00
    -21.200  0.0000E+00  0.0000E+00  0.0000E+00  0.0000E+00  0.0000E+00  0.0000E+00  0.0000E+00  0.0000E+00  0.0000E+00
    -21.087  0.0000E+00  0.0000E+00  0.0000E+00  0.0000E+00  0.0000E+00  0.0000E+00  0.0000E+00  0.0000E+00  0.0000E+00
    -20.974  0.0000E+00  0.0000E+00  0.0000E+00  0.0000E+00  0.0000E+00  0.0000E+00  0.0000E+00  0.0000E+00  0.0000E+00
    -20.861  0.0000E+00  0.0000E+00  0.0000E+00  0.0000E+00  0.0000E+00  0.0000E+00  0.0000E+00  0.0000E+00  0.0000E+00
    -20.748  0.0000E+00  0.0000E+00  0.0000E+00  0.0000E+00  0.0000E+00  0.0000E+00  0.0000E+00  0.0000E+00  0.0000E+00
    -20.635  0.0000E+00  0.0000E+00  0.0000E+00  0.0000E+00  0.0000E+00  0.0000E+00  0.0000E+00  0.0000E+00  0.0000E+00
    -20.522  0.0000E+00  0.0000E+00  0.0000E+00  0.0000E+00  0.0000E+00  0.0000E+00  0.0000E+00  0.0000E+00  0.0000E+00
    -20.409  0.1715E-14  0.2699E-17  0.2005E-28  0.4202E-18  0.0000E+00  0.0000E+00  0.0000E+00  0.0000E+00  0.0000E+00
    -20.296  0.9391E-10  0.1856E-12  0.1181E-23  0.2893E-13  0.0000E+00  0.0000E+00  0.0000E+00  0.0000E+00  0.0000E+00
    -20.183  0.4391E-06  0.1150E-08  0.5894E-20  0.1799E-09  0.0000E+00  0.0000E+00  0.0000E+00  0.0000E+00  0.0000E+00
    -20.070  0.1867E-03  0.7055E-06  0.2643E-17  0.1108E-06  0.0000E+00  0.0000E+00  0.0000E+00  0.0000E+00  0.0000E+00
    -19.957  0.8212E-02  0.5101E-04  0.1204E-15  0.8081E-05  0.0000E+00  0.0000E+00  0.0000E+00  0.0000E+00  0.0000E+00
    -19.844  0.4779E-01  0.6010E-03  0.7034E-15  0.9698E-04  0.0000E+00  0.0000E+00  0.0000E+00  0.0000E+00  0.0000E+00
    -19.731  0.5759E-01  0.1939E-02  0.8590E-15  0.3260E-03  0.0000E+00  0.0000E+00  0.0000E+00  0.0000E+00  0.0000E+00
    -19.618  0.3546E-01  0.3294E-02  0.5726E-15  0.5981E-03  0.0000E+00  0.0000E+00  0.0000E+00  0.0000E+00  0.0000E+00
    -19.505  0.2416E-01  0.4773E-02  0.2522E-15  0.9857E-03  0.0000E+00  0.0000E+00  0.0000E+00  0.0000E+00  0.0000E+00
    -19.392  0.1893E-01  0.9018E-02  0.1443E-15  0.2540E-02  0.0000E+00  0.0000E+00  0.0000E+00  0.0000E+00  0.0000E+00
    -19.279  0.1857E-01  0.2286E-01  0.2099E-15  0.9359E-02  0.0000E+00  0.0000E+00  0.0000E+00  0.0000E+00  0.0000E+00
    -19.165  0.9611E-02  0.2164E-01  0.2373E-15  0.1168E-01  0.0000E+00  0.0000E+00  0.0000E+00  0.0000E+00  0.0000E+00
    -19.052  0.1085E-02  0.4308E-02  0.6013E-16  0.2834E-02  0.0000E+00  0.0000E+00  0.0000E+00  0.0000E+00  0.0000E+00
    -18.939  0.1960E-04  0.1320E-03  0.2173E-17  0.9744E-04  0.0000E+00  0.0000E+00  0.0000E+00  0.0000E+00  0.0000E+00
    -18.826  0.4554E-07  0.4631E-06  0.8506E-20  0.3637E-06  0.0000E+00  0.0000E+00  0.0000E+00  0.0000E+00  0.0000E+00
    -18.713  0.1121E-10  0.1550E-09  0.3085E-23  0.1263E-09  0.0000E+00  0.0000E+00  0.0000E+00  0.0000E+00  0.0000E+00
    -18.600  0.2579E-15  0.4529E-14  0.9599E-28  0.3779E-14  0.0000E+00  0.0000E+00  0.0000E+00  0.0000E+00  0.0000E+00
    -18.487  0.0000E+00  0.0000E+00  0.0000E+00  0.0000E+00  0.0000E+00  0.0000E+00  0.0000E+00  0.0000E+00  0.0000E+00
    -18.374  0.0000E+00  0.0000E+00  0.0000E+00  0.0000E+00  0.0000E+00  0.0000E+00  0.0000E+00  0.0000E+00  0.0000E+00
    -18.261  0.0000E+00  0.0000E+00  0.0000E+00  0.0000E+00  0.0000E+00  0.0000E+00  0.0000E+00  0.0000E+00  0.0000E+00
    -18.148  0.1474E-14  0.9293E-16  0.1611E-29  0.3202E-16  0.0000E+00  0.0000E+00  0.0000E+00  0.0000E+00  0.0000E+00
    -18.035  0.9685E-10  0.6125E-11  0.1078E-24  0.2128E-11  0.0000E+00  0.0000E+00  0.0000E+00  0.0000E+00  0.0000E+00
    -17.922  0.5418E-06  0.3442E-07  0.6102E-21  0.1211E-07  0.0000E+00  0.0000E+00  0.0000E+00  0.0000E+00  0.0000E+00
    -17.809  0.2741E-03  0.1755E-04  0.3084E-18  0.6313E-05  0.0000E+00  0.0000E+00  0.0000E+00  0.0000E+00  0.0000E+00
    -17.696  0.1417E-01  0.9222E-03  0.1570E-16  0.3460E-03  0.0000E+00  0.0000E+00  0.0000E+00  0.0000E+00  0.0000E+00
    -17.583  0.9497E-01  0.6427E-02  0.1054E-15  0.2657E-02  0.0000E+00  0.0000E+00  0.0000E+00  0.0000E+00  0.0000E+00
    -17.470  0.1311E+00  0.9746E-02  0.1673E-15  0.5620E-02  0.0000E+00  0.0000E+00  0.0000E+00  0.0000E+00  0.0000E+00
    -17.357  0.1138E+00  0.9029E-02  0.1791E-15  0.1085E-01  0.0000E+00  0.0000E+00  0.0000E+00  0.0000E+00  0.0000E+00
    -17.244  0.1046E+00  0.9584E-02  0.2012E-15  0.1405E-01  0.0000E+00  0.0000E+00  0.0000E+00  0.0000E+00  0.0000E+00
    -17.131  0.7424E-01  0.9293E-02  0.1241E-15  0.1218E-01  0.0000E+00  0.0000E+00  0.0000E+00  0.0000E+00  0.0000E+00
    -17.018  0.5566E-01  0.9207E-02  0.6083E-16  0.1157E-01  0.0000E+00  0.0000E+00  0.0000E+00  0.0000E+00  0.0000E+00
    -16.905  0.4483E-01  0.9589E-02  0.6406E-16  0.1187E-01  0.0000E+00  0.0000E+00  0.0000E+00  0.0000E+00  0.0000E+00
    -16.792  0.3679E-01  0.1020E-01  0.5530E-16  0.1267E-01  0.0000E+00  0.0000E+00  0.0000E+00  0.0000E+00  0.0000E+00
    -16.679  0.3006E-01  0.1109E-01  0.4498E-16  0.1426E-01  0.0000E+00  0.0000E+00  0.0000E+00  0.0000E+00  0.0000E+00
    -16.566  0.2380E-01  0.1304E-01  0.5874E-16  0.1911E-01  0.0000E+00  0.0000E+00  0.0000E+00  0.0000E+00  0.0000E+00
    -16.453  0.1724E-01  0.1862E-01  0.7683E-16  0.3494E-01  0.0000E+00  0.0000E+00  0.0000E+00  0.0000E+00  0.0000E+00
    -16.340  0.1159E-01  0.2002E-01  0.8619E-16  0.3810E-01  0.0000E+00  0.0000E+00  0.0000E+00  0.0000E+00  0.0000E+00
    -16.226  0.8300E-02  0.1625E-01  0.9147E-16  0.2525E-01  0.0000E+00  0.0000E+00  0.0000E+00  0.0000E+00  0.0000E+00
    -16.113  0.5700E-02  0.1641E-01  0.6234E-16  0.2291E-01  0.0000E+00  0.0000E+00  0.0000E+00  0.0000E+00  0.0000E+00
    -16.000  0.2951E-02  0.1871E-01  0.6396E-16  0.2632E-01  0.0000E+00  0.0000E+00  0.0000E+00  0.0000E+00  0.0000E+00
    -15.887  0.7015E-03  0.1037E-01  0.3235E-16  0.1490E-01  0.0000E+00  0.0000E+00  0.0000E+00  0.0000E+00  0.0000E+00
    -15.774  0.4094E-04  0.1150E-02  0.3026E-17  0.1663E-02  0.0000E+00  0.0000E+00  0.0000E+00  0.0000E+00  0.0000E+00
    -15.661  0.3624E-06  0.1625E-04  0.3699E-19  0.2350E-04  0.0000E+00  0.0000E+00  0.0000E+00  0.0000E+00  0.0000E+00
    -15.548  0.3635E-09  0.2314E-07  0.4675E-22  0.3337E-07  0.0000E+00  0.0000E+00  0.0000E+00  0.0000E+00  0.0000E+00
    -15.435  0.3532E-13  0.2959E-11  0.5399E-26  0.4249E-11  0.0000E+00  0.0000E+00  0.0000E+00  0.0000E+00  0.0000E+00
    -15.322  0.2929E-18  0.3197E-16  0.5429E-31  0.4566E-16  0.0000E+00  0.0000E+00  0.0000E+00  0.0000E+00  0.0000E+00
    -15.209  0.0000E+00  0.0000E+00  0.0000E+00  0.0000E+00  0.0000E+00  0.0000E+00  0.0000E+00  0.0000E+00  0.0000E+00
    -15.096  0.0000E+00  0.0000E+00  0.0000E+00  0.0000E+00  0.0000E+00  0.0000E+00  0.0000E+00  0.0000E+00  0.0000E+00
    -14.983  0.0000E+00  0.0000E+00  0.0000E+00  0.0000E+00  0.0000E+00  0.0000E+00  0.0000E+00  0.0000E+00  0.0000E+00
    -14.870  0.0000E+00  0.0000E+00  0.0000E+00  0.0000E+00  0.0000E+00  0.0000E+00  0.0000E+00  0.0000E+00  0.0000E+00
    -14.757  0.2829E-16  0.2612E-18  0.1216E-32  0.9192E-19  0.0000E+00  0.0000E+00  0.0000E+00  0.0000E+00  0.0000E+00
    -14.644  0.4219E-11  0.4054E-13  0.1897E-27  0.1454E-13  0.0000E+00  0.0000E+00  0.0000E+00  0.0000E+00  0.0000E+00
    -14.531  0.5335E-07  0.5353E-09  0.2523E-23  0.1951E-09  0.0000E+00  0.0000E+00  0.0000E+00  0.0000E+00  0.0000E+00
    -14.418  0.5949E-04  0.6406E-06  0.3088E-20  0.2391E-06  0.0000E+00  0.0000E+00  0.0000E+00  0.0000E+00  0.0000E+00
    -14.305  0.6444E-02  0.7870E-04  0.3857E-18  0.3047E-04  0.0000E+00  0.0000E+00  0.0000E+00  0.0000E+00  0.0000E+00
    -14.192  0.8224E-01  0.1289E-02  0.5824E-17  0.5269E-03  0.0000E+00  0.0000E+00  0.0000E+00  0.0000E+00  0.0000E+00
    -14.079  0.1758E+00  0.4645E-02  0.1383E-16  0.2022E-02  0.0000E+00  0.0000E+00  0.0000E+00  0.0000E+00  0.0000E+00
    -13.966  0.1277E+00  0.7988E-02  0.8668E-17  0.3555E-02  0.0000E+00  0.0000E+00  0.0000E+00  0.0000E+00  0.0000E+00
    -13.853  0.8740E-01  0.1335E-01  0.6224E-17  0.5415E-02  0.0000E+00  0.0000E+00  0.0000E+00  0.0000E+00  0.0000E+00
    -13.740  0.9167E-01  0.4265E-01  0.2347E-16  0.1434E-01  0.0000E+00  0.0000E+00  0.0000E+00  0.0000E+00  0.0000E+00
    -13.627  0.1115E+00  0.9360E-01  0.6148E-16  0.5180E-01  0.0000E+00  0.0000E+00  0.0000E+00  0.0000E+00  0.0000E+00
    -13.514  0.7655E-01  0.4847E-01  0.4205E-16  0.6893E-01  0.0000E+00  0.0000E+00  0.0000E+00  0.0000E+00  0.0000E+00
    -13.401  0.5746E-01  0.9793E-02  0.2474E-16  0.4881E-01  0.0000E+00  0.0000E+00  0.0000E+00  0.0000E+00  0.0000E+00
    -13.287  0.5311E-01  0.5500E-02  0.1307E-16  0.3932E-01  0.0000E+00  0.0000E+00  0.0000E+00  0.0000E+00  0.0000E+00
    -13.174  0.5172E-01  0.4927E-02  0.8259E-17  0.3502E-01  0.0000E+00  0.0000E+00  0.0000E+00  0.0000E+00  0.0000E+00
    -13.061  0.5162E-01  0.4938E-02  0.8932E-17  0.3202E-01  0.0000E+00  0.0000E+00  0.0000E+00  0.0000E+00  0.0000E+00
    -12.948  0.5306E-01  0.5422E-02  0.9087E-17  0.2982E-01  0.0000E+00  0.0000E+00  0.0000E+00  0.0000E+00  0.0000E+00
    -12.835  0.5844E-01  0.6414E-02  0.7434E-17  0.2908E-01  0.0000E+00  0.0000E+00  0.0000E+00  0.0000E+00  0.0000E+00
    -12.722  0.6866E-01  0.7009E-02  0.6007E-17  0.3126E-01  0.0000E+00  0.0000E+00  0.0000E+00  0.0000E+00  0.0000E+00
    -12.609  0.9324E-01  0.6556E-02  0.5146E-17  0.2697E-01  0.0000E+00  0.0000E+00  0.0000E+00  0.0000E+00  0.0000E+00
    -12.496  0.1459E+00  0.6187E-02  0.1057E-16  0.1519E-01  0.0000E+00  0.0000E+00  0.0000E+00  0.0000E+00  0.0000E+00
    -12.383  0.1226E+00  0.6823E-02  0.9052E-17  0.1323E-01  0.0000E+00  0.0000E+00  0.0000E+00  0.0000E+00  0.0000E+00
    -12.270  0.8496E-01  0.7542E-02  0.5178E-17  0.1442E-01  0.0000E+00  0.0000E+00  0.0000E+00  0.0000E+00  0.0000E+00
    -12.157  0.6802E-01  0.8320E-02  0.6033E-17  0.1631E-01  0.0000E+00  0.0000E+00  0.0000E+00  0.0000E+00  0.0000E+00
    -12.044  0.5743E-01  0.9540E-02  0.3875E-17  0.1975E-01  0.0000E+00  0.0000E+00  0.0000E+00  0.0000E+00  0.0000E+00
    -11.931  0.4876E-01  0.1231E-01  0.3911E-17  0.2806E-01  0.0000E+00  0.0000E+00  0.0000E+00  0.0000E+00  0.0000E+00
    -11.818  0.4044E-01  0.1299E-01  0.3907E-17  0.3037E-01  0.0000E+00  0.0000E+00  0.0000E+00  0.0000E+00  0.0000E+00
    -11.705  0.3476E-01  0.6022E-02  0.4384E-17  0.9420E-02  0.0000E+00  0.0000E+00  0.0000E+00  0.0000E+00  0.0000E+00
    -11.592  0.3219E-01  0.3442E-02  0.5076E-17  0.1180E-02  0.0000E+00  0.0000E+00  0.0000E+00  0.0000E+00  0.0000E+00
    -11.479  0.3056E-01  0.3524E-02  0.1874E-17  0.8403E-03  0.0000E+00  0.0000E+00  0.0000E+00  0.0000E+00  0.0000E+00
    -11.366  0.3658E-01  0.3753E-02  0.1926E-17  0.8725E-03  0.0000E+00  0.0000E+00  0.0000E+00  0.0000E+00  0.0000E+00
    -11.253  0.1191E+00  0.4396E-02  0.1959E-16  0.9654E-03  0.0000E+00  0.0000E+00  0.0000E+00  0.0000E+00  0.0000E+00
    -11.140  0.2152E+00  0.6315E-02  0.7001E-16  0.1257E-02  0.0000E+00  0.0000E+00  0.0000E+00  0.0000E+00  0.0000E+00
    -11.027  0.1633E+00  0.9290E-02  0.4595E-16  0.2380E-02  0.0000E+00  0.0000E+00  0.0000E+00  0.0000E+00  0.0000E+00
    -10.914  0.1218E+00  0.2470E-01  0.1967E-16  0.1536E-01  0.0000E+00  0.0000E+00  0.0000E+00  0.0000E+00  0.0000E+00
    -10.801  0.1035E+00  0.5183E-01  0.2539E-16  0.3772E-01  0.0000E+00  0.0000E+00  0.0000E+00  0.0000E+00  0.0000E+00
    -10.688  0.9243E-01  0.4776E-01  0.9561E-17  0.3074E-01  0.0000E+00  0.0000E+00  0.0000E+00  0.0000E+00  0.0000E+00
    -10.575  0.8452E-01  0.4007E-01  0.4089E-17  0.2206E-01  0.0000E+00  0.0000E+00  0.0000E+00  0.0000E+00  0.0000E+00
    -10.462  0.7856E-01  0.3788E-01  0.7531E-17  0.1867E-01  0.0000E+00  0.0000E+00  0.0000E+00  0.0000E+00  0.0000E+00
    -10.348  0.7421E-01  0.3906E-01  0.1188E-16  0.1693E-01  0.0000E+00  0.0000E+00  0.0000E+00  0.0000E+00  0.0000E+00
    -10.235  0.6983E-01  0.3931E-01  0.1532E-16  0.1588E-01  0.0000E+00  0.0000E+00  0.0000E+00  0.0000E+00  0.0000E+00
    -10.122  0.6303E-01  0.2785E-01  0.6466E-17  0.1625E-01  0.0000E+00  0.0000E+00  0.0000E+00  0.0000E+00  0.0000E+00
    -10.009  0.6052E-01  0.2182E-01  0.3136E-17  0.2123E-01  0.0000E+00  0.0000E+00  0.0000E+00  0.0000E+00  0.0000E+00
     -9.896  0.7148E-01  0.1843E-01  0.6578E-17  0.1840E-01  0.0000E+00  0.0000E+00  0.0000E+00  0.0000E+00  0.0000E+00
     -9.783  0.1371E+00  0.1705E-01  0.1948E-16  0.1283E-01  0.0000E+00  0.0000E+00  0.0000E+00  0.0000E+00  0.0000E+00
     -9.670  0.1662E+00  0.1810E-01  0.1278E-16  0.1222E-01  0.0000E+00  0.0000E+00  0.0000E+00  0.0000E+00  0.0000E+00
     -9.557  0.1183E+00  0.1770E-01  0.3264E-17  0.1075E-01  0.0000E+00  0.0000E+00  0.0000E+00  0.0000E+00  0.0000E+00
     -9.444  0.9500E-01  0.1764E-01  0.1766E-17  0.1007E-01  0.0000E+00  0.0000E+00  0.0000E+00  0.0000E+00  0.0000E+00
     -9.331  0.8478E-01  0.1874E-01  0.1751E-17  0.1009E-01  0.0000E+00  0.0000E+00  0.0000E+00  0.0000E+00  0.0000E+00
     -9.218  0.7950E-01  0.3734E-01  0.9248E-15  0.1611E-01  0.0000E+00  0.0000E+00  0.0000E+00  0.0000E+00  0.0000E+00
     -9.105  0.7934E-01  0.7741E-01  0.5665E-10  0.2950E-01  0.0000E+00  0.0000E+00  0.0000E+00  0.0000E+00  0.0000E+00
     -8.992  0.8338E-01  0.7434E-01  0.2965E-06  0.2855E-01  0.0000E+00  0.0000E+00  0.0000E+00  0.0000E+00  0.0000E+00
     -8.879  0.8431E-01  0.6091E-01  0.1406E-03  0.2400E-01  0.0000E+00  0.0000E+00  0.0000E+00  0.0000E+00  0.0000E+00
     -8.766  0.6749E-01  0.4012E-01  0.6851E-02  0.1693E-01  0.0000E+00  0.0000E+00  0.0000E+00  0.0000E+00  0.0000E+00
     -8.653  0.6177E-01  0.2992E-01  0.4368E-01  0.1339E-01  0.0000E+00  0.0000E+00  0.0000E+00  0.0000E+00  0.0000E+00
     -8.540  0.6741E-01  0.2731E-01  0.5694E-01  0.1246E-01  0.0000E+00  0.0000E+00  0.0000E+00  0.0000E+00  0.0000E+00
     -8.427  0.8376E-01  0.2602E-01  0.3747E-01  0.1249E-01  0.0000E+00  0.0000E+00  0.0000E+00  0.0000E+00  0.0000E+00
     -8.314  0.1106E+00  0.2379E-01  0.2766E-01  0.1401E-01  0.0000E+00  0.0000E+00  0.0000E+00  0.0000E+00  0.0000E+00
     -8.201  0.8843E-01  0.1860E-01  0.2267E-01  0.1459E-01  0.0000E+00  0.0000E+00  0.0000E+00  0.0000E+00  0.0000E+00
     -8.088  0.4542E-01  0.3270E-01  0.1929E-01  0.1595E-01  0.0000E+00  0.0000E+00  0.0000E+00  0.0000E+00  0.0000E+00
     -7.975  0.3246E-01  0.4325E-01  0.1669E-01  0.2354E-01  0.0000E+00  0.0000E+00  0.0000E+00  0.0000E+00  0.0000E+00
     -7.862  0.4077E-01  0.4282E-01  0.1455E-01  0.2476E-01  0.0000E+00  0.0000E+00  0.0000E+00  0.0000E+00  0.0000E+00
     -7.749  0.5595E-01  0.4187E-01  0.1293E-01  0.1971E-01  0.0000E+00  0.0000E+00  0.0000E+00  0.0000E+00  0.0000E+00
     -7.636  0.1166E+00  0.5237E-01  0.1538E-01  0.1956E-01  0.0000E+00  0.0000E+00  0.0000E+00  0.0000E+00  0.0000E+00
     -7.522  0.2414E+00  0.7434E-01  0.2123E-01  0.2351E-01  0.0000E+00  0.0000E+00  0.0000E+00  0.0000E+00  0.0000E+00
     -7.409  0.1176E+00  0.7578E-01  0.1243E-01  0.2233E-01  0.0000E+00  0.0000E+00  0.0000E+00  0.0000E+00  0.0000E+00
     -7.296  0.1875E-01  0.2688E+00  0.2894E-02  0.1020E+00  0.0000E+00  0.0000E+00  0.0000E+00  0.0000E+00  0.0000E+00
     -7.183  0.1310E-01  0.4105E+00  0.1988E-03  0.1697E+00  0.0000E+00  0.0000E+00  0.0000E+00  0.0000E+00  0.0000E+00
     -7.070  0.1347E-01  0.1735E+00  0.2275E-05  0.5391E-01  0.0000E+00  0.0000E+00  0.0000E+00  0.0000E+00  0.0000E+00
     -6.957  0.1281E-01  0.9263E-01  0.2415E-06  0.1538E-01  0.0000E+00  0.0000E+00  0.0000E+00  0.0000E+00  0.0000E+00
     -6.844  0.1169E-01  0.8680E-01  0.1470E-03  0.2179E-01  0.0000E+00  0.0000E+00  0.0000E+00  0.0000E+00  0.0000E+00
     -6.731  0.1041E-01  0.8580E-01  0.9142E-02  0.3741E-01  0.0000E+00  0.0000E+00  0.0000E+00  0.0000E+00  0.0000E+00
     -6.618  0.9192E-02  0.8628E-01  0.7202E-01  0.6009E-01  0.0000E+00  0.0000E+00  0.0000E+00  0.0000E+00  0.0000E+00
     -6.505  0.1108E-01  0.1043E+00  0.1091E+00  0.1110E+00  0.0000E+00  0.0000E+00  0.0000E+00  0.0000E+00  0.0000E+00
     -6.392  0.2700E-01  0.2061E+00  0.7546E-01  0.3385E+00  0.0000E+00  0.0000E+00  0.0000E+00  0.0000E+00  0.0000E+00
     -6.279  0.3583E-01  0.2912E+00  0.6962E-01  0.5691E+00  0.0000E+00  0.0000E+00  0.0000E+00  0.0000E+00  0.0000E+00
     -6.166  0.2674E-01  0.1734E+00  0.8396E-01  0.3496E+00  0.0000E+00  0.0000E+00  0.0000E+00  0.0000E+00  0.0000E+00
     -6.053  0.2034E-01  0.9587E-01  0.6978E-01  0.1982E+00  0.0000E+00  0.0000E+00  0.0000E+00  0.0000E+00  0.0000E+00
     -5.940  0.1732E-01  0.5627E-01  0.5349E-01  0.9600E-01  0.0000E+00  0.0000E+00  0.0000E+00  0.0000E+00  0.0000E+00
     -5.827  0.1546E-01  0.4360E-01  0.4527E-01  0.6309E-01  0.0000E+00  0.0000E+00  0.0000E+00  0.0000E+00  0.0000E+00
     -5.714  0.1399E-01  0.4211E-01  0.3991E-01  0.6109E-01  0.0000E+00  0.0000E+00  0.0000E+00  0.0000E+00  0.0000E+00
     -5.601  0.1271E-01  0.4189E-01  0.3578E-01  0.6176E-01  0.0000E+00  0.0000E+00  0.0000E+00  0.0000E+00  0.0000E+00
     -5.488  0.1155E-01  0.4234E-01  0.3231E-01  0.6379E-01  0.0000E+00  0.0000E+00  0.0000E+00  0.0000E+00  0.0000E+00
     -5.375  0.1044E-01  0.4353E-01  0.2923E-01  0.6759E-01  0.0000E+00  0.0000E+00  0.0000E+00  0.0000E+00  0.0000E+00
     -5.262  0.9355E-02  0.4588E-01  0.2636E-01  0.7456E-01  0.0000E+00  0.0000E+00  0.0000E+00  0.0000E+00  0.0000E+00
     -5.149  0.8212E-02  0.5168E-01  0.2358E-01  0.9165E-01  0.0000E+00  0.0000E+00  0.0000E+00  0.0000E+00  0.0000E+00
     -5.036  0.6869E-02  0.6835E-01  0.2074E-01  0.1414E+00  0.0000E+00  0.0000E+00  0.0000E+00  0.0000E+00  0.0000E+00
     -4.923  0.5520E-02  0.7120E-01  0.1765E-01  0.1492E+00  0.0000E+00  0.0000E+00  0.0000E+00  0.0000E+00  0.0000E+00
     -4.810  0.4782E-02  0.5105E-01  0.1389E-01  0.8695E-01  0.0000E+00  0.0000E+00  0.0000E+00  0.0000E+00  0.0000E+00
     -4.697  0.4349E-02  0.4501E-01  0.9351E-02  0.6628E-01  0.0000E+00  0.0000E+00  0.0000E+00  0.0000E+00  0.0000E+00
     -4.583  0.3948E-02  0.4470E-01  0.5636E-02  0.6228E-01  0.0000E+00  0.0000E+00  0.0000E+00  0.0000E+00  0.0000E+00
     -4.470  0.3552E-02  0.4573E-01  0.2493E-02  0.6159E-01  0.0000E+00  0.0000E+00  0.0000E+00  0.0000E+00  0.0000E+00
     -4.357  0.3156E-02  0.4775E-01  0.4244E-03  0.6284E-01  0.0000E+00  0.0000E+00  0.0000E+00  0.0000E+00  0.0000E+00
     -4.244  0.2755E-02  0.5095E-01  0.1532E-04  0.6601E-01  0.0000E+00  0.0000E+00  0.0000E+00  0.0000E+00  0.0000E+00
     -4.131  0.2339E-02  0.5602E-01  0.7744E-07  0.7192E-01  0.0000E+00  0.0000E+00  0.0000E+00  0.0000E+00  0.0000E+00
     -4.018  0.1895E-02  0.6508E-01  0.4269E-10  0.8327E-01  0.0000E+00  0.0000E+00  0.0000E+00  0.0000E+00  0.0000E+00
     -3.905  0.1381E-02  0.8711E-01  0.2318E-14  0.1118E+00  0.0000E+00  0.0000E+00  0.0000E+00  0.0000E+00  0.0000E+00
     -3.792  0.7156E-03  0.1159E+00  0.9514E-16  0.1490E+00  0.0000E+00  0.0000E+00  0.0000E+00  0.0000E+00  0.0000E+00