Lattice                                 
           1
     4.371696    2.524000    0.000000
    -4.371696    2.524000    0.000000
     0.000000    0.000000   15.000000
   B    C 
     2    14
Direct configuration=     1
   0.33833034  0.66916432  0.10000000
   0.67165522  0.33584146  0.10000000
   0.16373946  0.31999962  0.10000000
   0.32250218  0.16126397  0.10000000
   0.16376430  0.84376384  0.10000000
   0.84623863  0.16123684  0.10000000
   0.68749850  0.84373000  0.10000000
   0.84626736  0.68499594  0.10000000
   0.33333267  0.16666633  0.32553333
   0.49999967  0.99999933  0.32553333
   0.33333267  0.66666633  0.32553333
   0.49999967  0.49999933  0.32553333
   0.83333267  0.16666633  0.32553333
   0.99999967  0.99999933  0.32553333
   0.83333267  0.66666633  0.32553333
   0.99999967  0.49999933  0.32553333
Direct configuration=     2
   0.33834424  0.66917088  0.10017338
   0.67169287  0.33582124  0.09997922
   0.16685264  0.32623035  0.09994223
   0.32845907  0.16423862  0.10001502
   0.16688290  0.84064027  0.09994223
   0.84323301  0.16422547  0.10001457
   0.68126622  0.84063325  0.09994192
   0.84325767  0.67903216  0.10001456
   0.33337672  0.16668728  0.32554350
   0.50012671  0.00027116  0.32558687
   0.33332899  0.66666347  0.32532567
   0.50012671  0.49985669  0.32558686
   0.83331989  0.16669139  0.32553998
   0.00000492  0.00000303  0.32553241
   0.83331993  0.66662641  0.32554000
   0.99973284  0.49986699  0.32558825
Direct configuration=     3
   0.33833413  0.66916611  0.10004729
   0.67166549  0.33583594  0.09999433
   0.16458861  0.32169911  0.09998424
   0.32412698  0.16207533  0.10000410
   0.16461493  0.84291186  0.09998424
   0.84541882  0.16205202  0.10000398
   0.68579859  0.84288534  0.09998416
   0.84544644  0.68336927  0.10000397
   0.33334468  0.16667205  0.32553611
   0.50003432  0.00007348  0.32554793
   0.33333166  0.66666555  0.32547669
   0.50003432  0.49996043  0.32554793
   0.83332918  0.16667317  0.32553515
   0.00000110  0.00000034  0.32553308
   0.83332919  0.66665544  0.32553515
   0.99992689  0.49996323  0.32554831
Direct configuration=     4
   0.33833413  0.66916611  0.10004727
   0.67166548  0.33583595  0.09999434
   0.16458818  0.32169826  0.09998425
   0.32412616  0.16207492  0.10000409
   0.16461450  0.84291229  0.09998425
   0.84541924  0.16205161  0.10000397
   0.68579945  0.84288576  0.09998417
   0.84544685  0.68337008  0.10000397
   0.33334468  0.16667204  0.32553610
   0.50003430  0.00007344  0.32554793
   0.33333166  0.66666555  0.32547672
   0.50003430  0.49996045  0.32554793
   0.83332918  0.16667317  0.32553515
   0.00000110  0.00000034  0.32553308
   0.83332919  0.66665545  0.32553515
   0.99992692  0.49996325  0.32554830
Direct configuration=     5
   0.33833847  0.66916644  0.10015828
   0.67166861  0.33583243  0.09997857
   0.16458550  0.32169960  0.09995650
   0.32411612  0.16206407  0.10000546
   0.16460364  0.84290377  0.09995650
   0.84543471  0.16204960  0.10000511
   0.68579037  0.84289117  0.09995609
   0.84545095  0.68338502  0.10000511
   0.33335763  0.16667867  0.32554946
   0.50004531  0.00009477  0.32557513
   0.33333089  0.66666529  0.32534706
   0.50004531  0.49994989  0.32557512
   0.83332333  0.16668047  0.32554620
   0.00000321  0.00000128  0.32552954
   0.83332332  0.66664256  0.32554621
   0.99990795  0.49995365  0.32557632
Direct configuration=     6
   0.33833974  0.66916653  0.10019064
   0.67166952  0.33583141  0.09997397
   0.16458472  0.32169999  0.09994841
   0.32411319  0.16206091  0.10000585
   0.16460047  0.84290129  0.09994841
   0.84543922  0.16204901  0.10000544
   0.68578773  0.84289275  0.09994790
   0.84545214  0.68338937  0.10000545
   0.33336140  0.16668060  0.32555335
   0.50004852  0.00010098  0.32558305
   0.33333067  0.66666522  0.32530926
   0.50004852  0.49994681  0.32558305
   0.83332163  0.16668260  0.32554943
   0.00000382  0.00000155  0.32552851
   0.83332161  0.66663880  0.32554943
   0.99990242  0.49995085  0.32558449
Direct configuration=     7
   0.33831654  0.66916339  0.10025115
   0.67167249  0.33583866  0.09997847
   0.16461430  0.32168183  0.09996202
   0.32411774  0.16206763  0.09997875
   0.16461087  0.84291965  0.09996203
   0.84540843  0.16205639  0.09997800
   0.68582990  0.84290045  0.09996112
   0.84540898  0.68335939  0.09997800
   0.33333720  0.16666805  0.32557905
   0.50002561  0.00005401  0.32556418
   0.33333576  0.66666733  0.32526890
   0.50002558  0.49997179  0.32556418
   0.83333722  0.16666850  0.32557421
   0.00000077  0.00000049  0.32552693
   0.83333724  0.66666766  0.32557420
   0.99994670  0.49997343  0.32556547
Direct configuration=     8
   0.33832163  0.66916408  0.10023788
   0.67167184  0.33583707  0.09997748
   0.16460782  0.32168581  0.09995903
   0.32411675  0.16206616  0.09998470
   0.16460859  0.84291562  0.09995904
   0.84541519  0.16205477  0.09998402
   0.68582065  0.84289876  0.09995822
   0.84541845  0.68336597  0.09998402
   0.33334251  0.16667080  0.32557342
   0.50003063  0.00006432  0.32556832
   0.33333464  0.66666686  0.32527775
   0.50003061  0.49996631  0.32556832
   0.83333380  0.16667159  0.32556878
   0.00000144  0.00000072  0.32552728
   0.83333381  0.66666133  0.32556877
   0.99993699  0.49996848  0.32556964
Direct configuration=     9
   0.33834946  0.66916934  0.10029068
   0.67164600  0.33582931  0.09997968
   0.16454910  0.32169082  0.09997610
   0.32414716  0.16205499  0.09996085
   0.16455326  0.84288356  0.09997615
   0.84548042  0.16207044  0.09995970
   0.68576040  0.84289794  0.09997483
   0.84548483  0.68338641  0.09995970
   0.33335261  0.16667640  0.32559077
   0.50004519  0.00008908  0.32554397
   0.33333240  0.66666637  0.32525603
   0.50004525  0.49995511  0.32554397
   0.83332750  0.16667789  0.32558562
   0.00000603  0.00000252  0.32553817
   0.83332753  0.66664984  0.32558563
   0.99991821  0.49995864  0.32554482
Direct configuration=    10
   0.33833136  0.66916592  0.10025634
   0.67166281  0.33583436  0.09997825
   0.16458729  0.32168756  0.09996500
   0.32412738  0.16206226  0.09997636
   0.16458925  0.84290442  0.09996502
   0.84543799  0.16206025  0.09997552
   0.68579959  0.84289848  0.09996403
   0.84544165  0.68337312  0.09997552
   0.33334604  0.16667276  0.32557948
   0.50003572  0.00007297  0.32555981
   0.33333386  0.66666669  0.32527016
   0.50003573  0.49996240  0.32555981
   0.83333160  0.16667379  0.32557467
   0.00000305  0.00000135  0.32553108
   0.83333161  0.66665731  0.32557466
   0.99993042  0.49996504  0.32556096
Direct configuration=    11
   0.33833201  0.66916604  0.10025757
   0.67166220  0.33583417  0.09997830
   0.16458592  0.32168768  0.09996540
   0.32412809  0.16206199  0.09997580
   0.16458795  0.84290367  0.09996542
   0.84543952  0.16206062  0.09997495
   0.68579818  0.84289846  0.09996442
   0.84544321  0.68337359  0.09997495
   0.33334627  0.16667289  0.32557989
   0.50003606  0.00007355  0.32555924
   0.33333381  0.66666668  0.32526965
   0.50003607  0.49996213  0.32555924
   0.83333145  0.16667394  0.32557506
   0.00000315  0.00000139  0.32553134
   0.83333147  0.66665704  0.32557506
   0.99992998  0.49996481  0.32556038
Direct configuration=    12
   0.33833089  0.66916515  0.10027959
   0.67167293  0.33583083  0.09997470
   0.16460320  0.32170232  0.09997212
   0.32410105  0.16205344  0.09997155
   0.16460513  0.84289790  0.09997213
   0.84543252  0.16204819  0.09997034
   0.68579168  0.84289565  0.09997079
   0.84543192  0.68338872  0.09997034
   0.33336334  0.16668167  0.32557841
   0.50005244  0.00010523  0.32554864
   0.33333258  0.66666626  0.32526656
   0.50005243  0.49994646  0.32554863
   0.83332353  0.16668372  0.32557364
   0.00000630  0.00000279  0.32554623
   0.83332351  0.66663977  0.32557364
   0.99990189  0.49995057  0.32554937
Direct configuration=    13
   0.33833136  0.66916553  0.10027027
   0.67166839  0.33583224  0.09997622
   0.16459589  0.32169613  0.09996927
   0.32411249  0.16205706  0.09997335
   0.16459786  0.84290034  0.09996929
   0.84543548  0.16205345  0.09997229
   0.68579443  0.84289684  0.09996809
   0.84543669  0.68338232  0.09997229
   0.33335612  0.16667795  0.32557903
   0.50004551  0.00009183  0.32555312
   0.33333310  0.66666644  0.32526787
   0.50004551  0.49995309  0.32555312
   0.83332688  0.16667958  0.32557424
   0.00000497  0.00000220  0.32553993
   0.83332688  0.66664708  0.32557424
   0.99991378  0.49995659  0.32555403
Direct configuration=    14
   0.33832949  0.66916403  0.10028281
   0.67166815  0.33583265  0.09997140
   0.16459494  0.32169193  0.09997209
   0.32411456  0.16205776  0.09997604
   0.16459437  0.84290133  0.09997209
   0.84543259  0.16205618  0.09997462
   0.68579883  0.84289892  0.09997062
   0.84543180  0.68337702  0.09997465
   0.33335530  0.16667736  0.32557276
   0.50004234  0.00008524  0.32554789
   0.33333529  0.66666734  0.32526718
   0.50004234  0.49995696  0.32554789
   0.83333015  0.16667880  0.32556811
   0.00000470  0.00000229  0.32555194
   0.83333013  0.66665075  0.32556810
   0.99992034  0.49996010  0.32554849
Direct configuration=    15
   0.33832896  0.66916360  0.10028639
   0.67166808  0.33583277  0.09997003
   0.16459467  0.32169073  0.09997289
   0.32411516  0.16205797  0.09997681
   0.16459338  0.84290161  0.09997288
   0.84543176  0.16205695  0.09997529
   0.68580009  0.84289951  0.09997134
   0.84543041  0.68337550  0.09997532
   0.33335506  0.16667720  0.32557097
   0.50004144  0.00008337  0.32554639
   0.33333592  0.66666760  0.32526699
   0.50004143  0.49995807  0.32554639
   0.83333108  0.16667858  0.32556636
   0.00000462  0.00000231  0.32555536
   0.83333106  0.66665180  0.32556635
   0.99992221  0.49996110  0.32554690
Direct configuration=    16
   0.33833136  0.66916535  0.10028966
   0.67165983  0.33583148  0.09996918
   0.16458686  0.32169065  0.09997609
   0.32411996  0.16205650  0.09998068
   0.16458686  0.84289788  0.09997608
   0.84544010  0.16205741  0.09997886
   0.68579047  0.84289751  0.09997426
   0.84543987  0.68337815  0.09997889
   0.33335235  0.16667628  0.32556760
   0.50004488  0.00008537  0.32554351
   0.33333470  0.66666748  0.32526478
   0.50004488  0.49995865  0.32554351
   0.83333049  0.16667758  0.32556299
   0.00000776  0.00000344  0.32555359
   0.83333051  0.66665315  0.32556299
   0.99992446  0.49996180  0.32554401
Direct configuration=    17
   0.33833074  0.66916489  0.10028882
   0.67166197  0.33583182  0.09996940
   0.16458888  0.32169067  0.09997526
   0.32411871  0.16205688  0.09997968
   0.16458854  0.84289885  0.09997525
   0.84543794  0.16205729  0.09997793
   0.68579296  0.84289803  0.09997350
   0.84543742  0.68337746  0.09997797
   0.33335305  0.16667652  0.32556847
   0.50004399  0.00008485  0.32554426
   0.33333502  0.66666751  0.32526535
   0.50004399  0.49995850  0.32554426
   0.83333064  0.16667784  0.32556386
   0.00000695  0.00000315  0.32555405
   0.83333065  0.66665280  0.32556386
   0.99992388  0.49996162  0.32554476
Direct configuration=    18
   0.33832995  0.66916502  0.10028988
   0.67166081  0.33583152  0.09996948
   0.16458947  0.32169101  0.09997702
   0.32411754  0.16205623  0.09998168
   0.16458912  0.84289858  0.09997701
   0.84543741  0.16205634  0.09997978
   0.68579190  0.84289721  0.09997512
   0.84543705  0.68337796  0.09997981
   0.33335311  0.16667661  0.32556695
   0.50004512  0.00008587  0.32554288
   0.33333517  0.66666768  0.32526404
   0.50004512  0.49995848  0.32554288
   0.83333084  0.16667793  0.32556234
   0.00000781  0.00000351  0.32555207
   0.83333086  0.66665306  0.32556234
   0.99992405  0.49996165  0.32554340
Direct configuration=    19
   0.33832759  0.66916538  0.10029308
   0.67165733  0.33583063  0.09996970
   0.16459123  0.32169204  0.09998229
   0.32411400  0.16205427  0.09998770
   0.16459085  0.84289778  0.09998229
   0.84543583  0.16205348  0.09998532
   0.68578874  0.84289475  0.09997996
   0.84543594  0.68337946  0.09998533
   0.33335327  0.16667691  0.32556239
   0.50004850  0.00008895  0.32553876
   0.33333564  0.66666816  0.32526011
   0.50004851  0.49995844  0.32553876
   0.83333143  0.16667822  0.32555776
   0.00001039  0.00000462  0.32554614
   0.83333149  0.66665385  0.32555776
   0.99992458  0.49996174  0.32553932
Direct configuration=    20
   0.33832286  0.66916611  0.10029947
   0.67165037  0.33582884  0.09997016
   0.16459475  0.32169409  0.09999284
   0.32410694  0.16205035  0.09999972
   0.16459431  0.84289617  0.09999286
   0.84543266  0.16204777  0.09999641
   0.68578242  0.84288985  0.09998964
   0.84543373  0.68338244  0.09999639
   0.33335361  0.16667750  0.32555326
   0.50005528  0.00009509  0.32553051
   0.33333659  0.66666912  0.32525224
   0.50005528  0.49995836  0.32553052
   0.83333262  0.16667880  0.32554860
   0.00001556  0.00000682  0.32553429
   0.83333274  0.66665543  0.32554861
   0.99992563  0.49996191  0.32553116
Direct configuration=    21
   0.33831341  0.66916756  0.10031224
   0.67163644  0.33582527  0.09997107
   0.16460180  0.32169820  0.10001394
   0.32409280  0.16204253  0.10002376
   0.16460123  0.84289297  0.10001398
   0.84542633  0.16203634  0.10001859
   0.68576978  0.84288003  0.10000900
   0.84542929  0.68338842  0.10001849
   0.33335427  0.16667869  0.32553501
   0.50006882  0.00010738  0.32551402
   0.33333847  0.66667105  0.32523650
   0.50006882  0.49995820  0.32551403
   0.83333500  0.16667997  0.32553029
   0.00002590  0.00001123  0.32551058
   0.83333524  0.66665859  0.32553030
   0.99992773  0.49996226  0.32551485
Direct configuration=    22
   0.33831994  0.66916656  0.10030342
   0.67164606  0.33582774  0.09997044
   0.16459693  0.32169536  0.09999937
   0.32410257  0.16204793  0.10000715
   0.16459645  0.84289518  0.09999939
   0.84543070  0.16204423  0.10000327
   0.68577851  0.84288681  0.09999562
   0.84543236  0.68338429  0.10000322
   0.33335381  0.16667787  0.32554762
   0.50005946  0.00009889  0.32552542
   0.33333717  0.66666972  0.32524737
   0.50005946  0.49995831  0.32552542
   0.83333336  0.16667916  0.32554294
   0.00001876  0.00000818  0.32552696
   0.83333351  0.66665641  0.32554295
   0.99992628  0.49996202  0.32552612
Direct configuration=    23
   0.33831666  0.66916706  0.10030786
   0.67164122  0.33582650  0.09997075
   0.16459938  0.32169679  0.10000670
   0.32409765  0.16204522  0.10001551
   0.16459885  0.84289407  0.10000673
   0.84542850  0.16204026  0.10001097
   0.68577412  0.84288340  0.10000235
   0.84543082  0.68338637  0.10001090
   0.33335404  0.16667828  0.32554128
   0.50006417  0.00010316  0.32551969
   0.33333782  0.66667039  0.32524191
   0.50006417  0.49995825  0.32551969
   0.83333419  0.16667957  0.32553657
   0.00002235  0.00000971  0.32551872
   0.83333438  0.66665750  0.32553659
   0.99992701  0.49996214  0.32552045
Direct configuration=    24
   0.33831631  0.66916676  0.10030860
   0.67164115  0.33582637  0.09997111
   0.16459889  0.32169646  0.10000792
   0.32409740  0.16204512  0.10001675
   0.16459833  0.84289398  0.10000795
   0.84542804  0.16204028  0.10001211
   0.68577407  0.84288336  0.10000347
   0.84543039  0.68338597  0.10001204
   0.33335470  0.16667857  0.32554025
   0.50006420  0.00010311  0.32551875
   0.33333837  0.66667062  0.32524098
   0.50006420  0.49995843  0.32551875
   0.83333469  0.16667986  0.32553554
   0.00002244  0.00000981  0.32551739
   0.83333489  0.66665763  0.32553555
   0.99992724  0.49996231  0.32551952
Direct configuration=    25
   0.33831528  0.66916584  0.10031081
   0.67164093  0.33582601  0.09997217
   0.16459743  0.32169549  0.10001157
   0.32409665  0.16204484  0.10002048
   0.16459679  0.84289373  0.10001160
   0.84542666  0.16204033  0.10001553
   0.68577390  0.84288324  0.10000682
   0.84542912  0.68338479  0.10001545
   0.33335666  0.16667944  0.32553716
   0.50006430  0.00010297  0.32551593
   0.33334002  0.66667132  0.32523819
   0.50006430  0.49995898  0.32551593
   0.83333622  0.16668074  0.32553244
   0.00002271  0.00001011  0.32551340
   0.83333640  0.66665802  0.32553246
   0.99992796  0.49996282  0.32551672
Direct configuration=    26
   0.33831322  0.66916400  0.10031524
   0.67164050  0.33582527  0.09997431
   0.16459451  0.32169355  0.10001888
   0.32409514  0.16204429  0.10002794
   0.16459370  0.84289323  0.10001891
   0.84542391  0.16204043  0.10002237
   0.68577357  0.84288299  0.10001353
   0.84542657  0.68338243  0.10002226
   0.33336059  0.16668116  0.32553099
   0.50006449  0.00010270  0.32551028
   0.33334332  0.66667271  0.32523261
   0.50006449  0.49996007  0.32551029
   0.83333927  0.16668251  0.32552624
   0.00002324  0.00001069  0.32550541
   0.83333943  0.66665879  0.32552626
   0.99992938  0.49996385  0.32551113
Direct configuration=    27
   0.33830909  0.66916032  0.10032411
   0.67163964  0.33582381  0.09997857
   0.16458867  0.32168967  0.10003349
   0.32409212  0.16204317  0.10004286
   0.16458751  0.84289222  0.10003353
   0.84541839  0.16204063  0.10003604
   0.68577292  0.84288250  0.10002695
   0.84542148  0.68337771  0.10003590
   0.33336845  0.16668462  0.32551864
   0.50006487  0.00010215  0.32549900
   0.33334991  0.66667549  0.32522145
   0.50006488  0.49996225  0.32549901
   0.83334537  0.16668603  0.32551385
   0.00002432  0.00001187  0.32548945
   0.83334548  0.66666034  0.32551388
   0.99993222  0.49996589  0.32549995
Direct configuration=    28
   0.33831027  0.66915922  0.10032439
   0.67164167  0.33582391  0.09998070
   0.16458496  0.32168779  0.10003325
   0.32409449  0.16204464  0.10004181
   0.16458417  0.84289209  0.10003329
   0.84541876  0.16204272  0.10003502
   0.68577447  0.84288429  0.10002673
   0.84542128  0.68337548  0.10003488
   0.33336917  0.16668489  0.32551880
   0.50006337  0.00009990  0.32549909
   0.33335041  0.66667562  0.32522138
   0.50006338  0.49996321  0.32549910
   0.83334578  0.16668630  0.32551402
   0.00002363  0.00001164  0.32549013
   0.83334586  0.66666024  0.32551405
   0.99993366  0.49996672  0.32550002
Direct configuration=    29
   0.33831380  0.66915592  0.10032521
   0.67164776  0.33582423  0.09998711
   0.16457382  0.32168216  0.10003254
   0.32410163  0.16204903  0.10003866
   0.16457414  0.84289172  0.10003257
   0.84541987  0.16204900  0.10003196
   0.68577912  0.84288966  0.10002607
   0.84542066  0.68336881  0.10003183
   0.33337134  0.16668569  0.32551929
   0.50005885  0.00009315  0.32549937
   0.33335193  0.66667600  0.32522115
   0.50005886  0.49996608  0.32549938
   0.83334701  0.16668710  0.32551454
   0.00002157  0.00001098  0.32549220
   0.83334700  0.66665995  0.32551456
   0.99993798  0.49996919  0.32550024
Direct configuration=    30
   0.33832087  0.66914932  0.10032687
   0.67165993  0.33582486  0.09999992
   0.16455155  0.32167090  0.10003112
   0.32411589  0.16205780  0.10003234
   0.16455408  0.84289097  0.10003112
   0.84542209  0.16206156  0.10002583
   0.68578843  0.84290041  0.10002475
   0.84541943  0.68335546  0.10002574
   0.33337566  0.16668731  0.32552028
   0.50004982  0.00007965  0.32549993
   0.33335496  0.66667676  0.32522069
   0.50004982  0.49997183  0.32549993
   0.83334946  0.16668870  0.32551557
   0.00001745  0.00000964  0.32549632
   0.83334927  0.66665936  0.32551559
   0.99994662  0.49997412  0.32550067
Direct configuration=    31
   0.33831563  0.66915422  0.10032564
   0.67165090  0.33582439  0.09999041
   0.16456808  0.32167925  0.10003218
   0.32410531  0.16205129  0.10003703
   0.16456896  0.84289152  0.10003219
   0.84542044  0.16205225  0.10003038
   0.68578152  0.84289244  0.10002573
   0.84542034  0.68336537  0.10003026
   0.33337245  0.16668611  0.32551955
   0.50005652  0.00008967  0.32549952
   0.33335271  0.66667619  0.32522103
   0.50005652  0.49996757  0.32549952
   0.83334764  0.16668751  0.32551480
   0.00002051  0.00001063  0.32549326
   0.83334759  0.66665980  0.32551483
   0.99994021  0.49997046  0.32550035
Direct configuration=    32
   0.33831487  0.66915385  0.10032686
   0.67165251  0.33582431  0.09999549
   0.16457075  0.32167950  0.10003185
   0.32410314  0.16205157  0.10003561
   0.16457147  0.84289256  0.10003188
   0.84541736  0.16205097  0.10002899
   0.68578368  0.84289281  0.10002539
   0.84541648  0.68336479  0.10002889
   0.33337230  0.16668609  0.32551946
   0.50005684  0.00008965  0.32549918
   0.33335261  0.66667617  0.32522032
   0.50005684  0.49996777  0.32549918
   0.83334746  0.16668746  0.32551474
   0.00002087  0.00001075  0.32549413
   0.83334740  0.66665975  0.32551476
   0.99994074  0.49997066  0.32549996
Direct configuration=    33
   0.33831335  0.66915313  0.10032928
   0.67165572  0.33582415  0.10000559
   0.16457606  0.32168000  0.10003121
   0.32409882  0.16205211  0.10003279
   0.16457646  0.84289463  0.10003125
   0.84541122  0.16204842  0.10002622
   0.68578797  0.84289354  0.10002472
   0.84540880  0.68336364  0.10002616
   0.33337201  0.16668604  0.32551927
   0.50005748  0.00008962  0.32549849
   0.33335242  0.66667613  0.32521891
   0.50005748  0.49996818  0.32549850
   0.83334710  0.16668737  0.32551462
   0.00002160  0.00001099  0.32549585
   0.83334704  0.66665967  0.32551463
   0.99994180  0.49997106  0.32549919
Direct configuration=    34
   0.33831356  0.66915487  0.10033140
   0.67165113  0.33582344  0.10001135
   0.16457614  0.32168197  0.10003041
   0.32409835  0.16205008  0.10003236
   0.16457636  0.84289295  0.10003045
   0.84541484  0.16204716  0.10002582
   0.68578226  0.84289080  0.10002390
   0.84541356  0.68336727  0.10002577
   0.33337118  0.16668571  0.32551895
   0.50005965  0.00009277  0.32549766
   0.33335205  0.66667610  0.32521770
   0.50005965  0.49996694  0.32549766
   0.83334701  0.16668708  0.32551431
   0.00002263  0.00001136  0.32549631
   0.83334700  0.66666015  0.32551432
   0.99993995  0.49997001  0.32549831
Direct configuration=    35
   0.33831379  0.66915674  0.10033367
   0.67164619  0.33582268  0.10001755
   0.16457623  0.32168410  0.10002955
   0.32409784  0.16204789  0.10003191
   0.16457625  0.84289115  0.10002959
   0.84541873  0.16204581  0.10002538
   0.68577613  0.84288786  0.10002301
   0.84541869  0.68337118  0.10002535
   0.33337029  0.16668536  0.32551860
   0.50006197  0.00009615  0.32549676
   0.33335165  0.66667606  0.32521639
   0.50006198  0.49996561  0.32549677
   0.83334692  0.16668677  0.32551398
   0.00002374  0.00001176  0.32549680
   0.83334696  0.66666066  0.32551399
   0.99993796  0.49996888  0.32549737
Direct configuration=    36
   0.33831207  0.66915639  0.10033538
   0.67164607  0.33582305  0.10002041
   0.16457642  0.32168366  0.10002888
   0.32409735  0.16204735  0.10003303
   0.16457608  0.84289143  0.10002893
   0.84541786  0.16204611  0.10002648
   0.68577713  0.84288798  0.10002231
   0.84541820  0.68337013  0.10002647
   0.33337153  0.16668584  0.32551812
   0.50006145  0.00009571  0.32549582
   0.33335262  0.66667641  0.32521525
   0.50006147  0.49996580  0.32549582
   0.83334782  0.16668729  0.32551349
   0.00002340  0.00001173  0.32549638
   0.83334786  0.66666076  0.32551349
   0.99993801  0.49996904  0.32549641
Direct configuration=    37
   0.33830782  0.66915552  0.10033962
   0.67164576  0.33582398  0.10002749
   0.16457689  0.32168259  0.10002725
   0.32409615  0.16204601  0.10003580
   0.16457564  0.84289213  0.10002729
   0.84541570  0.16204685  0.10002921
   0.68577959  0.84288827  0.10002059
   0.84541698  0.68336754  0.10002924
   0.33337461  0.16668703  0.32551691
   0.50006016  0.00009461  0.32549348
   0.33335502  0.66667727  0.32521243
   0.50006018  0.49996627  0.32549348
   0.83335006  0.16668857  0.32551226
   0.00002254  0.00001164  0.32549532
   0.83335008  0.66666098  0.32551226
   0.99993815  0.49996944  0.32549406
Direct configuration=    38
   0.33830976  0.66915489  0.10034109
   0.67164629  0.33582284  0.10003026
   0.16457372  0.32168107  0.10002797
   0.32409705  0.16204795  0.10003776
   0.16457330  0.84289100  0.10002801
   0.84541553  0.16204709  0.10003112
   0.68577861  0.84288836  0.10002127
   0.84541539  0.68336725  0.10003115
   0.33337340  0.16668677  0.32551559
   0.50006198  0.00009455  0.32549189
   0.33335412  0.66667712  0.32521044
   0.50006199  0.49996748  0.32549189
   0.83334918  0.16668816  0.32551092
   0.00002468  0.00001237  0.32549393
   0.83334917  0.66666115  0.32551091
   0.99994117  0.49997061  0.32549248
Direct configuration=    39
   0.33831289  0.66915388  0.10034346
   0.67164714  0.33582102  0.10003471
   0.16456861  0.32167863  0.10002913
   0.32409851  0.16205108  0.10004091
   0.16456952  0.84288918  0.10002918
   0.84541526  0.16204747  0.10003418
   0.68577703  0.84288851  0.10002237
   0.84541284  0.68336680  0.10003424
   0.33337144  0.16668635  0.32551346
   0.50006490  0.00009446  0.32548933
   0.33335266  0.66667687  0.32520724
   0.50006490  0.49996944  0.32548932
   0.83334777  0.16668751  0.32550876
   0.00002813  0.00001356  0.32549168
   0.83334771  0.66666140  0.32550875
   0.99994602  0.49997250  0.32548994
Direct configuration=    40
   0.33831280  0.66915349  0.10034404
   0.67164717  0.33582085  0.10003592
   0.16456857  0.32167881  0.10002996
   0.32409776  0.16205069  0.10004190
   0.16456962  0.84288939  0.10003000
   0.84541445  0.16204676  0.10003513
   0.68577667  0.84288859  0.10002317
   0.84541204  0.68336662  0.10003520
   0.33337183  0.16668652  0.32551262
   0.50006516  0.00009467  0.32548844
   0.33335313  0.66667708  0.32520617
   0.50006515  0.49996954  0.32548844
   0.83334826  0.16668767  0.32550791
   0.00002836  0.00001370  0.32549081
   0.83334821  0.66666169  0.32550790
   0.99994617  0.49997260  0.32548906
Direct configuration=    41
   0.33831255  0.66915233  0.10034577
   0.67164727  0.33582034  0.10003954
   0.16456844  0.32167935  0.10003244
   0.32409551  0.16204950  0.10004487
   0.16456991  0.84289001  0.10003248
   0.84541201  0.16204465  0.10003800
   0.68577556  0.84288881  0.10002557
   0.84540965  0.68336607  0.10003808
   0.33337300  0.16668704  0.32551010
   0.50006595  0.00009530  0.32548579
   0.33335452  0.66667772  0.32520294
   0.50006592  0.49996985  0.32548578
   0.83334974  0.16668816  0.32550536
   0.00002903  0.00001411  0.32548819
   0.83334968  0.66666254  0.32550535
   0.99994659  0.49997289  0.32548642
Direct configuration=    42
   0.33831205  0.66915000  0.10034924
   0.67164746  0.33581932  0.10004678
   0.16456818  0.32168042  0.10003739
   0.32409100  0.16204714  0.10005082
   0.16457049  0.84289126  0.10003744
   0.84540715  0.16204042  0.10004373
   0.68577336  0.84288925  0.10003037
   0.84540486  0.68336499  0.10004384
   0.33337534  0.16668808  0.32550505
   0.50006752  0.00009656  0.32548048
   0.33335731  0.66667899  0.32519648
   0.50006745  0.49997047  0.32548046
   0.83335269  0.16668913  0.32550025
   0.00003038  0.00001493  0.32548296
   0.83335264  0.66666426  0.32550025
   0.99994745  0.49997346  0.32548114
Direct configuration=    43
   0.33831104  0.66914533  0.10035618
   0.67164785  0.33581728  0.10006126
   0.16456767  0.32168257  0.10004730
   0.32408200  0.16204240  0.10006270
   0.16457166  0.84289377  0.10004736
   0.84539742  0.16203195  0.10005519
   0.68576896  0.84289014  0.10003997
   0.84539529  0.68336281  0.10005536
   0.33338002  0.16669016  0.32549494
   0.50007066  0.00009909  0.32546985
   0.33336289  0.66668153  0.32518357
   0.50007052  0.49997171  0.32546982
   0.83335859  0.16669107  0.32549005
   0.00003307  0.00001657  0.32547249
   0.83335855  0.66666768  0.32549004
   0.99994915  0.49997462  0.32547058
Direct configuration=    44
   0.33831026  0.66914538  0.10035700
   0.67164689  0.33581700  0.10006272
   0.16456688  0.32168201  0.10004857
   0.32408186  0.16204236  0.10006399
   0.16457071  0.84289296  0.10004863
   0.84539763  0.16203233  0.10005643
   0.68576816  0.84288934  0.10004120
   0.84539567  0.68336295  0.10005660
   0.33338075  0.16669049  0.32549375
   0.50007102  0.00009940  0.32546863
   0.33336351  0.66668181  0.32518219
   0.50007088  0.49997184  0.32546860
   0.83335919  0.16669142  0.32548885
   0.00003340  0.00001677  0.32547128
   0.83335916  0.66666787  0.32548884
   0.99994935  0.49997475  0.32546937
Direct configuration=    45
   0.33830794  0.66914552  0.10035946
   0.67164399  0.33581615  0.10006711
   0.16456452  0.32168031  0.10005238
   0.32408146  0.16204222  0.10006785
   0.16456787  0.84289053  0.10005245
   0.84539826  0.16203346  0.10006015
   0.68576577  0.84288695  0.10004490
   0.84539681  0.68336335  0.10006034
   0.33338293  0.16669148  0.32549017
   0.50007211  0.00010032  0.32546498
   0.33336537  0.66668267  0.32517804
   0.50007197  0.49997225  0.32546495
   0.83336101  0.16669248  0.32548525
   0.00003439  0.00001737  0.32546765
   0.83336098  0.66666844  0.32548524
   0.99994995  0.49997517  0.32546573
Direct configuration=    46
   0.33830331  0.66914581  0.10036438
   0.67163821  0.33581446  0.10007590
   0.16455980  0.32167691  0.10006001
   0.32408066  0.16204194  0.10007558
   0.16456217  0.84288569  0.10006008
   0.84539952  0.16203574  0.10006759
   0.68576098  0.84288215  0.10005231
   0.84539908  0.68336416  0.10006781
   0.33338730  0.16669346  0.32548301
   0.50007429  0.00010216  0.32545767
   0.33336909  0.66668437  0.32516975
   0.50007416  0.49997306  0.32545764
   0.83336464  0.16669460  0.32547805
   0.00003636  0.00001858  0.32546039
   0.83336462  0.66666958  0.32547804
   0.99995115  0.49997600  0.32545845
Direct configuration=    47
   0.33829403  0.66914639  0.10037421
   0.67162664  0.33581106  0.10009346
   0.16455037  0.32167012  0.10007526
   0.32407905  0.16204139  0.10009103
   0.16455079  0.84287599  0.10007535
   0.84540204  0.16204028  0.10008248
   0.68575141  0.84287257  0.10006712
   0.84540362  0.68336579  0.10008276
   0.33339604  0.16669743  0.32546870
   0.50007865  0.00010584  0.32544306
   0.33337652  0.66668779  0.32515318
   0.50007853  0.49997467  0.32544303
   0.83337190  0.16669883  0.32546365