       N       E                     dE             d eps       ncg     rms          rms(c)
DAV:   1     0.260377858519E+03    0.26038E+03   -0.28614E+04 14208   0.964E+02
DAV:   2    -0.129823830045E+03   -0.39020E+03   -0.38970E+03 21840   0.180E+02
DAV:   3    -0.145627494868E+03   -0.15804E+02   -0.15784E+02 25872   0.501E+01
DAV:   4    -0.145673016038E+03   -0.45521E-01   -0.45509E-01 21888   0.247E+00
DAV:   5    -0.145673093969E+03   -0.77931E-04   -0.77932E-04 24000   0.106E-01    0.249E+01
DAV:   6    -0.107174107640E+03    0.38499E+02   -0.68117E+01 23472   0.266E+01    0.145E+01
DAV:   7    -0.114405508708E+03   -0.72314E+01   -0.10050E+01 23376   0.110E+01    0.854E+00
DAV:   8    -0.123613890482E+03   -0.92084E+01   -0.82253E+00 24816   0.905E+00    0.457E+00
DAV:   9    -0.131407969155E+03   -0.77941E+01   -0.42702E+00 17280   0.711E+00    0.301E+00
DAV:  10    -0.138570249046E+03   -0.71623E+01   -0.98566E+00 21312   0.783E+00    0.172E+00
DAV:  11    -0.140044155876E+03   -0.14739E+01   -0.17685E+00 21264   0.357E+00    0.116E+00
DAV:  12    -0.140294357452E+03   -0.25020E+00   -0.29631E-01 20352   0.155E+00    0.470E-01
DAV:  13    -0.140346809448E+03   -0.52452E-01   -0.44749E-02 16704   0.825E-01    0.198E-01
DAV:  14    -0.140371618754E+03   -0.24809E-01   -0.79320E-03 18816   0.323E-01    0.951E-02
DAV:  15    -0.140380591263E+03   -0.89725E-02   -0.53139E-03 18240   0.181E-01    0.471E-02
DAV:  16    -0.140382008674E+03   -0.14174E-02   -0.52822E-04 14736   0.924E-02    0.267E-02
DAV:  17    -0.140383742135E+03   -0.17335E-02   -0.23940E-04 16080   0.630E-02    0.174E-02
DAV:  18    -0.140384784338E+03   -0.10422E-02   -0.11629E-04 15360   0.467E-02    0.123E-02
DAV:  19    -0.140385291906E+03   -0.50757E-03   -0.71174E-05 18960   0.380E-02    0.780E-03
DAV:  20    -0.140385448193E+03   -0.15629E-03   -0.24176E-05 15840   0.238E-02    0.448E-03
DAV:  21    -0.140385492654E+03   -0.44462E-04   -0.10330E-05 18240   0.146E-02    0.267E-03
DAV:  22    -0.140385497779E+03   -0.51243E-05   -0.34122E-06 24192   0.833E-03    0.190E-03
DAV:  23    -0.140385504638E+03   -0.68598E-05   -0.14655E-06 20112   0.477E-03    0.883E-04
DAV:  24    -0.140385508348E+03   -0.37100E-05   -0.41700E-07 21504   0.240E-03    0.501E-04
DAV:  25    -0.140385510042E+03   -0.16937E-05   -0.10091E-07 20928   0.112E-03    0.261E-04
DAV:  26    -0.140385511052E+03   -0.10102E-05   -0.72852E-08 18432   0.869E-04    0.128E-04
DAV:  27    -0.140385511374E+03   -0.32171E-06   -0.21034E-08 17568   0.497E-04
   1 F= -.14227089E+03 E0= -.14226982E+03  d E =-.142271E+03  mag=     0.0000
       N       E                     dE             d eps       ncg     rms          rms(c)
DAV:   1    -0.140345931521E+03    0.39580E-01   -0.14356E+01 14208   0.128E+01    0.108E+00
DAV:   2    -0.140311672097E+03    0.34259E-01   -0.24965E-01 24816   0.176E+00    0.522E-01
DAV:   3    -0.140308252079E+03    0.34200E-02   -0.34195E-02 23040   0.580E-01    0.224E-01
DAV:   4    -0.140308193978E+03    0.58101E-04   -0.37941E-03 18096   0.189E-01    0.888E-02
DAV:   5    -0.140308194968E+03   -0.98986E-06   -0.26147E-04 20832   0.610E-02    0.235E-02
DAV:   6    -0.140308200581E+03   -0.56131E-05   -0.26661E-05 22032   0.186E-02    0.125E-02
DAV:   7    -0.140308210263E+03   -0.96822E-05   -0.15865E-05 20928   0.129E-02    0.284E-03
DAV:   8    -0.140308219423E+03   -0.91595E-05   -0.16260E-06 22272   0.415E-03    0.158E-03
DAV:   9    -0.140308233982E+03   -0.14559E-04   -0.15185E-06 18720   0.257E-03    0.966E-04
DAV:  10    -0.140308239649E+03   -0.56671E-05   -0.36431E-07 20064   0.120E-03    0.699E-04
DAV:  11    -0.140308245825E+03   -0.61757E-05   -0.64182E-07 18144   0.141E-03    0.353E-04
DAV:  12    -0.140308247835E+03   -0.20106E-05   -0.17742E-07 17328   0.676E-04    0.241E-04
DAV:  13    -0.140308248302E+03   -0.46710E-06   -0.26112E-08 20400   0.307E-04
   2 F= -.14219791E+03 E0= -.14219648E+03  d E =0.729751E-01  mag=    -0.0000
       N       E                     dE             d eps       ncg     rms          rms(c)
DAV:   1    -0.140415653282E+03   -0.10741E+00   -0.75407E+00 14208   0.926E+00    0.783E-01
DAV:   2    -0.140398340347E+03    0.17313E-01   -0.12877E-01 23808   0.129E+00    0.379E-01
DAV:   3    -0.140396347335E+03    0.19930E-02   -0.20971E-02 23136   0.441E-01    0.153E-01
DAV:   4    -0.140396266615E+03    0.80720E-04   -0.23281E-03 18336   0.149E-01    0.683E-02
DAV:   5    -0.140396259132E+03    0.74827E-05   -0.19102E-04 17520   0.524E-02    0.122E-02
DAV:   6    -0.140396256725E+03    0.24074E-05   -0.38078E-05 22464   0.215E-02    0.619E-03
DAV:   7    -0.140396260762E+03   -0.40367E-05   -0.34860E-06 22560   0.661E-03    0.136E-03
DAV:   8    -0.140396266504E+03   -0.57423E-05   -0.47787E-07 21024   0.215E-03    0.852E-04
DAV:   9    -0.140396272318E+03   -0.58139E-05   -0.32119E-07 19584   0.123E-03    0.746E-04
DAV:  10    -0.140396276381E+03   -0.40637E-05   -0.17726E-07 17184   0.830E-04    0.523E-04
DAV:  11    -0.140396280591E+03   -0.42094E-05   -0.32656E-07 14736   0.922E-04    0.243E-04
DAV:  12    -0.140396281103E+03   -0.51218E-06   -0.12631E-08 23520   0.228E-04
   3 F= -.14228309E+03 E0= -.14228191E+03  d E =-.122023E-01  mag=    -0.0000
       N       E                     dE             d eps       ncg     rms          rms(c)
DAV:   1    -0.140396448259E+03   -0.16767E-03   -0.16156E-02 14208   0.552E-01    0.243E-02
DAV:   2    -0.140396451083E+03   -0.28236E-05   -0.12024E-04 25440   0.483E-02    0.160E-02
DAV:   3    -0.140396454282E+03   -0.31992E-05   -0.16081E-05 14208   0.160E-02    0.335E-03
DAV:   4    -0.140396454208E+03    0.74504E-07   -0.28013E-06 24096   0.673E-03
   4 F= -.14228323E+03 E0= -.14228205E+03  d E =-.140374E-03  mag=     0.0000
       N       E                     dE             d eps       ncg     rms          rms(c)
DAV:   1    -0.140396474912E+03   -0.20630E-04   -0.19251E-03 14400   0.190E-01    0.858E-03
DAV:   2    -0.140396475014E+03   -0.10155E-06   -0.14675E-05 23136   0.170E-02    0.570E-03
DAV:   3    -0.140396475830E+03   -0.81629E-06   -0.19775E-06 14784   0.569E-03
   5 F= -.14228324E+03 E0= -.14228207E+03  d E =-.150750E-03  mag=    -0.0000
       N       E                     dE             d eps       ncg     rms          rms(c)
DAV:   1    -0.140396467562E+03    0.74523E-05   -0.19259E-02 14592   0.621E-01    0.311E-02
DAV:   2    -0.140396468839E+03   -0.12771E-05   -0.25617E-04 15168   0.728E-02    0.196E-02
DAV:   3    -0.140396468161E+03    0.67732E-06   -0.39676E-05 17376   0.265E-02    0.717E-03
DAV:   4    -0.140396468174E+03   -0.12866E-07   -0.82508E-06 22800   0.109E-02
   6 F= -.14228319E+03 E0= -.14228202E+03  d E =0.521690E-04  mag=     0.0000
       N       E                     dE             d eps       ncg     rms          rms(c)
DAV:   1    -0.140396517306E+03   -0.49144E-04   -0.78897E-03 17280   0.397E-01    0.204E-02
DAV:   2    -0.140396516060E+03    0.12457E-05   -0.10363E-04 14784   0.463E-02    0.125E-02
DAV:   3    -0.140396515668E+03    0.39187E-06   -0.15839E-05 15552   0.168E-02    0.448E-03
DAV:   4    -0.140396515844E+03   -0.17602E-06   -0.32653E-06 21072   0.682E-03
   7 F= -.14228327E+03 E0= -.14228209E+03  d E =-.239314E-04  mag=    -0.0000
       N       E                     dE             d eps       ncg     rms          rms(c)
DAV:   1    -0.140396551914E+03   -0.36246E-04   -0.27655E-03 15456   0.234E-01    0.117E-02
DAV:   2    -0.140396551881E+03    0.32946E-07   -0.37802E-05 15552   0.272E-02    0.743E-03
DAV:   3    -0.140396552109E+03   -0.22739E-06   -0.44097E-06 18816   0.872E-03
   8 F= -.14228327E+03 E0= -.14228210E+03  d E =-.372863E-05  mag=     0.0000
       N       E                     dE             d eps       ncg     rms          rms(c)
DAV:   1    -0.140396541941E+03    0.99401E-05   -0.51213E-04 15456   0.101E-01    0.429E-03
DAV:   2    -0.140396542061E+03   -0.11932E-06   -0.69449E-06 14208   0.115E-02
   9 F= -.14228327E+03 E0= -.14228210E+03  d E =-.780015E-05  mag=    -0.0000
       N       E                     dE             d eps       ncg     rms          rms(c)
DAV:   1    -0.140396589162E+03   -0.47221E-04   -0.18768E-03 14208   0.193E-01    0.818E-03
DAV:   2    -0.140396589421E+03   -0.25923E-06   -0.16972E-05 14688   0.184E-02    0.537E-03
DAV:   3    -0.140396589719E+03   -0.29807E-06   -0.15641E-06 18528   0.502E-03
  10 F= -.14228328E+03 E0= -.14228211E+03  d E =-.101466E-04  mag=     0.0000
       N       E                     dE             d eps       ncg     rms          rms(c)
DAV:   1    -0.140396604399E+03   -0.14978E-04   -0.25300E-04 15552   0.712E-02    0.341E-03
DAV:   2    -0.140396604350E+03    0.48510E-07   -0.22370E-06 16224   0.669E-03
  11 F= -.14228329E+03 E0= -.14228211E+03  d E =-.110404E-04  mag=    -0.0000
       N       E                     dE             d eps       ncg     rms          rms(c)
DAV:   1    -0.140396657694E+03   -0.53295E-04   -0.18817E-03 14208   0.194E-01    0.884E-03
DAV:   2    -0.140396657847E+03   -0.15306E-06   -0.18144E-05 14208   0.192E-02    0.575E-03
DAV:   3    -0.140396657974E+03   -0.12678E-06   -0.17142E-06 15744   0.546E-03
  12 F= -.14228329E+03 E0= -.14228212E+03  d E =-.810838E-05  mag=    -0.0000
       N       E                     dE             d eps       ncg     rms          rms(c)
DAV:   1    -0.140396673467E+03   -0.15621E-04   -0.20154E-04 16032   0.633E-02    0.314E-03
DAV:   2    -0.140396673453E+03    0.14438E-07   -0.18128E-06 15936   0.611E-03
  13 F= -.14228329E+03 E0= -.14228212E+03  d E =-.876644E-05  mag=    -0.0000
       N       E                     dE             d eps       ncg     rms          rms(c)
DAV:   1    -0.140396726547E+03   -0.53080E-04   -0.12742E-03 14208   0.160E-01    0.723E-03
DAV:   2    -0.140396726725E+03   -0.17714E-06   -0.11682E-05 14208   0.150E-02    0.488E-03
DAV:   3    -0.140396726907E+03   -0.18234E-06   -0.89414E-07 16800   0.386E-03
  14 F= -.14228330E+03 E0= -.14228213E+03  d E =-.858491E-05  mag=     0.0000
       N       E                     dE             d eps       ncg     rms          rms(c)
DAV:   1    -0.140396877866E+03   -0.15114E-03   -0.11538E-02 14208   0.482E-01    0.212E-02
DAV:   2    -0.140396880591E+03   -0.27252E-05   -0.10313E-04 14208   0.445E-02    0.142E-02
DAV:   3    -0.140396880946E+03   -0.35536E-06   -0.76658E-06 15744   0.111E-02
  15 F= -.14228332E+03 E0= -.14228215E+03  d E =-.281515E-04  mag=     0.0000
       N       E                     dE             d eps       ncg     rms          rms(c)
DAV:   1    -0.140397148227E+03   -0.26764E-03   -0.46163E-02 14208   0.964E-01    0.425E-02
DAV:   2    -0.140397162452E+03   -0.14225E-04   -0.41075E-04 15264   0.886E-02    0.285E-02
DAV:   3    -0.140397160855E+03    0.15978E-05   -0.30235E-05 14976   0.220E-02    0.669E-03
DAV:   4    -0.140397161544E+03   -0.68934E-06   -0.34680E-06 19920   0.710E-03
  16 F= -.14228333E+03 E0= -.14228216E+03  d E =-.399510E-04  mag=     0.0000
       N       E                     dE             d eps       ncg     rms          rms(c)
DAV:   1    -0.140397187814E+03   -0.26959E-04   -0.33324E-04 14400   0.815E-02    0.376E-03
DAV:   2    -0.140397187902E+03   -0.88555E-07   -0.33643E-06 15456   0.818E-03
  17 F= -.14228334E+03 E0= -.14228216E+03  d E =-.363845E-05  mag=    -0.0000
       N       E                     dE             d eps       ncg     rms          rms(c)
DAV:   1    -0.140397265990E+03   -0.78176E-04   -0.29340E-03 14208   0.242E-01    0.112E-02
DAV:   2    -0.140397266544E+03   -0.55440E-06   -0.26809E-05 14208   0.227E-02    0.755E-03
DAV:   3    -0.140397266763E+03   -0.21855E-06   -0.20389E-06 14592   0.613E-03
  18 F= -.14228335E+03 E0= -.14228217E+03  d E =-.142562E-04  mag=     0.0000
       N       E                     dE             d eps       ncg     rms          rms(c)
DAV:   1    -0.140397418767E+03   -0.15222E-03   -0.11785E-02 14208   0.485E-01    0.215E-02
DAV:   2    -0.140397422006E+03   -0.32390E-05   -0.10633E-04 14208   0.453E-02    0.146E-02
DAV:   3    -0.140397422141E+03   -0.13461E-06   -0.75714E-06 14208   0.114E-02
  19 F= -.14228337E+03 E0= -.14228219E+03  d E =-.331871E-04  mag=    -0.0000
       N       E                     dE             d eps       ncg     rms          rms(c)
DAV:   1    -0.140397713669E+03   -0.29166E-03   -0.47140E-02 14208   0.970E-01    0.431E-02
DAV:   2    -0.140397728668E+03   -0.14999E-04   -0.42182E-04 14400   0.899E-02    0.291E-02
DAV:   3    -0.140397726895E+03    0.17727E-05   -0.30083E-05 14208   0.224E-02    0.700E-03
DAV:   4    -0.140397727600E+03   -0.70468E-06   -0.36369E-06 14400   0.832E-03
  20 F= -.14228340E+03 E0= -.14228221E+03  d E =-.658137E-04  mag=    -0.0000
       N       E                     dE             d eps       ncg     rms          rms(c)
DAV:   1    -0.140398262470E+03   -0.53558E-03   -0.18860E-01 14208   0.194E+00    0.859E-02
DAV:   2    -0.140398321497E+03   -0.59027E-04   -0.16816E-03 15360   0.179E-01    0.577E-02
DAV:   3    -0.140398310989E+03    0.10508E-04   -0.12097E-04 14592   0.440E-02    0.137E-02
DAV:   4    -0.140398312973E+03   -0.19837E-05   -0.13821E-05 15648   0.152E-02    0.502E-03
DAV:   5    -0.140398313090E+03   -0.11789E-06   -0.19731E-06 14592   0.703E-03
  21 F= -.14228344E+03 E0= -.14228225E+03  d E =-.106310E-03  mag=     0.0000
       N       E                     dE             d eps       ncg     rms          rms(c)
DAV:   1    -0.140398496301E+03   -0.18333E-03   -0.13226E-02 16608   0.515E-01    0.226E-02
DAV:   2    -0.140398498946E+03   -0.26456E-05   -0.10810E-04 16512   0.448E-02    0.149E-02
DAV:   3    -0.140398498898E+03    0.47840E-07   -0.90224E-06 17424   0.119E-02
  22 F= -.14228348E+03 E0= -.14228229E+03  d E =-.417436E-04  mag=    -0.0000
       N       E                     dE             d eps       ncg     rms          rms(c)
DAV:   1    -0.140398977948E+03   -0.47900E-03   -0.11893E-01 14208   0.155E+00    0.677E-02
DAV:   2    -0.140399017893E+03   -0.39945E-04   -0.10510E-03 14784   0.142E-01    0.457E-02
DAV:   3    -0.140399011671E+03    0.62220E-05   -0.73333E-05 14304   0.348E-02    0.110E-02
DAV:   4    -0.140399013044E+03   -0.13734E-05   -0.83929E-06 15168   0.115E-02    0.387E-03
DAV:   5    -0.140399013150E+03   -0.10556E-06   -0.12090E-06 15024   0.507E-03
  23 F= -.14228356E+03 E0= -.14228237E+03  d E =-.124143E-03  mag=     0.0000
       N       E                     dE             d eps       ncg     rms          rms(c)
DAV:   1    -0.140399707233E+03   -0.69419E-03   -0.47525E-01 14208   0.309E+00    0.134E-01
DAV:   2    -0.140399872298E+03   -0.16507E-03   -0.42048E-03 16032   0.284E-01    0.906E-02
DAV:   3    -0.140399835705E+03    0.36593E-04   -0.29479E-04 15648   0.687E-02    0.217E-02
DAV:   4    -0.140399839333E+03   -0.36274E-05   -0.32934E-05 18816   0.219E-02    0.756E-03
DAV:   5    -0.140399839589E+03   -0.25642E-06   -0.37615E-06 14208   0.753E-03
  24 F= -.14228353E+03 E0= -.14228232E+03  d E =-.885471E-04  mag=    -0.0000
       N       E                     dE             d eps       ncg     rms          rms(c)
DAV:   1    -0.140399301579E+03    0.53775E-03   -0.18583E-01 14208   0.193E+00    0.840E-02
DAV:   2    -0.140399366969E+03   -0.65390E-04   -0.16680E-03 20784   0.178E-01    0.574E-02
DAV:   3    -0.140399351321E+03    0.15648E-04   -0.10744E-04 18144   0.394E-02    0.125E-02
DAV:   4    -0.140399352638E+03   -0.13168E-05   -0.13517E-05 14304   0.150E-02    0.464E-03
DAV:   5    -0.140399352852E+03   -0.21445E-06   -0.17811E-06 14208   0.670E-03
  25 F= -.14228358E+03 E0= -.14228238E+03  d E =-.140643E-03  mag=     0.0000
       N       E                     dE             d eps       ncg     rms          rms(c)
DAV:   1    -0.140399540829E+03   -0.18819E-03   -0.17186E-02 14976   0.588E-01    0.254E-02
DAV:   2    -0.140399545549E+03   -0.47196E-05   -0.14978E-04 14208   0.536E-02    0.172E-02
DAV:   3    -0.140399545120E+03    0.42912E-06   -0.10893E-05 14976   0.137E-02    0.427E-03
DAV:   4    -0.140399545422E+03   -0.30205E-06   -0.14607E-06 14208   0.580E-03
  26 F= -.14228361E+03 E0= -.14228241E+03  d E =-.319550E-04  mag=     0.0000
       N       E                     dE             d eps       ncg     rms          rms(c)
DAV:   1    -0.140400030154E+03   -0.48503E-03   -0.15479E-01 14208   0.177E+00    0.765E-02
DAV:   2    -0.140400084032E+03   -0.53878E-04   -0.13619E-03 15504   0.162E-01    0.519E-02
DAV:   3    -0.140400074689E+03    0.93434E-05   -0.92484E-05 14304   0.388E-02    0.126E-02
DAV:   4    -0.140400076289E+03   -0.16006E-05   -0.10472E-05 15168   0.127E-02    0.434E-03
DAV:   5    -0.140400076306E+03   -0.17114E-07   -0.13720E-06 15456   0.514E-03
  27 F= -.14228366E+03 E0= -.14228245E+03  d E =-.813625E-04  mag=     0.0000
       N       E                     dE             d eps       ncg     rms          rms(c)
DAV:   1    -0.140400190600E+03   -0.11431E-03   -0.88863E-03 14880   0.423E-01    0.182E-02
DAV:   2    -0.140400193170E+03   -0.25703E-05   -0.79038E-05 14496   0.389E-02    0.123E-02
DAV:   3    -0.140400193181E+03   -0.10771E-07   -0.56044E-06 14400   0.992E-03
  28 F= -.14228366E+03 E0= -.14228245E+03  d E =-.829367E-04  mag=     0.0000
       N       E                     dE             d eps       ncg     rms          rms(c)
DAV:   1    -0.140400265875E+03   -0.72705E-04   -0.26612E-03 14208   0.232E-01    0.104E-02
DAV:   2    -0.140400266771E+03   -0.89671E-06   -0.23727E-05 14304   0.219E-02    0.713E-03
DAV:   3    -0.140400266897E+03   -0.12586E-06   -0.15773E-06 14208   0.609E-03
  29 F= -.14228369E+03 E0= -.14228247E+03  d E =-.215036E-04  mag=    -0.0000
       N       E                     dE             d eps       ncg     rms          rms(c)
DAV:   1    -0.140400448868E+03   -0.18210E-03   -0.23910E-02 14208   0.696E-01    0.300E-02
DAV:   2    -0.140400457078E+03   -0.82095E-05   -0.20964E-04 14304   0.642E-02    0.204E-02
DAV:   3    -0.140400456510E+03    0.56770E-06   -0.13599E-05 14208   0.159E-02    0.555E-03
DAV:   4    -0.140400456879E+03   -0.36939E-06   -0.18060E-06 14304   0.648E-03
  30 F= -.14228372E+03 E0= -.14228250E+03  d E =-.548023E-04  mag=    -0.0000
       N       E                     dE             d eps       ncg     rms          rms(c)
DAV:   1    -0.140400544852E+03   -0.88342E-04   -0.46797E-03 14208   0.311E-01    0.132E-02
DAV:   2    -0.140400546595E+03   -0.17428E-05   -0.42711E-05 14208   0.291E-02    0.909E-03
DAV:   3    -0.140400546621E+03   -0.26299E-07   -0.25368E-06 15264   0.746E-03
  31 F= -.14228375E+03 E0= -.14228253E+03  d E =-.278865E-04  mag=     0.0000
       N       E                     dE             d eps       ncg     rms          rms(c)
DAV:   1    -0.140400605618E+03   -0.59023E-04   -0.33613E-03 14208   0.263E-01    0.112E-02
DAV:   2    -0.140400606890E+03   -0.12720E-05   -0.30283E-05 14208   0.247E-02    0.768E-03
DAV:   3    -0.140400606905E+03   -0.15624E-07   -0.18473E-06 15264   0.665E-03
  32 F= -.14228375E+03 E0= -.14228254E+03  d E =-.356576E-04  mag=    -0.0000
       N       E                     dE             d eps       ncg     rms          rms(c)
DAV:   1    -0.140400666051E+03   -0.59161E-04   -0.34220E-03 14208   0.266E-01    0.111E-02
DAV:   2    -0.140400667362E+03   -0.13107E-05   -0.30074E-05 14208   0.249E-02    0.765E-03
DAV:   3    -0.140400667277E+03    0.84427E-07   -0.20653E-06 15456   0.708E-03
  33 F= -.14228377E+03 E0= -.14228255E+03  d E =-.153316E-04  mag=     0.0000
       N       E                     dE             d eps       ncg     rms          rms(c)
DAV:   1    -0.140400725132E+03   -0.57770E-04   -0.47293E-03 14208   0.312E-01    0.130E-02
DAV:   2    -0.140400727020E+03   -0.18885E-05   -0.41484E-05 14208   0.292E-02    0.899E-03
DAV:   3    -0.140400726915E+03    0.10534E-06   -0.28035E-06 15360   0.816E-03
  34 F= -.14228378E+03 E0= -.14228256E+03  d E =-.220719E-04  mag=    -0.0000
       N       E                     dE             d eps       ncg     rms          rms(c)
DAV:   1    -0.140400773634E+03   -0.46614E-04   -0.44282E-03 14208   0.301E-01    0.127E-02
DAV:   2    -0.140400775484E+03   -0.18502E-05   -0.36861E-05 14208   0.274E-02    0.886E-03
DAV:   3    -0.140400775306E+03    0.17888E-06   -0.25730E-06 15552   0.809E-03
  35 F= -.14228380E+03 E0= -.14228258E+03  d E =-.204344E-04  mag=     0.0000
       N       E                     dE             d eps       ncg     rms          rms(c)
DAV:   1    -0.140400852286E+03   -0.76801E-04   -0.24668E-02 14208   0.710E-01    0.295E-02
DAV:   2    -0.140400862871E+03   -0.10585E-04   -0.20182E-04 14976   0.634E-02    0.205E-02
DAV:   3    -0.140400861919E+03    0.95182E-06   -0.12297E-05 14976   0.158E-02    0.510E-03
DAV:   4    -0.140400862285E+03   -0.36579E-06   -0.21418E-06 14208   0.799E-03
  36 F= -.14228382E+03 E0= -.14228259E+03  d E =-.415798E-04  mag=     0.0000
       N       E                     dE             d eps       ncg     rms          rms(c)
DAV:   1    -0.140400887837E+03   -0.25917E-04   -0.13446E-03 14208   0.166E-01    0.717E-03
DAV:   2    -0.140400888495E+03   -0.65794E-06   -0.11603E-05 14208   0.159E-02    0.501E-03
DAV:   3    -0.140400888309E+03    0.18546E-06   -0.12242E-06 15552   0.619E-03
  37 F= -.14228383E+03 E0= -.14228261E+03  d E =-.119794E-04  mag=    -0.0000
       N       E                     dE             d eps       ncg     rms          rms(c)
DAV:   1    -0.140400952852E+03   -0.64357E-04   -0.12023E-02 14208   0.495E-01    0.208E-02
DAV:   2    -0.140400957435E+03   -0.45826E-05   -0.97594E-05 15456   0.439E-02    0.145E-02
DAV:   3    -0.140400957244E+03    0.19090E-06   -0.61961E-06 15456   0.114E-02
  38 F= -.14228386E+03 E0= -.14228263E+03  d E =-.388002E-04  mag=     0.0000
       N       E                     dE             d eps       ncg     rms          rms(c)
DAV:   1    -0.140401034818E+03   -0.77384E-04   -0.48102E-02 14208   0.990E-01    0.421E-02
DAV:   2    -0.140401054429E+03   -0.19611E-04   -0.38506E-04 15264   0.868E-02    0.292E-02
DAV:   3    -0.140401052530E+03    0.18993E-05   -0.23541E-05 15264   0.212E-02    0.715E-03
DAV:   4    -0.140401053076E+03   -0.54564E-06   -0.36193E-06 14208   0.101E-02
  39 F= -.14228387E+03 E0= -.14228264E+03  d E =-.504523E-04  mag=     0.0000
       N       E                     dE             d eps       ncg     rms          rms(c)
DAV:   1    -0.140401024864E+03    0.27666E-04   -0.56743E-03 14208   0.340E-01    0.141E-02
DAV:   2    -0.140401026946E+03   -0.20820E-05   -0.46968E-05 14208   0.312E-02    0.978E-03
DAV:   3    -0.140401026486E+03    0.46034E-06   -0.40796E-06 16320   0.105E-02
  40 F= -.14228387E+03 E0= -.14228265E+03  d E =-.528625E-04  mag=    -0.0000
       N       E                     dE             d eps       ncg     rms          rms(c)
DAV:   1    -0.140401081267E+03   -0.54321E-04   -0.66862E-03 14208   0.368E-01    0.155E-02
DAV:   2    -0.140401083538E+03   -0.22709E-05   -0.56641E-05 15552   0.342E-02    0.107E-02
DAV:   3    -0.140401083190E+03    0.34844E-06   -0.52075E-06 15552   0.118E-02
  41 F= -.14228390E+03 E0= -.14228267E+03  d E =-.243893E-04  mag=     0.0000
       N       E                     dE             d eps       ncg     rms          rms(c)
DAV:   1    -0.140401177831E+03   -0.94293E-04   -0.38734E-02 14208   0.886E-01    0.381E-02
DAV:   2    -0.140401192782E+03   -0.14950E-04   -0.31375E-04 15360   0.785E-02    0.263E-02
DAV:   3    -0.140401191079E+03    0.17023E-05   -0.22100E-05 15360   0.216E-02    0.595E-03
DAV:   4    -0.140401191404E+03   -0.32501E-06   -0.54967E-06 14208   0.134E-02
  42 F= -.14228393E+03 E0= -.14228270E+03  d E =-.548686E-04  mag=     0.0000
       N       E                     dE             d eps       ncg     rms          rms(c)
DAV:   1    -0.140401262613E+03   -0.71533E-04   -0.13541E-02 14208   0.524E-01    0.225E-02
DAV:   2    -0.140401267551E+03   -0.49384E-05   -0.10812E-04 15552   0.466E-02    0.157E-02
DAV:   3    -0.140401267418E+03    0.13259E-06   -0.87699E-06 15456   0.143E-02
  43 F= -.14228397E+03 E0= -.14228275E+03  d E =-.426568E-04  mag=    -0.0000
       N       E                     dE             d eps       ncg     rms          rms(c)
DAV:   1    -0.140401427885E+03   -0.16033E-03   -0.12165E-01 14208   0.157E+00    0.669E-02
DAV:   2    -0.140401473932E+03   -0.46047E-04   -0.94379E-04 15648   0.136E-01    0.463E-02
DAV:   3    -0.140401467309E+03    0.66225E-05   -0.66368E-05 15648   0.344E-02    0.922E-03
DAV:   4    -0.140401468096E+03   -0.78698E-06   -0.95574E-06 14208   0.163E-02
  44 F= -.14228407E+03 E0= -.14228284E+03  d E =-.143480E-03  mag=    -0.0000
       N       E                     dE             d eps       ncg     rms          rms(c)
DAV:   1    -0.140401579746E+03   -0.11244E-03   -0.48701E-01 14208   0.314E+00    0.134E-01
DAV:   2    -0.140401765120E+03   -0.18537E-03   -0.37534E-03 16704   0.270E-01    0.927E-02
DAV:   3    -0.140401729100E+03    0.36020E-04   -0.26338E-04 16080   0.662E-02    0.177E-02
DAV:   4    -0.140401731450E+03   -0.23499E-05   -0.30970E-05 14208   0.275E-02    0.698E-03
DAV:   5    -0.140401731762E+03   -0.31271E-06   -0.11872E-05 14400   0.191E-02    0.300E-03
DAV:   6    -0.140401730618E+03    0.11446E-05   -0.59178E-06 16752   0.138E-02    0.966E-04
DAV:   7    -0.140401730681E+03   -0.63206E-07   -0.46774E-07 20064   0.384E-03
  45 F= -.14228413E+03 E0= -.14228290E+03  d E =-.207151E-03  mag=     0.0000
       N       E                     dE             d eps       ncg     rms          rms(c)
DAV:   1    -0.140401754871E+03   -0.24253E-04   -0.23691E-03 15504   0.219E-01    0.934E-03
DAV:   2    -0.140401755392E+03   -0.52031E-06   -0.17361E-05 18864   0.180E-02    0.641E-03
DAV:   3    -0.140401755532E+03   -0.14063E-06   -0.13225E-06 17808   0.443E-03
  46 F= -.14228415E+03 E0= -.14228291E+03  d E =-.130842E-04  mag=     0.0000
       N       E                     dE             d eps       ncg     rms          rms(c)
DAV:   1    -0.140401820313E+03   -0.64921E-04   -0.21311E-02 14208   0.657E-01    0.281E-02
DAV:   2    -0.140401827229E+03   -0.69161E-05   -0.16251E-04 19920   0.557E-02    0.195E-02
DAV:   3    -0.140401826790E+03    0.43837E-06   -0.10633E-05 14208   0.125E-02    0.333E-03
DAV:   4    -0.140401826958E+03   -0.16778E-06   -0.10329E-06 22464   0.384E-03
  47 F= -.14228418E+03 E0= -.14228295E+03  d E =-.492419E-04  mag=    -0.0000
       N       E                     dE             d eps       ncg     rms          rms(c)
DAV:   1    -0.140401931599E+03   -0.10481E-03   -0.85260E-02 14208   0.131E+00    0.561E-02
DAV:   2    -0.140401960752E+03   -0.29154E-04   -0.64370E-04 14592   0.111E-01    0.386E-02
DAV:   3    -0.140401956511E+03    0.42412E-05   -0.44760E-05 14208   0.269E-02    0.770E-03
DAV:   4    -0.140401957252E+03   -0.74090E-06   -0.40289E-06 16320   0.766E-03
  48 F= -.14228424E+03 E0= -.14228300E+03  d E =-.109139E-03  mag=    -0.0000
       N       E                     dE             d eps       ncg     rms          rms(c)
DAV:   1    -0.140402064516E+03   -0.10800E-03   -0.34109E-01 14208   0.263E+00    0.112E-01
DAV:   2    -0.140402188486E+03   -0.12397E-03   -0.25797E-03 14592   0.223E-01    0.771E-02
DAV:   3    -0.140402164569E+03    0.23917E-04   -0.17820E-04 14208   0.538E-02    0.155E-02
DAV:   4    -0.140402167033E+03   -0.24634E-05   -0.16137E-05 17184   0.153E-02    0.585E-03
DAV:   5    -0.140402166690E+03    0.34242E-06   -0.24752E-06 15264   0.602E-03
  49 F= -.14228431E+03 E0= -.14228307E+03  d E =-.178479E-03  mag=    -0.0000
       N       E                     dE             d eps       ncg     rms          rms(c)
DAV:   1    -0.140401978902E+03    0.18813E-03   -0.13630E+00 14208   0.526E+00    0.224E-01
DAV:   2    -0.140402492536E+03   -0.51363E-03   -0.10319E-02 17088   0.446E-01    0.154E-01
DAV:   3    -0.140402375198E+03    0.11734E-03   -0.70326E-04 15456   0.104E-01    0.295E-02
DAV:   4    -0.140402382247E+03   -0.70493E-05   -0.61765E-05 19248   0.300E-02    0.113E-02
DAV:   5    -0.140402381188E+03    0.10589E-05   -0.87785E-06 16800   0.109E-02    0.298E-03
DAV:   6    -0.140402381460E+03   -0.27193E-06   -0.13238E-06 14640   0.592E-03
  50 F= -.14228425E+03 E0= -.14228299E+03  d E =-.115648E-03  mag=     0.0000
       N       E                     dE             d eps       ncg     rms          rms(c)
DAV:   1    -0.140402040448E+03    0.34074E-03   -0.71627E-01 14208   0.381E+00    0.162E-01
DAV:   2    -0.140402306084E+03   -0.26564E-03   -0.54216E-03 14976   0.323E-01    0.112E-01
DAV:   3    -0.140402248965E+03    0.57119E-04   -0.37506E-04 14976   0.777E-02    0.222E-02
DAV:   4    -0.140402253345E+03   -0.43800E-05   -0.32515E-05 14688   0.216E-02    0.841E-03
DAV:   5    -0.140402252783E+03    0.56206E-06   -0.49941E-06 16656   0.788E-03
  51 F= -.14228432E+03 E0= -.14228307E+03  d E =-.187868E-03  mag=    -0.0000
       N       E                     dE             d eps       ncg     rms          rms(c)
DAV:   1    -0.140402325743E+03   -0.72398E-04   -0.99698E-03 14208   0.450E-01    0.193E-02
DAV:   2    -0.140402328589E+03   -0.28460E-05   -0.81749E-05 17184   0.404E-02    0.133E-02
DAV:   3    -0.140402328292E+03    0.29618E-06   -0.54932E-06 17088   0.983E-03
  52 F= -.14228438E+03 E0= -.14228314E+03  d E =-.631170E-04  mag=     0.0000
       N       E                     dE             d eps       ncg     rms          rms(c)
DAV:   1    -0.140402435821E+03   -0.10723E-03   -0.89622E-02 14208   0.135E+00    0.581E-02
DAV:   2    -0.140402467428E+03   -0.31607E-04   -0.72248E-04 16176   0.120E-01    0.396E-02
DAV:   3    -0.140402461740E+03    0.56881E-05   -0.48245E-05 14784   0.290E-02    0.925E-03
DAV:   4    -0.140402462576E+03   -0.83570E-06   -0.52062E-06 15936   0.957E-03
  53 F= -.14228448E+03 E0= -.14228324E+03  d E =-.160311E-03  mag=     0.0000
       N       E                     dE             d eps       ncg     rms          rms(c)
DAV:   1    -0.140402470383E+03   -0.86435E-05   -0.24501E-03 15648   0.223E-01    0.989E-03
DAV:   2    -0.140402471228E+03   -0.84496E-06   -0.19522E-05 14352   0.199E-02    0.669E-03
DAV:   3    -0.140402471095E+03    0.13386E-06   -0.15331E-06 15504   0.610E-03
  54 F= -.14228448E+03 E0= -.14228324E+03  d E =-.162714E-03  mag=     0.0000
       N       E                     dE             d eps       ncg     rms          rms(c)
DAV:   1    -0.140402519821E+03   -0.48592E-04   -0.54710E-03 15312   0.337E-01    0.141E-02
DAV:   2    -0.140402521334E+03   -0.15130E-05   -0.39151E-05 14208   0.278E-02    0.957E-03
DAV:   3    -0.140402521293E+03    0.40827E-07   -0.27669E-06 14256   0.765E-03
  55 F= -.14228453E+03 E0= -.14228328E+03  d E =-.440438E-04  mag=     0.0000
       N       E                     dE             d eps       ncg     rms          rms(c)
DAV:   1    -0.140402569378E+03   -0.48044E-04   -0.29171E-02 14208   0.778E-01    0.322E-02
DAV:   2    -0.140402579899E+03   -0.10522E-04   -0.22092E-04 14208   0.666E-02    0.221E-02
DAV:   3    -0.140402579135E+03    0.76449E-06   -0.13670E-05 14208   0.161E-02    0.500E-03
DAV:   4    -0.140402579552E+03   -0.41741E-06   -0.16928E-06 14208   0.652E-03
  56 F= -.14228457E+03 E0= -.14228332E+03  d E =-.881469E-04  mag=     0.0000
       N       E                     dE             d eps       ncg     rms          rms(c)
DAV:   1    -0.140402602401E+03   -0.23266E-04   -0.46047E-03 14208   0.308E-01    0.131E-02
DAV:   2    -0.140402604289E+03   -0.18879E-05   -0.40369E-05 14208   0.292E-02    0.892E-03
DAV:   3    -0.140402603968E+03    0.32112E-06   -0.27186E-06 15168   0.824E-03
  57 F= -.14228460E+03 E0= -.14228335E+03  d E =-.277285E-04  mag=    -0.0000
       N       E                     dE             d eps       ncg     rms          rms(c)
DAV:   1    -0.140402605576E+03   -0.12862E-05   -0.11043E-03 14592   0.151E-01    0.662E-03
DAV:   2    -0.140402606090E+03   -0.51443E-06   -0.95624E-06 14208   0.148E-02
  58 F= -.14228460E+03 E0= -.14228335E+03  d E =-.315262E-04  mag=    -0.0000
       N       E                     dE             d eps       ncg     rms          rms(c)
DAV:   1    -0.140402601172E+03    0.44039E-05   -0.98780E-04 15072   0.142E-01    0.685E-03
DAV:   2    -0.140402601674E+03   -0.50272E-06   -0.83531E-06 14256   0.140E-02
  59 F= -.14228462E+03 E0= -.14228337E+03  d E =-.128069E-04  mag=     0.0000
       N       E                     dE             d eps       ncg     rms          rms(c)
DAV:   1    -0.140402565237E+03    0.35934E-04   -0.80557E-03 15072   0.405E-01    0.176E-02
DAV:   2    -0.140402568206E+03   -0.29689E-05   -0.63646E-05 14208   0.365E-02    0.119E-02
DAV:   3    -0.140402567649E+03    0.55741E-06   -0.56411E-06 16608   0.124E-02
  60 F= -.14228463E+03 E0= -.14228338E+03  d E =-.279922E-04  mag=    -0.0000
       N       E                     dE             d eps       ncg     rms          rms(c)
DAV:   1    -0.140402551491E+03    0.16715E-04   -0.12350E-03 14208   0.159E-01    0.703E-03
DAV:   2    -0.140402552162E+03   -0.67134E-06   -0.12496E-05 14304   0.175E-02    0.481E-03
DAV:   3    -0.140402551874E+03    0.28890E-06   -0.19293E-06 15168   0.819E-03
  61 F= -.14228464E+03 E0= -.14228339E+03  d E =-.117236E-04  mag=    -0.0000
       N       E                     dE             d eps       ncg     rms          rms(c)
DAV:   1    -0.140402507786E+03    0.44376E-04   -0.43102E-03 14304   0.297E-01    0.126E-02
DAV:   2    -0.140402509696E+03   -0.19103E-05   -0.39723E-05 14304   0.290E-02    0.857E-03
DAV:   3    -0.140402509282E+03    0.41424E-06   -0.32970E-06 15216   0.942E-03
  62 F= -.14228465E+03 E0= -.14228340E+03  d E =-.203969E-04  mag=    -0.0000
       N       E                     dE             d eps       ncg     rms          rms(c)
DAV:   1    -0.140402478667E+03    0.31029E-04   -0.23076E-03 14208   0.216E-01    0.982E-03
DAV:   2    -0.140402479660E+03   -0.99251E-06   -0.23428E-05 14496   0.227E-02    0.660E-03
DAV:   3    -0.140402479293E+03    0.36721E-06   -0.24266E-06 15120   0.840E-03
  63 F= -.14228467E+03 E0= -.14228342E+03  d E =-.138227E-04  mag=     0.0000
       N       E                     dE             d eps       ncg     rms          rms(c)
DAV:   1    -0.140402425859E+03    0.53801E-04   -0.41964E-03 14208   0.292E-01    0.131E-02
DAV:   2    -0.140402427547E+03   -0.16876E-05   -0.41921E-05 15072   0.300E-02    0.881E-03
DAV:   3    -0.140402427072E+03    0.47528E-06   -0.38815E-06 15264   0.103E-02
  64 F= -.14228467E+03 E0= -.14228342E+03  d E =-.207065E-04  mag=    -0.0000
       N       E                     dE             d eps       ncg     rms          rms(c)
DAV:   1    -0.140402404891E+03    0.22656E-04   -0.10426E-03 14208   0.146E-01    0.661E-03
DAV:   2    -0.140402405417E+03   -0.52601E-06   -0.10162E-05 14784   0.159E-02    0.456E-03
DAV:   3    -0.140402405138E+03    0.27879E-06   -0.22431E-06 15504   0.865E-03
  65 F= -.14228468E+03 E0= -.14228343E+03  d E =-.108232E-04  mag=     0.0000
       N       E                     dE             d eps       ncg     rms          rms(c)
DAV:   1    -0.140402333674E+03    0.71743E-04   -0.93886E-03 15264   0.436E-01    0.187E-02
DAV:   2    -0.140402336451E+03   -0.27766E-05   -0.76718E-05 15744   0.389E-02    0.126E-02
DAV:   3    -0.140402335987E+03    0.46400E-06   -0.65049E-06 15600   0.119E-02
  66 F= -.14228471E+03 E0= -.14228346E+03  d E =-.399694E-04  mag=    -0.0000
       N       E                     dE             d eps       ncg     rms          rms(c)
DAV:   1    -0.140402171348E+03    0.16510E-03   -0.37583E-02 14208   0.872E-01    0.376E-02
DAV:   2    -0.140402184216E+03   -0.12869E-04   -0.32058E-04 16272   0.796E-02    0.257E-02
DAV:   3    -0.140402183063E+03    0.11535E-05   -0.23085E-05 16272   0.209E-02    0.569E-03
DAV:   4    -0.140402183442E+03   -0.37954E-06   -0.48215E-06 14592   0.120E-02
  67 F= -.14228476E+03 E0= -.14228351E+03  d E =-.841054E-04  mag=     0.0000
       N       E                     dE             d eps       ncg     rms          rms(c)
DAV:   1    -0.140401775410E+03    0.40765E-03   -0.15035E-01 14208   0.174E+00    0.750E-02
DAV:   2    -0.140401828297E+03   -0.52887E-04   -0.12692E-03 17760   0.157E-01    0.511E-02
DAV:   3    -0.140401818685E+03    0.96128E-05   -0.87396E-05 16416   0.380E-02    0.109E-02
DAV:   4    -0.140401819466E+03   -0.78152E-06   -0.12531E-05 15936   0.174E-02    0.411E-03
DAV:   5    -0.140401819416E+03    0.49901E-07   -0.46014E-06 16272   0.120E-02
  68 F= -.14228479E+03 E0= -.14228354E+03  d E =-.114025E-03  mag=    -0.0000
       N       E                     dE             d eps       ncg     rms          rms(c)
DAV:   1    -0.140401743013E+03    0.76453E-04   -0.75926E-03 15696   0.391E-01    0.170E-02
DAV:   2    -0.140401745350E+03   -0.23369E-05   -0.65817E-05 17616   0.354E-02    0.115E-02
DAV:   3    -0.140401744782E+03    0.56783E-06   -0.51193E-06 16176   0.987E-03
  69 F= -.14228481E+03 E0= -.14228357E+03  d E =-.240039E-04  mag=    -0.0000
       N       E                     dE             d eps       ncg     rms          rms(c)
DAV:   1    -0.140401473338E+03    0.27201E-03   -0.68260E-02 14208   0.117E+00    0.511E-02
DAV:   2    -0.140401498288E+03   -0.24951E-04   -0.60865E-04 17328   0.108E-01    0.350E-02
DAV:   3    -0.140401494040E+03    0.42485E-05   -0.40708E-05 16368   0.260E-02    0.811E-03
DAV:   4    -0.140401494624E+03   -0.58407E-06   -0.57916E-06 14928   0.116E-02
  70 F= -.14228486E+03 E0= -.14228361E+03  d E =-.699141E-04  mag=    -0.0000
       N       E                     dE             d eps       ncg     rms          rms(c)
DAV:   1    -0.140400799828E+03    0.69421E-03   -0.27315E-01 14208   0.235E+00    0.102E-01
DAV:   2    -0.140400902143E+03   -0.10231E-03   -0.24262E-03 17952   0.216E-01    0.696E-02
DAV:   3    -0.140400879290E+03    0.22853E-04   -0.16172E-04 16704   0.508E-02    0.160E-02
DAV:   4    -0.140400880960E+03   -0.16705E-05   -0.21224E-05 17808   0.210E-02    0.578E-03
DAV:   5    -0.140400880714E+03    0.24665E-06   -0.52726E-06 15456   0.125E-02
  71 F= -.14228483E+03 E0= -.14228359E+03  d E =-.488776E-04  mag=    -0.0000
       N       E                     dE             d eps       ncg     rms          rms(c)
DAV:   1    -0.140401270493E+03   -0.38953E-03   -0.12154E-01 14208   0.156E+00    0.675E-02
DAV:   2    -0.140401315274E+03   -0.44780E-04   -0.10951E-03 17280   0.145E-01    0.463E-02
DAV:   3    -0.140401306576E+03    0.86978E-05   -0.74554E-05 15552   0.347E-02    0.108E-02
DAV:   4    -0.140401307594E+03   -0.10180E-05   -0.95508E-06 17136   0.141E-02    0.391E-03
DAV:   5    -0.140401307514E+03    0.79389E-07   -0.24965E-06 15840   0.866E-03
  72 F= -.14228487E+03 E0= -.14228362E+03  d E =-.798737E-04  mag=    -0.0000
       N       E                     dE             d eps       ncg     rms          rms(c)
DAV:   1    -0.140401245465E+03    0.62129E-04   -0.62875E-03 15456   0.356E-01    0.154E-02
DAV:   2    -0.140401247223E+03   -0.17577E-05   -0.53486E-05 17568   0.321E-02    0.104E-02
DAV:   3    -0.140401246778E+03    0.44450E-06   -0.42515E-06 16032   0.926E-03
  73 F= -.14228489E+03 E0= -.14228365E+03  d E =-.267363E-04  mag=     0.0000
       N       E                     dE             d eps       ncg     rms          rms(c)
DAV:   1    -0.140401037405E+03    0.20982E-03   -0.56611E-02 14208   0.107E+00    0.463E-02
DAV:   2    -0.140401057172E+03   -0.19768E-04   -0.49587E-04 16560   0.981E-02    0.316E-02
DAV:   3    -0.140401054161E+03    0.30111E-05   -0.33644E-05 16128   0.241E-02    0.755E-03
DAV:   4    -0.140401054763E+03   -0.60217E-06   -0.49502E-06 14208   0.112E-02
  74 F= -.14228496E+03 E0= -.14228372E+03  d E =-.972595E-04  mag=     0.0000
       N       E                     dE             d eps       ncg     rms          rms(c)
DAV:   1    -0.140400563909E+03    0.49025E-03   -0.22654E-01 14208   0.214E+00    0.924E-02
DAV:   2    -0.140400646372E+03   -0.82462E-04   -0.19769E-03 17472   0.195E-01    0.630E-02
DAV:   3    -0.140400628385E+03    0.17986E-04   -0.13052E-04 16416   0.460E-02    0.147E-02
DAV:   4    -0.140400630005E+03   -0.16199E-05   -0.17423E-05 16608   0.196E-02    0.522E-03
DAV:   5    -0.140400629871E+03    0.13403E-06   -0.51433E-06 15312   0.126E-02
  75 F= -.14228506E+03 E0= -.14228382E+03  d E =-.198028E-03  mag=     0.0000
       N       E                     dE             d eps       ncg     rms          rms(c)
DAV:   1    -0.140399365318E+03    0.12647E-02   -0.90559E-01 14208   0.427E+00    0.184E-01
DAV:   2    -0.140399693091E+03   -0.32777E-03   -0.78574E-03 18624   0.387E-01    0.126E-01
DAV:   3    -0.140399613789E+03    0.79302E-04   -0.50428E-04 16704   0.876E-02    0.290E-02
DAV:   4    -0.140399619013E+03   -0.52240E-05   -0.56580E-05 21264   0.291E-02    0.991E-03
DAV:   5    -0.140399618209E+03    0.80422E-06   -0.65286E-06 19776   0.110E-02
  76 F= -.14228511E+03 E0= -.14228386E+03  d E =-.240106E-03  mag=     0.0000
       N       E                     dE             d eps       ncg     rms          rms(c)
DAV:   1    -0.140399909503E+03   -0.29049E-03   -0.74060E-02 14208   0.122E+00    0.527E-02
DAV:   2    -0.140399935861E+03   -0.26358E-04   -0.65290E-04 16800   0.112E-01    0.360E-02
DAV:   3    -0.140399930398E+03    0.54624E-05   -0.44848E-05 16224   0.281E-02    0.862E-03
DAV:   4    -0.140399931252E+03   -0.85385E-06   -0.77916E-06 16272   0.146E-02
  77 F= -.14228512E+03 E0= -.14228387E+03  d E =-.251347E-03  mag=     0.0000
       N       E                     dE             d eps       ncg     rms          rms(c)
DAV:   1    -0.140399783714E+03    0.14668E-03   -0.29881E-02 14208   0.776E-01    0.328E-02
DAV:   2    -0.140399793975E+03   -0.10260E-04   -0.26781E-04 16704   0.724E-02    0.225E-02
DAV:   3    -0.140399791892E+03    0.20824E-05   -0.19181E-05 15984   0.196E-02    0.574E-03
DAV:   4    -0.140399792294E+03   -0.40206E-06   -0.54195E-06 14208   0.130E-02
  78 F= -.14228516E+03 E0= -.14228392E+03  d E =-.459456E-04  mag=     0.0000
       N       E                     dE             d eps       ncg     rms          rms(c)
DAV:   1    -0.140399265501E+03    0.52639E-03   -0.26966E-01 14208   0.233E+00    0.101E-01
DAV:   2    -0.140399364907E+03   -0.99407E-04   -0.23532E-03 18528   0.212E-01    0.689E-02
DAV:   3    -0.140399342953E+03    0.21955E-04   -0.15313E-04 16128   0.490E-02    0.154E-02
DAV:   4    -0.140399344710E+03   -0.17573E-05   -0.18881E-05 16896   0.187E-02    0.543E-03
DAV:   5    -0.140399344474E+03    0.23573E-06   -0.38135E-06 16896   0.105E-02
  79 F= -.14228527E+03 E0= -.14228403E+03  d E =-.153231E-03  mag=     0.0000
       N       E                     dE             d eps       ncg     rms          rms(c)
DAV:   1    -0.140398001340E+03    0.13434E-02   -0.10784E+00 14208   0.466E+00    0.201E-01
DAV:   2    -0.140398387917E+03   -0.38658E-03   -0.93000E-03 18912   0.421E-01    0.137E-01
DAV:   3    -0.140398293415E+03    0.94501E-04   -0.61117E-04 16944   0.966E-02    0.305E-02
DAV:   4    -0.140398298914E+03   -0.54988E-05   -0.69532E-05 21600   0.324E-02    0.108E-02
DAV:   5    -0.140398298184E+03    0.72983E-06   -0.72314E-06 18720   0.122E-02
  80 F= -.14228534E+03 E0= -.14228410E+03  d E =-.219962E-03  mag=     0.0000
       N       E                     dE             d eps       ncg     rms          rms(c)
DAV:   1    -0.140398474295E+03   -0.17538E-03   -0.28508E-02 14208   0.757E-01    0.326E-02
DAV:   2    -0.140398484421E+03   -0.10126E-04   -0.25394E-04 16608   0.703E-02    0.224E-02
DAV:   3    -0.140398482328E+03    0.20929E-05   -0.17799E-05 16224   0.182E-02    0.552E-03
DAV:   4    -0.140398482736E+03   -0.40770E-06   -0.35900E-06 15120   0.103E-02
  81 F= -.14228534E+03 E0= -.14228410E+03  d E =-.223258E-03  mag=     0.0000
       N       E                     dE             d eps       ncg     rms          rms(c)
DAV:   1    -0.140398347365E+03    0.13496E-03   -0.23924E-02 14208   0.696E-01    0.291E-02
DAV:   2    -0.140398356437E+03   -0.90718E-05   -0.21509E-04 18576   0.641E-02    0.202E-02
DAV:   3    -0.140398354978E+03    0.14590E-05   -0.12768E-05 16128   0.147E-02    0.496E-03
DAV:   4    -0.140398355207E+03   -0.22893E-06   -0.19553E-06 14928   0.701E-03
  82 F= -.14228539E+03 E0= -.14228415E+03  d E =-.459728E-04  mag=     0.0000
       N       E                     dE             d eps       ncg     rms          rms(c)
DAV:   1    -0.140397893958E+03    0.46102E-03   -0.17446E-01 14208   0.188E+00    0.804E-02
DAV:   2    -0.140397962302E+03   -0.68343E-04   -0.15204E-03 18144   0.171E-01    0.555E-02
DAV:   3    -0.140397950252E+03    0.12050E-04   -0.91457E-05 16128   0.384E-02    0.126E-02
DAV:   4    -0.140397951200E+03   -0.94844E-06   -0.10981E-05 17328   0.141E-02    0.419E-03
DAV:   5    -0.140397950988E+03    0.21260E-06   -0.18719E-06 16800   0.716E-03
  83 F= -.14228545E+03 E0= -.14228421E+03  d E =-.110258E-03  mag=    -0.0000
       N       E                     dE             d eps       ncg     rms          rms(c)
DAV:   1    -0.140397819263E+03    0.13194E-03   -0.13479E-02 14208   0.522E-01    0.221E-02
DAV:   2    -0.140397824801E+03   -0.55378E-05   -0.12223E-04 17664   0.485E-02    0.154E-02
DAV:   3    -0.140397823920E+03    0.88061E-06   -0.74064E-06 16080   0.117E-02
  84 F= -.14228545E+03 E0= -.14228422E+03  d E =-.113525E-03  mag=     0.0000
       N       E                     dE             d eps       ncg     rms          rms(c)
DAV:   1    -0.140397665912E+03    0.15889E-03   -0.27554E-02 14208   0.749E-01    0.320E-02
DAV:   2    -0.140397677907E+03   -0.11995E-04   -0.24571E-04 16416   0.697E-02    0.220E-02
DAV:   3    -0.140397676080E+03    0.18275E-05   -0.13647E-05 16128   0.163E-02    0.666E-03
DAV:   4    -0.140397676270E+03   -0.19006E-06   -0.26316E-06 16224   0.857E-03
  85 F= -.14228549E+03 E0= -.14228425E+03  d E =-.341394E-04  mag=     0.0000
       N       E                     dE             d eps       ncg     rms          rms(c)
DAV:   1    -0.140397599635E+03    0.76444E-04   -0.51708E-03 14208   0.325E-01    0.138E-02
DAV:   2    -0.140397602267E+03   -0.26314E-05   -0.47655E-05 16176   0.312E-02    0.954E-03
DAV:   3    -0.140397601626E+03    0.64088E-06   -0.31168E-06 15840   0.893E-03
  86 F= -.14228549E+03 E0= -.14228425E+03  d E =-.381767E-04  mag=    -0.0000
       N       E                     dE             d eps       ncg     rms          rms(c)
DAV:   1    -0.140397550338E+03    0.51929E-04   -0.54760E-03 14208   0.334E-01    0.141E-02
DAV:   2    -0.140397553489E+03   -0.31513E-05   -0.47712E-05 15696   0.315E-02    0.988E-03
DAV:   3    -0.140397552622E+03    0.86743E-06   -0.33531E-06 15696   0.988E-03
  87 F= -.14228551E+03 E0= -.14228428E+03  d E =-.203856E-04  mag=     0.0000
       N       E                     dE             d eps       ncg     rms          rms(c)
DAV:   1    -0.140397451846E+03    0.10164E-03   -0.13127E-02 14208   0.517E-01    0.214E-02
DAV:   2    -0.140397458924E+03   -0.70775E-05   -0.11290E-04 16416   0.478E-02    0.150E-02
DAV:   3    -0.140397457454E+03    0.14695E-05   -0.65453E-06 16032   0.130E-02    0.450E-03
DAV:   4    -0.140397457642E+03   -0.18786E-06   -0.26798E-06 14208   0.953E-03
  88 F= -.14228552E+03 E0= -.14228429E+03  d E =-.326771E-04  mag=     0.0000
       N       E                     dE             d eps       ncg     rms          rms(c)
DAV:   1    -0.140397428596E+03    0.28858E-04   -0.22639E-03 14880   0.215E-01    0.905E-03
DAV:   2    -0.140397429835E+03   -0.12384E-05   -0.18300E-05 17040   0.193E-02    0.635E-03
DAV:   3    -0.140397429352E+03    0.48292E-06   -0.13976E-06 16032   0.642E-03
  89 F= -.14228554E+03 E0= -.14228431E+03  d E =-.149268E-04  mag=    -0.0000
       N       E                     dE             d eps       ncg     rms          rms(c)
DAV:   1    -0.140397328503E+03    0.10133E-03   -0.20291E-02 14208   0.643E-01    0.264E-02
DAV:   2    -0.140397338803E+03   -0.10301E-04   -0.16783E-04 16416   0.571E-02    0.188E-02
DAV:   3    -0.140397337243E+03    0.15601E-05   -0.84906E-06 16224   0.135E-02    0.490E-03
DAV:   4    -0.140397337438E+03   -0.19502E-06   -0.18993E-06 14208   0.778E-03
  90 F= -.14228558E+03 E0= -.14228435E+03  d E =-.527165E-04  mag=    -0.0000
       N       E                     dE             d eps       ncg     rms          rms(c)
DAV:   1    -0.140397089899E+03    0.24734E-03   -0.81251E-02 14208   0.129E+00    0.530E-02
DAV:   2    -0.140397129793E+03   -0.39894E-04   -0.66410E-04 16896   0.113E-01    0.375E-02
DAV:   3    -0.140397124227E+03    0.55656E-05   -0.32584E-05 16416   0.250E-02    0.947E-03
DAV:   4    -0.140397124505E+03   -0.27783E-06   -0.48864E-06 16560   0.114E-02
  91 F= -.14228562E+03 E0= -.14228439E+03  d E =-.992341E-04  mag=    -0.0000
       N       E                     dE             d eps       ncg     rms          rms(c)
DAV:   1    -0.140396444934E+03    0.67929E-03   -0.32501E-01 14208   0.257E+00    0.106E-01
DAV:   2    -0.140396605356E+03   -0.16042E-03   -0.26520E-03 18144   0.225E-01    0.752E-02
DAV:   3    -0.140396581963E+03    0.23393E-04   -0.12543E-04 16992   0.475E-02    0.182E-02
DAV:   4    -0.140396582284E+03   -0.32081E-06   -0.17028E-05 20160   0.198E-02    0.475E-03
DAV:   5    -0.140396581806E+03    0.47746E-06   -0.45536E-06 14688   0.116E-02
  92 F= -.14228560E+03 E0= -.14228438E+03  d E =-.756013E-04  mag=     0.0000
       N       E                     dE             d eps       ncg     rms          rms(c)
DAV:   1    -0.140396907543E+03   -0.32526E-03   -0.15412E-01 14208   0.177E+00    0.728E-02
DAV:   2    -0.140396982942E+03   -0.75400E-04   -0.12658E-03 17136   0.156E-01    0.516E-02
DAV:   3    -0.140396971854E+03    0.11089E-04   -0.61685E-05 15792   0.339E-02    0.131E-02
DAV:   4    -0.140396972567E+03   -0.71294E-06   -0.88026E-06 16608   0.149E-02
  93 F= -.14228563E+03 E0= -.14228441E+03  d E =-.108731E-03  mag=     0.0000
       N       E                     dE             d eps       ncg     rms          rms(c)
DAV:   1    -0.140396888452E+03    0.83402E-04   -0.14716E-02 14304   0.545E-01    0.225E-02
DAV:   2    -0.140396895127E+03   -0.66754E-05   -0.12658E-04 16224   0.503E-02    0.158E-02
DAV:   3    -0.140396893588E+03    0.15396E-05   -0.87364E-06 15744   0.149E-02    0.477E-03
DAV:   4    -0.140396893892E+03   -0.30400E-06   -0.41472E-06 14208   0.119E-02
  94 F= -.14228567E+03 E0= -.14228444E+03  d E =-.374900E-04  mag=     0.0000
       N       E                     dE             d eps       ncg     rms          rms(c)
DAV:   1    -0.140396606370E+03    0.28722E-03   -0.10161E-01 14208   0.143E+00    0.603E-02
DAV:   2    -0.140396652220E+03   -0.45850E-04   -0.85389E-04 18048   0.128E-01    0.424E-02
DAV:   3    -0.140396645811E+03    0.64087E-05   -0.44533E-05 16512   0.282E-02    0.110E-02
DAV:   4    -0.140396646212E+03   -0.40099E-06   -0.54444E-06 15504   0.111E-02
  95 F= -.14228573E+03 E0= -.14228450E+03  d E =-.944283E-04  mag=     0.0000
       N       E                     dE             d eps       ncg     rms          rms(c)
DAV:   1    -0.140396538179E+03    0.10763E-03   -0.12870E-02 14400   0.510E-01    0.215E-02
DAV:   2    -0.140396544624E+03   -0.64444E-05   -0.11063E-04 15168   0.469E-02    0.151E-02
DAV:   3    -0.140396543443E+03    0.11810E-05   -0.71859E-06 15504   0.134E-02    0.433E-03
DAV:   4    -0.140396543654E+03   -0.21165E-06   -0.28621E-06 15072   0.988E-03
  96 F= -.14228573E+03 E0= -.14228450E+03  d E =-.100137E-03  mag=     0.0000
       N       E                     dE             d eps       ncg     rms          rms(c)
DAV:   1    -0.140396450734E+03    0.92708E-04   -0.25010E-02 14208   0.713E-01    0.295E-02
DAV:   2    -0.140396462302E+03   -0.11567E-04   -0.20800E-04 17568   0.635E-02    0.210E-02
DAV:   3    -0.140396460627E+03    0.16746E-05   -0.10920E-05 16272   0.147E-02    0.497E-03
DAV:   4    -0.140396460906E+03   -0.27899E-06   -0.21540E-06 14208   0.816E-03
  97 F= -.14228579E+03 E0= -.14228456E+03  d E =-.513939E-04  mag=     0.0000
       N       E                     dE             d eps       ncg     rms          rms(c)
DAV:   1    -0.140396101233E+03    0.35939E-03   -0.22505E-01 14208   0.214E+00    0.887E-02
DAV:   2    -0.140396202617E+03   -0.10138E-03   -0.18295E-03 17952   0.188E-01    0.626E-02
DAV:   3    -0.140396185963E+03    0.16654E-04   -0.93739E-05 16416   0.404E-02    0.142E-02
DAV:   4    -0.140396186840E+03   -0.87779E-06   -0.11435E-05 17376   0.162E-02    0.407E-03
DAV:   5    -0.140396186544E+03    0.29628E-06   -0.36613E-06 15648   0.106E-02
  98 F= -.14228591E+03 E0= -.14228469E+03  d E =-.179748E-03  mag=    -0.0000
       N       E                     dE             d eps       ncg     rms          rms(c)
DAV:   1    -0.140395190908E+03    0.99593E-03   -0.89984E-01 14208   0.427E+00    0.177E-01
DAV:   2    -0.140395599616E+03   -0.40871E-03   -0.72817E-03 18480   0.373E-01    0.125E-01
DAV:   3    -0.140395522542E+03    0.77073E-04   -0.37169E-04 16944   0.787E-02    0.280E-02
DAV:   4    -0.140395525939E+03   -0.33962E-05   -0.38927E-05 19632   0.260E-02    0.806E-03
DAV:   5    -0.140395524864E+03    0.10746E-05   -0.62841E-06 19632   0.119E-02    0.256E-03
DAV:   6    -0.140395525208E+03   -0.34435E-06   -0.26306E-06 14496   0.938E-03
  99 F= -.14228606E+03 E0= -.14228483E+03  d E =-.325154E-03  mag=    -0.0000
       N       E                     dE             d eps       ncg     rms          rms(c)
DAV:   1    -0.140395087664E+03    0.43720E-03   -0.19827E-01 14208   0.201E+00    0.827E-02
DAV:   2    -0.140395177542E+03   -0.89878E-04   -0.16278E-03 19200   0.176E-01    0.586E-02
DAV:   3    -0.140395163214E+03    0.14328E-04   -0.81175E-05 16128   0.366E-02    0.132E-02
DAV:   4    -0.140395164183E+03   -0.96826E-06   -0.84750E-06 19200   0.115E-02
 100 F= -.14228608E+03 E0= -.14228485E+03  d E =-.343327E-03  mag=    -0.0000
       N       E                     dE             d eps       ncg     rms          rms(c)
DAV:   1    -0.140395114406E+03    0.48808E-04   -0.76539E-03 14880   0.394E-01    0.166E-02
DAV:   2    -0.140395118033E+03   -0.36275E-05   -0.63142E-05 16368   0.348E-02    0.117E-02
DAV:   3    -0.140395117444E+03    0.58918E-06   -0.36537E-06 16128   0.849E-03
 101 F= -.14228610E+03 E0= -.14228488E+03  d E =-.259600E-04  mag=     0.0000
       N       E                     dE             d eps       ncg     rms          rms(c)
DAV:   1    -0.140394946340E+03    0.17169E-03   -0.68337E-02 14208   0.118E+00    0.488E-02
DAV:   2    -0.140394977427E+03   -0.31087E-04   -0.55989E-04 17712   0.104E-01    0.345E-02
DAV:   3    -0.140394973043E+03    0.43837E-05   -0.28301E-05 16128   0.222E-02    0.804E-03
DAV:   4    -0.140394973478E+03   -0.43473E-06   -0.34107E-06 15168   0.856E-03
 102 F= -.14228618E+03 E0= -.14228495E+03  d E =-.100175E-03  mag=     0.0000
       N       E                     dE             d eps       ncg     rms          rms(c)
DAV:   1    -0.140394564100E+03    0.40894E-03   -0.27358E-01 14208   0.236E+00    0.976E-02
DAV:   2    -0.140394688025E+03   -0.12392E-03   -0.22230E-03 17904   0.207E-01    0.688E-02
DAV:   3    -0.140394666694E+03    0.21332E-04   -0.11460E-04 16128   0.442E-02    0.158E-02
DAV:   4    -0.140394667830E+03   -0.11361E-05   -0.13395E-05 18240   0.163E-02    0.455E-03
DAV:   5    -0.140394667394E+03    0.43585E-06   -0.27249E-06 15744   0.863E-03
 103 F= -.14228631E+03 E0= -.14228508E+03  d E =-.230850E-03  mag=    -0.0000
       N       E                     dE             d eps       ncg     rms          rms(c)
DAV:   1    -0.140393572988E+03    0.10948E-02   -0.10935E+00 14208   0.471E+00    0.195E-01
DAV:   2    -0.140394067755E+03   -0.49477E-03   -0.88178E-03 18720   0.411E-01    0.137E-01
DAV:   3    -0.140393971266E+03    0.96490E-04   -0.45621E-04 16800   0.869E-02    0.309E-02
DAV:   4    -0.140393975311E+03   -0.40453E-05   -0.49259E-05 20160   0.285E-02    0.900E-03
DAV:   5    -0.140393974100E+03    0.12113E-05   -0.64262E-06 19920   0.111E-02    0.318E-03
DAV:   6    -0.140393974512E+03   -0.41197E-06   -0.17871E-06 14208   0.760E-03
 104 F= -.14228649E+03 E0= -.14228527E+03  d E =-.412730E-03  mag=    -0.0000
       N       E                     dE             d eps       ncg     rms          rms(c)
DAV:   1    -0.140390681003E+03    0.32931E-02   -0.43725E+00 14208   0.943E+00    0.390E-01
DAV:   2    -0.140392670301E+03   -0.19893E-02   -0.35183E-02 20016   0.819E-01    0.275E-01
DAV:   3    -0.140392258067E+03    0.41223E-03   -0.17974E-03 17520   0.170E-01    0.599E-02
DAV:   4    -0.140392270867E+03   -0.12799E-04   -0.19269E-04 23040   0.538E-02    0.177E-02
DAV:   5    -0.140392268393E+03    0.24741E-05   -0.19528E-05 20640   0.158E-02    0.529E-03
DAV:   6    -0.140392268409E+03   -0.16782E-07   -0.20899E-06 16992   0.645E-03
 105 F= -.14228654E+03 E0= -.14228532E+03  d E =-.462251E-03  mag=    -0.0000
       N       E                     dE             d eps       ncg     rms          rms(c)
DAV:   1    -0.140392746665E+03   -0.47827E-03   -0.67432E-01 14208   0.370E+00    0.153E-01
DAV:   2    -0.140393041760E+03   -0.29509E-03   -0.54079E-03 17952   0.321E-01    0.108E-01
DAV:   3    -0.140392987631E+03    0.54130E-04   -0.28536E-04 16080   0.691E-02    0.248E-02
DAV:   4    -0.140392990937E+03   -0.33061E-05   -0.29481E-05 17472   0.214E-02    0.710E-03
DAV:   5    -0.140392990561E+03    0.37529E-06   -0.34395E-06 18720   0.701E-03
 106 F= -.14228657E+03 E0= -.14228535E+03  d E =-.494033E-03  mag=    -0.0000
       N       E                     dE             d eps       ncg     rms          rms(c)
DAV:   1    -0.140392754406E+03    0.23653E-03   -0.13905E-01 14208   0.168E+00    0.694E-02
DAV:   2    -0.140392813439E+03   -0.59033E-04   -0.11223E-03 18288   0.147E-01    0.488E-02
DAV:   3    -0.140392803440E+03    0.99990E-05   -0.58098E-05 16032   0.311E-02    0.118E-02
DAV:   4    -0.140392804160E+03   -0.71971E-06   -0.64378E-06 16032   0.102E-02
 107 F= -.14228669E+03 E0= -.14228547E+03  d E =-.122714E-03  mag=     0.0000
       N       E                     dE             d eps       ncg     rms          rms(c)
DAV:   1    -0.140392495360E+03    0.30808E-03   -0.17630E-01 14208   0.189E+00    0.786E-02
DAV:   2    -0.140392572118E+03   -0.76758E-04   -0.14168E-03 16464   0.166E-01    0.551E-02
DAV:   3    -0.140392560371E+03    0.11748E-04   -0.75311E-05 16128   0.361E-02    0.136E-02
DAV:   4    -0.140392561224E+03   -0.85394E-06   -0.80185E-06 16080   0.116E-02
 108 F= -.14228680E+03 E0= -.14228557E+03  d E =-.227769E-03  mag=     0.0000
       N       E                     dE             d eps       ncg     rms          rms(c)
DAV:   1    -0.140391717196E+03    0.84317E-03   -0.70492E-01 14208   0.379E+00    0.157E-01
DAV:   2    -0.140392031832E+03   -0.31464E-03   -0.56487E-03 17952   0.330E-01    0.110E-01
DAV:   3    -0.140391969290E+03    0.62542E-04   -0.29378E-04 16272   0.702E-02    0.260E-02
DAV:   4    -0.140391972213E+03   -0.29231E-05   -0.32652E-05 19728   0.230E-02    0.750E-03
