Lattice                                 
           1
     4.130941    2.385000    0.000000
    -4.130941    2.385000    0.000000
     0.000000    0.000000   15.000000
   B    C 
     4    11
Direct configuration=     1
   0.00415361  0.00267210  0.12034134
   0.35695335  0.00285503  0.09748893
   0.00423858  0.35550699  0.09749256
   0.65142295  0.65006557  0.09747688
   0.32808646  0.32671938  0.10030508
   0.68027775  0.00278085  0.10027562
   0.00416530  0.67883808  0.10026559
   0.08333267  0.41666633  0.33646667
   0.24999967  0.24999933  0.33646667
   0.08333267  0.91666633  0.33646667
   0.24999967  0.74999933  0.33646667
   0.58333267  0.41666633  0.33646667
   0.74999967  0.24999933  0.33646667
   0.58333267  0.91666633  0.33646667
   0.74999967  0.74999933  0.33646667
Direct configuration=     2
   0.00415019  0.00268974  0.11967800
   0.35624382  0.00281908  0.09766564
   0.00413444  0.35499618  0.09772410
   0.65205130  0.65053505  0.09769552
   0.32636831  0.32477139  0.10028536
   0.68235746  0.00285487  0.10030661
   0.00417877  0.68060161  0.10025855
   0.08331962  0.41678401  0.33645918
   0.25019772  0.25028604  0.33654922
   0.08350217  0.91677868  0.33644180
   0.25029252  0.74995144  0.33643158
   0.58327656  0.41664174  0.33641801
   0.74992961  0.24999320  0.33645809
   0.58309721  0.91662679  0.33653071
   0.74952762  0.74977084  0.33647697
Direct configuration=     3
   0.00415213  0.00267974  0.12005410
   0.35664612  0.00283946  0.09756545
   0.00419349  0.35528580  0.09759282
   0.65169503  0.65026886  0.09757155
   0.32734248  0.32587588  0.10029654
   0.68117829  0.00281290  0.10028904
   0.00417113  0.67960171  0.10026254
   0.08332702  0.41671729  0.33646343
   0.25008543  0.25012348  0.33650242
   0.08340606  0.91671498  0.33645590
   0.25012648  0.74997860  0.33645147
   0.58330837  0.41665569  0.33644560
   0.74996933  0.24999668  0.33646295
   0.58323071  0.91664921  0.33649440
   0.74979527  0.74990039  0.33647113
Direct configuration=     4
   0.00415855  0.00270994  0.11943645
   0.35696193  0.00279067  0.09774074
   0.00415671  0.35558116  0.09782613
   0.65147200  0.64987444  0.09779050
   0.32737780  0.32574044  0.10025925
   0.68127953  0.00284594  0.10030331
   0.00418777  0.67962284  0.10023844
   0.08327265  0.41665556  0.33646009
   0.24989304  0.24999596  0.33657499
   0.08322053  0.91664583  0.33643851
   0.24985463  0.75004947  0.33641777
   0.58333007  0.41667255  0.33640584
   0.74997313  0.25002915  0.33645303
   0.58339803  0.91675998  0.33655543
   0.75009098  0.75012675  0.33647886
Direct configuration=     5
   0.00416615  0.00274566  0.11870592
   0.35733545  0.00273295  0.09794806
   0.00411322  0.35593049  0.09810207
   0.65120821  0.64940793  0.09804946
   0.32741956  0.32558026  0.10021514
   0.68139927  0.00288501  0.10032018
   0.00420745  0.67964783  0.10020994
   0.08320834  0.41658255  0.33645615
   0.24966549  0.24984513  0.33666084
   0.08300109  0.91656405  0.33641794
   0.24953311  0.75013329  0.33637791
   0.58335573  0.41669249  0.33635882
   0.74997762  0.25006756  0.33644130
   0.58359592  0.91689100  0.33662762
   0.75044072  0.75039447  0.33648801
Direct configuration=     6
   0.00417026  0.00275102  0.11854618
   0.35741394  0.00272031  0.09798887
   0.00411356  0.35599648  0.09815611
   0.65115507  0.64931857  0.09810019
   0.32746355  0.32559285  0.10021143
   0.68137588  0.00288367  0.10032875
   0.00421399  0.67961459  0.10020942
   0.08320938  0.41660986  0.33645606
   0.24968787  0.24986819  0.33667504
   0.08302455  0.91659804  0.33641548
   0.24957269  0.75013461  0.33637116
   0.58333572  0.41670766  0.33635180
   0.74996899  0.25007269  0.33643915
   0.58354584  0.91687417  0.33664028
   0.75037604  0.75035795  0.33648942
Direct configuration=     7
   0.00418256  0.00276713  0.11806699
   0.35764940  0.00268240  0.09811131
   0.00411459  0.35619444  0.09831825
   0.65099566  0.64905049  0.09825236
   0.32759550  0.32563063  0.10020027
   0.68130570  0.00287966  0.10035446
   0.00423360  0.67951487  0.10020785
   0.08321250  0.41669180  0.33645579
   0.24975503  0.24993737  0.33671765
   0.08309494  0.91670001  0.33640809
   0.24969145  0.75013855  0.33635091
   0.58327571  0.41675319  0.33633076
   0.74994309  0.25008808  0.33643271
   0.58339559  0.91682367  0.33667828
   0.75018200  0.75024838  0.33649365
Direct configuration=     8
   0.00420717  0.00279933  0.11710859
   0.35812034  0.00260658  0.09835619
   0.00411664  0.35659038  0.09864251
   0.65067683  0.64851433  0.09855672
   0.32785941  0.32570619  0.10017797
   0.68116536  0.00287164  0.10040588
   0.00427282  0.67931543  0.10020471
   0.08321874  0.41685567  0.33645525
   0.24988935  0.25007573  0.33680288
   0.08323571  0.91690396  0.33639333
   0.24992896  0.75014643  0.33631042
   0.58315569  0.41684423  0.33628867
   0.74989129  0.25011887  0.33641982
   0.58309510  0.91672269  0.33675427
   0.74979391  0.75002923  0.33650211
Direct configuration=     9
   0.00421376  0.00280796  0.11685185
   0.35824650  0.00258627  0.09842179
   0.00411719  0.35669645  0.09872938
   0.65059142  0.64837069  0.09863825
   0.32793011  0.32572643  0.10017199
   0.68112776  0.00286949  0.10041966
   0.00428333  0.67926200  0.10020387
   0.08322042  0.41689958  0.33645511
   0.24992533  0.25011279  0.33682571
   0.08327342  0.91695859  0.33638937
   0.24999259  0.75014854  0.33629957
   0.58312354  0.41686862  0.33627739
   0.74987742  0.25012711  0.33641637
   0.58301460  0.91669563  0.33677463
   0.74968995  0.74997052  0.33650437
Direct configuration=    10
   0.00423272  0.00279506  0.11658403
   0.35823966  0.00256843  0.09846374
   0.00415954  0.35666304  0.09878099
   0.65062123  0.64838871  0.09868724
   0.32799222  0.32579550  0.10020292
   0.68105779  0.00282199  0.10046363
   0.00430602  0.67919394  0.10023795
   0.08320868  0.41688606  0.33645853
   0.24992500  0.25021125  0.33682275
   0.08325623  0.91690915  0.33639582
   0.24997366  0.75015802  0.33630130
   0.58312947  0.41682046  0.33628425
   0.74983302  0.25013697  0.33641633
   0.58303967  0.91673584  0.33677567
   0.74965243  0.75001624  0.33650420
Direct configuration=    11
   0.00428960  0.00275637  0.11578057
   0.35821913  0.00251493  0.09858959
   0.00428657  0.35656281  0.09893580
   0.65071065  0.64844278  0.09883420
   0.32817855  0.32600273  0.10029571
   0.68084788  0.00267951  0.10059557
   0.00437410  0.67898975  0.10034017
   0.08317345  0.41684550  0.33646880
   0.24992403  0.25050663  0.33681386
   0.08320465  0.91676083  0.33641514
   0.24991687  0.75018646  0.33630649
   0.58314728  0.41667595  0.33630480
   0.74969983  0.25016652  0.33641619
   0.58311490  0.91685647  0.33677878
   0.74953986  0.75015341  0.33650366
Direct configuration=    12
   0.00440335  0.00267899  0.11417367
   0.35817807  0.00240793  0.09884127
   0.00454064  0.35636236  0.09924543
   0.65088948  0.64855093  0.09912811
   0.32855121  0.32641718  0.10048130
   0.68042806  0.00239455  0.10085943
   0.00451027  0.67858138  0.10054461
   0.08310300  0.41676439  0.33648933
   0.24992207  0.25109739  0.33679609
   0.08310150  0.91646419  0.33645379
   0.24980328  0.75024334  0.33631686
   0.58318288  0.41638694  0.33634590
   0.74943345  0.25022564  0.33641593
   0.58326535  0.91709772  0.33678501
   0.74931472  0.75042775  0.33650260
Direct configuration=    13
   0.00432956  0.00272919  0.11521613
   0.35820470  0.00247735  0.09867799
   0.00437582  0.35649240  0.09904456
   0.65077347  0.64848077  0.09893744
   0.32830945  0.32614831  0.10036090
   0.68070041  0.00257941  0.10068825
   0.00442193  0.67884630  0.10041198
   0.08314871  0.41681701  0.33647601
   0.24992334  0.25071414  0.33680762
   0.08316842  0.91665663  0.33642872
   0.24987697  0.75020644  0.33631013
   0.58315978  0.41657443  0.33631924
   0.74960626  0.25018729  0.33641610
   0.58316775  0.91694121  0.33678097
   0.74946077  0.75024977  0.33650329
Direct configuration=    14
   0.00435407  0.00270236  0.11492959
   0.35818362  0.00246239  0.09871677
   0.00442496  0.35644730  0.09908638
   0.65080929  0.64851921  0.09897847
   0.32835903  0.32621161  0.10040611
   0.68064820  0.00252665  0.10074282
   0.00444807  0.67877923  0.10045930
   0.08310422  0.41684534  0.33647965
   0.24988159  0.25062473  0.33679436
   0.08313360  0.91672039  0.33643896
   0.24984938  0.75020602  0.33631935
   0.58314155  0.41664841  0.33633313
   0.74963399  0.25018983  0.33641911
   0.58314756  0.91697014  0.33677189
   0.74950820  0.75024706  0.33650345
Direct configuration=    15
   0.00442760  0.00262186  0.11406998
   0.35812035  0.00241750  0.09883308
   0.00457238  0.35631198  0.09921185
   0.65091675  0.64863454  0.09910155
   0.32850777  0.32640150  0.10054171
   0.68049158  0.00236836  0.10090653
   0.00452648  0.67857802  0.10060126
   0.08297077  0.41693034  0.33649056
   0.24975636  0.25035648  0.33675456
   0.08302915  0.91691166  0.33646968
   0.24976660  0.75020478  0.33634700
   0.58308685  0.41687034  0.33637483
   0.74971718  0.25019744  0.33642814
   0.58308702  0.91705693  0.33674467
   0.74965049  0.75023893  0.33650394
Direct configuration=    16
   0.00444195  0.00260616  0.11390228
   0.35810801  0.00240874  0.09885578
   0.00460114  0.35628559  0.09923633
   0.65093772  0.64865704  0.09912556
   0.32853679  0.32643855  0.10056817
   0.68046102  0.00233748  0.10093847
   0.00454177  0.67853877  0.10062895
   0.08294473  0.41694692  0.33649269
   0.24973193  0.25030415  0.33674679
   0.08300877  0.91694898  0.33647568
   0.24975046  0.75020453  0.33635240
   0.58307618  0.41691363  0.33638296
   0.74973341  0.25019893  0.33642990
   0.58307521  0.91707386  0.33673936
   0.74967825  0.75023735  0.33650403
Direct configuration=    17
   0.00445398  0.00257764  0.11379240
   0.35817315  0.00241153  0.09887345
   0.00460282  0.35633506  0.09924266
   0.65087758  0.64860317  0.09913527
   0.32853624  0.32642050  0.10059267
   0.68049571  0.00234430  0.10095776
   0.00454746  0.67852512  0.10065230
   0.08299415  0.41695524  0.33649233
   0.24971693  0.25028401  0.33673226
   0.08304070  0.91697844  0.33648129
   0.24974820  0.75025836  0.33636709
   0.58304399  0.41693983  0.33639386
   0.74971796  0.25024745  0.33643688
   0.58302191  0.91698178  0.33672197
   0.74965656  0.75023825  0.33650712
Direct configuration=    18
   0.00447803  0.00252065  0.11357283
   0.35830331  0.00241711  0.09890877
   0.00460617  0.35643392  0.09925533
   0.65075741  0.64849553  0.09915469
   0.32853514  0.32638444  0.10064164
   0.68056501  0.00235791  0.10099631
   0.00455883  0.67849784  0.10069896
   0.08309289  0.41697186  0.33649161
   0.24968695  0.25024377  0.33670323
   0.08310449  0.91703732  0.33649251
   0.24974370  0.75036592  0.33639646
   0.58297967  0.41699216  0.33641563
   0.74968709  0.25034440  0.33645084
   0.58291542  0.91679778  0.33668723
   0.74961322  0.75024005  0.33651330
Direct configuration=    19
   0.00449021  0.00248204  0.11347277
   0.35844167  0.00242583  0.09893370
   0.00459061  0.35652221  0.09925569
   0.65064061  0.64838042  0.09916220
   0.32852009  0.32632841  0.10066680
   0.68063760  0.00239234  0.10100544
   0.00455880  0.67850502  0.10072090
   0.08307753  0.41698592  0.33649005
   0.24969874  0.25030122  0.33668239
   0.08307009  0.91701133  0.33649921
   0.24972788  0.75034529  0.33641920
   0.58297008  0.41697452  0.33643017
   0.74965834  0.25032142  0.33646199
   0.58293551  0.91686382  0.33666017
   0.74960958  0.75026088  0.33651866
Direct configuration=    20
   0.00451057  0.00241756  0.11330567
   0.35867272  0.00244040  0.09897533
   0.00456462  0.35666966  0.09925631
   0.65044555  0.64818819  0.09917474
   0.32849496  0.32623483  0.10070882
   0.68075883  0.00244984  0.10102070
   0.00455876  0.67851699  0.10075754
   0.08305186  0.41700940  0.33648743
   0.24971845  0.25039715  0.33664758
   0.08301264  0.91696794  0.33651041
   0.24970144  0.75031083  0.33645718
   0.58295405  0.41694506  0.33645444
   0.74961032  0.25028304  0.33648060
   0.58296906  0.91697411  0.33661498
   0.74960350  0.75029567  0.33652760
Direct configuration=    21
   0.00451721  0.00240525  0.11326752
   0.35872443  0.00244158  0.09899895
   0.00455857  0.35665722  0.09925862
   0.65042923  0.64815745  0.09918305
   0.32849281  0.32620743  0.10071448
   0.68078282  0.00246539  0.10100851
   0.00455875  0.67852896  0.10076019
   0.08296957  0.41699491  0.33648834
   0.24967720  0.25034689  0.33663802
   0.08301622  0.91701689  0.33651487
   0.24971219  0.75031361  0.33646650
   0.58298812  0.41697842  0.33646176
   0.74965408  0.25030802  0.33648434
   0.58296027  0.91699550  0.33660506
   0.74958586  0.75028315  0.33652913
Direct configuration=    22
   0.00451821  0.00240341  0.11326180
   0.35873219  0.00244175  0.09900249
   0.00455766  0.35665535  0.09925897
   0.65042678  0.64815284  0.09918429
   0.32849249  0.32620332  0.10071533
   0.68078641  0.00246772  0.10100668
   0.00455875  0.67853076  0.10076058
   0.08295723  0.41699274  0.33648847
   0.24967102  0.25033935  0.33663659
   0.08301676  0.91702423  0.33651554
   0.24971381  0.75031402  0.33646790
   0.58299323  0.41698342  0.33646285
   0.74966064  0.25031176  0.33648491
   0.58295895  0.91699871  0.33660357
   0.74958321  0.75028128  0.33652936
Direct configuration=    23
   0.00452555  0.00239703  0.11323861
   0.35874375  0.00243916  0.09902710
   0.00455781  0.35661845  0.09926231
   0.65044721  0.64815291  0.09919357
   0.32850385  0.32619338  0.10071580
   0.68079357  0.00247078  0.10098726
   0.00456151  0.67852677  0.10075787
   0.08295703  0.41699472  0.33649039
   0.24965840  0.25034399  0.33663133
   0.08301525  0.91703102  0.33651936
   0.24970375  0.75033292  0.33647244
   0.58298547  0.41698944  0.33646764
   0.74965231  0.25032938  0.33648600
   0.58294782  0.91698811  0.33660005
   0.74957405  0.75029263  0.33652960
Direct configuration=    24
   0.00454494  0.00238017  0.11317734
   0.35877430  0.00243231  0.09909210
   0.00455820  0.35652096  0.09927115
   0.65050117  0.64815308  0.09921806
   0.32853387  0.32616711  0.10071705
   0.68081247  0.00247886  0.10093598
   0.00456878  0.67851623  0.10075071
   0.08295651  0.41699994  0.33649546
   0.24962507  0.25035623  0.33661745
   0.08301128  0.91704895  0.33652946
   0.24967720  0.75038283  0.33648443
   0.58296498  0.41700536  0.33648028
   0.74963031  0.25037591  0.33648889
   0.58291842  0.91696011  0.33659073
   0.74954985  0.75032262  0.33653023
Direct configuration=    25
   0.00455287  0.00237246  0.11315876
   0.35877560  0.00242742  0.09911048
   0.00456253  0.35650879  0.09927299
   0.65051588  0.64815123  0.09922450
   0.32855095  0.32616713  0.10071854
   0.68081723  0.00247265  0.10092089
   0.00457504  0.67849638  0.10074957
   0.08295866  0.41701891  0.33649684
   0.24963018  0.25037274  0.33661532
   0.08299458  0.91705027  0.33653190
   0.24966819  0.75037795  0.33648708
   0.58294785  0.41701043  0.33648284
   0.74961472  0.25036631  0.33648950
   0.58291368  0.91698115  0.33658954
   0.74954937  0.75032685  0.33653059
Direct configuration=    26
   0.00457094  0.00235490  0.11311644
   0.35877855  0.00241628  0.09915235
   0.00457240  0.35648106  0.09927718
   0.65054940  0.64814701  0.09923917
   0.32858986  0.32616718  0.10072191
   0.68082810  0.00245850  0.10088651
   0.00458931  0.67845116  0.10074695
   0.08296356  0.41706210  0.33649999
   0.24964181  0.25041033  0.33661047
   0.08295655  0.91705330  0.33653745
   0.24964768  0.75036685  0.33649311
   0.58290883  0.41702197  0.33648868
   0.74957920  0.25034444  0.33649088
   0.58290290  0.91702909  0.33658684
   0.74954826  0.75033650  0.33653140
Direct configuration=    27
   0.00457964  0.00234621  0.11310164
   0.35877870  0.00240757  0.09916054
   0.00458283  0.35649478  0.09927645
   0.65055260  0.64813742  0.09924086
   0.32860540  0.32617088  0.10072623
   0.68083240  0.00244220  0.10087926
   0.00460010  0.67842742  0.10074957
   0.08294321  0.41706247  0.33650049
   0.24963071  0.25041431  0.33661273
   0.08295249  0.91706281  0.33653790
   0.24964495  0.75037217  0.33649357
   0.58291113  0.41702782  0.33648820
   0.74957957  0.25035443  0.33649122
   0.58289797  0.91703939  0.33658846
   0.74953562  0.75034076  0.33653221
Direct configuration=    28
   0.00460576  0.00232017  0.11305725
   0.35877917  0.00238144  0.09918510
   0.00461413  0.35653595  0.09927429
   0.65056219  0.64810864  0.09924593
   0.32865201  0.32618198  0.10073918
   0.68084532  0.00239330  0.10085753
   0.00463249  0.67835620  0.10075742
   0.08288214  0.41706358  0.33650200
   0.24959743  0.25042625  0.33661949
   0.08294031  0.91709136  0.33653923
   0.24963678  0.75038814  0.33649495
   0.58291803  0.41704537  0.33648677
   0.74958070  0.25038443  0.33649221
   0.58288318  0.91707029  0.33659333
   0.74949768  0.75035357  0.33653465
Direct configuration=    29
   0.00461698  0.00231190  0.11303757
   0.35879259  0.00236714  0.09918997
   0.00463085  0.35653943  0.09927250
   0.65056586  0.64809255  0.09924577
   0.32866047  0.32617580  0.10074670
   0.68085192  0.00237261  0.10085255
   0.00464736  0.67834857  0.10076339
   0.08288050  0.41707161  0.33650246
   0.24958748  0.25043582  0.33662443
   0.08293275  0.91709793  0.33653911
   0.24962529  0.75040216  0.33649452
   0.58290586  0.41705299  0.33648504
   0.74956798  0.25039621  0.33649251
   0.58287233  0.91707056  0.33659690
   0.74948912  0.75036538  0.33653592
Direct configuration=    30
   0.00465062  0.00228709  0.11297850
   0.35883285  0.00232423  0.09920457
   0.00468098  0.35654988  0.09926715
   0.65057687  0.64804430  0.09924530
   0.32868584  0.32615726  0.10076929
   0.68087173  0.00231051  0.10083762
   0.00469196  0.67832568  0.10078130
   0.08287557  0.41709570  0.33650384
   0.24955763  0.25046454  0.33663924
   0.08291008  0.91711767  0.33653873
   0.24959081  0.75044424  0.33649323
   0.58286936  0.41707583  0.33647984
   0.74952983  0.25043156  0.33649338
   0.58283977  0.91707134  0.33660761
   0.74946342  0.75040082  0.33653972
Direct configuration=    31
   0.00471789  0.00223747  0.11286038
   0.35891337  0.00223842  0.09923378
   0.00478124  0.35657077  0.09925643
   0.65059889  0.64794779  0.09924437
   0.32873659  0.32612019  0.10081446
   0.68091135  0.00218632  0.10080775
   0.00478117  0.67827989  0.10081712
   0.08286571  0.41714388  0.33650660
   0.24949793  0.25052199  0.33666885
   0.08286474  0.91715715  0.33653798
   0.24952187  0.75052840  0.33649065
   0.58279637  0.41712152  0.33646945
   0.74945354  0.25050225  0.33649514
   0.58277464  0.91707292  0.33662902
   0.74941204  0.75047170  0.33654733
Direct configuration=    32
   0.00468329  0.00226299  0.11292114
   0.35887196  0.00228256  0.09921876
   0.00472967  0.35656003  0.09926194
   0.65058757  0.64799743  0.09924485
   0.32871049  0.32613926  0.10079122
   0.68089097  0.00225020  0.10082311
   0.00473528  0.67830344  0.10079870
   0.08287078  0.41711910  0.33650518
   0.24952864  0.25049244  0.33665362
   0.08288806  0.91713684  0.33653837
   0.24955733  0.75048511  0.33649198
   0.58283391  0.41709802  0.33647480
   0.74949278  0.25046589  0.33649424
   0.58280814  0.91707211  0.33661801
   0.74943847  0.75043524  0.33654342
Direct configuration=    33
   0.00469477  0.00225576  0.11289972
   0.35889329  0.00226740  0.09922174
   0.00474592  0.35654868  0.09926109
   0.65059461  0.64798023  0.09924474
   0.32871721  0.32612644  0.10079876
   0.68089986  0.00223415  0.10081934
   0.00474944  0.67830325  0.10080498
   0.08285957  0.41713536  0.33650604
   0.24952134  0.25049919  0.33665843
   0.08287287  0.91714965  0.33653862
   0.24954682  0.75048845  0.33649139
   0.58281953  0.41711226  0.33647357
   0.74948264  0.25046875  0.33649446
   0.58279687  0.91708981  0.33662189
   0.74943259  0.75044127  0.33654456
Direct configuration=    34
   0.00472923  0.00223407  0.11283547
   0.35895727  0.00222192  0.09923067
   0.00479466  0.35651465  0.09925854
   0.65061574  0.64792863  0.09924441
   0.32873736  0.32608799  0.10082137
   0.68092651  0.00218602  0.10080801
   0.00479192  0.67830267  0.10082385
   0.08282592  0.41718415  0.33650861
   0.24949946  0.25051944  0.33667286
   0.08282731  0.91718807  0.33653936
   0.24951529  0.75049847  0.33648963
   0.58277640  0.41715499  0.33646990
   0.74945222  0.25047732  0.33649513
   0.58276309  0.91714292  0.33663352
   0.74941495  0.75045936  0.33654800
Direct configuration=    35
   0.00473865  0.00222815  0.11281791
   0.35897475  0.00220949  0.09923311
   0.00480798  0.35650535  0.09925784
   0.65062151  0.64791453  0.09924432
   0.32874287  0.32607748  0.10082755
   0.68093379  0.00217287  0.10080491
   0.00480353  0.67830251  0.10082900
   0.08281673  0.41719748  0.33650932
   0.24949348  0.25052498  0.33667680
   0.08281487  0.91719857  0.33653957
   0.24950667  0.75050120  0.33648915
   0.58276461  0.41716666  0.33646890
   0.74944390  0.25047966  0.33649532
   0.58275386  0.91715743  0.33663670
   0.74941014  0.75046430  0.33654894
Direct configuration=    36
   0.00474945  0.00221986  0.11279839
   0.35899643  0.00219861  0.09923315
   0.00481640  0.35648194  0.09926048
   0.65063353  0.64789994  0.09924590
   0.32875662  0.32606158  0.10083125
   0.68094789  0.00217130  0.10080348
   0.00481225  0.67829345  0.10083234
   0.08279280  0.41719994  0.33651102
   0.24947839  0.25053917  0.33667882
   0.08280584  0.91720752  0.33654105
   0.24949771  0.75051099  0.33648907
   0.58276309  0.41717252  0.33647002
   0.74943732  0.25049451  0.33649558
   0.58274736  0.91717337  0.33663926
   0.74939224  0.75047596  0.33654952
Direct configuration=    37
   0.00478186  0.00219501  0.11273984
   0.35906148  0.00216595  0.09923327
   0.00484165  0.35641171  0.09926840
   0.65066957  0.64785618  0.09925062
   0.32879788  0.32601389  0.10084234
   0.68099018  0.00216660  0.10079918
   0.00483844  0.67826626  0.10084238
   0.08272102  0.41720733  0.33651612
   0.24943312  0.25058174  0.33668487
   0.08277876  0.91723436  0.33654549
   0.24947085  0.75054037  0.33648886
   0.58275853  0.41719011  0.33647337
   0.74941756  0.25053905  0.33649638
   0.58272787  0.91722118  0.33664697
   0.74933857  0.75051092  0.33655125
Direct configuration=    38
   0.00479955  0.00217455  0.11271476
   0.35908149  0.00215369  0.09923154
   0.00484901  0.35638983  0.09927618
   0.65068941  0.64783729  0.09925540
   0.32883067  0.32599547  0.10084223
   0.68101541  0.00216909  0.10079924
   0.00484894  0.67823059  0.10084271
   0.08271396  0.41722489  0.33651891
   0.24941854  0.25059936  0.33668477
   0.08276398  0.91724862  0.33654851
   0.24945399  0.75055980  0.33649016
   0.58273695  0.41720522  0.33647720
   0.74939594  0.25055527  0.33649744
   0.58270802  0.91722908  0.33664827
   0.74932151  0.75052794  0.33655203
Direct configuration=    39
   0.00485259  0.00211316  0.11263954
   0.35914152  0.00211690  0.09922634
   0.00487107  0.35632419  0.09929952
   0.65074893  0.64778062  0.09926973
   0.32892902  0.32594019  0.10084189
   0.68109111  0.00217655  0.10079942
   0.00488044  0.67812356  0.10084371
   0.08269277  0.41727757  0.33652726
   0.24937477  0.25065221  0.33668448
   0.08271963  0.91729139  0.33655758
   0.24940341  0.75061811  0.33649407
   0.58267219  0.41725056  0.33648869
   0.74933107  0.25060390  0.33650059
   0.58264846  0.91725278  0.33665216
   0.74927033  0.75057899  0.33655436
Direct configuration=    40
   0.00495869  0.00199039  0.11248910
   0.35926158  0.00204331  0.09921596
   0.00491521  0.35619293  0.09934620
   0.65086798  0.64766727  0.09929841
   0.32912572  0.32582964  0.10084120
   0.68124251  0.00219146  0.10079978
   0.00494345  0.67790950  0.10084572
   0.08265040  0.41738292  0.33654396
   0.24928724  0.25075791  0.33668390
   0.08263095  0.91737694  0.33657571
   0.24930225  0.75073472  0.33650188
   0.58254268  0.41734123  0.33651166
   0.74920134  0.25070116  0.33650690
   0.58252934  0.91730017  0.33665995
   0.74916798  0.75068111  0.33655903
Direct configuration=    41
   0.00492391  0.00203064  0.11253841
   0.35922223  0.00206744  0.09921936
   0.00490074  0.35623596  0.09933089
   0.65082896  0.64770443  0.09928901
   0.32906123  0.32586588  0.10084142
   0.68119288  0.00218657  0.10079966
   0.00492280  0.67797967  0.10084506
   0.08266429  0.41734838  0.33653848
   0.24931593  0.25072326  0.33668409
   0.08266002  0.91734889  0.33656977
   0.24933541  0.75069649  0.33649932
   0.58258514  0.41731150  0.33650413
   0.74924387  0.25066928  0.33650483
   0.58256839  0.91728464  0.33665739
   0.74920153  0.75064763  0.33655750
Direct configuration=    42
   0.00494139  0.00201042  0.11251740
   0.35923921  0.00205466  0.09921814
   0.00491239  0.35622111  0.09933805
   0.65084585  0.64768735  0.09929360
   0.32908474  0.32584922  0.10083988
   0.68121241  0.00217964  0.10080029
   0.00493566  0.67795661  0.10084416
   0.08264528  0.41736446  0.33654036
   0.24930051  0.25073145  0.33668409
   0.08264213  0.91736589  0.33657194
   0.24931986  0.75070658  0.33650131
   0.58257044  0.41732965  0.33650723
   0.74923240  0.25068044  0.33650650
   0.58255400  0.91730396  0.33665759
   0.74919105  0.75065920  0.33655878
Direct configuration=    43
   0.00499383  0.00194977  0.11245437
   0.35929018  0.00201634  0.09921446
   0.00494734  0.35617657  0.09935953
   0.65089653  0.64763612  0.09930738
   0.32915527  0.32579925  0.10083524
   0.68127099  0.00215886  0.10080219
   0.00497427  0.67788744  0.10084146
   0.08258825  0.41741271  0.33654601
   0.24925423  0.25075601  0.33668411
   0.08258846  0.91741689  0.33657848
   0.24927318  0.75073685  0.33650729
   0.58252636  0.41738409  0.33651651
   0.74919800  0.25071393  0.33651149
   0.58251083  0.91736194  0.33665820
   0.74915962  0.75069390  0.33656261
Direct configuration=    44
   0.00509870  0.00182848  0.11232830
   0.35939211  0.00193970  0.09920710
   0.00501723  0.35608749  0.09940249
   0.65099789  0.64753366  0.09933494
   0.32929632  0.32569930  0.10082597
   0.68138815  0.00211728  0.10080600
   0.00505148  0.67774909  0.10083607
   0.08247419  0.41750919  0.33655729
   0.24916166  0.25080514  0.33668415
   0.08248112  0.91751888  0.33659154
   0.24917983  0.75079738  0.33651926
   0.58243819  0.41749296  0.33653508
   0.74912918  0.25078092  0.33652147
   0.58242450  0.91747790  0.33665940
   0.74909676  0.75076329  0.33657028
Direct configuration=    45
   0.00506852  0.00186339  0.11236459
   0.35936277  0.00196176  0.09920922
   0.00499711  0.35611313  0.09939013
   0.65096872  0.64756315  0.09932701
   0.32925572  0.32572807  0.10082864
   0.68135443  0.00212925  0.10080490
   0.00502926  0.67778891  0.10083762
   0.08250703  0.41748142  0.33655404
   0.24918831  0.25079100  0.33668414
   0.08251202  0.91748953  0.33658778
   0.24920670  0.75077996  0.33651581
   0.58246357  0.41746162  0.33652973
   0.74914899  0.25076164  0.33651860
   0.58244935  0.91744452  0.33665905
   0.74911486  0.75074332  0.33656807
Direct configuration=    46
   0.00511414  0.00181657  0.11231686
   0.35941162  0.00192302  0.09920818
   0.00504483  0.35608417  0.09940600
   0.65100312  0.64751769  0.09933786
   0.32929020  0.32568855  0.10082235
   0.68138943  0.00208032  0.10080808
   0.00507366  0.67776475  0.10083335
   0.08245519  0.41750487  0.33655667
   0.24914545  0.25082857  0.33668574
   0.08247552  0.91751971  0.33659109
   0.24916871  0.75081312  0.33652251
   0.58243955  0.41748976  0.33653527
   0.74911878  0.25080126  0.33652450
   0.58242173  0.91748697  0.33665789
   0.74907541  0.75078134  0.33657299
Direct configuration=    47
   0.00525103  0.00167609  0.11217369
   0.35955818  0.00180680  0.09920505
   0.00518798  0.35599730  0.09945363
   0.65110634  0.64738131  0.09937040
   0.32939363  0.32557000  0.10080349
   0.68149442  0.00193355  0.10081763
   0.00520687  0.67769225  0.10082052
   0.08229969  0.41757524  0.33656455
   0.24901688  0.25094126  0.33669054
   0.08236601  0.91761025  0.33660101
   0.24905473  0.75091260  0.33654258
   0.58236751  0.41757419  0.33655190
   0.74902813  0.25092011  0.33654221
   0.58233887  0.91761430  0.33665439
   0.74895706  0.75089540  0.33658774
Direct configuration=    48
   0.00552481  0.00139515  0.11188735
   0.35985131  0.00157436  0.09919879
   0.00547428  0.35582355  0.09954890
   0.65131279  0.64710855  0.09943549
   0.32960050  0.32533288  0.10076577
   0.68170440  0.00164000  0.10083672
   0.00547328  0.67754727  0.10079487
   0.08198867  0.41771598  0.33658032
   0.24875975  0.25116666  0.33670013
   0.08214701  0.91779134  0.33662085
   0.24882677  0.75111157  0.33658273
   0.58222342  0.41774303  0.33658515
   0.74884683  0.25115783  0.33657763
   0.58217316  0.91786897  0.33664739
   0.74872035  0.75112352  0.33661724
Direct configuration=    49
   0.00533532  0.00158960  0.11208554
   0.35964843  0.00173524  0.09920312
   0.00527612  0.35594381  0.09948296
   0.65116990  0.64729734  0.09939044
   0.32945732  0.32549700  0.10079188
   0.68155906  0.00184318  0.10082351
   0.00528888  0.67764762  0.10081262
   0.08220394  0.41761857  0.33656941
   0.24893772  0.25101065  0.33669349
   0.08229859  0.91766600  0.33660712
   0.24898455  0.75097386  0.33655494
   0.58232315  0.41762617  0.33656214
   0.74897231  0.25099330  0.33655312
   0.58228786  0.91769271  0.33665224
   0.74888418  0.75096563  0.33659682
Direct configuration=    50
   0.00539897  0.00153664  0.11202013
   0.35973095  0.00167380  0.09920466
   0.00535804  0.35590894  0.09950073
   0.65120693  0.64722362  0.09940360
   0.32950054  0.32545180  0.10078233
   0.68160172  0.00175123  0.10083028
   0.00536429  0.67760767  0.10080590
   0.08218028  0.41768157  0.33657255
   0.24889830  0.25107061  0.33669775
   0.08225140  0.91771638  0.33661084
   0.24893829  0.75102947  0.33656418
   0.58225113  0.41767541  0.33656822