  15  15   0   4
  0.1995323E+02  0.4800000E-09  0.4800000E-09  0.1500000E-08  0.5000000E-15
  1.000000000000000E-004
  CAR 
 Lattice                                 
     10.48424878    -21.78160774  301     -0.16007738      1.00000000
    -21.782  0.0000E+00  0.0000E+00  0.0000E+00  0.0000E+00
    -21.674  0.0000E+00  0.0000E+00  0.0000E+00  0.0000E+00
    -21.567  0.0000E+00  0.0000E+00  0.0000E+00  0.0000E+00
    -21.459  0.0000E+00  0.0000E+00  0.0000E+00  0.0000E+00
    -21.351  0.0000E+00  0.0000E+00  0.0000E+00  0.0000E+00
    -21.244  0.0000E+00  0.0000E+00  0.0000E+00  0.0000E+00
    -21.136  0.0000E+00  0.0000E+00  0.0000E+00  0.0000E+00
    -21.029  0.0000E+00  0.0000E+00  0.0000E+00  0.0000E+00
    -20.921  0.0000E+00  0.0000E+00  0.0000E+00  0.0000E+00
    -20.814  0.4726E-15  0.4726E-15  0.5082E-16  0.5083E-16
    -20.706  0.9280E-11  0.9281E-11  0.9981E-12  0.9982E-12
    -20.599  0.2115E-07  0.2116E-07  0.2276E-08  0.2276E-08
    -20.491  0.6186E-05  0.6187E-05  0.6676E-06  0.6677E-06
    -20.383  0.2605E-03  0.2605E-03  0.2869E-04  0.2869E-04
    -20.276  0.1936E-02  0.1936E-02  0.2370E-03  0.2370E-03
    -20.168  0.4090E-02  0.4090E-02  0.6769E-03  0.6769E-03
    -20.061  0.4431E-02  0.4431E-02  0.1153E-02  0.1153E-02
    -19.953  0.4878E-02  0.4878E-02  0.1678E-02  0.1678E-02
    -19.846  0.4056E-02  0.4056E-02  0.2114E-02  0.2114E-02
    -19.738  0.5281E-02  0.5281E-02  0.2682E-02  0.2682E-02
    -19.631  0.4235E-02  0.4235E-02  0.3138E-02  0.3138E-02
    -19.523  0.4030E-02  0.4030E-02  0.3571E-02  0.3571E-02
    -19.415  0.5946E-02  0.5946E-02  0.4211E-02  0.4211E-02
    -19.308  0.3944E-02  0.3944E-02  0.4635E-02  0.4635E-02
    -19.200  0.3569E-02  0.3569E-02  0.5019E-02  0.5019E-02
    -19.093  0.5954E-02  0.5954E-02  0.5659E-02  0.5659E-02
    -18.985  0.5321E-02  0.5321E-02  0.6231E-02  0.6231E-02
    -18.878  0.3119E-02  0.3119E-02  0.6567E-02  0.6567E-02
    -18.770  0.3755E-02  0.3755E-02  0.6971E-02  0.6971E-02
    -18.663  0.6863E-02  0.6863E-02  0.7709E-02  0.7709E-02
    -18.555  0.4818E-02  0.4818E-02  0.8227E-02  0.8227E-02
    -18.447  0.3828E-02  0.3828E-02  0.8639E-02  0.8639E-02
    -18.340  0.2795E-02  0.2795E-02  0.8939E-02  0.8939E-02
    -18.232  0.5810E-02  0.5810E-02  0.9564E-02  0.9564E-02
    -18.125  0.6991E-02  0.6991E-02  0.1032E-01  0.1032E-01
    -18.017  0.4004E-02  0.4004E-02  0.1075E-01  0.1075E-01
    -17.910  0.2927E-02  0.2927E-02  0.1106E-01  0.1106E-01
    -17.802  0.3938E-02  0.3938E-02  0.1148E-01  0.1148E-01
    -17.695  0.5434E-02  0.5434E-02  0.1207E-01  0.1207E-01
    -17.587  0.7060E-02  0.7060E-02  0.1283E-01  0.1283E-01
    -17.479  0.6393E-02  0.6393E-02  0.1352E-01  0.1352E-01
    -17.372  0.7880E-02  0.7880E-02  0.1436E-01  0.1436E-01
    -17.264  0.9461E-02  0.9461E-02  0.1538E-01  0.1538E-01
    -17.157  0.1381E-01  0.1381E-01  0.1687E-01  0.1687E-01
    -17.049  0.1598E-01  0.1598E-01  0.1859E-01  0.1859E-01
    -16.942  0.1777E-01  0.1777E-01  0.2050E-01  0.2050E-01
    -16.834  0.2097E-01  0.2097E-01  0.2275E-01  0.2275E-01
    -16.727  0.1518E-01  0.1518E-01  0.2438E-01  0.2438E-01
    -16.619  0.4040E-02  0.4040E-02  0.2482E-01  0.2482E-01
    -16.512  0.4736E-02  0.4736E-02  0.2533E-01  0.2533E-01
    -16.404  0.9015E-02  0.9015E-02  0.2630E-01  0.2630E-01
    -16.296  0.5252E-02  0.5252E-02  0.2686E-01  0.2686E-01
    -16.189  0.4241E-02  0.4241E-02  0.2732E-01  0.2732E-01
    -16.081  0.3655E-02  0.3655E-02  0.2771E-01  0.2771E-01
    -15.974  0.4086E-02  0.4086E-02  0.2815E-01  0.2815E-01
    -15.866  0.3059E-02  0.3059E-02  0.2848E-01  0.2848E-01
    -15.759  0.5865E-02  0.5865E-02  0.2911E-01  0.2911E-01
    -15.651  0.8929E-02  0.8929E-02  0.3007E-01  0.3007E-01
    -15.544  0.5411E-02  0.5411E-02  0.3065E-01  0.3065E-01
    -15.436  0.3600E-02  0.3600E-02  0.3104E-01  0.3104E-01
    -15.328  0.3369E-02  0.3369E-02  0.3140E-01  0.3140E-01
    -15.221  0.3650E-02  0.3650E-02  0.3180E-01  0.3180E-01
    -15.113  0.5473E-02  0.5473E-02  0.3238E-01  0.3238E-01
    -15.006  0.9617E-02  0.9617E-02  0.3342E-01  0.3342E-01
    -14.898  0.1627E-01  0.1627E-01  0.3517E-01  0.3517E-01
    -14.791  0.1965E-01  0.1965E-01  0.3728E-01  0.3728E-01
    -14.683  0.1626E-01  0.1626E-01  0.3903E-01  0.3903E-01
    -14.576  0.1339E-01  0.1339E-01  0.4047E-01  0.4047E-01
    -14.468  0.8346E-02  0.8346E-02  0.4137E-01  0.4137E-01
    -14.360  0.1020E-01  0.1020E-01  0.4247E-01  0.4247E-01
    -14.253  0.1466E-01  0.1466E-01  0.4404E-01  0.4404E-01
    -14.145  0.1523E-01  0.1523E-01  0.4568E-01  0.4568E-01
    -14.038  0.1170E-01  0.1170E-01  0.4694E-01  0.4694E-01
    -13.930  0.1118E-01  0.1118E-01  0.4814E-01  0.4814E-01
    -13.823  0.1771E-01  0.1771E-01  0.5005E-01  0.5005E-01
    -13.715  0.1875E-01  0.1875E-01  0.5206E-01  0.5206E-01
    -13.608  0.1773E-01  0.1773E-01  0.5397E-01  0.5397E-01
    -13.500  0.1411E-01  0.1411E-01  0.5549E-01  0.5549E-01
    -13.392  0.8059E-02  0.8059E-02  0.5635E-01  0.5635E-01
    -13.285  0.3531E-02  0.3531E-02  0.5673E-01  0.5673E-01
    -13.177  0.3044E-02  0.3044E-02  0.5706E-01  0.5706E-01
    -13.070  0.5390E-02  0.5390E-02  0.5764E-01  0.5764E-01
    -12.962  0.7164E-02  0.7164E-02  0.5841E-01  0.5841E-01
    -12.855  0.5415E-02  0.5415E-02  0.5899E-01  0.5899E-01
    -12.747  0.5385E-02  0.5385E-02  0.5957E-01  0.5957E-01
    -12.640  0.6337E-02  0.6337E-02  0.6025E-01  0.6025E-01
    -12.532  0.6382E-02  0.6382E-02  0.6094E-01  0.6094E-01
    -12.425  0.5633E-02  0.5633E-02  0.6155E-01  0.6155E-01
    -12.317  0.4396E-02  0.4396E-02  0.6202E-01  0.6202E-01
    -12.209  0.3958E-02  0.3958E-02  0.6245E-01  0.6245E-01
    -12.102  0.7803E-02  0.7803E-02  0.6328E-01  0.6328E-01
    -11.994  0.5698E-02  0.5697E-02  0.6390E-01  0.6390E-01
    -11.887  0.3122E-02  0.3122E-02  0.6423E-01  0.6423E-01
    -11.779  0.3686E-02  0.3686E-02  0.6463E-01  0.6463E-01
    -11.672  0.3558E-02  0.3558E-02  0.6501E-01  0.6501E-01
    -11.564  0.6279E-02  0.6279E-02  0.6569E-01  0.6569E-01
    -11.457  0.6437E-02  0.6437E-02  0.6638E-01  0.6638E-01
    -11.349  0.2868E-02  0.2868E-02  0.6669E-01  0.6669E-01
    -11.241  0.2550E-02  0.2550E-02  0.6696E-01  0.6696E-01
    -11.134  0.5383E-02  0.5383E-02  0.6754E-01  0.6754E-01
    -11.026  0.6480E-02  0.6480E-02  0.6824E-01  0.6824E-01
    -10.919  0.6828E-02  0.6828E-02  0.6897E-01  0.6897E-01
    -10.811  0.6486E-02  0.6486E-02  0.6967E-01  0.6967E-01
    -10.704  0.4574E-02  0.4574E-02  0.7016E-01  0.7016E-01
    -10.596  0.6599E-02  0.6599E-02  0.7087E-01  0.7087E-01
    -10.489  0.1186E-01  0.1186E-01  0.7215E-01  0.7215E-01
    -10.381  0.1445E-01  0.1445E-01  0.7370E-01  0.7370E-01
    -10.273  0.1652E-01  0.1652E-01  0.7548E-01  0.7548E-01
    -10.166  0.1644E-01  0.1644E-01  0.7725E-01  0.7725E-01
    -10.058  0.1564E-01  0.1564E-01  0.7893E-01  0.7893E-01
     -9.951  0.1596E-01  0.1596E-01  0.8065E-01  0.8065E-01
     -9.843  0.1061E-01  0.1061E-01  0.8179E-01  0.8179E-01
     -9.736  0.9440E-02  0.9440E-02  0.8280E-01  0.8280E-01
     -9.628  0.1348E-01  0.1348E-01  0.8425E-01  0.8425E-01
     -9.521  0.1116E-01  0.1116E-01  0.8545E-01  0.8545E-01
     -9.413  0.1422E-01  0.1422E-01  0.8698E-01  0.8698E-01
     -9.305  0.1913E-01  0.1913E-01  0.8904E-01  0.8904E-01
     -9.198  0.1606E-01  0.1606E-01  0.9077E-01  0.9077E-01
     -9.090  0.1017E-01  0.1017E-01  0.9186E-01  0.9186E-01
     -8.983  0.5851E-02  0.5851E-02  0.9249E-01  0.9249E-01
     -8.875  0.1080E-01  0.1080E-01  0.9365E-01  0.9365E-01
     -8.768  0.2325E-01  0.2325E-01  0.9615E-01  0.9615E-01
     -8.660  0.1762E-01  0.1762E-01  0.9805E-01  0.9805E-01
     -8.553  0.8601E-02  0.8601E-02  0.9897E-01  0.9897E-01
     -8.445  0.9397E-02  0.9397E-02  0.9998E-01  0.9998E-01
     -8.338  0.1728E-01  0.1728E-01  0.1018E+00  0.1018E+00
     -8.230  0.2123E-01  0.2123E-01  0.1041E+00  0.1041E+00
     -8.122  0.1398E-01  0.1398E-01  0.1056E+00  0.1056E+00
     -8.015  0.1307E-01  0.1307E-01  0.1070E+00  0.1070E+00
     -7.907  0.2184E-01  0.2184E-01  0.1094E+00  0.1094E+00
     -7.800  0.2356E-01  0.2356E-01  0.1119E+00  0.1119E+00
     -7.692  0.2271E-01  0.2271E-01  0.1144E+00  0.1144E+00
     -7.585  0.1459E-01  0.1459E-01  0.1159E+00  0.1159E+00
     -7.477  0.7668E-02  0.7668E-02  0.1168E+00  0.1168E+00
     -7.370  0.1448E-01  0.1448E-01  0.1183E+00  0.1183E+00
     -7.262  0.1730E-01  0.1730E-01  0.1202E+00  0.1202E+00
     -7.154  0.1247E-01  0.1247E-01  0.1215E+00  0.1215E+00
     -7.047  0.1367E-01  0.1367E-01  0.1230E+00  0.1230E+00
     -6.939  0.1597E-01  0.1597E-01  0.1247E+00  0.1247E+00
     -6.832  0.1724E-01  0.1724E-01  0.1266E+00  0.1266E+00
     -6.724  0.1655E-01  0.1655E-01  0.1283E+00  0.1283E+00
     -6.617  0.2118E-01  0.2118E-01  0.1306E+00  0.1306E+00
     -6.509  0.2450E-01  0.2450E-01  0.1332E+00  0.1332E+00
     -6.402  0.2110E-01  0.2110E-01  0.1355E+00  0.1355E+00
     -6.294  0.1703E-01  0.1703E-01  0.1373E+00  0.1373E+00
     -6.186  0.1657E-01  0.1657E-01  0.1391E+00  0.1391E+00
     -6.079  0.1990E-01  0.1990E-01  0.1413E+00  0.1413E+00
     -5.971  0.2919E-01  0.2919E-01  0.1444E+00  0.1444E+00
     -5.864  0.2956E-01  0.2956E-01  0.1476E+00  0.1476E+00
     -5.756  0.2378E-01  0.2378E-01  0.1501E+00  0.1501E+00
     -5.649  0.1955E-01  0.1955E-01  0.1522E+00  0.1522E+00
     -5.541  0.2369E-01  0.2369E-01  0.1548E+00  0.1548E+00
     -5.434  0.2852E-01  0.2852E-01  0.1579E+00  0.1579E+00
     -5.326  0.2977E-01  0.2977E-01  0.1611E+00  0.1611E+00
     -5.218  0.2683E-01  0.2683E-01  0.1639E+00  0.1639E+00
     -5.111  0.1773E-01  0.1773E-01  0.1659E+00  0.1659E+00
     -5.003  0.1111E-01  0.1111E-01  0.1671E+00  0.1671E+00
     -4.896  0.6939E-02  0.6939E-02  0.1678E+00  0.1678E+00
     -4.788  0.1175E-01  0.1175E-01  0.1691E+00  0.1691E+00
     -4.681  0.1531E-01  0.1531E-01  0.1707E+00  0.1707E+00
     -4.573  0.1053E-01  0.1053E-01  0.1718E+00  0.1718E+00
     -4.466  0.8608E-02  0.8608E-02  0.1728E+00  0.1728E+00
     -4.358  0.9855E-02  0.9855E-02  0.1738E+00  0.1738E+00
     -4.250  0.1974E-01  0.1974E-01  0.1759E+00  0.1759E+00
     -4.143  0.2358E-01  0.2358E-01  0.1785E+00  0.1785E+00
     -4.035  0.1953E-01  0.1953E-01  0.1806E+00  0.1806E+00
     -3.928  0.2016E-01  0.2016E-01  0.1828E+00  0.1828E+00
     -3.820  0.2473E-01  0.2473E-01  0.1854E+00  0.1854E+00
     -3.713  0.2068E-01  0.2068E-01  0.1876E+00  0.1876E+00
     -3.605  0.1913E-01  0.1913E-01  0.1897E+00  0.1897E+00
     -3.498  0.1793E-01  0.1793E-01  0.1916E+00  0.1916E+00
     -3.390  0.1742E-01  0.1742E-01  0.1935E+00  0.1935E+00
     -3.283  0.1167E-01  0.1167E-01  0.1948E+00  0.1948E+00
     -3.175  0.1425E-01  0.1425E-01  0.1963E+00  0.1963E+00
     -3.067  0.1927E-01  0.1927E-01  0.1984E+00  0.1984E+00
     -2.960  0.1682E-01  0.1682E-01  0.2002E+00  0.2002E+00
     -2.852  0.1267E-01  0.1267E-01  0.2015E+00  0.2015E+00
     -2.745  0.1273E-01  0.1273E-01  0.2029E+00  0.2029E+00
     -2.637  0.8612E-02  0.8612E-02  0.2038E+00  0.2038E+00
     -2.530  0.9747E-02  0.9747E-02  0.2049E+00  0.2049E+00
     -2.422  0.1581E-01  0.1581E-01  0.2066E+00  0.2066E+00
     -2.315  0.1725E-01  0.1725E-01  0.2084E+00  0.2084E+00
     -2.207  0.5109E-02  0.5109E-02  0.2090E+00  0.2090E+00
     -2.099  0.5370E-02  0.5370E-02  0.2096E+00  0.2096E+00
     -1.992  0.1044E-01  0.1044E-01  0.2107E+00  0.2107E+00
     -1.884  0.9030E-02  0.9030E-02  0.2116E+00  0.2116E+00
     -1.777  0.1007E-01  0.1007E-01  0.2127E+00  0.2127E+00
     -1.669  0.1052E-01  0.1052E-01  0.2139E+00  0.2139E+00
     -1.562  0.1023E-01  0.1023E-01  0.2150E+00  0.2150E+00
     -1.454  0.8884E-02  0.8883E-02  0.2159E+00  0.2159E+00
     -1.347  0.3403E-02  0.3403E-02  0.2163E+00  0.2163E+00
     -1.239  0.3979E-02  0.3979E-02  0.2167E+00  0.2167E+00
     -1.131  0.4761E-02  0.4761E-02  0.2172E+00  0.2172E+00
     -1.024  0.2967E-02  0.2967E-02  0.2175E+00  0.2175E+00
     -0.916  0.4214E-02  0.4214E-02  0.2180E+00  0.2180E+00
     -0.809  0.4586E-02  0.4586E-02  0.2185E+00  0.2185E+00
     -0.701  0.1304E-02  0.1304E-02  0.2186E+00  0.2186E+00
     -0.594  0.9210E-04  0.9208E-04  0.2186E+00  0.2186E+00
     -0.486  0.1576E-05  0.1576E-05  0.2186E+00  0.2186E+00
     -0.379  0.2059E-05  0.2059E-05  0.2186E+00  0.2186E+00
     -0.271  0.1163E-03  0.1163E-03  0.2187E+00  0.2187E+00
     -0.163  0.8518E-03  0.8518E-03  0.2187E+00  0.2187E+00
     -0.056  0.9047E-03  0.9047E-03  0.2188E+00  0.2188E+00
      0.052  0.1400E-03  0.1400E-03  0.2189E+00  0.2189E+00
      0.159  0.2826E-05  0.2826E-05  0.2189E+00  0.2189E+00
      0.267  0.3072E-06  0.3072E-06  0.2189E+00  0.2189E+00
      0.374  0.5316E-04  0.5316E-04  0.2189E+00  0.2189E+00
      0.482  0.1138E-02  0.1138E-02  0.2190E+00  0.2190E+00
      0.589  0.3336E-02  0.3336E-02  0.2193E+00  0.2193E+00
      0.697  0.1699E-02  0.1699E-02  0.2195E+00  0.2195E+00
      0.804  0.3026E-02  0.3026E-02  0.2199E+00  0.2199E+00
      0.912  0.6489E-02  0.6489E-02  0.2206E+00  0.2206E+00
      1.020  0.8449E-02  0.8449E-02  0.2215E+00  0.2215E+00
      1.127  0.1765E-01  0.1765E-01  0.2234E+00  0.2234E+00
      1.235  0.2205E-01  0.2205E-01  0.2257E+00  0.2257E+00
      1.342  0.1060E-01  0.1059E-01  0.2269E+00  0.2269E+00
      1.450  0.2806E-02  0.2806E-02  0.2272E+00  0.2272E+00
      1.557  0.4530E-02  0.4530E-02  0.2277E+00  0.2277E+00
      1.665  0.1104E-01  0.1104E-01  0.2288E+00  0.2288E+00
      1.772  0.1835E-01  0.1835E-01  0.2308E+00  0.2308E+00
      1.880  0.1469E-01  0.1469E-01  0.2324E+00  0.2324E+00
      1.988  0.9710E-02  0.9710E-02  0.2334E+00  0.2334E+00
      2.095  0.7900E-02  0.7900E-02  0.2343E+00  0.2343E+00
      2.203  0.1009E-01  0.1009E-01  0.2354E+00  0.2354E+00
      2.310  0.8611E-02  0.8611E-02  0.2363E+00  0.2363E+00
      2.418  0.7815E-02  0.7815E-02  0.2371E+00  0.2371E+00
      2.525  0.9243E-02  0.9243E-02  0.2381E+00  0.2381E+00
      2.633  0.4737E-02  0.4737E-02  0.2386E+00  0.2386E+00
      2.740  0.8535E-02  0.8535E-02  0.2396E+00  0.2396E+00
      2.848  0.1257E-01  0.1257E-01  0.2409E+00  0.2409E+00
      2.956  0.8764E-02  0.8761E-02  0.2419E+00  0.2419E+00
      3.063  0.8331E-02  0.8327E-02  0.2428E+00  0.2428E+00
      3.171  0.7793E-02  0.7795E-02  0.2436E+00  0.2436E+00
      3.278  0.1082E-01  0.1082E-01  0.2448E+00  0.2448E+00
      3.386  0.1075E-01  0.1075E-01  0.2459E+00  0.2459E+00
      3.493  0.9376E-02  0.9378E-02  0.2469E+00  0.2469E+00
      3.601  0.9741E-02  0.9730E-02  0.2480E+00  0.2480E+00
      3.708  0.1201E-01  0.1201E-01  0.2493E+00  0.2493E+00
      3.816  0.2100E-01  0.2099E-01  0.2515E+00  0.2515E+00
      3.924  0.2204E-01  0.2205E-01  0.2539E+00  0.2539E+00
      4.031  0.1799E-01  0.1799E-01  0.2558E+00  0.2558E+00
      4.139  0.1835E-01  0.1835E-01  0.2578E+00  0.2578E+00
      4.246  0.2141E-01  0.2141E-01  0.2601E+00  0.2601E+00
      4.354  0.2463E-01  0.2462E-01  0.2628E+00  0.2628E+00
      4.461  0.2461E-01  0.2462E-01  0.2654E+00  0.2654E+00
      4.569  0.2443E-01  0.2443E-01  0.2680E+00  0.2680E+00
      4.676  0.2789E-01  0.2788E-01  0.2710E+00  0.2710E+00
      4.784  0.2442E-01  0.2442E-01  0.2737E+00  0.2737E+00
      4.892  0.2041E-01  0.2042E-01  0.2758E+00  0.2758E+00
      4.999  0.2364E-01  0.2363E-01  0.2784E+00  0.2784E+00
      5.107  0.2870E-01  0.2868E-01  0.2815E+00  0.2815E+00
      5.214  0.2554E-01  0.2555E-01  0.2842E+00  0.2842E+00
      5.322  0.2362E-01  0.2365E-01  0.2868E+00  0.2868E+00
      5.429  0.1971E-01  0.1972E-01  0.2889E+00  0.2889E+00
      5.537  0.2008E-01  0.2008E-01  0.2910E+00  0.2910E+00
      5.644  0.2197E-01  0.2196E-01  0.2934E+00  0.2934E+00
      5.752  0.2964E-01  0.2961E-01  0.2966E+00  0.2966E+00
      5.859  0.2883E-01  0.2883E-01  0.2997E+00  0.2997E+00
      5.967  0.1713E-01  0.1715E-01  0.3015E+00  0.3015E+00
      6.075  0.1763E-01  0.1763E-01  0.3034E+00  0.3034E+00
      6.182  0.1982E-01  0.1983E-01  0.3056E+00  0.3056E+00
      6.290  0.2055E-01  0.2054E-01  0.3078E+00  0.3078E+00
      6.397  0.2030E-01  0.2030E-01  0.3100E+00  0.3100E+00
      6.505  0.1488E-01  0.1488E-01  0.3116E+00  0.3116E+00
      6.612  0.2034E-01  0.2034E-01  0.3137E+00  0.3137E+00
      6.720  0.2862E-01  0.2862E-01  0.3168E+00  0.3168E+00
      6.827  0.2326E-01  0.2328E-01  0.3193E+00  0.3193E+00
      6.935  0.2187E-01  0.2187E-01  0.3217E+00  0.3217E+00
      7.043  0.2863E-01  0.2862E-01  0.3248E+00  0.3248E+00
      7.150  0.3141E-01  0.3141E-01  0.3281E+00  0.3281E+00
      7.258  0.2768E-01  0.2768E-01  0.3311E+00  0.3311E+00
      7.365  0.2438E-01  0.2436E-01  0.3337E+00  0.3337E+00
      7.473  0.1984E-01  0.1984E-01  0.3359E+00  0.3359E+00
      7.580  0.1795E-01  0.1794E-01  0.3378E+00  0.3378E+00
      7.688  0.2588E-01  0.2590E-01  0.3406E+00  0.3406E+00
      7.795  0.2332E-01  0.2332E-01  0.3431E+00  0.3431E+00
      7.903  0.2109E-01  0.2105E-01  0.3454E+00  0.3454E+00
      8.011  0.2379E-01  0.2378E-01  0.3479E+00  0.3479E+00
      8.118  0.2395E-01  0.2397E-01  0.3505E+00  0.3505E+00
      8.226  0.3304E-01  0.3306E-01  0.3540E+00  0.3540E+00
      8.333  0.3797E-01  0.3798E-01  0.3581E+00  0.3581E+00
      8.441  0.2752E-01  0.2751E-01  0.3611E+00  0.3611E+00
      8.548  0.3151E-01  0.3149E-01  0.3645E+00  0.3645E+00
      8.656  0.2968E-01  0.2968E-01  0.3677E+00  0.3677E+00
      8.763  0.2493E-01  0.2495E-01  0.3704E+00  0.3704E+00
      8.871  0.2305E-01  0.2306E-01  0.3728E+00  0.3728E+00
      8.979  0.1355E-01  0.1356E-01  0.3743E+00  0.3743E+00
      9.086  0.5499E-02  0.5504E-02  0.3749E+00  0.3749E+00
      9.194  0.1040E-02  0.1044E-02  0.3750E+00  0.3750E+00
      9.301  0.3772E-04  0.3799E-04  0.3750E+00  0.3750E+00
      9.409  0.1741E-06  0.1760E-06  0.3750E+00  0.3750E+00
      9.516  0.8939E-10  0.9072E-10  0.3750E+00  0.3750E+00
      9.624  0.4854E-14  0.4945E-14  0.3750E+00  0.3750E+00
      9.731  0.0000E+00  0.0000E+00  0.3750E+00  0.3750E+00
      9.839  0.0000E+00  0.0000E+00  0.3750E+00  0.3750E+00
      9.946  0.0000E+00  0.0000E+00  0.3750E+00  0.3750E+00
     10.054  0.0000E+00  0.0000E+00  0.3750E+00  0.3750E+00
     10.162  0.0000E+00  0.0000E+00  0.3750E+00  0.3750E+00
     10.269  0.0000E+00  0.0000E+00  0.3750E+00  0.3750E+00
     10.377  0.0000E+00  0.0000E+00  0.3750E+00  0.3750E+00
     10.484  0.0000E+00  0.0000E+00  0.3750E+00  0.3750E+00
