<?xml version="1.0" encoding="ISO-8859-1"?>
<modeling>
 <generator>
  <i name="program" type="string">vasp </i>
  <i name="version" type="string">6.3.2  </i>
  <i name="subversion" type="string">27Jun22 (build Dec 22 2022 13:13:19) complex                          parallel </i>
  <i name="platform" type="string">LinuxIFC </i>
  <i name="date" type="string">2023 08 23 </i>
  <i name="time" type="string">00:25:28 </i>
 </generator>
 <incar>
  <i type="string" name="SYSTEM">Lattice</i>
  <i type="int" name="ISTART">     0</i>
  <i type="string" name="PREC">Accurate</i>
  <i type="string" name="ALGO">Normal</i>
  <i type="int" name="ISPIN">     2</i>
  <i type="int" name="ICHARG">     2</i>
  <i type="int" name="NELM">    64</i>
  <i type="int" name="IBRION">     2</i>
  <i name="EDIFF">      0.00000100</i>
  <i name="EDIFFG">     -0.00100000</i>
  <i type="int" name="NSW">   128</i>
  <i type="int" name="ISIF">     2</i>
  <i name="ENCUT">    450.00000000</i>
  <i name="POTIM">      0.50000000</i>
  <i type="int" name="ISMEAR">     0</i>
  <i name="SIGMA">      0.10000000</i>
  <i type="logical" name="LWAVE"> F  </i>
  <i type="logical" name="LCHARG"> F  </i>
  <i type="string" name="GGA">PE</i>
  <i type="int" name="IVDW">    12</i>
 </incar>
 <primitive_cell>
  <structure name="primitive_cell" >
   <crystal>
    <varray name="basis" >
     <v>       4.31020843       2.48850000       0.00000000 </v>
     <v>      -4.31020843       2.48850000       0.00000000 </v>
     <v>       0.00000000       0.00000000      15.00000000 </v>
    </varray>
    <i name="volume">    321.77861069 </i>
    <varray name="rec_basis" >
     <v>       0.11600367       0.20092425       0.00000000 </v>
     <v>      -0.11600367       0.20092425       0.00000000 </v>
     <v>       0.00000000       0.00000000       0.06666667 </v>
    </varray>
   </crystal>
   <varray name="positions" >
    <v>       0.66888689       1.00000000       0.10000000 </v>
    <v>       0.33111211       1.00000000       0.10000000 </v>
    <v>       1.00000000       0.33111211       0.10000000 </v>
    <v>       1.00000000       0.66888689       0.10000000 </v>
    <v>       0.33111211       0.33111211       0.10000000 </v>
    <v>       0.66888689       0.66888689       0.10000000 </v>
    <v>       0.66666600       0.33333300       0.09922189 </v>
    <v>       0.33333300       0.66666600       0.10077811 </v>
    <v>       0.24999933       0.24999967       0.46906667 </v>
    <v>       0.41666633       0.08333267       0.46906667 </v>
    <v>       0.24999933       0.74999967       0.46906667 </v>
    <v>       0.41666633       0.58333267       0.46906667 </v>
    <v>       0.74999933       0.24999967       0.46906667 </v>
    <v>       0.91666633       0.08333267       0.46906667 </v>
    <v>       0.74999933       0.74999967       0.46906667 </v>
    <v>       0.91666633       0.58333267       0.46906667 </v>
   </varray>
  </structure>
  <varray name="primitive_index" >
   <v type="int" >        1 </v>
   <v type="int" >        2 </v>
   <v type="int" >        3 </v>
   <v type="int" >        4 </v>
   <v type="int" >        5 </v>
   <v type="int" >        6 </v>
   <v type="int" >        7 </v>
   <v type="int" >        8 </v>
   <v type="int" >        9 </v>
   <v type="int" >       10 </v>
   <v type="int" >       11 </v>
   <v type="int" >       12 </v>
   <v type="int" >       13 </v>
   <v type="int" >       14 </v>
   <v type="int" >       15 </v>
   <v type="int" >       16 </v>
  </varray>
 </primitive_cell>
 <kpoints>
  <generation param="Gamma">
   <v type="int" name="divisions">      12       12        1 </v>
   <v name="usershift">      0.00000000       0.00000000       0.00000000 </v>
   <v name="genvec1">      0.08333333      -0.00000000       0.00000000 </v>
   <v name="genvec2">     -0.00000000       0.08333333       0.00000000 </v>
   <v name="genvec3">      0.00000000       0.00000000       1.00000000 </v>
   <v name="shift">      0.00000000       0.00000000       0.00000000 </v>
  </generation>
  <varray name="kpointlist" >
   <v>       0.00000000       0.00000000       0.00000000 </v>
   <v>       0.08333333       0.00000000       0.00000000 </v>
   <v>      -0.08333333       0.08333333       0.00000000 </v>
   <v>       0.16666667       0.00000000       0.00000000 </v>
   <v>      -0.16666667       0.16666667       0.00000000 </v>
   <v>       0.25000000       0.00000000       0.00000000 </v>
   <v>      -0.25000000       0.25000000       0.00000000 </v>
   <v>       0.33333333       0.00000000       0.00000000 </v>
   <v>      -0.33333333       0.33333333       0.00000000 </v>
   <v>       0.41666667       0.00000000       0.00000000 </v>
   <v>      -0.41666667       0.41666667       0.00000000 </v>
   <v>       0.50000000       0.00000000       0.00000000 </v>
   <v>       0.50000000       0.50000000       0.00000000 </v>
   <v>       0.08333333       0.08333333       0.00000000 </v>
   <v>      -0.08333333       0.16666667       0.00000000 </v>
   <v>       0.16666667       0.08333333       0.00000000 </v>
   <v>      -0.08333333       0.25000000       0.00000000 </v>
   <v>      -0.25000000       0.16666667       0.00000000 </v>
   <v>       0.25000000       0.08333333       0.00000000 </v>
   <v>      -0.08333333       0.33333333       0.00000000 </v>
   <v>      -0.33333333       0.25000000       0.00000000 </v>
   <v>       0.33333333       0.08333333       0.00000000 </v>
   <v>      -0.08333333       0.41666667       0.00000000 </v>
   <v>      -0.41666667       0.33333333       0.00000000 </v>
   <v>       0.41666667       0.08333333       0.00000000 </v>
   <v>      -0.08333333       0.50000000       0.00000000 </v>
   <v>       0.50000000       0.41666667       0.00000000 </v>
   <v>       0.16666667       0.16666667       0.00000000 </v>
   <v>      -0.16666667       0.33333333       0.00000000 </v>
   <v>       0.25000000       0.16666667       0.00000000 </v>
   <v>      -0.16666667       0.41666667       0.00000000 </v>
   <v>      -0.41666667       0.25000000       0.00000000 </v>
   <v>       0.33333333       0.16666667       0.00000000 </v>
   <v>      -0.16666667       0.50000000       0.00000000 </v>
   <v>       0.50000000       0.33333333       0.00000000 </v>
   <v>       0.41666667       0.16666667       0.00000000 </v>
   <v>       0.41666667       0.41666667       0.00000000 </v>
   <v>       0.25000000       0.25000000       0.00000000 </v>
   <v>      -0.25000000       0.50000000       0.00000000 </v>
   <v>       0.33333333       0.25000000       0.00000000 </v>
   <v>      -0.25000000      -0.41666667       0.00000000 </v>
   <v>       0.41666667       0.33333333       0.00000000 </v>
   <v>       0.33333333       0.33333333       0.00000000 </v>
  </varray>
  <varray name="weights" >
   <v>       0.00694444 </v>
   <v>       0.02777778 </v>
   <v>       0.01388889 </v>
   <v>       0.02777778 </v>
   <v>       0.01388889 </v>
   <v>       0.02777778 </v>
   <v>       0.01388889 </v>
   <v>       0.02777778 </v>
   <v>       0.01388889 </v>
   <v>       0.02777778 </v>
   <v>       0.01388889 </v>
   <v>       0.01388889 </v>
   <v>       0.00694444 </v>
   <v>       0.01388889 </v>
   <v>       0.02777778 </v>
   <v>       0.02777778 </v>
   <v>       0.02777778 </v>
   <v>       0.02777778 </v>
   <v>       0.02777778 </v>
   <v>       0.02777778 </v>
   <v>       0.02777778 </v>
   <v>       0.02777778 </v>
   <v>       0.02777778 </v>
   <v>       0.02777778 </v>
   <v>       0.02777778 </v>
   <v>       0.02777778 </v>
   <v>       0.02777778 </v>
   <v>       0.01388889 </v>
   <v>       0.02777778 </v>
   <v>       0.02777778 </v>
   <v>       0.02777778 </v>
   <v>       0.02777778 </v>
   <v>       0.02777778 </v>
   <v>       0.02777778 </v>
   <v>       0.02777778 </v>
   <v>       0.02777778 </v>
   <v>       0.01388889 </v>
   <v>       0.01388889 </v>
   <v>       0.02777778 </v>
   <v>       0.02777778 </v>
   <v>       0.02777778 </v>
   <v>       0.02777778 </v>
   <v>       0.01388889 </v>
  </varray>
 </kpoints>
 <parameters>
  <separator name="general" >
   <i type="string" name="SYSTEM">Lattice</i>
   <i type="logical" name="LCOMPAT"> F  </i>
  </separator>
  <separator name="electronic" >
   <i type="string" name="PREC">accura</i>
   <i name="ENMAX">    450.00000000</i>
   <i name="ENAUG">    644.87300000</i>
   <i name="EDIFF">      0.00000100</i>
   <i type="int" name="IALGO">    38</i>
   <i type="int" name="IWAVPR">    11</i>
   <i type="int" name="NBANDS">    48</i>
   <i type="int" name="NBANDSLOW">    -1</i>
   <i type="int" name="NBANDSHIGH">    -1</i>
   <i name="NELECT">     56.00000000</i>
   <i type="int" name="TURBO">     0</i>
   <i type="int" name="IRESTART">     0</i>
   <i type="int" name="NREBOOT">     0</i>
   <i type="int" name="NMIN">     0</i>
   <i name="EREF">      0.00000000</i>
   <separator name="electronic smearing" >
    <i type="int" name="ISMEAR">     0</i>
    <i name="SIGMA">      0.10000000</i>
    <i name="KSPACING">      0.50000000</i>
    <i type="logical" name="KGAMMA"> T  </i>
    <i type="logical" name="KBLOWUP"> T  </i>
   </separator>
   <separator name="electronic projectors" >
    <i type="logical" name="LREAL"> F  </i>
    <v name="ROPT">      0.00000000      0.00000000</v>
    <i type="int" name="LMAXPAW">  -100</i>
    <i type="int" name="LMAXMIX">     2</i>
    <i type="logical" name="NLSPLINE"> F  </i>
   </separator>
   <separator name="electronic startup" >
    <i type="int" name="ISTART">     0</i>
    <i type="int" name="ICHARG">     2</i>
    <i type="int" name="INIWAV">     1</i>
   </separator>
   <separator name="electronic spin" >
    <i type="int" name="ISPIN">     2</i>
    <i type="logical" name="LNONCOLLINEAR"> F  </i>
    <v name="MAGMOM">      1.00000000      1.00000000      1.00000000      1.00000000      1.00000000      1.00000000      1.00000000      1.00000000      1.00000000      1.00000000      1.00000000      1.00000000      1.00000000      1.00000000      1.00000000      1.00000000</v>
    <i name="NUPDOWN">     -1.00000000</i>
    <i type="logical" name="LSORBIT"> F  </i>
    <v name="SAXIS">      0.00000000      0.00000000      1.00000000</v>
    <i type="logical" name="LSPIRAL"> F  </i>
    <v name="QSPIRAL">      0.00000000      0.00000000      0.00000000</v>
    <i type="logical" name="LZEROZ"> F  </i>
   </separator>
   <separator name="electronic exchange-correlation" >
    <i type="logical" name="LASPH"> F  </i>
    <i type="logical" name="LMETAGGA"> F  </i>
   </separator>
   <separator name="electronic convergence" >
    <i type="int" name="NELM">    64</i>
    <i type="int" name="NELMDL">    -5</i>
    <i type="int" name="NELMIN">     2</i>
    <i name="ENINI">    450.00000000</i>
    <separator name="electronic convergence detail" >
     <i type="logical" name="LDIAG"> T  </i>
     <i type="logical" name="LSUBROT"> F  </i>
     <i name="WEIMIN">      0.00100000</i>
     <i name="EBREAK">      0.00000001</i>
     <i name="DEPER">      0.30000000</i>
     <i type="int" name="NRMM">     4</i>
     <i name="TIME">      0.40000000</i>
    </separator>
   </separator>
   <separator name="electronic mixer" >
    <i name="AMIX">      0.40000000</i>
    <i name="BMIX">      1.00000000</i>
    <i name="AMIN">      0.10000000</i>
    <i name="AMIX_MAG">      1.60000000</i>
    <i name="BMIX_MAG">      1.00000000</i>
    <separator name="electronic mixer details" >
     <i type="int" name="IMIX">     4</i>
     <i type="logical" name="MIXFIRST"> F  </i>
     <i type="int" name="MAXMIX">   -45</i>
     <i name="WC">    100.00000000</i>
     <i type="int" name="INIMIX">     1</i>
     <i type="int" name="MIXPRE">     1</i>
     <i type="int" name="MREMOVE">     5</i>
    </separator>
   </separator>
   <separator name="electronic dipolcorrection" >
    <i type="logical" name="LDIPOL"> F  </i>
    <i type="logical" name="LMONO"> F  </i>
    <i type="int" name="IDIPOL">     0</i>
    <i name="EPSILON">      1.00000000</i>
    <v name="DIPOL">   -100.00000000   -100.00000000   -100.00000000</v>
    <i name="EFIELD">      0.00000000</i>
   </separator>
  </separator>
  <separator name="grids" >
   <i type="int" name="NGX">    36</i>
   <i type="int" name="NGY">    36</i>
   <i type="int" name="NGZ">   108</i>
   <i type="int" name="NGXF">    72</i>
   <i type="int" name="NGYF">    72</i>
   <i type="int" name="NGZF">   216</i>
   <i type="logical" name="ADDGRID"> F  </i>
  </separator>
  <separator name="ionic" >
   <i type="int" name="NSW">   128</i>
   <i type="int" name="IBRION">     2</i>
   <i type="int" name="MDALGO">     0</i>
   <i type="int" name="ISIF">     2</i>
   <i name="PSTRESS">      0.00000000</i>
   <i name="EDIFFG">     -0.00100000</i>
   <i type="int" name="NFREE">     1</i>
   <i name="POTIM">      0.50000000</i>
   <i name="SMASS">     -3.00000000</i>
   <i name="SCALEE">      1.00000000</i>
  </separator>
  <separator name="ionic md" >
   <i name="TEBEG">      0.00010000</i>
   <i name="TEEND">      0.00010000</i>
   <i type="int" name="NBLOCK">     1</i>
   <i type="int" name="KBLOCK">   128</i>
   <i type="int" name="NPACO">   256</i>
   <i name="APACO">     10.00000000</i>
  </separator>
  <separator name="symmetry" >
   <i type="int" name="ISYM">     2</i>
   <i name="SYMPREC">      0.00001000</i>
  </separator>
  <separator name="dos" >
   <i type="int" name="LORBIT">     0</i>
   <v name="RWIGS">     -1.00000000     -1.00000000</v>
   <i type="int" name="NEDOS">   301</i>
   <i name="EMIN">     10.00000000</i>
   <i name="EMAX">    -10.00000000</i>
   <i name="EFERMI">      0.00000000</i>
  </separator>
  <separator name="writing" >
   <i type="int" name="NWRITE">     2</i>
   <i type="logical" name="LWAVE"> F  </i>
   <i type="logical" name="LDOWNSAMPLE"> F  </i>
   <i type="logical" name="LCHARG"> F  </i>
   <i type="logical" name="LPARD"> F  </i>
   <i type="logical" name="LVTOT"> F  </i>
   <i type="logical" name="LVHAR"> F  </i>
   <i type="logical" name="LELF"> F  </i>
   <i type="logical" name="LOPTICS"> F  </i>
   <v name="STM">      0.00000000      0.00000000      0.00000000      0.00000000      0.00000000      0.00000000      0.00000000</v>
  </separator>
  <separator name="performance" >
   <i type="int" name="NPAR">    48</i>
   <i type="int" name="NSIM">     4</i>
   <i type="int" name="NBLK">    -1</i>
   <i type="logical" name="LPLANE"> T  </i>
   <i type="logical" name="LSCALAPACK"> T  </i>
   <i type="logical" name="LSCAAWARE"> F  </i>
   <i type="logical" name="LSCALU"> F  </i>
   <i type="logical" name="LASYNC"> F  </i>
   <i type="logical" name="LORBITALREAL"> F  </i>
  </separator>
  <separator name="miscellaneous" >
   <i type="int" name="IDIOT">     3</i>
   <i type="int" name="PHON_NSTRUCT">    -1</i>
   <i type="logical" name="LMUSIC"> F  </i>
   <v name="POMASS">     10.81100000     12.01100000</v>
   <v name="DARWINR">      0.00000000      0.00000000</v>
   <v name="DARWINV">      1.00000000      1.00000000</v>
   <i type="logical" name="LCORR"> T  </i>
  </separator>
  <i type="logical" name="GGA_COMPAT"> T  </i>
  <i type="logical" name="LBERRY"> F  </i>
  <i type="int" name="ICORELEVEL">     0</i>
  <i type="logical" name="LDAU"> F  </i>
  <i type="int" name="I_CONSTRAINED_M">     0</i>
  <separator name="electronic exchange-correlation" >
   <i type="string" name="GGA">PE</i>
   <i type="int" name="VOSKOWN">     0</i>
   <i type="logical" name="LHFCALC"> F  </i>
   <i type="string" name="PRECFOCK"></i>
   <i type="logical" name="LSYMGRAD"> F  </i>
   <i type="logical" name="LHFONE"> F  </i>
   <i type="logical" name="LRHFCALC"> F  </i>
   <i type="logical" name="LTHOMAS"> F  </i>
   <i type="logical" name="LMODELHF"> F  </i>
   <i type="logical" name="LFOCKACE"> F  </i>
   <i name="ENCUT4O">     -1.00000000</i>
   <i type="int" name="EXXOEP">     0</i>
   <i type="int" name="FOURORBIT">     0</i>
   <i name="AEXX">      0.00000000</i>
   <i name="HFALPHA">      0.00000000</i>
   <i name="MCALPHA">      0.00000000</i>
   <i name="ALDAX">      1.00000000</i>
   <i name="AGGAX">      1.00000000</i>
   <i name="ALDAC">      1.00000000</i>
   <i name="AGGAC">      1.00000000</i>
   <i type="int" name="NKREDX">     1</i>
   <i type="int" name="NKREDY">     1</i>
   <i type="int" name="NKREDZ">     1</i>
   <i type="logical" name="SHIFTRED"> F  </i>
   <i type="logical" name="ODDONLY"> F  </i>
   <i type="logical" name="EVENONLY"> F  </i>
   <i type="int" name="LMAXFOCK">     0</i>
   <i type="int" name="NMAXFOCKAE">     0</i>
   <i type="logical" name="LFOCKAEDFT"> F  </i>
   <i name="HFSCREEN">      0.00000000</i>
   <i name="HFSCREENC">      0.00000000</i>
   <i type="int" name="NBANDSGWLOW">     0</i>
  </separator>
  <separator name="vdW DFT" >
   <i type="logical" name="LUSE_VDW"> F  </i>
   <i name="Zab_VDW">     -0.84910000</i>
   <i name="PARAM1">      0.12340000</i>
   <i name="PARAM2">      1.00000000</i>
   <i name="PARAM3">      0.00000000</i>
  </separator>
  <separator name="model GW" >
   <i type="int" name="MODEL_GW">     0</i>
   <i name="MODEL_EPS0">     12.06669790</i>
   <i name="MODEL_ALPHA">      1.00000000</i>
  </separator>
  <separator name="linear response parameters" >
   <i type="logical" name="LEPSILON"> F  </i>
   <i type="logical" name="LRPA"> F  </i>
   <i type="logical" name="LNABLA"> F  </i>
   <i type="logical" name="LVEL"> F  </i>
   <i name="CSHIFT">      0.10000000</i>
   <i name="OMEGAMAX">     -1.00000000</i>
   <i name="DEG_THRESHOLD">      0.00200000</i>
   <i name="RTIME">     -0.10000000</i>
   <i name="WPLASMAI">      0.00000000</i>
   <v name="DFIELD">      0.00000000      0.00000000      0.00000000</v>
   <v name="WPLASMA">      0.00000000      0.00000000      0.00000000      0.00000000      0.00000000      0.00000000      0.00000000      0.00000000      0.00000000</v>
  </separator>
  <separator name="orbital magnetization" >
   <i type="logical" name="NUCIND"> F  </i>
   <v name="MAGPOS">      0.00000000      0.00000000      0.00000000</v>
   <i type="logical" name="LNICSALL"> T  </i>
   <i type="logical" name="ORBITALMAG"> F  </i>
   <i type="logical" name="LMAGBLOCH"> F  </i>
   <i type="logical" name="LCHIMAG"> F  </i>
   <i type="logical" name="LGAUGE"> T  </i>
   <i type="int" name="MAGATOM">     0</i>
   <v name="MAGDIPOL">      0.00000000      0.00000000      0.00000000</v>
   <v name="AVECCONST">      0.00000000      0.00000000      0.00000000</v>
  </separator>
  <separator name="response functions" >
   <i type="logical" name="LFINITE_TEMPERATURE"> F  </i>
   <i type="logical" name="LADDER"> F  </i>
   <i type="logical" name="LRPAFORCE"> F  </i>
   <i type="logical" name="LFXC"> F  </i>
   <i type="logical" name="LHARTREE"> T  </i>
   <i type="int" name="IBSE">     0</i>
   <v type="int" name="KPOINT">    -1     0     0     0</v>
   <i type="logical" name="LTCTC"> F  </i>
   <i type="logical" name="LTCTE"> F  </i>
   <i type="logical" name="LTETE"> F  </i>
   <i type="logical" name="LTRIPLET"> F  </i>
   <i type="logical" name="LFXCEPS"> F  </i>
   <i type="logical" name="LFXHEG"> F  </i>
   <i type="int" name="NATURALO">     2</i>
   <i type="logical" name="LHOLEGF"> F  </i>
   <i type="logical" name="L2ORDER"> F  </i>
   <i type="logical" name="LDMP1"> F  </i>
   <i type="logical" name="LMP2LT"> F  </i>
   <i type="logical" name="LSMP2LT"> F  </i>
   <i type="logical" name="LGWLF"> F  </i>
   <i name="ENCUTGW">     -2.00000000</i>
   <i name="ENCUTGWSOFT">     -2.00000000</i>
   <i name="ENCUTLF">     -1.00000000</i>
   <i type="logical" name="LESF_SPLINES"> F  </i>
   <i type="int" name="LMAXMP2">    -1</i>
   <i name="SCISSOR">      0.00000000</i>
   <i type="int" name="NOMEGA">     0</i>
   <i type="int" name="NOMEGAR">     0</i>
   <i type="int" name="NBANDSGW">    -1</i>
   <i type="int" name="NBANDSO">    -1</i>
   <i type="int" name="NBANDSV">    -1</i>
   <i type="int" name="NELMGW">     1</i>
   <i type="int" name="NELMHF">     1</i>
   <i type="int" name="DIM">     3</i>
   <i type="int" name="IESPILON">     4</i>
   <i type="int" name="ANTIRES">     0</i>
   <i name="OMEGAMAX">    -30.00000000</i>
   <i name="OMEGAMIN">    -30.00000000</i>
   <i name="OMEGATL">   -200.00000000</i>
   <i type="int" name="OMEGAGRID">     0</i>
   <i name="CSHIFT">     -0.10000000</i>
   <i type="logical" name="LSELFENERGY"> F  </i>
   <i type="logical" name="LSPECTRAL"> F  </i>
   <i type="logical" name="LSPECTRALGW"> F  </i>
   <i type="logical" name="LSINGLES"> F  </i>
   <i type="logical" name="LFERMIGW"> F  </i>
   <i type="logical" name="ODDONLYGW"> F  </i>
   <i type="logical" name="EVENONLYGW"> F  </i>
   <i type="int" name="NKREDLFX">     1</i>
   <i type="int" name="NKREDLFY">     1</i>
   <i type="int" name="NKREDLFZ">     1</i>
   <i type="int" name="MAXMEM">  2800</i>
   <i type="int" name="TELESCOPE">     0</i>
   <i type="int" name="NTAUPAR">    -1</i>
   <i type="int" name="NOMEGAPAR">    -1</i>
   <i name="DAMP_NEWTON">      0.80000001</i>
   <i name="LAMBDA">      1.00000000</i>
  </separator>
  <separator name="External order field" >
   <i name="OFIELD_KAPPA">      0.00000000</i>
   <v name="OFIELD_K">      0.00000000      0.00000000      0.00000000</v>
   <i name="OFIELD_Q6_NEAR">      0.00000000</i>
   <i name="OFIELD_Q6_FAR">      0.00000000</i>
   <i name="OFIELD_A">      0.00000000</i>
  </separator>
  <separator name="optional k-points parameters" >
   <i type="int" name="KPOINTS_OPT_MODE">     1</i>
   <i type="logical" name="LKPOINTS_OPT"> F  </i>
  </separator>
  <separator name="solvation model" >
   <i type="logical" name="LSOL"> F  </i>
  </separator>
 </parameters>
 <atominfo>
  <atoms>      16 </atoms>
  <types>       2 </types>
  <array name="atoms" >
   <dimension dim="1">ion</dimension>
   <field type="string">element</field>
   <field type="int">atomtype</field>
   <set>
    <rc><c>B </c><c>   1</c></rc>
    <rc><c>B </c><c>   1</c></rc>
    <rc><c>B </c><c>   1</c></rc>
    <rc><c>B </c><c>   1</c></rc>
    <rc><c>B </c><c>   1</c></rc>
    <rc><c>B </c><c>   1</c></rc>
    <rc><c>B </c><c>   1</c></rc>
    <rc><c>B </c><c>   1</c></rc>
    <rc><c>C </c><c>   2</c></rc>
    <rc><c>C </c><c>   2</c></rc>
    <rc><c>C </c><c>   2</c></rc>
    <rc><c>C </c><c>   2</c></rc>
    <rc><c>C </c><c>   2</c></rc>
    <rc><c>C </c><c>   2</c></rc>
    <rc><c>C </c><c>   2</c></rc>
    <rc><c>C </c><c>   2</c></rc>
   </set>
  </array>
  <array name="atomtypes" >
   <dimension dim="1">type</dimension>
   <field type="int">atomspertype</field>
   <field type="string">element</field>
   <field>mass</field>
   <field>valence</field>
   <field type="string">pseudopotential</field>
   <set>
    <rc><c>   8</c><c>B </c><c>     10.81100000</c><c>      3.00000000</c><c>  PAW_PBE B 06Sep2000                   </c></rc>
    <rc><c>   8</c><c>C </c><c>     12.01100000</c><c>      4.00000000</c><c>  PAW_PBE C 08Apr2002                   </c></rc>
   </set>
  </array>
 </atominfo>
 <structure name="initialpos" >
  <crystal>
   <varray name="basis" >
    <v>       4.31020843       2.48850000       0.00000000 </v>
    <v>      -4.31020843       2.48850000       0.00000000 </v>
    <v>       0.00000000       0.00000000      15.00000000 </v>
   </varray>
   <i name="volume">    321.77861069 </i>
   <varray name="rec_basis" >
    <v>       0.11600367       0.20092425       0.00000000 </v>
    <v>      -0.11600367       0.20092425       0.00000000 </v>
    <v>       0.00000000       0.00000000       0.06666667 </v>
   </varray>
  </crystal>
  <varray name="positions" >
   <v>       0.66888689       0.00000000       0.10000000 </v>
   <v>       0.33111211       0.00000000       0.10000000 </v>
   <v>       0.00000000       0.33111211       0.10000000 </v>
   <v>       0.00000000       0.66888689       0.10000000 </v>
   <v>       0.33111211       0.33111211       0.10000000 </v>
   <v>       0.66888689       0.66888689       0.10000000 </v>
   <v>       0.66666600       0.33333300       0.09922189 </v>
   <v>       0.33333300       0.66666600       0.10077811 </v>
   <v>       0.24999933       0.24999967       0.46906667 </v>
   <v>       0.41666633       0.08333267       0.46906667 </v>
   <v>       0.24999933       0.74999967       0.46906667 </v>
   <v>       0.41666633       0.58333267       0.46906667 </v>
   <v>       0.74999933       0.24999967       0.46906667 </v>
   <v>       0.91666633       0.08333267       0.46906667 </v>
   <v>       0.74999933       0.74999967       0.46906667 </v>
   <v>       0.91666633       0.58333267       0.46906667 </v>
  </varray>
 </structure>
 <calculation>
  <scstep>
   <time name="dav">    3.28    3.32</time>
   <time name="total">    3.32    3.37</time>
   <energy>
    <i name="alphaZ">     60.51935305 </i>
    <i name="ewald">   1878.56099923 </i>
    <i name="hartreedc">  -3292.28758755 </i>
    <i name="XCdc">    163.50826725 </i>
    <i name="pawpsdc">   1214.24570090 </i>
    <i name="pawaedc">  -1211.68112031 </i>
    <i name="eentropy">     -0.02265600 </i>
    <i name="bandstr">   -371.13754645 </i>
    <i name="atom">   1746.50554237 </i>
    <i name="e_fr_energy">    188.21095249 </i>
    <i name="e_wo_entrp">    188.23360849 </i>
    <i name="e_0_energy">    188.22228049 </i>
   </energy>
  </scstep>
  <scstep>
   <time name="dav">    5.25    5.30</time>
   <time name="total">    5.25    5.30</time>
   <energy>
    <i name="e_fr_energy">   -118.46019563 </i>
    <i name="e_wo_entrp">   -118.44786297 </i>
    <i name="e_0_energy">   -118.45402930 </i>
   </energy>
  </scstep>
  <scstep>
   <time name="dav">    5.92    5.98</time>
   <time name="total">    5.92    5.98</time>
   <energy>
    <i name="e_fr_energy">   -127.95357449 </i>
    <i name="e_wo_entrp">   -127.94125395 </i>
    <i name="e_0_energy">   -127.94741422 </i>
   </energy>
  </scstep>
  <scstep>
   <time name="dav">    5.32    5.38</time>
   <time name="total">    5.32    5.38</time>
   <energy>
    <i name="e_fr_energy">   -127.98086855 </i>
    <i name="e_wo_entrp">   -127.96851733 </i>
    <i name="e_0_energy">   -127.97469294 </i>
   </energy>
  </scstep>
  <scstep>
   <time name="dav">    5.51    5.56</time>
   <time name="total">    5.69    5.76</time>
   <energy>
    <i name="e_fr_energy">   -127.98090615 </i>
    <i name="e_wo_entrp">   -127.96855496 </i>
    <i name="e_0_energy">   -127.97473056 </i>
   </energy>
  </scstep>
  <scstep>
   <time name="dav">    4.28    4.33</time>
   <time name="total">    4.50    4.57</time>
   <energy>
    <i name="e_fr_energy">    -94.57463554 </i>
    <i name="e_wo_entrp">    -94.56352531 </i>
    <i name="e_0_energy">    -94.56908042 </i>
   </energy>
  </scstep>
  <scstep>
   <time name="dav">    5.28    5.32</time>
   <time name="total">    5.49    5.56</time>
   <energy>
    <i name="e_fr_energy">   -105.68733298 </i>
    <i name="e_wo_entrp">   -105.67777184 </i>
    <i name="e_0_energy">   -105.68255241 </i>
   </energy>
  </scstep>
  <scstep>
   <time name="dav">    5.16    5.21</time>
   <time name="total">    5.37    5.43</time>
   <energy>
    <i name="e_fr_energy">   -111.48662616 </i>
    <i name="e_wo_entrp">   -111.47725718 </i>
    <i name="e_0_energy">   -111.48194167 </i>
   </energy>
  </scstep>
  <scstep>
   <time name="dav">    4.17    4.22</time>
   <time name="total">    4.38    4.44</time>
   <energy>
    <i name="e_fr_energy">   -116.78646138 </i>
    <i name="e_wo_entrp">   -116.78394098 </i>
    <i name="e_0_energy">   -116.78520118 </i>
   </energy>
  </scstep>
  <scstep>
   <time name="dav">    5.30    5.35</time>
   <time name="total">    5.51    5.56</time>
   <energy>
    <i name="e_fr_energy">   -120.92810640 </i>
    <i name="e_wo_entrp">   -120.92324604 </i>
    <i name="e_0_energy">   -120.92567622 </i>
   </energy>
  </scstep>
  <scstep>
   <time name="dav">    4.90    4.94</time>
   <time name="total">    5.11    5.16</time>
   <energy>
    <i name="e_fr_energy">   -122.77711512 </i>
    <i name="e_wo_entrp">   -122.77391991 </i>
    <i name="e_0_energy">   -122.77551752 </i>
   </energy>
  </scstep>
  <scstep>
   <time name="dav">    5.50    5.54</time>
   <time name="total">    5.71    5.76</time>
   <energy>
    <i name="e_fr_energy">   -123.75654703 </i>
    <i name="e_wo_entrp">   -123.75183869 </i>
    <i name="e_0_energy">   -123.75419286 </i>
   </energy>
  </scstep>
  <scstep>
   <time name="dav">    5.29    5.33</time>
   <time name="total">    5.50    5.55</time>
   <energy>
    <i name="e_fr_energy">   -124.06290781 </i>
    <i name="e_wo_entrp">   -124.05685017 </i>
    <i name="e_0_energy">   -124.05987899 </i>
   </energy>
  </scstep>
  <scstep>
   <time name="dav">    4.06    4.09</time>
   <time name="total">    4.26    4.31</time>
   <energy>
    <i name="e_fr_energy">   -124.11621129 </i>
    <i name="e_wo_entrp">   -124.11012280 </i>
    <i name="e_0_energy">   -124.11316704 </i>
   </energy>
  </scstep>
  <scstep>
   <time name="dav">    4.09    4.12</time>
   <time name="total">    4.30    4.34</time>
   <energy>
    <i name="e_fr_energy">   -124.13988620 </i>
    <i name="e_wo_entrp">   -124.13381220 </i>
    <i name="e_0_energy">   -124.13684920 </i>
   </energy>
  </scstep>
  <scstep>
   <time name="dav">    4.01    4.05</time>
   <time name="total">    4.22    4.26</time>
   <energy>
    <i name="e_fr_energy">   -124.14130660 </i>
    <i name="e_wo_entrp">   -124.13525120 </i>
    <i name="e_0_energy">   -124.13827890 </i>
   </energy>
  </scstep>
  <scstep>
   <time name="dav">    3.68    3.71</time>
   <time name="total">    3.89    3.93</time>
   <energy>
    <i name="e_fr_energy">   -124.14184795 </i>
    <i name="e_wo_entrp">   -124.13580149 </i>
    <i name="e_0_energy">   -124.13882472 </i>
   </energy>
  </scstep>
  <scstep>
   <time name="dav">    3.54    3.57</time>
   <time name="total">    3.75    3.79</time>
   <energy>
    <i name="e_fr_energy">   -124.14188105 </i>
    <i name="e_wo_entrp">   -124.13582317 </i>
    <i name="e_0_energy">   -124.13885211 </i>
   </energy>
  </scstep>
  <scstep>
   <time name="dav">    3.42    3.46</time>
   <time name="total">    3.63    3.68</time>
   <energy>
    <i name="e_fr_energy">   -124.14194036 </i>
    <i name="e_wo_entrp">   -124.13587776 </i>
    <i name="e_0_energy">   -124.13890906 </i>
   </energy>
  </scstep>
  <scstep>
   <time name="dav">    3.66    3.69</time>
   <time name="total">    3.87    3.91</time>
   <energy>
    <i name="e_fr_energy">   -124.14196576 </i>
    <i name="e_wo_entrp">   -124.13590629 </i>
    <i name="e_0_energy">   -124.13893602 </i>
   </energy>
  </scstep>
  <scstep>
   <time name="dav">    3.41    3.44</time>
   <time name="total">    3.62    3.65</time>
   <energy>
    <i name="e_fr_energy">   -124.14201592 </i>
    <i name="e_wo_entrp">   -124.13595813 </i>
    <i name="e_0_energy">   -124.13898702 </i>
   </energy>
  </scstep>
  <scstep>
   <time name="dav">    3.97    4.01</time>
   <time name="total">    4.18    4.22</time>
   <energy>
    <i name="e_fr_energy">   -124.14204133 </i>
    <i name="e_wo_entrp">   -124.13598286 </i>
    <i name="e_0_energy">   -124.13901209 </i>
   </energy>
  </scstep>
  <scstep>
   <time name="dav">    4.85    4.88</time>
   <time name="total">    5.05    5.10</time>
   <energy>
    <i name="e_fr_energy">   -124.14204565 </i>
    <i name="e_wo_entrp">   -124.13598703 </i>
    <i name="e_0_energy">   -124.13901634 </i>
   </energy>
  </scstep>
  <scstep>
   <time name="dav">    4.80    4.83</time>
   <time name="total">    5.01    5.05</time>
   <energy>
    <i name="e_fr_energy">   -124.14204863 </i>
    <i name="e_wo_entrp">   -124.13598990 </i>
    <i name="e_0_energy">   -124.13901926 </i>
   </energy>
  </scstep>
  <scstep>
   <time name="dav">    4.03    4.06</time>
   <time name="total">    4.23    4.27</time>
   <energy>
    <i name="e_fr_energy">   -124.14205007 </i>
    <i name="e_wo_entrp">   -124.13599140 </i>
    <i name="e_0_energy">   -124.13902074 </i>
   </energy>
  </scstep>
  <scstep>
   <time name="dav">    5.48    5.52</time>
   <time name="total">    5.51    5.56</time>
   <energy>
    <i name="alphaZ">     60.51935305 </i>
    <i name="ewald">   1878.56099923 </i>
    <i name="hartreedc">  -3488.56060338 </i>
    <i name="XCdc">    168.36733157 </i>
    <i name="pawpsdc">   5818.00162021 </i>
    <i name="pawaedc">  -5817.38231004 </i>
    <i name="eentropy">     -0.00605853 </i>
    <i name="bandstr">   -490.14792490 </i>
    <i name="atom">   1746.50554237 </i>
    <i name="e_fr_energy">   -124.14205043 </i>
    <i name="e_wo_entrp">   -124.13599190 </i>
    <i name="e_0_energy">   -124.13902117 </i>
   </energy>
  </scstep>
  <structure>
   <crystal>
    <varray name="basis" >
     <v>       4.31020843       2.48850000       0.00000000 </v>
     <v>      -4.31020843       2.48850000       0.00000000 </v>
     <v>       0.00000000       0.00000000      15.00000000 </v>
    </varray>
    <i name="volume">    321.77861069 </i>
    <varray name="rec_basis" >
     <v>       0.11600367       0.20092425       0.00000000 </v>
     <v>      -0.11600367       0.20092425       0.00000000 </v>
     <v>       0.00000000       0.00000000       0.06666667 </v>
    </varray>
   </crystal>
   <varray name="positions" >
    <v>       0.66888689       0.00000000       0.10000000 </v>
    <v>       0.33111211       0.00000000       0.10000000 </v>
    <v>       0.00000000       0.33111211       0.10000000 </v>
    <v>       0.00000000       0.66888689       0.10000000 </v>
    <v>       0.33111211       0.33111211       0.10000000 </v>
    <v>       0.66888689       0.66888689       0.10000000 </v>
    <v>       0.66666600       0.33333300       0.09922189 </v>
    <v>       0.33333300       0.66666600       0.10077811 </v>
    <v>       0.24999933       0.24999967       0.46906667 </v>
    <v>       0.41666633       0.08333267       0.46906667 </v>
    <v>       0.24999933       0.74999967       0.46906667 </v>
    <v>       0.41666633       0.58333267       0.46906667 </v>
    <v>       0.74999933       0.24999967       0.46906667 </v>
    <v>       0.91666633       0.08333267       0.46906667 </v>
    <v>       0.74999933       0.74999967       0.46906667 </v>
    <v>       0.91666633       0.58333267       0.46906667 </v>
   </varray>
  </structure>
  <varray name="forces" >
   <v>       0.15607166       0.09009674       0.00821717 </v>
   <v>      -0.15603496      -0.09010160       0.00823904 </v>
   <v>       0.15607166      -0.09009674       0.00821717 </v>
   <v>      -0.15603496       0.09010160       0.00823904 </v>
   <v>       0.00000655      -0.18022418       0.00824274 </v>
   <v>       0.00000655       0.18022418       0.00824274 </v>
   <v>       0.00001702      -0.00000000       0.00687978 </v>
   <v>      -0.00008094      -0.00000000       0.01143180 </v>
   <v>       0.00005036      -0.00046965      -0.00837873 </v>
   <v>      -0.00044096      -0.00009671      -0.00855050 </v>
   <v>      -0.00007248      -0.00000000      -0.00867272 </v>
   <v>       0.00012676       0.00000000      -0.00847681 </v>
   <v>       0.00052123       0.00000000      -0.00843476 </v>
   <v>       0.00018312       0.00000000      -0.00826671 </v>
   <v>       0.00005036       0.00046965      -0.00837873 </v>
   <v>      -0.00044096       0.00009671      -0.00855050 </v>
  </varray>
  <varray name="stress" >
   <v>       4.90388739       0.00000000      -0.00067222 </v>
   <v>       0.00000000       4.90452591       0.00000000 </v>
   <v>      -0.00067222       0.00000000      -3.63983376 </v>
  </varray>
  <energy>
   <i name="e_fr_energy">   -125.63354084 </i>
   <i name="e_wo_entrp">   -125.62748231 </i>
   <i name="e_0_energy">   -125.63051157 </i>
  </energy>
  <time name="totalsc">  125.73  127.02</time>
 </calculation>
 <calculation>
  <scstep>
   <time name="dav">    3.36    3.39</time>
   <time name="total">    3.57    3.61</time>
   <energy>
    <i name="alphaZ">     60.51935305 </i>
    <i name="ewald">   1877.54614539 </i>
    <i name="hartreedc">  -3488.27357181 </i>
    <i name="XCdc">    168.33088593 </i>
    <i name="pawpsdc">   5818.00217355 </i>
    <i name="pawaedc">  -5817.38286657 </i>
    <i name="eentropy">     -0.00606942 </i>
    <i name="bandstr">   -489.38772362 </i>
    <i name="atom">   1746.50554237 </i>
    <i name="e_fr_energy">   -124.14613112 </i>
    <i name="e_wo_entrp">   -124.14006170 </i>
    <i name="e_0_energy">   -124.14309641 </i>
   </energy>
  </scstep>
  <scstep>
   <time name="dav">    5.46    5.50</time>
   <time name="total">    5.66    5.72</time>
   <energy>
    <i name="e_fr_energy">   -124.14260936 </i>
    <i name="e_wo_entrp">   -124.13651935 </i>
    <i name="e_0_energy">   -124.13956435 </i>
   </energy>
  </scstep>
  <scstep>
   <time name="dav">    4.77    4.80</time>
   <time name="total">    4.97    5.02</time>
   <energy>
    <i name="e_fr_energy">   -124.14205174 </i>
    <i name="e_wo_entrp">   -124.13599695 </i>
    <i name="e_0_energy">   -124.13902435 </i>
   </energy>
  </scstep>
  <scstep>
   <time name="dav">    5.25    5.28</time>
   <time name="total">    5.45    5.50</time>
   <energy>
    <i name="e_fr_energy">   -124.14203195 </i>
    <i name="e_wo_entrp">   -124.13598751 </i>
    <i name="e_0_energy">   -124.13900973 </i>
   </energy>
  </scstep>
  <scstep>
   <time name="dav">    4.73    4.76</time>
   <time name="total">    4.93    4.97</time>
   <energy>
    <i name="e_fr_energy">   -124.14203161 </i>
    <i name="e_wo_entrp">   -124.13598478 </i>
    <i name="e_0_energy">   -124.13900819 </i>
   </energy>
  </scstep>
  <scstep>
   <time name="dav">    3.94    3.96</time>
   <time name="total">    4.14    4.18</time>
   <energy>
    <i name="e_fr_energy">   -124.14203290 </i>
    <i name="e_wo_entrp">   -124.13598597 </i>
    <i name="e_0_energy">   -124.13900943 </i>
   </energy>
  </scstep>
  <scstep>
   <time name="dav">    4.19    4.22</time>
   <time name="total">    4.39    4.44</time>
   <energy>
    <i name="e_fr_energy">   -124.14203442 </i>
    <i name="e_wo_entrp">   -124.13598823 </i>
    <i name="e_0_energy">   -124.13901133 </i>
   </energy>
  </scstep>
  <scstep>
   <time name="dav">    3.98    4.01</time>
   <time name="total">    4.18    4.22</time>
   <energy>
    <i name="e_fr_energy">   -124.14203644 </i>
    <i name="e_wo_entrp">   -124.13599101 </i>
    <i name="e_0_energy">   -124.13901372 </i>
   </energy>
  </scstep>
  <scstep>
   <time name="dav">    4.19    4.21</time>
   <time name="total">    4.39    4.43</time>
   <energy>
    <i name="e_fr_energy">   -124.14203818 </i>
    <i name="e_wo_entrp">   -124.13599274 </i>
    <i name="e_0_energy">   -124.13901546 </i>
   </energy>
  </scstep>
  <scstep>
   <time name="dav">    3.99    4.02</time>
   <time name="total">    4.02    4.06</time>
   <energy>
    <i name="alphaZ">     60.51935305 </i>
    <i name="ewald">   1877.54614539 </i>
    <i name="hartreedc">  -3487.62803921 </i>
    <i name="XCdc">    168.31856287 </i>
    <i name="pawpsdc">   5800.70276090 </i>
    <i name="pawaedc">  -5800.07813972 </i>
    <i name="eentropy">     -0.00604541 </i>
    <i name="bandstr">   -490.02217909 </i>
    <i name="atom">   1746.50554237 </i>
    <i name="e_fr_energy">   -124.14203887 </i>
    <i name="e_wo_entrp">   -124.13599346 </i>
    <i name="e_0_energy">   -124.13901617 </i>
   </energy>
  </scstep>
  <structure>
   <crystal>
    <varray name="basis" >
     <v>       4.31020843       2.48850000       0.00000000 </v>
     <v>      -4.31020843       2.48850000       0.00000000 </v>
     <v>       0.00000000       0.00000000      15.00000000 </v>
    </varray>
    <i name="volume">    321.77861069 </i>
    <varray name="rec_basis" >
     <v>       0.11600367       0.20092425       0.00000000 </v>
     <v>      -0.11600367       0.20092425       0.00000000 </v>
     <v>       0.00000000       0.00000000       0.06666667 </v>
    </varray>
   </crystal>
   <varray name="positions" >
    <v>       0.67063363      -0.00000011       0.10002643 </v>
    <v>       0.32936552      -0.00000014       0.10002650 </v>
    <v>       0.00000011       0.32936537       0.10002643 </v>
    <v>       0.00000014       0.67063348       0.10002650 </v>
    <v>       0.32936521       0.32936514       0.10002651 </v>
    <v>       0.67063386       0.67063379       0.10002651 </v>
    <v>       0.66666610       0.33333290       0.09924401 </v>
    <v>       0.33333255       0.66666645       0.10081488 </v>
    <v>       0.24999506       0.24999483       0.46903972 </v>
    <v>       0.41666293       0.08333420       0.46903917 </v>
    <v>       0.24999893       0.75000007       0.46903877 </v>
    <v>       0.41666704       0.58333196       0.46903940 </v>
    <v>       0.75000225       0.24999675       0.46903954 </v>
    <v>       0.91666736       0.08333164       0.46904008 </v>
    <v>       0.75000417       0.75000394       0.46903972 </v>
    <v>       0.91666480       0.58333607       0.46903917 </v>
   </varray>
  </structure>
  <varray name="forces" >
   <v>      -0.14867014      -0.08582965       0.00829655 </v>
   <v>       0.14866202       0.08585115       0.00831606 </v>
   <v>      -0.14867014       0.08582965       0.00829655 </v>
   <v>       0.14866202      -0.08585115       0.00831606 </v>
   <v>      -0.00000330       0.17171861       0.00831959 </v>
   <v>      -0.00000330      -0.17171861       0.00831959 </v>
   <v>      -0.00002412      -0.00000000       0.00880165 </v>
   <v>       0.00006911       0.00000000       0.00906813 </v>
   <v>      -0.00028445       0.00120724      -0.00842080 </v>
   <v>       0.00127916       0.00024355      -0.00851493 </v>
   <v>       0.00003251      -0.00000000      -0.00857170 </v>
   <v>      -0.00020037      -0.00000000      -0.00847552 </v>
   <v>      -0.00151548      -0.00000000      -0.00844847 </v>
   <v>      -0.00032824      -0.00000000      -0.00836703 </v>
   <v>      -0.00028445      -0.00120724      -0.00842080 </v>
   <v>       0.00127916      -0.00024355      -0.00851493 </v>
  </varray>
  <varray name="stress" >
   <v>       3.40867146       0.00000000      -0.00064186 </v>
   <v>       0.00000000       3.40553935       0.00000000 </v>
   <v>      -0.00064186       0.00000000      -3.64212537 </v>
  </varray>
  <energy>
   <i name="e_fr_energy">   -125.63377782 </i>
   <i name="e_wo_entrp">   -125.62773241 </i>
   <i name="e_0_energy">   -125.63075512 </i>
  </energy>
  <time name="totalsc">   48.82   49.28</time>
 </calculation>
 <calculation>
  <scstep>
   <time name="dav">    3.36    3.38</time>
   <time name="total">    3.56    3.59</time>
   <energy>
    <i name="alphaZ">     60.51935305 </i>
    <i name="ewald">   1878.02857881 </i>
    <i name="hartreedc">  -3487.75506617 </i>
    <i name="XCdc">    168.33597296 </i>
    <i name="pawpsdc">   5800.69340027 </i>
    <i name="pawaedc">  -5800.06878148 </i>
    <i name="eentropy">     -0.00594356 </i>
    <i name="bandstr">   -490.39835490 </i>
    <i name="atom">   1746.50554237 </i>
    <i name="e_fr_energy">   -124.14529865 </i>
    <i name="e_wo_entrp">   -124.13935510 </i>
    <i name="e_0_energy">   -124.14232688 </i>
   </energy>
  </scstep>
  <scstep>
   <time name="dav">    5.47    5.50</time>
   <time name="total">    5.67    5.72</time>
   <energy>
    <i name="e_fr_energy">   -124.14447241 </i>
    <i name="e_wo_entrp">   -124.13847413 </i>
    <i name="e_0_energy">   -124.14147327 </i>
   </energy>
  </scstep>
  <scstep>
   <time name="dav">    6.16    6.20</time>
   <time name="total">    6.36    6.41</time>
   <energy>
    <i name="e_fr_energy">   -124.14434071 </i>
    <i name="e_wo_entrp">   -124.13830828 </i>
    <i name="e_0_energy">   -124.14132449 </i>
   </energy>
  </scstep>
  <scstep>
   <time name="dav">    4.87    4.90</time>
   <time name="total">    5.07    5.12</time>
   <energy>
    <i name="e_fr_energy">   -124.14433606 </i>
    <i name="e_wo_entrp">   -124.13830090 </i>
    <i name="e_0_energy">   -124.14131848 </i>
   </energy>
  </scstep>
  <scstep>
   <time name="dav">    5.89    5.93</time>
   <time name="total">    5.92    5.96</time>
   <energy>
    <i name="alphaZ">     60.51935305 </i>
    <i name="ewald">   1878.02857881 </i>
    <i name="hartreedc">  -3488.05392089 </i>
    <i name="XCdc">    168.34179811 </i>
    <i name="pawpsdc">   5808.92836498 </i>
    <i name="pawaedc">  -5808.30623295 </i>
    <i name="eentropy">     -0.00603493 </i>
    <i name="bandstr">   -490.10178464 </i>
    <i name="atom">   1746.50554237 </i>
    <i name="e_fr_energy">   -124.14433610 </i>
    <i name="e_wo_entrp">   -124.13830117 </i>
    <i name="e_0_energy">   -124.14131864 </i>
   </energy>
  </scstep>
  <structure>
   <crystal>
    <varray name="basis" >
     <v>       4.31020843       2.48850000       0.00000000 </v>
     <v>      -4.31020843       2.48850000       0.00000000 </v>
     <v>       0.00000000       0.00000000      15.00000000 </v>
    </varray>
    <i name="volume">    321.77861069 </i>
    <varray name="rec_basis" >
     <v>       0.11600367       0.20092425       0.00000000 </v>
     <v>      -0.11600367       0.20092425       0.00000000 </v>
     <v>       0.00000000       0.00000000       0.06666667 </v>
    </varray>
   </crystal>
   <varray name="positions" >
    <v>       0.66978087      -0.00000006       0.10001353 </v>
    <v>       0.33021821      -0.00000007       0.10001356 </v>
    <v>       0.00000006       0.33021813       0.10001353 </v>
    <v>       0.00000007       0.66978079       0.10001356 </v>
    <v>       0.33021805       0.33021801       0.10001357 </v>
    <v>       0.66978099       0.66978095       0.10001357 </v>
    <v>       0.66666605       0.33333295       0.09923321 </v>
    <v>       0.33333277       0.66666623       0.10079693 </v>
    <v>       0.24999715       0.24999719       0.46905287 </v>
    <v>       0.41666459       0.08333345       0.46905259 </v>
    <v>       0.24999913       0.74999987       0.46905239 </v>
    <v>       0.41666670       0.58333230       0.46905271 </v>
    <v>       0.75000083       0.24999817       0.46905278 </v>
    <v>       0.91666686       0.08333214       0.46905306 </v>
    <v>       0.75000181       0.75000185       0.46905287 </v>
    <v>       0.91666555       0.58333441       0.46905259 </v>
   </varray>
  </structure>
  <varray name="forces" >
   <v>       0.00000652      -0.00000040       0.00826064 </v>
   <v>       0.00000834       0.00000731       0.00828168 </v>
   <v>       0.00000652       0.00000040       0.00826064 </v>
   <v>       0.00000834      -0.00000731       0.00828168 </v>
   <v>       0.00000053       0.00001489       0.00828521 </v>
   <v>       0.00000053      -0.00001489       0.00828521 </v>
   <v>      -0.00000474       0.00000000       0.00785624 </v>
   <v>      -0.00000403       0.00000000       0.01019135 </v>
   <v>      -0.00012057       0.00038674      -0.00839734 </v>
   <v>       0.00043799       0.00007667      -0.00853015 </v>
   <v>      -0.00001966       0.00000000      -0.00861902 </v>
   <v>      -0.00004010      -0.00000000      -0.00847418 </v>
   <v>      -0.00052000      -0.00000000      -0.00843983 </v>
   <v>      -0.00007708       0.00000000      -0.00831462 </v>
   <v>      -0.00012057      -0.00038674      -0.00839734 </v>
   <v>       0.00043799      -0.00007667      -0.00853015 </v>
  </varray>
  <varray name="stress" >
   <v>       4.09229380       0.00000000      -0.00065598 </v>
   <v>       0.00000000       4.09103486       0.00000000 </v>
   <v>      -0.00065598       0.00000000      -3.63306314 </v>
  </varray>
  <energy>
   <i name="e_fr_energy">   -125.63595486 </i>
   <i name="e_wo_entrp">   -125.62991993 </i>
   <i name="e_0_energy">   -125.63293740 </i>
  </energy>
  <time name="totalsc">   29.69   29.93</time>
 </calculation>
 <calculation>
  <scstep>
   <time name="dav">    3.60    3.62</time>
   <time name="total">    3.80    3.84</time>
   <energy>
    <i name="alphaZ">     60.51935305 </i>
    <i name="ewald">   1878.02552946 </i>
    <i name="hartreedc">  -3488.05507651 </i>
    <i name="XCdc">    168.34161463 </i>
    <i name="pawpsdc">   5808.98892629 </i>
    <i name="pawaedc">  -5808.36679004 </i>
    <i name="eentropy">     -0.00603510 </i>
    <i name="bandstr">   -490.09739956 </i>
    <i name="atom">   1746.50554237 </i>
    <i name="e_fr_energy">   -124.14433541 </i>
    <i name="e_wo_entrp">   -124.13830032 </i>
    <i name="e_0_energy">   -124.14131786 </i>
   </energy>
  </scstep>
  <scstep>
   <time name="dav">    4.45    4.48</time>
   <time name="total">    4.49    4.52</time>
   <energy>
    <i name="alphaZ">     60.51935305 </i>
    <i name="ewald">   1878.02552946 </i>
    <i name="hartreedc">  -3488.05638381 </i>
    <i name="XCdc">    168.34162806 </i>
    <i name="pawpsdc">   5808.95543842 </i>
    <i name="pawaedc">  -5808.33329888 </i>
    <i name="eentropy">     -0.00603522 </i>
    <i name="bandstr">   -490.09610894 </i>
    <i name="atom">   1746.50554237 </i>
    <i name="e_fr_energy">   -124.14433549 </i>
    <i name="e_wo_entrp">   -124.13830027 </i>
    <i name="e_0_energy">   -124.14131788 </i>
   </energy>
  </scstep>
  <structure>
   <crystal>
    <varray name="basis" >
     <v>       4.31020843       2.48850000       0.00000000 </v>
     <v>      -4.31020843       2.48850000       0.00000000 </v>
     <v>       0.00000000       0.00000000      15.00000000 </v>
    </varray>
    <i name="volume">    321.77861069 </i>
    <varray name="rec_basis" >
     <v>       0.11600367       0.20092425       0.00000000 </v>
     <v>      -0.11600367       0.20092425       0.00000000 </v>
     <v>       0.00000000       0.00000000       0.06666667 </v>
    </varray>
   </crystal>
   <varray name="positions" >
    <v>       0.66978613      -0.00000006       0.10001361 </v>
    <v>       0.33021295      -0.00000007       0.10001364 </v>
    <v>       0.00000006       0.33021287       0.10001361 </v>
    <v>       0.00000007       0.66978605       0.10001364 </v>
    <v>       0.33021279       0.33021275       0.10001365 </v>
    <v>       0.66978625       0.66978621       0.10001365 </v>
    <v>       0.66666605       0.33333295       0.09923328 </v>
    <v>       0.33333277       0.66666623       0.10079704 </v>
    <v>       0.24999713       0.24999718       0.46905279 </v>
    <v>       0.41666458       0.08333345       0.46905251 </v>
    <v>       0.24999912       0.74999988       0.46905231 </v>
    <v>       0.41666670       0.58333230       0.46905263 </v>
    <v>       0.75000084       0.24999816       0.46905270 </v>
    <v>       0.91666686       0.08333214       0.46905298 </v>
    <v>       0.75000182       0.75000187       0.46905279 </v>
    <v>       0.91666555       0.58333442       0.46905251 </v>
   </varray>
  </structure>
  <varray name="forces" >
   <v>      -0.00153725      -0.00089049       0.00825314 </v>
   <v>       0.00155072       0.00089946       0.00827382 </v>
   <v>      -0.00153725       0.00089049       0.00825314 </v>
   <v>       0.00155072      -0.00089946       0.00827382 </v>
   <v>       0.00000134       0.00179740       0.00827751 </v>
   <v>       0.00000134      -0.00179740       0.00827751 </v>
   <v>      -0.00000445      -0.00000000       0.00786804 </v>
   <v>      -0.00000296      -0.00000000       0.01017559 </v>
   <v>      -0.00012207       0.00039393      -0.00839188 </v>
   <v>       0.00044494       0.00007833      -0.00852350 </v>
   <v>      -0.00001864       0.00000000      -0.00861180 </v>
   <v>      -0.00004157      -0.00000000      -0.00846711 </v>
   <v>      -0.00052773       0.00000000      -0.00843281 </v>
   <v>      -0.00008001      -0.00000000      -0.00831009 </v>
   <v>      -0.00012207      -0.00039393      -0.00839188 </v>
   <v>       0.00044494      -0.00007833      -0.00852350 </v>
  </varray>
  <varray name="stress" >
   <v>       4.09234743       0.00000000      -0.00065612 </v>
   <v>       0.00000000       4.09104518       0.00000000 </v>
   <v>      -0.00065611       0.00000000      -3.63488535 </v>
  </varray>
  <energy>
   <i name="e_fr_energy">   -125.63595500 </i>
   <i name="e_wo_entrp">   -125.62991978 </i>
   <i name="e_0_energy">   -125.63293739 </i>
  </energy>
  <time name="totalsc">   11.37   11.47</time>
 </calculation>
 <calculation>
  <scstep>
   <time name="dav">    3.94    3.97</time>
   <time name="total">    4.14    4.18</time>
   <energy>
    <i name="alphaZ">     60.51935305 </i>
    <i name="ewald">   1878.02676901 </i>
    <i name="hartreedc">  -3488.05852751 </i>
    <i name="XCdc">    168.34169594 </i>
    <i name="pawpsdc">   5808.93052689 </i>
    <i name="pawaedc">  -5808.30838434 </i>
    <i name="eentropy">     -0.00603503 </i>
    <i name="bandstr">   -490.09527637 </i>
    <i name="atom">   1746.50554237 </i>
    <i name="e_fr_energy">   -124.14433599 </i>
    <i name="e_wo_entrp">   -124.13830095 </i>
    <i name="e_0_energy">   -124.14131847 </i>
   </energy>
  </scstep>
  <scstep>
   <time name="dav">    4.35    4.38</time>
   <time name="total">    4.39    4.42</time>
   <energy>
    <i name="alphaZ">     60.51935305 </i>
    <i name="ewald">   1878.02676901 </i>
    <i name="hartreedc">  -3488.06020981 </i>
    <i name="XCdc">    168.34172404 </i>
    <i name="pawpsdc">   5808.93154115 </i>
    <i name="pawaedc">  -5808.30940086 </i>
    <i name="eentropy">     -0.00603518 </i>
    <i name="bandstr">   -490.09361985 </i>
    <i name="atom">   1746.50554237 </i>
    <i name="e_fr_energy">   -124.14433607 </i>
    <i name="e_wo_entrp">   -124.13830089 </i>
    <i name="e_0_energy">   -124.14131848 </i>
   </energy>
  </scstep>
  <structure>
   <crystal>
    <varray name="basis" >
     <v>       4.31020843       2.48850000       0.00000000 </v>
     <v>      -4.31020843       2.48850000       0.00000000 </v>
     <v>       0.00000000       0.00000000      15.00000000 </v>
    </varray>
    <i name="volume">    321.77861069 </i>
    <varray name="rec_basis" >
     <v>       0.11600367       0.20092425       0.00000000 </v>
     <v>      -0.11600367       0.20092425       0.00000000 </v>
     <v>       0.00000000       0.00000000       0.06666667 </v>
    </varray>
   </crystal>
   <varray name="positions" >
    <v>       0.66978399      -0.00000006       0.10001357 </v>
    <v>       0.33021509      -0.00000007       0.10001361 </v>
    <v>       0.00000006       0.33021501       0.10001357 </v>
    <v>       0.00000007       0.66978391       0.10001361 </v>
    <v>       0.33021493       0.33021489       0.10001362 </v>
    <v>       0.66978411       0.66978407       0.10001362 </v>
    <v>       0.66666605       0.33333295       0.09923325 </v>
    <v>       0.33333277       0.66666623       0.10079700 </v>
    <v>       0.24999714       0.24999718       0.46905283 </v>
    <v>       0.41666458       0.08333345       0.46905254 </v>
    <v>       0.24999913       0.74999987       0.46905234 </v>
    <v>       0.41666670       0.58333230       0.46905266 </v>
    <v>       0.75000083       0.24999817       0.46905273 </v>
    <v>       0.91666686       0.08333214       0.46905301 </v>
    <v>       0.75000182       0.75000186       0.46905283 </v>
    <v>       0.91666555       0.58333442       0.46905254 </v>
   </varray>
  </structure>
  <varray name="forces" >
   <v>      -0.00139259      -0.00080699       0.00825160 </v>
   <v>       0.00140617       0.00081584       0.00827222 </v>
   <v>      -0.00139259       0.00080699       0.00825160 </v>
   <v>       0.00140617      -0.00081584       0.00827222 </v>
   <v>       0.00000130       0.00163026       0.00827586 </v>
   <v>       0.00000130      -0.00163026       0.00827586 </v>
   <v>      -0.00000433       0.00000000       0.00787358 </v>
   <v>      -0.00000314       0.00000000       0.01018055 </v>
   <v>      -0.00012189       0.00039167      -0.00839188 </v>
   <v>       0.00044276       0.00007807      -0.00852373 </v>
   <v>      -0.00001886      -0.00000000      -0.00861213 </v>
   <v>      -0.00004086       0.00000000      -0.00846735 </v>
   <v>      -0.00052517       0.00000000      -0.00843303 </v>
   <v>      -0.00007914       0.00000000      -0.00830976 </v>
   <v>      -0.00012189      -0.00039167      -0.00839188 </v>
   <v>       0.00044276      -0.00007807      -0.00852373 </v>
  </varray>
  <varray name="stress" >
   <v>       4.09425904       0.00000000      -0.00065640 </v>
   <v>       0.00000000       4.09294014       0.00000000 </v>
   <v>      -0.00065640       0.00000000      -3.63393707 </v>
  </varray>
  <energy>
   <i name="e_fr_energy">   -125.63595527 </i>
   <i name="e_wo_entrp">   -125.62992009 </i>
   <i name="e_0_energy">   -125.63293768 </i>
  </energy>
  <time name="totalsc">   11.61   11.71</time>
 </calculation>
 <calculation>
  <scstep>
   <time name="dav">    4.27    4.30</time>
   <time name="total">    4.47    4.51</time>
   <energy>
    <i name="alphaZ">     60.51935305 </i>
    <i name="ewald">   1878.02767387 </i>
    <i name="hartreedc">  -3488.06193611 </i>
    <i name="XCdc">    168.34177728 </i>
    <i name="pawpsdc">   5808.93005423 </i>
    <i name="pawaedc">  -5808.30791500 </i>
    <i name="eentropy">     -0.00603513 </i>
    <i name="bandstr">   -490.09285094 </i>
    <i name="atom">   1746.50554237 </i>
    <i name="e_fr_energy">   -124.14433639 </i>
    <i name="e_wo_entrp">   -124.13830125 </i>
    <i name="e_0_energy">   -124.14131882 </i>
   </energy>
  </scstep>
  <scstep>
   <time name="dav">    4.73    4.76</time>
   <time name="total">    4.76    4.79</time>
   <energy>
    <i name="alphaZ">     60.51935305 </i>
    <i name="ewald">   1878.02767387 </i>
    <i name="hartreedc">  -3488.06317265 </i>
    <i name="XCdc">    168.34179641 </i>
    <i name="pawpsdc">   5808.93619743 </i>
    <i name="pawaedc">  -5808.31406050 </i>
    <i name="eentropy">     -0.00603526 </i>
    <i name="bandstr">   -490.09163115 </i>
    <i name="atom">   1746.50554237 </i>
    <i name="e_fr_energy">   -124.14433643 </i>
    <i name="e_wo_entrp">   -124.13830118 </i>
    <i name="e_0_energy">   -124.14131881 </i>
   </energy>
  </scstep>
  <structure>
   <crystal>
    <varray name="basis" >
     <v>       4.31020843       2.48850000       0.00000000 </v>
     <v>      -4.31020843       2.48850000       0.00000000 </v>
     <v>       0.00000000       0.00000000      15.00000000 </v>
    </varray>
    <i name="volume">    321.77861069 </i>
    <varray name="rec_basis" >
     <v>       0.11600367       0.20092425       0.00000000 </v>
     <v>      -0.11600367       0.20092425       0.00000000 </v>
     <v>       0.00000000       0.00000000       0.06666667 </v>
    </varray>
   </crystal>
   <varray name="positions" >
    <v>       0.66978243      -0.00000006       0.10001355 </v>
    <v>       0.33021665      -0.00000007       0.10001359 </v>
    <v>       0.00000006       0.33021657       0.10001355 </v>
    <v>       0.00000007       0.66978235       0.10001359 </v>
    <v>       0.33021649       0.33021645       0.10001359 </v>
    <v>       0.66978255       0.66978251       0.10001359 </v>
    <v>       0.66666605       0.33333295       0.09923323 </v>
    <v>       0.33333277       0.66666623       0.10079696 </v>
    <v>       0.24999714       0.24999719       0.46905285 </v>
    <v>       0.41666459       0.08333345       0.46905257 </v>
    <v>       0.24999913       0.74999987       0.46905237 </v>
    <v>       0.41666670       0.58333230       0.46905269 </v>
    <v>       0.75000083       0.24999817       0.46905276 </v>
    <v>       0.91666686       0.08333214       0.46905304 </v>
    <v>       0.75000181       0.75000186       0.46905285 </v>
    <v>       0.91666555       0.58333441       0.46905257 </v>
   </varray>
  </structure>
  <varray name="forces" >
   <v>      -0.00111732      -0.00064812       0.00825205 </v>
   <v>       0.00113097       0.00065692       0.00827268 </v>
   <v>      -0.00111732       0.00064812       0.00825205 </v>
   <v>       0.00113097      -0.00065692       0.00827268 </v>
   <v>       0.00000129       0.00131237       0.00827629 </v>
   <v>       0.00000129      -0.00131237       0.00827629 </v>
   <v>      -0.00000430      -0.00000000       0.00787498 </v>
   <v>      -0.00000323      -0.00000000       0.01018625 </v>
   <v>      -0.00012166       0.00039014      -0.00839300 </v>
   <v>       0.00044127       0.00007776      -0.00852501 </v>
   <v>      -0.00001900       0.00000000      -0.00861349 </v>
   <v>      -0.00004054       0.00000000      -0.00846865 </v>
   <v>      -0.00052339      -0.00000000      -0.00843434 </v>
   <v>      -0.00007864      -0.00000000      -0.00831076 </v>
   <v>      -0.00012166      -0.00039014      -0.00839300 </v>
   <v>       0.00044127      -0.00007776      -0.00852501 </v>
  </varray>
  <varray name="stress" >
   <v>       4.09563234       0.00000000      -0.00065633 </v>
   <v>       0.00000000       4.09431432       0.00000000 </v>
   <v>      -0.00065632       0.00000000      -3.63574001 </v>
  </varray>
  <energy>
   <i name="e_fr_energy">   -125.63595542 </i>
   <i name="e_wo_entrp">   -125.62992016 </i>
   <i name="e_0_energy">   -125.63293779 </i>
  </energy>
  <time name="totalsc">   12.33   12.43</time>
 </calculation>
 <calculation>
  <scstep>
   <time name="dav">    4.30    4.33</time>
   <time name="total">    4.50    4.54</time>
   <energy>
    <i name="alphaZ">     60.51935305 </i>
    <i name="ewald">   1878.02812633 </i>
    <i name="hartreedc">  -3488.06459660 </i>
    <i name="XCdc">    168.34182917 </i>
    <i name="pawpsdc">   5808.94020788 </i>
    <i name="pawaedc">  -5808.31807226 </i>
    <i name="eentropy">     -0.00603528 </i>
    <i name="bandstr">   -490.09069126 </i>
    <i name="atom">   1746.50554237 </i>
    <i name="e_fr_energy">   -124.14433660 </i>
    <i name="e_wo_entrp">   -124.13830133 </i>
    <i name="e_0_energy">   -124.14131896 </i>
   </energy>
  </scstep>
  <scstep>
   <time name="dav">    4.99    5.03</time>
   <time name="total">    5.03    5.07</time>
   <energy>
    <i name="alphaZ">     60.51935305 </i>
    <i name="ewald">   1878.02812633 </i>
    <i name="hartreedc">  -3488.06535720 </i>
    <i name="XCdc">    168.34183935 </i>
    <i name="pawpsdc">   5808.94455451 </i>
    <i name="pawaedc">  -5808.32241999 </i>
    <i name="eentropy">     -0.00603534 </i>
    <i name="bandstr">   -490.08993971 </i>
    <i name="atom">   1746.50554237 </i>
    <i name="e_fr_energy">   -124.14433663 </i>
    <i name="e_wo_entrp">   -124.13830129 </i>
    <i name="e_0_energy">   -124.14131896 </i>
   </energy>
  </scstep>
  <structure>
   <crystal>
    <varray name="basis" >
     <v>       4.31020843       2.48850000       0.00000000 </v>
     <v>      -4.31020843       2.48850000       0.00000000 </v>
     <v>       0.00000000       0.00000000      15.00000000 </v>
    </varray>
    <i name="volume">    321.77861069 </i>
    <varray name="rec_basis" >
     <v>       0.11600367       0.20092425       0.00000000 </v>
     <v>      -0.11600367       0.20092425       0.00000000 </v>
     <v>       0.00000000       0.00000000       0.06666667 </v>
    </varray>
   </crystal>
   <varray name="positions" >
    <v>       0.66978165      -0.00000006       0.10001354 </v>
    <v>       0.33021743      -0.00000007       0.10001357 </v>
    <v>       0.00000006       0.33021735       0.10001354 </v>
    <v>       0.00000007       0.66978157       0.10001357 </v>
    <v>       0.33021727       0.33021723       0.10001358 </v>
    <v>       0.66978177       0.66978173       0.10001358 </v>
    <v>       0.66666605       0.33333295       0.09923322 </v>
    <v>       0.33333277       0.66666623       0.10079695 </v>
    <v>       0.24999715       0.24999719       0.46905286 </v>
    <v>       0.41666459       0.08333345       0.46905258 </v>
    <v>       0.24999913       0.74999987       0.46905238 </v>
    <v>       0.41666670       0.58333230       0.46905270 </v>
    <v>       0.75000083       0.24999817       0.46905277 </v>
    <v>       0.91666686       0.08333214       0.46905305 </v>
    <v>       0.75000181       0.75000185       0.46905286 </v>
    <v>       0.91666555       0.58333441       0.46905258 </v>
   </varray>
  </structure>
  <varray name="forces" >
   <v>      -0.00095386      -0.00055378       0.00825317 </v>
   <v>       0.00096754       0.00056252       0.00827384 </v>
   <v>      -0.00095386       0.00055378       0.00825317 </v>
   <v>       0.00096754      -0.00056252       0.00827384 </v>
   <v>       0.00000129       0.00112367       0.00827744 </v>
   <v>       0.00000129      -0.00112367       0.00827744 </v>
   <v>      -0.00000431      -0.00000000       0.00787607 </v>
   <v>      -0.00000330       0.00000000       0.01018972 </v>
   <v>      -0.00012152       0.00038939      -0.00839438 </v>
   <v>       0.00044052       0.00007758      -0.00852644 </v>
   <v>      -0.00001905      -0.00000000      -0.00861503 </v>
   <v>      -0.00004039      -0.00000000      -0.00847014 </v>
   <v>      -0.00052248      -0.00000000      -0.00843583 </v>
   <v>      -0.00007840      -0.00000000      -0.00831206 </v>
   <v>      -0.00012152      -0.00038939      -0.00839438 </v>
   <v>       0.00044052      -0.00007758      -0.00852644 </v>
  </varray>
  <varray name="stress" >
   <v>       4.09637739       0.00000000      -0.00065623 </v>
   <v>       0.00000000       4.09506297       0.00000000 </v>
   <v>      -0.00065625       0.00000000      -3.63746118 </v>
  </varray>
  <energy>
   <i name="e_fr_energy">   -125.63595550 </i>
   <i name="e_wo_entrp">   -125.62992016 </i>
   <i name="e_0_energy">   -125.63293783 </i>
  </energy>
  <time name="totalsc">   12.62   12.73</time>
 </calculation>
 <calculation>
  <scstep>
   <time name="dav">    3.43    3.46</time>
   <time name="total">    3.63    3.67</time>
   <energy>
    <i name="alphaZ">     60.51935305 </i>
    <i name="ewald">   1878.65679768 </i>
    <i name="hartreedc">  -3488.69481228 </i>
    <i name="XCdc">    168.34184765 </i>
    <i name="pawpsdc">   5808.94739656 </i>
    <i name="pawaedc">  -5808.32526259 </i>
    <i name="eentropy">     -0.00603540 </i>
    <i name="bandstr">   -490.08917049 </i>
    <i name="atom">   1746.50554237 </i>
    <i name="e_fr_energy">   -124.14434346 </i>
    <i name="e_wo_entrp">   -124.13830806 </i>
    <i name="e_0_energy">   -124.14132576 </i>
   </energy>
  </scstep>
  <scstep>
   <time name="dav">    3.78    3.80</time>
   <time name="total">    3.98    4.01</time>
   <energy>
    <i name="e_fr_energy">   -124.14434241 </i>
    <i name="e_wo_entrp">   -124.13830674 </i>
    <i name="e_0_energy">   -124.14132458 </i>
   </energy>
  </scstep>
  <scstep>
   <time name="dav">    4.01    4.04</time>
   <time name="total">    4.04    4.07</time>
   <energy>
    <i name="alphaZ">     60.51935305 </i>
    <i name="ewald">   1878.65679768 </i>
    <i name="hartreedc">  -3488.70377835 </i>
    <i name="XCdc">    168.34187421 </i>
    <i name="pawpsdc">   5808.93794451 </i>
    <i name="pawaedc">  -5808.31580837 </i>
    <i name="eentropy">     -0.00603549 </i>
    <i name="bandstr">   -490.08023137 </i>
    <i name="atom">   1746.50554237 </i>
    <i name="e_fr_energy">   -124.14434176 </i>
    <i name="e_wo_entrp">   -124.13830628 </i>
    <i name="e_0_energy">   -124.14132402 </i>
   </energy>
  </scstep>
  <structure>
   <crystal>
    <varray name="basis" >
     <v>       4.31020843       2.48850000       0.00000000 </v>
     <v>      -4.31020843       2.48850000       0.00000000 </v>
     <v>       0.00000000       0.00000000      15.00000000 </v>
    </varray>
    <i name="volume">    321.77861069 </i>
    <varray name="rec_basis" >
     <v>       0.11600367       0.20092425       0.00000000 </v>
     <v>      -0.11600367       0.20092425       0.00000000 </v>
     <v>       0.00000000       0.00000000       0.06666667 </v>
    </varray>
   </crystal>
   <varray name="positions" >
    <v>       0.66978174      -0.00000008       0.10003764 </v>
    <v>       0.33021749      -0.00000004       0.10003774 </v>
    <v>       0.00000008       0.33021726       0.10003764 </v>
    <v>       0.00000004       0.66978151       0.10003774 </v>
    <v>       0.33021736       0.33021730       0.10003775 </v>
    <v>       0.66978170       0.66978164       0.10003775 </v>
    <v>       0.66666603       0.33333297       0.09925620 </v>
    <v>       0.33333275       0.66666625       0.10082673 </v>
    <v>       0.24999991       0.25000118       0.46902835 </v>
    <v>       0.41666747       0.08333191       0.46902768 </v>
    <v>       0.24999903       0.74999997       0.46902722 </v>
    <v>       0.41666650       0.58333250       0.46902797 </v>
    <v>       0.74999821       0.25000079       0.46902813 </v>
    <v>       0.91666647       0.08333253       0.46902877 </v>
    <v>       0.74999782       0.74999909       0.46902835 </v>
    <v>       0.91666709       0.58333153       0.46902768 </v>
   </varray>
  </structure>
  <varray name="forces" >
   <v>      -0.00093675      -0.00054863       0.00796966 </v>
   <v>       0.00094622       0.00053348       0.00798925 </v>
   <v>      -0.00093675       0.00054863       0.00796966 </v>
   <v>       0.00094622      -0.00053348       0.00798925 </v>
   <v>      -0.00000118       0.00108154       0.00799199 </v>
   <v>      -0.00000118      -0.00108154       0.00799199 </v>
   <v>       0.00000859       0.00000000       0.00758225 </v>
   <v>      -0.00000455       0.00000000       0.00991940 </v>
   <v>       0.00043858      -0.00091444      -0.00813889 </v>
   <v>      -0.00120063      -0.00018899      -0.00821202 </v>
   <v>       0.00018887      -0.00000000      -0.00825804 </v>
   <v>      -0.00007444       0.00000000      -0.00818547 </v>
   <v>       0.00137315      -0.00000000      -0.00816548 </v>
   <v>       0.00001590       0.00000000      -0.00809263 </v>
   <v>       0.00043858       0.00091444      -0.00813889 </v>
   <v>      -0.00120063       0.00018899      -0.00821202 </v>
  </varray>
  <varray name="stress" >
   <v>       4.09448603       0.00000000      -0.00065567 </v>
   <v>       0.00000000       4.09686679       0.00000000 </v>
   <v>      -0.00065567       0.00000000      -3.64208833 </v>
  </varray>
  <energy>
   <i name="e_fr_energy">   -125.63600586 </i>
   <i name="e_wo_entrp">   -125.62997037 </i>
   <i name="e_0_energy">   -125.63298812 </i>
  </energy>
  <time name="totalsc">   14.73   14.86</time>
 </calculation>
 <calculation>
  <scstep>
   <time name="dav">    3.26    3.28</time>
   <time name="total">    3.47    3.51</time>
   <energy>
    <i name="alphaZ">     60.51935305 </i>
    <i name="ewald">   1880.54422999 </i>
    <i name="hartreedc">  -3490.58916400 </i>
    <i name="XCdc">    168.34186961 </i>
    <i name="pawpsdc">   5808.94258952 </i>
    <i name="pawaedc">  -5808.32045307 </i>
    <i name="eentropy">     -0.00603546 </i>
    <i name="bandstr">   -490.08230309 </i>
    <i name="atom">   1746.50554237 </i>
    <i name="e_fr_energy">   -124.14437109 </i>
    <i name="e_wo_entrp">   -124.13833563 </i>
    <i name="e_0_energy">   -124.14135336 </i>
   </energy>
  </scstep>
  <scstep>
   <time name="dav">    3.58    3.61</time>
   <time name="total">    3.79    3.83</time>
   <energy>
    <i name="e_fr_energy">   -124.14436165 </i>
    <i name="e_wo_entrp">   -124.13832540 </i>
    <i name="e_0_energy">   -124.14134353 </i>
   </energy>
  </scstep>
  <scstep>
   <time name="dav">    4.95    4.98</time>
   <time name="total">    5.15    5.20</time>
   <energy>
    <i name="e_fr_energy">   -124.14435537 </i>
    <i name="e_wo_entrp">   -124.13831971 </i>
    <i name="e_0_energy">   -124.14133754 </i>
   </energy>
  </scstep>
  <scstep>
   <time name="dav">    3.88    3.91</time>
   <time name="total">    3.91    3.95</time>
   <energy>
    <i name="alphaZ">     60.51935305 </i>
    <i name="ewald">   1880.54422999 </i>
    <i name="hartreedc">  -3490.60440202 </i>
    <i name="XCdc">    168.34191506 </i>
    <i name="pawpsdc">   5808.93003599 </i>
    <i name="pawaedc">  -5808.30789306 </i>
    <i name="eentropy">     -0.00603544 </i>
    <i name="bandstr">   -490.06710177 </i>
    <i name="atom">   1746.50554237 </i>
    <i name="e_fr_energy">   -124.14435583 </i>
    <i name="e_wo_entrp">   -124.13832038 </i>
    <i name="e_0_energy">   -124.14133810 </i>
   </energy>
  </scstep>
  <structure>
   <crystal>
    <varray name="basis" >
     <v>       4.31020843       2.48850000       0.00000000 </v>
     <v>      -4.31020843       2.48850000       0.00000000 </v>
     <v>       0.00000000       0.00000000      15.00000000 </v>
    </varray>
    <i name="volume">    321.77861069 </i>
    <varray name="rec_basis" >
     <v>       0.11600367       0.20092425       0.00000000 </v>
     <v>      -0.11600367       0.20092425       0.00000000 </v>
     <v>       0.00000000       0.00000000       0.06666667 </v>
    </varray>
   </crystal>
   <varray name="positions" >
    <v>       0.66978200      -0.00000017       0.10010994 </v>
    <v>       0.33021767       0.00000006       0.10011022 </v>
    <v>       0.00000017       0.33021700       0.10010994 </v>
    <v>      -0.00000006       0.66978133       0.10011022 </v>
    <v>       0.33021762       0.33021753       0.10011027 </v>
    <v>       0.66978147       0.66978138       0.10011027 </v>
    <v>       0.66666596       0.33333304       0.09932515 </v>
    <v>       0.33333269       0.66666631       0.10091607 </v>
    <v>       0.25000822       0.25001316       0.46895480 </v>
    <v>       0.41667613       0.08332730       0.46895298 </v>
    <v>       0.24999873       0.75000027       0.46895174 </v>
    <v>       0.41666590       0.58333310       0.46895376 </v>
    <v>       0.74999034       0.25000866       0.46895423 </v>
    <v>       0.91666530       0.08333370       0.46895595 </v>
    <v>       0.74998584       0.74999078       0.46895480 </v>
    <v>       0.91667170       0.58332287       0.46895298 </v>
   </varray>
  </structure>
  <varray name="forces" >
   <v>      -0.00097018      -0.00058980       0.00832409 </v>
   <v>       0.00097341       0.00049727       0.00833951 </v>
   <v>      -0.00097018       0.00058980       0.00832409 </v>
   <v>       0.00097341      -0.00049727       0.00833951 </v>
   <v>      -0.00001738       0.00105935       0.00834043 </v>
   <v>      -0.00001738      -0.00105935       0.00834043 </v>
   <v>       0.00005163      -0.00000000       0.00774857 </v>
   <v>      -0.00000021      -0.00000000       0.01012103 </v>
   <v>       0.00211591      -0.00465322      -0.00853033 </v>
   <v>      -0.00602548      -0.00091926      -0.00843682 </v>
   <v>       0.00090612      -0.00000000      -0.00835861 </v>
   <v>      -0.00022765      -0.00000000      -0.00848737 </v>
   <v>       0.00695193      -0.00000000      -0.00850948 </v>
   <v>       0.00016566      -0.00000000      -0.00858791 </v>
   <v>       0.00211591       0.00465322      -0.00853033 </v>
   <v>      -0.00602548       0.00091926      -0.00843682 </v>
  </varray>
  <varray name="stress" >
   <v>       4.08686286       0.00000000      -0.00066025 </v>
   <v>       0.00000000       4.10429018       0.00000000 </v>
   <v>      -0.00066024       0.00000000      -3.64664645 </v>
  </varray>
  <energy>
   <i name="e_fr_energy">   -125.63615579 </i>
   <i name="e_wo_entrp">   -125.63012035 </i>
   <i name="e_0_energy">   -125.63313807 </i>
  </energy>
  <time name="totalsc">   19.43   19.61</time>
 </calculation>
 <calculation>
  <scstep>
   <time name="dav">    3.29    3.31</time>
   <time name="total">    3.49    3.53</time>
   <energy>
    <i name="alphaZ">     60.51935305 </i>
    <i name="ewald">   1884.32547649 </i>
    <i name="hartreedc">  -3494.37915742 </i>
    <i name="XCdc">    168.34190933 </i>
    <i name="pawpsdc">   5808.93903743 </i>
    <i name="pawaedc">  -5808.31689757 </i>
    <i name="eentropy">     -0.00603538 </i>
    <i name="bandstr">   -490.07366821 </i>
    <i name="atom">   1746.50554237 </i>
    <i name="e_fr_energy">   -124.14443992 </i>
    <i name="e_wo_entrp">   -124.13840454 </i>
    <i name="e_0_energy">   -124.14142223 </i>
   </energy>
  </scstep>
  <scstep>
   <time name="dav">    3.53    3.56</time>
   <time name="total">    3.73    3.77</time>
   <energy>
    <i name="e_fr_energy">   -124.14440517 </i>
    <i name="e_wo_entrp">   -124.13836822 </i>
    <i name="e_0_energy">   -124.14138670 </i>
   </energy>
  </scstep>
  <scstep>
   <time name="dav">    4.63    4.66</time>
   <time name="total">    4.83    4.88</time>
   <energy>
    <i name="e_fr_energy">   -124.14437697 </i>
    <i name="e_wo_entrp">   -124.13834116 </i>
    <i name="e_0_energy">   -124.14135907 </i>
   </energy>
  </scstep>
  <scstep>
   <time name="dav">    4.43    4.46</time>
   <time name="total">    4.63    4.68</time>
   <energy>
    <i name="e_fr_energy">   -124.14437827 </i>
    <i name="e_wo_entrp">   -124.13834291 </i>
    <i name="e_0_energy">   -124.14136059 </i>
   </energy>
  </scstep>
  <scstep>
   <time name="dav">    3.47    3.50</time>
   <time name="total">    3.51    3.53</time>
   <energy>
    <i name="alphaZ">     60.51935305 </i>
    <i name="ewald">   1884.32547649 </i>
    <i name="hartreedc">  -3494.39588978 </i>
    <i name="XCdc">    168.34198022 </i>
    <i name="pawpsdc">   5808.93135054 </i>
    <i name="pawaedc">  -5808.30920455 </i>
    <i name="eentropy">     -0.00603527 </i>
    <i name="bandstr">   -490.05695212 </i>
    <i name="atom">   1746.50554237 </i>
    <i name="e_fr_energy">   -124.14437906 </i>
    <i name="e_wo_entrp">   -124.13834379 </i>
    <i name="e_0_energy">   -124.14136142 </i>
   </energy>
  </scstep>
  <structure>
   <crystal>
    <varray name="basis" >
     <v>       4.31020843       2.48850000       0.00000000 </v>
     <v>      -4.31020843       2.48850000       0.00000000 </v>
     <v>       0.00000000       0.00000000      15.00000000 </v>
    </varray>
    <i name="volume">    321.77861069 </i>
    <varray name="rec_basis" >
     <v>       0.11600367       0.20092425       0.00000000 </v>
     <v>      -0.11600367       0.20092425       0.00000000 </v>
     <v>       0.00000000       0.00000000       0.06666667 </v>
    </varray>
   </crystal>
   <varray name="positions" >
    <v>       0.66978252      -0.00000033       0.10025456 </v>
    <v>       0.33021803       0.00000026       0.10025520 </v>
    <v>       0.00000033       0.33021648       0.10025456 </v>
    <v>      -0.00000026       0.66978097       0.10025520 </v>
    <v>       0.33021814       0.33021797       0.10025531 </v>
    <v>       0.66978103       0.66978086       0.10025531 </v>
    <v>       0.66666584       0.33333316       0.09946305 </v>
    <v>       0.33333258       0.66666642       0.10109475 </v>
    <v>       0.25002483       0.25003712       0.46880772 </v>
    <v>       0.41669343       0.08331807       0.46880357 </v>
    <v>       0.24999814       0.75000086       0.46880078 </v>
    <v>       0.41666470       0.58333430       0.46880534 </v>
    <v>       0.74997460       0.25002440       0.46880641 </v>
    <v>       0.91666296       0.08333604       0.46881031 </v>
    <v>       0.74996188       0.74997417       0.46880772 </v>
    <v>       0.91668093       0.58330557       0.46880357 </v>
   </varray>
  </structure>
  <varray name="forces" >
   <v>      -0.00104080      -0.00065798       0.00832934 </v>
   <v>       0.00101523       0.00043240       0.00833573 </v>
   <v>      -0.00104080       0.00065798       0.00832934 </v>
   <v>       0.00101523      -0.00043240       0.00833573 </v>
   <v>      -0.00003439       0.00100864       0.00833322 </v>
[...]
 </calculation>
 <calculation>
  <scstep>
   <time name="dav">    3.26    3.28</time>
   <time name="total">    3.46    3.49</time>
   <energy>
    <i name="alphaZ">     60.51935305 </i>
    <i name="ewald">   4445.45073046 </i>
    <i name="hartreedc">  -6055.85693627 </i>
    <i name="XCdc">    168.47200629 </i>
    <i name="pawpsdc">   5781.02739623 </i>
    <i name="pawaedc">  -5780.39710737 </i>
    <i name="eentropy">     -0.00394506 </i>
    <i name="bandstr">   -489.77507628 </i>
    <i name="atom">   1746.50554237 </i>
    <i name="e_fr_energy">   -124.05803658 </i>
    <i name="e_wo_entrp">   -124.05409152 </i>
    <i name="e_0_energy">   -124.05606405 </i>
   </energy>
  </scstep>
  <scstep>
   <time name="dav">    4.44    4.47</time>
   <time name="total">    4.64    4.69</time>
   <energy>
    <i name="e_fr_energy">   -124.05804384 </i>
    <i name="e_wo_entrp">   -124.05410107 </i>
    <i name="e_0_energy">   -124.05607245 </i>
   </energy>
  </scstep>
  <scstep>
   <time name="dav">    4.37    4.40</time>
   <time name="total">    4.57    4.62</time>
   <energy>
    <i name="e_fr_energy">   -124.05804225 </i>
    <i name="e_wo_entrp">   -124.05410176 </i>
    <i name="e_0_energy">   -124.05607200 </i>
   </energy>
  </scstep>
  <scstep>
   <time name="dav">    3.65    3.67</time>
   <time name="total">    3.85    3.90</time>
   <energy>
    <i name="e_fr_energy">   -124.05804332 </i>
    <i name="e_wo_entrp">   -124.05410344 </i>
    <i name="e_0_energy">   -124.05607338 </i>
   </energy>
  </scstep>
  <scstep>
   <time name="dav">    3.60    3.62</time>
   <time name="total">    3.80    3.84</time>
   <energy>
    <i name="e_fr_energy">   -124.05804141 </i>
    <i name="e_wo_entrp">   -124.05410155 </i>
    <i name="e_0_energy">   -124.05607148 </i>
   </energy>
  </scstep>
  <scstep>
   <time name="dav">    5.35    5.38</time>
   <time name="total">    5.38    5.42</time>
   <energy>
    <i name="alphaZ">     60.51935305 </i>
    <i name="ewald">   4445.45073046 </i>
    <i name="hartreedc">  -6055.83284464 </i>
    <i name="XCdc">    168.47106407 </i>
    <i name="pawpsdc">   5780.91444378 </i>
    <i name="pawaedc">  -5780.28412125 </i>
    <i name="eentropy">     -0.00393987 </i>
    <i name="bandstr">   -489.79826911 </i>
    <i name="atom">   1746.50554237 </i>
    <i name="e_fr_energy">   -124.05804115 </i>
    <i name="e_wo_entrp">   -124.05410128 </i>
    <i name="e_0_energy">   -124.05607121 </i>
   </energy>
  </scstep>
  <structure>
   <crystal>
    <varray name="basis" >
     <v>       4.31020843       2.48850000       0.00000000 </v>
     <v>      -4.31020843       2.48850000       0.00000000 </v>
     <v>       0.00000000       0.00000000      15.00000000 </v>
    </varray>
    <i name="volume">    321.77861069 </i>
    <varray name="rec_basis" >
     <v>       0.11600367       0.20092425       0.00000000 </v>
     <v>      -0.11600367       0.20092425       0.00000000 </v>
     <v>       0.00000000       0.00000000       0.06666667 </v>
    </varray>
   </crystal>
   <varray name="positions" >
    <v>       0.67069054      -0.00213341       0.16710120 </v>
    <v>       0.33325850      -0.00201449       0.16703794 </v>
    <v>       0.00213341       0.32930846       0.16710120 </v>
    <v>       0.00201449       0.66674050       0.16703794 </v>
    <v>       0.33309077       0.32928094       0.16620058 </v>
    <v>       0.67071806       0.66690823       0.16620058 </v>
    <v>       0.66835279       0.33164621       0.15528406 </v>
    <v>       0.33502217       0.66497683       0.17942848 </v>
    <v>       0.24812797       0.25190974       0.40210787 </v>
    <v>       0.41475989       0.08527945       0.40217179 </v>
    <v>       0.24809282       0.75190618       0.40224850 </v>
    <v>       0.41477049       0.58522851       0.40225240 </v>
    <v>       0.74808836       0.25191064       0.40211060 </v>
    <v>       0.91473059       0.08526841       0.40197056 </v>
    <v>       0.74808926       0.75187103       0.40210787 </v>
    <v>       0.91471955       0.58523911       0.40217179 </v>
   </varray>
  </structure>
  <varray name="forces" >
   <v>      -0.00539574       0.00432206       0.00399693 </v>
   <v>       0.00583274       0.01007079       0.00629170 </v>
   <v>      -0.00539574      -0.00432206       0.00399693 </v>
   <v>       0.00583274      -0.01007079       0.00629170 </v>
   <v>       0.00826485       0.00396656       0.00115144 </v>
   <v>       0.00826485      -0.00396656       0.00115144 </v>
   <v>       0.00171665      -0.00000000      -0.01350903 </v>
   <v>       0.00259416      -0.00000000      -0.00584703 </v>
   <v>      -0.01279604      -0.00708816       0.00340850 </v>
   <v>       0.00458034       0.00085385      -0.00139025 </v>
   <v>      -0.01311116      -0.00000000      -0.00802576 </v>
   <v>       0.00580554      -0.00000000      -0.00403135 </v>
   <v>      -0.01163444      -0.00000000      -0.00106946 </v>
   <v>       0.01365697      -0.00000000       0.00556598 </v>
   <v>      -0.01279604       0.00708816       0.00340850 </v>
   <v>       0.00458034      -0.00085385      -0.00139025 </v>
  </varray>
  <varray name="stress" >
   <v>       0.56817088       0.00000000      -0.37426708 </v>
   <v>       0.00000000       0.50262530       0.00000000 </v>
   <v>      -0.37426707       0.00000000      -1.65063450 </v>
  </varray>
  <energy>
   <i name="e_fr_energy">   -125.91639653 </i>
   <i name="e_wo_entrp">   -125.91245667 </i>
   <i name="e_0_energy">   -125.91442660 </i>
  </energy>
  <time name="totalsc">   28.80   29.06</time>
 </calculation>
 <calculation>
  <scstep>
   <time name="dav">    3.26    3.29</time>
   <time name="total">    3.47    3.51</time>
   <energy>
    <i name="alphaZ">     60.51935305 </i>
    <i name="ewald">   4446.41825199 </i>
    <i name="hartreedc">  -6056.79022626 </i>
    <i name="XCdc">    168.47191336 </i>
    <i name="pawpsdc">   5780.91709351 </i>
    <i name="pawaedc">  -5780.28677226 </i>
    <i name="eentropy">     -0.00396403 </i>
    <i name="bandstr">   -489.80905604 </i>
    <i name="atom">   1746.50554237 </i>
    <i name="e_fr_energy">   -124.05786431 </i>
    <i name="e_wo_entrp">   -124.05390028 </i>
    <i name="e_0_energy">   -124.05588230 </i>
   </energy>
  </scstep>
  <scstep>
   <time name="dav">    5.31    5.34</time>
   <time name="total">    5.51    5.55</time>
   <energy>
    <i name="e_fr_energy">   -124.05786671 </i>
    <i name="e_wo_entrp">   -124.05390299 </i>
    <i name="e_0_energy">   -124.05588485 </i>
   </energy>
  </scstep>
  <scstep>
   <time name="dav">    4.33    4.35</time>
   <time name="total">    4.36    4.39</time>
   <energy>
    <i name="alphaZ">     60.51935305 </i>
    <i name="ewald">   4446.41825199 </i>
    <i name="hartreedc">  -6056.79619061 </i>
    <i name="XCdc">    168.47150894 </i>
    <i name="pawpsdc">   5780.99522237 </i>
    <i name="pawaedc">  -5780.36492965 </i>
    <i name="eentropy">     -0.00396344 </i>
    <i name="bandstr">   -489.80266075 </i>
    <i name="atom">   1746.50554237 </i>
    <i name="e_fr_energy">   -124.05786573 </i>
    <i name="e_wo_entrp">   -124.05390229 </i>
    <i name="e_0_energy">   -124.05588401 </i>
   </energy>
  </scstep>
  <structure>
   <crystal>
    <varray name="basis" >
     <v>       4.31020843       2.48850000       0.00000000 </v>
     <v>      -4.31020843       2.48850000       0.00000000 </v>
     <v>       0.00000000       0.00000000      15.00000000 </v>
    </varray>
    <i name="volume">    321.77861069 </i>
    <varray name="rec_basis" >
     <v>       0.11600367       0.20092425       0.00000000 </v>
     <v>      -0.11600367       0.20092425       0.00000000 </v>
     <v>       0.00000000       0.00000000       0.06666667 </v>
    </varray>
   </crystal>
   <varray name="positions" >
    <v>       0.67074952      -0.00216486       0.16712225 </v>
    <v>       0.33329927      -0.00205011       0.16705845 </v>
    <v>       0.00216486       0.32924948       0.16712225 </v>
    <v>       0.00205011       0.66669973       0.16705845 </v>
    <v>       0.33315140       0.32919686       0.16622364 </v>
    <v>       0.67080214       0.66684760       0.16622364 </v>
    <v>       0.66842711       0.33157189       0.15532336 </v>
    <v>       0.33510158       0.66489742       0.17940641 </v>
    <v>       0.24804029       0.25196613       0.40208604 </v>
    <v>       0.41470648       0.08531788       0.40214326 </v>
    <v>       0.24802980       0.75196920       0.40222611 </v>
    <v>       0.41473401       0.58526499       0.40224102 </v>
    <v>       0.74800769       0.25199131       0.40210437 </v>
    <v>       0.91468141       0.08531759       0.40196476 </v>
    <v>       0.74803287       0.75195871       0.40208604 </v>
    <v>       0.91468112       0.58529252       0.40214326 </v>
   </varray>
  </structure>
  <varray name="forces" >
   <v>      -0.00099020      -0.00014248       0.00372793 </v>
   <v>       0.01192140       0.00700291       0.00608009 </v>
   <v>      -0.00099020       0.00014248       0.00372793 </v>
   <v>       0.01192140      -0.00700291       0.00608009 </v>
   <v>       0.00192604       0.00539328       0.00131404 </v>
   <v>       0.00192604      -0.00539328       0.00131404 </v>
   <v>      -0.00195503       0.00000000      -0.01438004 </v>
   <v>      -0.00198874      -0.00000000      -0.00622392 </v>
   <v>      -0.00068060      -0.00360971       0.00490908 </v>
   <v>      -0.00648635       0.00113028       0.00126636 </v>
   <v>      -0.00257448       0.00000000      -0.00770407 </v>
   <v>      -0.00701863       0.00000000      -0.00583873 </v>
   <v>       0.00186792       0.00000000      -0.00389768 </v>
   <v>       0.00028838       0.00000000       0.00344943 </v>
   <v>      -0.00068060       0.00360971       0.00490908 </v>
   <v>      -0.00648635      -0.00113028       0.00126636 </v>
  </varray>
  <varray name="stress" >
   <v>       0.53338784       0.00000000      -0.37478004 </v>
   <v>       0.00000000       0.54293201       0.00000000 </v>
   <v>      -0.37478004       0.00000000      -1.63699065 </v>
  </varray>
  <energy>
   <i name="e_fr_energy">   -125.91642307 </i>
   <i name="e_wo_entrp">   -125.91245963 </i>
   <i name="e_0_energy">   -125.91444135 </i>
  </energy>
  <time name="totalsc">   16.43   16.58</time>
 </calculation>
 <calculation>
  <scstep>
   <time name="dav">    3.32    3.34</time>
   <time name="total">    3.52    3.56</time>
   <energy>
    <i name="alphaZ">     60.51935305 </i>
    <i name="ewald">   4447.06941805 </i>
    <i name="hartreedc">  -6057.43763105 </i>
    <i name="XCdc">    168.47212980 </i>
    <i name="pawpsdc">   5781.01931885 </i>
    <i name="pawaedc">  -5780.38903250 </i>
    <i name="eentropy">     -0.00397982 </i>
    <i name="bandstr">   -489.81285350 </i>
    <i name="atom">   1746.50554237 </i>
    <i name="e_fr_energy">   -124.05773476 </i>
    <i name="e_wo_entrp">   -124.05375493 </i>
    <i name="e_0_energy">   -124.05574485 </i>
   </energy>
  </scstep>
  <scstep>
   <time name="dav">    5.33    5.36</time>
   <time name="total">    5.53    5.58</time>
   <energy>
    <i name="e_fr_energy">   -124.05773600 </i>
    <i name="e_wo_entrp">   -124.05375638 </i>
    <i name="e_0_energy">   -124.05574619 </i>
   </energy>
  </scstep>
  <scstep>
   <time name="dav">    4.11    4.14</time>
   <time name="total">    4.14    4.17</time>
   <energy>
    <i name="alphaZ">     60.51935305 </i>
    <i name="ewald">   4447.06941805 </i>
    <i name="hartreedc">  -6057.43859622 </i>
    <i name="XCdc">    168.47185501 </i>
    <i name="pawpsdc">   5781.08542051 </i>
    <i name="pawaedc">  -5780.45515348 </i>
    <i name="eentropy">     -0.00397941 </i>
    <i name="bandstr">   -489.81159552 </i>
    <i name="atom">   1746.50554237 </i>
    <i name="e_fr_energy">   -124.05773564 </i>
    <i name="e_wo_entrp">   -124.05375623 </i>
    <i name="e_0_energy">   -124.05574594 </i>
   </energy>
  </scstep>
  <structure>
   <crystal>
    <varray name="basis" >
     <v>       4.31020843       2.48850000       0.00000000 </v>
     <v>      -4.31020843       2.48850000       0.00000000 </v>
     <v>       0.00000000       0.00000000      15.00000000 </v>
    </varray>
    <i name="volume">    321.77861069 </i>
    <varray name="rec_basis" >
     <v>       0.11600367       0.20092425       0.00000000 </v>
     <v>      -0.11600367       0.20092425       0.00000000 </v>
     <v>       0.00000000       0.00000000       0.06666667 </v>
    </varray>
   </crystal>
   <varray name="positions" >
    <v>       0.67078921      -0.00218603       0.16713641 </v>
    <v>       0.33332670      -0.00207407       0.16707226 </v>
    <v>       0.00218603       0.32920979       0.16713641 </v>
    <v>       0.00207407       0.66667230       0.16707226 </v>
    <v>       0.33319221       0.32914027       0.16623916 </v>
    <v>       0.67085873       0.66680679       0.16623916 </v>
    <v>       0.66847713       0.33152187       0.15534982 </v>
    <v>       0.33515502       0.66484398       0.17939156 </v>
    <v>       0.24798129       0.25200408       0.40207136 </v>
    <v>       0.41467053       0.08534374       0.40212407 </v>
    <v>       0.24798739       0.75201161       0.40221103 </v>
    <v>       0.41470945       0.58528955       0.40223337 </v>
    <v>       0.74795339       0.25204561       0.40210017 </v>
    <v>       0.91464831       0.08535069       0.40196086 </v>
    <v>       0.74799492       0.75201771       0.40207136 </v>
    <v>       0.91465526       0.58532847       0.40212407 </v>
   </varray>
  </structure>
  <varray name="forces" >
   <v>       0.00192425      -0.00297194       0.00370566 </v>
   <v>       0.01598413       0.00511930       0.00610253 </v>
   <v>       0.00192425       0.00297194       0.00370566 </v>
   <v>       0.01598413      -0.00511930       0.00610253 </v>
   <v>      -0.00224249       0.00636414       0.00151762 </v>
   <v>      -0.00224249      -0.00636414       0.00151762 </v>
   <v>      -0.00445044       0.00000000      -0.01487668 </v>
   <v>      -0.00512410       0.00000000      -0.00630091 </v>
   <v>       0.00753870      -0.00129849       0.00579282 </v>
   <v>      -0.01400017       0.00128256       0.00290200 </v>
   <v>       0.00458928       0.00000000      -0.00764664 </v>
   <v>      -0.01574073      -0.00000000      -0.00720003 </v>
   <v>       0.01104878       0.00000000      -0.00593352 </v>
   <v>      -0.00873165       0.00000000       0.00191654 </v>
   <v>       0.00753870       0.00129849       0.00579282 </v>
   <v>      -0.01400017      -0.00128256       0.00290200 </v>
  </varray>
  <varray name="stress" >
   <v>       0.50404205       0.00000000      -0.37502229 </v>
   <v>       0.00000000       0.57614189       0.00000000 </v>
   <v>      -0.37502230       0.00000000      -1.62975302 </v>
  </varray>
  <energy>
   <i name="e_fr_energy">   -125.91642893 </i>
   <i name="e_wo_entrp">   -125.91244952 </i>
   <i name="e_0_energy">   -125.91443923 </i>
  </energy>
  <time name="totalsc">   16.29   16.43</time>
 </calculation>
 <calculation>
  <scstep>
   <time name="dav">    3.28    3.30</time>
   <time name="total">    3.48    3.52</time>
   <energy>
    <i name="alphaZ">     60.51935305 </i>
    <i name="ewald">   4447.97995110 </i>
    <i name="hartreedc">  -6058.33056977 </i>
    <i name="XCdc">    168.47307182 </i>
    <i name="pawpsdc">   5781.09962872 </i>
    <i name="pawaedc">  -5780.46936599 </i>
    <i name="eentropy">     -0.00397865 </i>
    <i name="bandstr">   -489.83121382 </i>
    <i name="atom">   1746.50554237 </i>
    <i name="e_fr_energy">   -124.05758117 </i>
    <i name="e_wo_entrp">   -124.05360252 </i>
    <i name="e_0_energy">   -124.05559185 </i>
   </energy>
  </scstep>
  <scstep>
   <time name="dav">    4.51    4.54</time>
   <time name="total">    4.72    4.76</time>
   <energy>
    <i name="e_fr_energy">   -124.05758352 </i>
    <i name="e_wo_entrp">   -124.05360386 </i>
    <i name="e_0_energy">   -124.05559369 </i>
   </energy>
  </scstep>
  <scstep>
   <time name="dav">    3.98    4.01</time>
   <time name="total">    4.01    4.04</time>
   <energy>
    <i name="alphaZ">     60.51935305 </i>
    <i name="ewald">   4447.97995110 </i>
    <i name="hartreedc">  -6058.34250238 </i>
    <i name="XCdc">    168.47288257 </i>
    <i name="pawpsdc">   5781.33788617 </i>
    <i name="pawaedc">  -5780.70770630 </i>
    <i name="eentropy">     -0.00398057 </i>
    <i name="bandstr">   -489.81900886 </i>
    <i name="atom">   1746.50554237 </i>
    <i name="e_fr_energy">   -124.05758285 </i>
    <i name="e_wo_entrp">   -124.05360228 </i>
    <i name="e_0_energy">   -124.05559257 </i>
   </energy>
  </scstep>
  <structure>
   <crystal>
    <varray name="basis" >
     <v>       4.31020843       2.48850000       0.00000000 </v>
     <v>      -4.31020843       2.48850000       0.00000000 </v>
     <v>       0.00000000       0.00000000      15.00000000 </v>
    </varray>
    <i name="volume">    321.77861069 </i>
    <varray name="rec_basis" >
     <v>       0.11600367       0.20092425       0.00000000 </v>
     <v>      -0.11600367       0.20092425       0.00000000 </v>
     <v>       0.00000000       0.00000000       0.06666667 </v>
    </varray>
   </crystal>
   <varray name="positions" >
    <v>       0.67083768      -0.00222656       0.16715919 </v>
    <v>       0.33340545      -0.00211849       0.16709686 </v>
    <v>       0.00222656       0.32916132       0.16715919 </v>
    <v>       0.00211849       0.66659355       0.16709686 </v>
    <v>       0.33326224       0.32908566       0.16626168 </v>
    <v>       0.67091334       0.66673676       0.16626168 </v>
    <v>       0.66853756       0.33146144       0.15537142 </v>
    <v>       0.33521897       0.66478003       0.17936536 </v>
    <v>       0.24791007       0.25203921       0.40205699 </v>
    <v>       0.41460208       0.08540593       0.40210081 </v>
    <v>       0.24793752       0.75206148       0.40218324 </v>
    <v>       0.41464983       0.58534917       0.40221606 </v>
    <v>       0.74789819       0.25210081       0.40208878 </v>
    <v>       0.91458882       0.08541018       0.40195741 </v>
    <v>       0.74795979       0.75208893       0.40205699 </v>
    <v>       0.91459307       0.58539692       0.40210081 </v>
   </varray>
  </structure>
  <varray name="forces" >
   <v>       0.00652895      -0.00360280       0.00341414 </v>
   <v>       0.01413858       0.00118173       0.00578754 </v>
   <v>       0.00652895       0.00360280       0.00341414 </v>
   <v>       0.01413858      -0.00118173       0.00578754 </v>
   <v>      -0.00367661       0.00395197       0.00134406 </v>
   <v>      -0.00367661      -0.00395197       0.00134406 </v>
   <v>      -0.00577239       0.00000000      -0.01534088 </v>
   <v>      -0.00648481       0.00000000      -0.00530646 </v>
   <v>       0.00354148       0.00456967       0.00577978 </v>
   <v>      -0.00790362       0.00135543       0.00415785 </v>
   <v>       0.00031745       0.00000000      -0.00589863 </v>
   <v>      -0.01153133       0.00000000      -0.00732059 </v>
   <v>       0.00663587       0.00000000      -0.00689667 </v>
   <v>      -0.00842237      -0.00000000      -0.00020351 </v>
   <v>       0.00354148      -0.00456967       0.00577978 </v>
   <v>      -0.00790362      -0.00135543       0.00415785 </v>
  </varray>
  <varray name="stress" >
   <v>       0.54111374       0.00000000      -0.37549035 </v>
   <v>       0.00000000       0.57862084       0.00000000 </v>
   <v>      -0.37549034       0.00000000      -1.61717400 </v>
  </varray>
  <energy>
   <i name="e_fr_energy">   -125.91645998 </i>
   <i name="e_wo_entrp">   -125.91247941 </i>
   <i name="e_0_energy">   -125.91446969 </i>
  </energy>
  <time name="totalsc">   15.30   15.44</time>
 </calculation>
