       N       E                     dE             d eps       ncg     rms          rms(c)
DAV:   1     0.186070423337E+03    0.18607E+03   -0.25343E+04  8256   0.862E+02
DAV:   2    -0.118153389644E+03   -0.30422E+03   -0.30342E+03 12768   0.157E+02
DAV:   3    -0.127866277342E+03   -0.97129E+01   -0.96857E+01 13920   0.370E+01
DAV:   4    -0.127895844534E+03   -0.29567E-01   -0.29565E-01 13056   0.184E+00
DAV:   5    -0.127895880774E+03   -0.36240E-04   -0.36240E-04 12912   0.685E-02    0.227E+01
DAV:   6    -0.945636803697E+02    0.33332E+02   -0.57317E+01 10416   0.216E+01    0.124E+01
DAV:   7    -0.105711074976E+03   -0.11147E+02   -0.14069E+01 12576   0.111E+01    0.671E+00
DAV:   8    -0.111498162655E+03   -0.57871E+01   -0.50462E+00 12288   0.644E+00    0.375E+00
DAV:   9    -0.116784945841E+03   -0.52868E+01   -0.28175E+00 10512   0.472E+00    0.253E+00
DAV:  10    -0.120923262643E+03   -0.41383E+01   -0.31895E+00 12720   0.471E+00    0.135E+00
DAV:  11    -0.122777887952E+03   -0.18546E+01   -0.14390E+00 11856   0.282E+00    0.819E-01
DAV:  12    -0.123761734745E+03   -0.98385E+00   -0.79150E-01 13296   0.193E+00    0.401E-01
DAV:  13    -0.124065583396E+03   -0.30385E+00   -0.18759E-01 12336   0.960E-01    0.194E-01
DAV:  14    -0.124120118526E+03   -0.54535E-01   -0.29760E-02 10320   0.402E-01    0.108E-01
DAV:  15    -0.124143469501E+03   -0.23351E-01   -0.14395E-02  9888   0.293E-01    0.578E-02
DAV:  16    -0.124144962062E+03   -0.14926E-02   -0.21971E-03  9840   0.178E-01    0.372E-02
DAV:  17    -0.124145493730E+03   -0.53167E-03   -0.76301E-04  9216   0.960E-02    0.151E-02
DAV:  18    -0.124145518590E+03   -0.24860E-04   -0.16140E-04  8832   0.468E-02    0.847E-03
DAV:  19    -0.124145565279E+03   -0.46689E-04   -0.42244E-05  8256   0.287E-02    0.509E-03
DAV:  20    -0.124145589297E+03   -0.24017E-04   -0.23496E-05  8832   0.200E-02    0.361E-03
DAV:  21    -0.124145640977E+03   -0.51681E-04   -0.19922E-05  8544   0.179E-02    0.233E-03
DAV:  22    -0.124145667599E+03   -0.26622E-04   -0.63402E-06  9408   0.103E-02    0.137E-03
DAV:  23    -0.124145671601E+03   -0.40021E-05   -0.19620E-06 11040   0.548E-03    0.620E-04
DAV:  24    -0.124145674790E+03   -0.31886E-05   -0.44652E-07 10848   0.253E-03    0.334E-04
DAV:  25    -0.124145676081E+03   -0.12915E-05   -0.18368E-07 11616   0.155E-03    0.175E-04
DAV:  26    -0.124145676399E+03   -0.31837E-06   -0.82781E-08 12384   0.115E-03
   1 F= -.12563448E+03 E0= -.12563145E+03  d E =-.125634E+03  mag=     0.0000
       N       E                     dE             d eps       ncg     rms          rms(c)
DAV:   1    -0.124149230907E+03   -0.35548E-02   -0.60697E-01  8688   0.192E+00    0.263E-01
DAV:   2    -0.124146210452E+03    0.30205E-02   -0.14559E-02 13152   0.289E-01    0.116E-01
DAV:   3    -0.124145732587E+03    0.47786E-03   -0.22499E-03 11616   0.101E-01    0.320E-02
DAV:   4    -0.124145715875E+03    0.16712E-04   -0.17706E-04 12624   0.318E-02    0.114E-02
DAV:   5    -0.124145715471E+03    0.40446E-06   -0.75505E-06 12528   0.718E-03
   2 F= -.12563476E+03 E0= -.12563173E+03  d E =-.272957E-03  mag=     0.0000
       N       E                     dE             d eps       ncg     rms          rms(c)
DAV:   1    -0.124148468804E+03   -0.27529E-02   -0.14052E-01  8496   0.925E-01    0.127E-01
DAV:   2    -0.124147768045E+03    0.70076E-03   -0.34409E-03 12624   0.141E-01    0.558E-02
DAV:   3    -0.124147658332E+03    0.10971E-03   -0.55171E-04 11280   0.499E-02    0.152E-02
DAV:   4    -0.124147655381E+03    0.29504E-05   -0.43704E-05 12528   0.157E-02    0.557E-03
DAV:   5    -0.124147655391E+03   -0.98707E-08   -0.19668E-06 12144   0.358E-03
   3 F= -.12563658E+03 E0= -.12563357E+03  d E =-.210096E-02  mag=     0.0000
       N       E                     dE             d eps       ncg     rms          rms(c)
DAV:   1    -0.124147654900E+03    0.48111E-06   -0.15647E-06 12528   0.352E-03    0.111E-03
DAV:   2    -0.124147654849E+03    0.50841E-07   -0.20229E-07 12480   0.931E-04
   4 F= -.12563658E+03 E0= -.12563357E+03  d E =-.210087E-02  mag=     0.0000
       N       E                     dE             d eps       ncg     rms          rms(c)
DAV:   1    -0.124147655084E+03   -0.18375E-06   -0.62215E-07 10704   0.190E-03    0.343E-04
DAV:   2    -0.124147655094E+03   -0.10147E-07   -0.15185E-08 11664   0.370E-04
   5 F= -.12563658E+03 E0= -.12563357E+03  d E =-.210091E-02  mag=     0.0000
       N       E                     dE             d eps       ncg     rms          rms(c)
DAV:   1    -0.124147655233E+03   -0.14885E-06   -0.15565E-07 10464   0.100E-03    0.206E-04
DAV:   2    -0.124147655239E+03   -0.65206E-08   -0.46924E-09 10608   0.180E-04
   6 F= -.12563658E+03 E0= -.12563357E+03  d E =-.210093E-02  mag=     0.0000
       N       E                     dE             d eps       ncg     rms          rms(c)
DAV:   1    -0.124147655311E+03   -0.77967E-07   -0.34480E-08  9744   0.484E-04    0.107E-04
DAV:   2    -0.124147655314E+03   -0.39176E-08   -0.10092E-09  9408   0.963E-05
   7 F= -.12563658E+03 E0= -.12563357E+03  d E =-.210095E-02  mag=     0.0000
       N       E                     dE             d eps       ncg     rms          rms(c)
DAV:   1    -0.124147661918E+03   -0.66073E-05   -0.44611E-03  8448   0.246E-01    0.119E-02
DAV:   2    -0.124147660844E+03    0.10741E-05   -0.51062E-05  9120   0.280E-02    0.728E-03
DAV:   3    -0.124147660208E+03    0.63545E-06   -0.66079E-06  9216   0.884E-03
   8 F= -.12563663E+03 E0= -.12563362E+03  d E =-.494232E-04  mag=     0.0000
       N       E                     dE             d eps       ncg     rms          rms(c)
DAV:   1    -0.124147688841E+03   -0.27997E-04   -0.40298E-02  8448   0.740E-01    0.362E-02
DAV:   2    -0.124147679046E+03    0.97952E-05   -0.45825E-04  9312   0.842E-02    0.222E-02
DAV:   3    -0.124147673374E+03    0.56711E-05   -0.60317E-05 10992   0.266E-02    0.538E-03
DAV:   4    -0.124147673813E+03   -0.43886E-06   -0.72915E-06  8976   0.936E-03
   9 F= -.12563678E+03 E0= -.12563376E+03  d E =-.196807E-03  mag=    -0.0000
       N       E                     dE             d eps       ncg     rms          rms(c)
DAV:   1    -0.124147753664E+03   -0.80289E-04   -0.16070E-01  8256   0.148E+00    0.711E-02
DAV:   2    -0.124147721596E+03    0.32068E-04   -0.18549E-03  9600   0.169E-01    0.436E-02
DAV:   3    -0.124147693863E+03    0.27733E-04   -0.23720E-04 11232   0.526E-02    0.107E-02
DAV:   4    -0.124147695348E+03   -0.14845E-05   -0.27687E-05 10704   0.182E-02    0.457E-03
DAV:   5    -0.124147695928E+03   -0.58025E-06   -0.13336E-06  9024   0.384E-03
  10 F= -.12563707E+03 E0= -.12563405E+03  d E =-.487403E-03  mag=     0.0000
       N       E                     dE             d eps       ncg     rms          rms(c)
DAV:   1    -0.124147948880E+03   -0.25353E-03   -0.64262E-01  8256   0.296E+00    0.142E-01
DAV:   2    -0.124147833669E+03    0.11521E-03   -0.74367E-03  9504   0.338E-01    0.874E-02
DAV:   3    -0.124147716393E+03    0.11728E-03   -0.95242E-04 11136   0.105E-01    0.216E-02
DAV:   4    -0.124147719028E+03   -0.26352E-05   -0.11127E-04 12432   0.363E-02    0.914E-03
DAV:   5    -0.124147718208E+03    0.81949E-06   -0.49215E-06 10176   0.717E-03
  11 F= -.12563763E+03 E0= -.12563462E+03  d E =-.105003E-02  mag=    -0.0000
       N       E                     dE             d eps       ncg     rms          rms(c)
DAV:   1    -0.124148629767E+03   -0.91074E-03   -0.25708E+00  8256   0.591E+00    0.285E-01
DAV:   2    -0.124148155672E+03    0.47409E-03   -0.29733E-02  9504   0.676E-01    0.174E-01
DAV:   3    -0.124147696174E+03    0.45950E-03   -0.38171E-03 10704   0.211E-01    0.425E-02
DAV:   4    -0.124147703865E+03   -0.76909E-05   -0.43472E-04 13728   0.729E-02    0.184E-02
DAV:   5    -0.124147698479E+03    0.53861E-05   -0.20154E-05 10992   0.150E-02    0.414E-03
DAV:   6    -0.124147698354E+03    0.12547E-06   -0.40292E-06  9984   0.729E-03
  12 F= -.12563871E+03 E0= -.12563569E+03  d E =-.212508E-02  mag=     0.0000
       N       E                     dE             d eps       ncg     rms          rms(c)
DAV:   1    -0.124151114366E+03   -0.34159E-02   -0.10276E+01  8256   0.118E+01    0.569E-01
DAV:   2    -0.124149320493E+03    0.17939E-02   -0.11916E-01 10512   0.135E+00    0.349E-01
DAV:   3    -0.124147403679E+03    0.19168E-02   -0.15288E-02 12240   0.416E-01    0.839E-02
DAV:   4    -0.124147414457E+03   -0.10778E-04   -0.15716E-03 13152   0.142E-01    0.376E-02
DAV:   5    -0.124147381024E+03    0.33434E-04   -0.77017E-05 11184   0.284E-02    0.733E-03
DAV:   6    -0.124147379705E+03    0.13190E-05   -0.15709E-05 11280   0.126E-02    0.453E-03
DAV:   7    -0.124147385951E+03   -0.62465E-05   -0.37662E-06 11424   0.741E-03    0.240E-03
DAV:   8    -0.124147401179E+03   -0.15228E-04   -0.39189E-06 10848   0.582E-03    0.191E-03
DAV:   9    -0.124147411310E+03   -0.10131E-04   -0.18589E-06 11232   0.495E-03    0.933E-04
DAV:  10    -0.124147423105E+03   -0.11794E-04   -0.41026E-06 10848   0.792E-03    0.601E-04
DAV:  11    -0.124147426628E+03   -0.35236E-05   -0.29443E-06 10320   0.722E-03    0.532E-04
DAV:  12    -0.124147430701E+03   -0.40729E-05   -0.12383E-06  9888   0.405E-03    0.207E-04
DAV:  13    -0.124147431007E+03   -0.30562E-06   -0.26571E-07 13248   0.212E-03
  13 F= -.12564069E+03 E0= -.12563768E+03  d E =-.410476E-02  mag=     0.0000
       N       E                     dE             d eps       ncg     rms          rms(c)
DAV:   1    -0.124159516457E+03   -0.12086E-01   -0.41026E+01  8256   0.236E+01    0.114E+00
DAV:   2    -0.124153283641E+03    0.62328E-02   -0.48283E-01  9120   0.273E+00    0.701E-01
DAV:   3    -0.124145737509E+03    0.75461E-02   -0.61802E-02 14016   0.841E-01    0.171E-01
DAV:   4    -0.124145762780E+03   -0.25271E-04   -0.55257E-03 12768   0.267E-01    0.769E-02
DAV:   5    -0.124145664203E+03    0.98577E-04   -0.30485E-04 11424   0.540E-02    0.148E-02
DAV:   6    -0.124145651752E+03    0.12451E-04   -0.65039E-05 12912   0.214E-02    0.707E-03
DAV:   7    -0.124145671516E+03   -0.19764E-04   -0.10337E-05 11232   0.894E-03    0.407E-03
DAV:   8    -0.124145689869E+03   -0.18354E-04   -0.26067E-06 11040   0.409E-03    0.357E-03
DAV:   9    -0.124145710980E+03   -0.21111E-04   -0.20610E-06 11184   0.300E-03    0.150E-03
DAV:  10    -0.124145731192E+03   -0.20211E-04   -0.23137E-06 10992   0.307E-03    0.105E-03
DAV:  11    -0.124145739670E+03   -0.84781E-05   -0.86958E-07 10560   0.259E-03    0.732E-04
DAV:  12    -0.124145746881E+03   -0.72114E-05   -0.10481E-06 10272   0.254E-03    0.256E-04
DAV:  13    -0.124145748515E+03   -0.16331E-05   -0.31164E-07 11280   0.191E-03    0.970E-05
DAV:  14    -0.124145748590E+03   -0.75064E-07   -0.10282E-07 13104   0.139E-03
  14 F= -.12564374E+03 E0= -.12564075E+03  d E =-.715684E-02  mag=     0.0000
       N       E                     dE             d eps       ncg     rms          rms(c)
DAV:   1    -0.124185080484E+03   -0.39332E-01   -0.16316E+02  8256   0.471E+01    0.226E+00
DAV:   2    -0.124168141201E+03    0.16939E-01   -0.19954E+00  9216   0.561E+00    0.141E+00
DAV:   3    -0.124138119261E+03    0.30022E-01   -0.23888E-01 13872   0.165E+00    0.363E-01
DAV:   4    -0.124138355075E+03   -0.23581E-03   -0.21074E-02 12816   0.518E-01    0.159E-01
DAV:   5    -0.124137871117E+03    0.48396E-03   -0.13346E-03 13248   0.104E-01    0.320E-02
DAV:   6    -0.124137820316E+03    0.50801E-04   -0.23226E-04 12432   0.405E-02    0.146E-02
DAV:   7    -0.124137881273E+03   -0.60957E-04   -0.53399E-05  9984   0.199E-02    0.858E-03
DAV:   8    -0.124137925470E+03   -0.44197E-04   -0.81841E-06 11472   0.730E-03    0.722E-03
DAV:   9    -0.124137974594E+03   -0.49124E-04   -0.67615E-06 11280   0.599E-03    0.279E-03
DAV:  10    -0.124138016642E+03   -0.42049E-04   -0.57339E-06 10800   0.500E-03    0.195E-03
DAV:  11    -0.124138041477E+03   -0.24835E-04   -0.39265E-06 10752   0.471E-03    0.105E-03
DAV:  12    -0.124138049822E+03   -0.83448E-05   -0.18779E-06 11280   0.491E-03    0.435E-04
DAV:  13    -0.124138053191E+03   -0.33691E-05   -0.87122E-07 11136   0.359E-03    0.177E-04
DAV:  14    -0.124138054312E+03   -0.11203E-05   -0.23417E-07 10464   0.187E-03    0.901E-05
DAV:  15    -0.124138054453E+03   -0.14197E-06   -0.57867E-08 14064   0.103E-03
  15 F= -.12564656E+03 E0= -.12564364E+03  d E =-.997404E-02  mag=    -0.0000
       N       E                     dE             d eps       ncg     rms          rms(c)
DAV:   1    -0.124138054220E+03    0.91522E-07   -0.99055E-06 11808   0.116E-02    0.558E-04
DAV:   2    -0.124138054219E+03    0.74078E-09   -0.10829E-07 15216   0.128E-03
  16 F= -.12564656E+03 E0= -.12564365E+03  d E =-.253059E-05  mag=    -0.0000
       N       E                     dE             d eps       ncg     rms          rms(c)
DAV:   1    -0.124138053446E+03    0.77437E-06   -0.87386E-05 10176   0.346E-02    0.173E-03
DAV:   2    -0.124138053419E+03    0.26937E-07   -0.92939E-07 13488   0.374E-03
  17 F= -.12564657E+03 E0= -.12564365E+03  d E =-.100250E-04  mag=     0.0000
       N       E                     dE             d eps       ncg     rms          rms(c)
DAV:   1    -0.124138051902E+03    0.15436E-05   -0.34680E-04  8448   0.690E-02    0.350E-03
DAV:   2    -0.124138051815E+03    0.86723E-07   -0.38188E-06 10080   0.772E-03
  18 F= -.12564658E+03 E0= -.12564367E+03  d E =-.250143E-04  mag=     0.0000
       N       E                     dE             d eps       ncg     rms          rms(c)
DAV:   1    -0.124138048980E+03    0.29225E-05   -0.13888E-03  8304   0.138E-01    0.701E-03
DAV:   2    -0.124138048636E+03    0.34345E-06   -0.15477E-05  8448   0.156E-02    0.434E-03
DAV:   3    -0.124138048485E+03    0.15080E-06   -0.20760E-06  9504   0.501E-03
  19 F= -.12564661E+03 E0= -.12564370E+03  d E =-.548797E-04  mag=    -0.0000
       N       E                     dE             d eps       ncg     rms          rms(c)
DAV:   1    -0.124138043940E+03    0.46963E-05   -0.57138E-03  8256   0.279E-01    0.137E-02
DAV:   2    -0.124138042581E+03    0.13585E-05   -0.65052E-05  8256   0.319E-02    0.845E-03
DAV:   3    -0.124138041801E+03    0.78049E-06   -0.86839E-06 11328   0.102E-02
  20 F= -.12564667E+03 E0= -.12564376E+03  d E =-.114629E-03  mag=     0.0000
       N       E                     dE             d eps       ncg     rms          rms(c)
DAV:   1    -0.124138037076E+03    0.55057E-05   -0.22844E-02  8256   0.557E-01    0.275E-02
DAV:   2    -0.124138031391E+03    0.56843E-05   -0.26002E-04  8352   0.638E-02    0.169E-02
DAV:   3    -0.124138028477E+03    0.29140E-05   -0.34376E-05 10272   0.203E-02    0.414E-03
DAV:   4    -0.124138028767E+03   -0.28926E-06   -0.46324E-06  9120   0.738E-03
  21 F= -.12564679E+03 E0= -.12564388E+03  d E =-.234591E-03  mag=    -0.0000
       N       E                     dE             d eps       ncg     rms          rms(c)
DAV:   1    -0.124138034705E+03   -0.62275E-05   -0.90940E-02  8256   0.111E+00    0.535E-02
DAV:   2    -0.124138014757E+03    0.19948E-04   -0.10447E-03  8256   0.128E-01    0.329E-02
DAV:   3    -0.124138000074E+03    0.14682E-04   -0.13752E-04 12096   0.403E-02    0.806E-03
DAV:   4    -0.124138001273E+03   -0.11981E-05   -0.15352E-05  8448   0.139E-02    0.345E-03
DAV:   5    -0.124138001752E+03   -0.47968E-06   -0.12286E-06  9792   0.445E-03
  22 F= -.12564703E+03 E0= -.12564412E+03  d E =-.474225E-03  mag=    -0.0000
       N       E                     dE             d eps       ncg     rms          rms(c)
DAV:   1    -0.124138077047E+03   -0.75775E-04   -0.36361E-01  8256   0.222E+00    0.107E-01
DAV:   2    -0.124138008169E+03    0.68879E-04   -0.41903E-03  8832   0.254E-01    0.657E-02
DAV:   3    -0.124137942505E+03    0.65663E-04   -0.54848E-04 12240   0.799E-02    0.160E-02
DAV:   4    -0.124137944158E+03   -0.16532E-05   -0.57235E-05 11808   0.266E-02    0.694E-03
DAV:   5    -0.124137944610E+03   -0.45135E-06   -0.33210E-06  9312   0.660E-03
  23 F= -.12564751E+03 E0= -.12564460E+03  d E =-.953076E-03  mag=    -0.0000
       N       E                     dE             d eps       ncg     rms          rms(c)
DAV:   1    -0.124138353893E+03   -0.40973E-03   -0.14544E+00  8256   0.445E+00    0.214E-01
DAV:   2    -0.124138083251E+03    0.27064E-03   -0.16759E-02  8496   0.509E-01    0.131E-01
DAV:   3    -0.124137826715E+03    0.25654E-03   -0.21767E-03 10224   0.160E-01    0.322E-02
DAV:   4    -0.124137832196E+03   -0.54808E-05   -0.26410E-04 14304   0.555E-02    0.136E-02
DAV:   5    -0.124137829422E+03    0.27745E-05   -0.10658E-05  9984   0.107E-02    0.308E-03
DAV:   6    -0.124137829431E+03   -0.92523E-08   -0.24851E-06 10896   0.564E-03
  24 F= -.12564848E+03 E0= -.12564556E+03  d E =-.192066E-02  mag=    -0.0000
       N       E                     dE             d eps       ncg     rms          rms(c)
DAV:   1    -0.124139729603E+03   -0.19002E-02   -0.58160E+00  8256   0.889E+00    0.428E-01
DAV:   2    -0.124138607468E+03    0.11221E-02   -0.67129E-02  9408   0.102E+00    0.263E-01
DAV:   3    -0.124137597565E+03    0.10099E-02   -0.88315E-03 11952   0.319E-01    0.633E-02
DAV:   4    -0.124137603241E+03   -0.56763E-05   -0.91523E-04 13824   0.107E-01    0.280E-02
DAV:   5    -0.124137588901E+03    0.14340E-04   -0.42527E-05 11088   0.209E-02    0.545E-03
DAV:   6    -0.124137588868E+03    0.33073E-07   -0.10644E-05 11280   0.104E-02    0.313E-03
DAV:   7    -0.124137592659E+03   -0.37906E-05   -0.29127E-06 10512   0.669E-03    0.176E-03
DAV:   8    -0.124137601028E+03   -0.83696E-05   -0.19654E-06 10896   0.470E-03    0.144E-03
DAV:   9    -0.124137609334E+03   -0.83056E-05   -0.14894E-06 11232   0.435E-03    0.493E-04
DAV:  10    -0.124137614771E+03   -0.54374E-05   -0.20163E-06 10800   0.584E-03    0.520E-04
DAV:  11    -0.124137618138E+03   -0.33670E-05   -0.10026E-06 10368   0.390E-03    0.400E-04
DAV:  12    -0.124137620042E+03   -0.19032E-05   -0.21265E-07 11376   0.127E-03    0.143E-04
DAV:  13    -0.124137620454E+03   -0.41191E-06   -0.35355E-08 10752   0.448E-04
  25 F= -.12565048E+03 E0= -.12564756E+03  d E =-.392013E-02  mag=     0.0000
       N       E                     dE             d eps       ncg     rms          rms(c)
DAV:   1    -0.124145115063E+03   -0.74950E-02   -0.23233E+01  8256   0.178E+01    0.854E-01
DAV:   2    -0.124141302887E+03    0.38122E-02   -0.27115E-01  8448   0.205E+00    0.527E-01
DAV:   3    -0.124137052385E+03    0.42505E-02   -0.35709E-02 13680   0.641E-01    0.128E-01
DAV:   4    -0.124137110942E+03   -0.58557E-04   -0.32127E-03 13296   0.200E-01    0.572E-02
DAV:   5    -0.124137055791E+03    0.55151E-04   -0.17269E-04 11808   0.405E-02    0.112E-02
DAV:   6    -0.124137050011E+03    0.57798E-05   -0.37837E-05 12480   0.164E-02    0.524E-03
DAV:   7    -0.124137060789E+03   -0.10777E-04   -0.46402E-06 10464   0.601E-03    0.344E-03
DAV:   8    -0.124137072802E+03   -0.12014E-04   -0.14442E-06 11232   0.310E-03    0.276E-03
DAV:   9    -0.124137091277E+03   -0.18475E-04   -0.21330E-06 10800   0.300E-03    0.805E-04
DAV:  10    -0.124137102556E+03   -0.11279E-04   -0.11747E-06 11328   0.199E-03    0.938E-04
DAV:  11    -0.124137108309E+03   -0.57526E-05   -0.50494E-07 10848   0.135E-03    0.413E-04
DAV:  12    -0.124137111305E+03   -0.29964E-05   -0.25610E-07 10560   0.988E-04    0.143E-04
DAV:  13    -0.124137112241E+03   -0.93593E-06   -0.79805E-08 11088   0.616E-04
  26 F= -.12565457E+03 E0= -.12565165E+03  d E =-.800753E-02  mag=     0.0000
       N       E                     dE             d eps       ncg     rms          rms(c)
DAV:   1    -0.124164996000E+03   -0.27885E-01   -0.92624E+01  8256   0.355E+01    0.170E+00
DAV:   2    -0.124152221448E+03    0.12775E-01   -0.11090E+00  9072   0.416E+00    0.106E+00
DAV:   3    -0.124135959258E+03    0.16262E-01   -0.13975E-01 13536   0.126E+00    0.263E-01
DAV:   4    -0.124136063682E+03   -0.10442E-03   -0.12454E-02 12960   0.396E-01    0.118E-01
DAV:   5    -0.124135821799E+03    0.24188E-03   -0.72494E-04 12768   0.799E-02    0.242E-02
DAV:   6    -0.124135798901E+03    0.22898E-04   -0.14011E-04 12672   0.315E-02    0.106E-02
DAV:   7    -0.124135841580E+03   -0.42679E-04   -0.27617E-05  9600   0.145E-02    0.664E-03
DAV:   8    -0.124135874931E+03   -0.33350E-04   -0.41613E-06 11424   0.509E-03    0.481E-03
DAV:   9    -0.124135911042E+03   -0.36111E-04   -0.48959E-06 10608   0.478E-03    0.164E-03
DAV:  10    -0.124135934133E+03   -0.23091E-04   -0.27452E-06 11664   0.332E-03    0.145E-03
DAV:  11    -0.124135948453E+03   -0.14320E-04   -0.18223E-06 10656   0.272E-03    0.780E-04
DAV:  12    -0.124135954176E+03   -0.57229E-05   -0.73773E-07 11568   0.243E-03    0.272E-04
DAV:  13    -0.124135956085E+03   -0.19098E-05   -0.25801E-07 11184   0.172E-03    0.130E-04
DAV:  14    -0.124135956928E+03   -0.84224E-06   -0.69828E-08 10704   0.751E-04
  27 F= -.12566336E+03 E0= -.12566044E+03  d E =-.168020E-01  mag=     0.0000
       N       E                     dE             d eps       ncg     rms          rms(c)
DAV:   1    -0.124213767383E+03   -0.77811E-01   -0.36571E+02  8256   0.704E+01    0.336E+00
DAV:   2    -0.124199810389E+03    0.13957E-01   -0.47125E+00  8736   0.875E+00    0.213E+00
DAV:   3    -0.124132009130E+03    0.67801E-01   -0.51532E-01 14016   0.244E+00    0.609E-01
DAV:   4    -0.124133451398E+03   -0.14423E-02   -0.41681E-02 12720   0.735E-01    0.245E-01
DAV:   5    -0.124132462156E+03    0.98924E-03   -0.36382E-03 13824   0.155E-01    0.473E-02
DAV:   6    -0.124132381922E+03    0.80234E-04   -0.41388E-04 11280   0.573E-02    0.219E-02
DAV:   7    -0.124132513345E+03   -0.13142E-03   -0.15380E-04  9696   0.357E-02    0.145E-02
DAV:   8    -0.124132590249E+03   -0.76903E-04   -0.15180E-05 10944   0.107E-02    0.102E-02
DAV:   9    -0.124132663230E+03   -0.72981E-04   -0.13080E-05 10320   0.877E-03    0.374E-03
DAV:  10    -0.124132712589E+03   -0.49360E-04   -0.76869E-06 11376   0.588E-03    0.308E-03
DAV:  11    -0.124132745352E+03   -0.32762E-04   -0.58666E-06 11568   0.477E-03    0.205E-03
DAV:  12    -0.124132755778E+03   -0.10426E-04   -0.13178E-06 11232   0.275E-03    0.481E-04
DAV:  13    -0.124132758585E+03   -0.28066E-05   -0.21402E-07 10944   0.160E-03    0.278E-04
DAV:  14    -0.124132760325E+03   -0.17401E-05   -0.10827E-07 11520   0.100E-03    0.136E-04
DAV:  15    -0.124132761575E+03   -0.12505E-05   -0.10233E-07 10032   0.692E-04    0.580E-05
DAV:  16    -0.124132761695E+03   -0.12018E-06   -0.11690E-08 14352   0.378E-04
  28 F= -.12568350E+03 E0= -.12568057E+03  d E =-.369364E-01  mag=     0.0000
       N       E                     dE             d eps       ncg     rms          rms(c)
DAV:   1    -0.124039184962E+03    0.93577E-01   -0.13887E+03  8256   0.135E+02    0.651E+00
DAV:   2    -0.124407909250E+03   -0.36872E+00   -0.22123E+01  9216   0.195E+01    0.425E+00
DAV:   3    -0.124132644705E+03    0.27526E+00   -0.15672E+00 14112   0.435E+00    0.167E+00
DAV:   4    -0.124124095350E+03    0.85494E-02   -0.16946E-01 13872   0.152E+00    0.466E-01
DAV:   5    -0.124120466364E+03    0.36290E-02   -0.20464E-02 13440   0.383E-01    0.820E-02
DAV:   6    -0.124120249578E+03    0.21679E-03   -0.10113E-03 13824   0.976E-02    0.406E-02
DAV:   7    -0.124120519632E+03   -0.27005E-03   -0.54978E-04 10752   0.685E-02    0.243E-02
DAV:   8    -0.124120738207E+03   -0.21858E-03   -0.10919E-04  9120   0.257E-02    0.131E-02
DAV:   9    -0.124120889357E+03   -0.15115E-03   -0.51377E-05 10800   0.189E-02    0.978E-03
DAV:  10    -0.124120949185E+03   -0.59827E-04   -0.13471E-05 12432   0.804E-03    0.755E-03
DAV:  11    -0.124120988492E+03   -0.39307E-04   -0.13024E-05 11232   0.829E-03    0.256E-03
DAV:  12    -0.124121007922E+03   -0.19430E-04   -0.29437E-06 12864   0.434E-03    0.129E-03
DAV:  13    -0.124121013916E+03   -0.59944E-05   -0.45283E-07 13872   0.162E-03    0.884E-04
DAV:  14    -0.124121016904E+03   -0.29883E-05   -0.13439E-07 11376   0.834E-04    0.401E-04
DAV:  15    -0.124121018794E+03   -0.18895E-05   -0.10861E-07 10944   0.666E-04    0.113E-04
DAV:  16    -0.124121019176E+03   -0.38261E-06   -0.94921E-09 13440   0.195E-04
  29 F= -.12573587E+03 E0= -.12573289E+03  d E =-.893095E-01  mag=     0.0000
       N       E                     dE             d eps       ncg     rms          rms(c)
DAV:   1    -0.120467158300E+03    0.36539E+01   -0.45430E+03  8256   0.228E+02    0.137E+01
DAV:   2    -0.125258244779E+03   -0.47911E+01   -0.10722E+02  8256   0.439E+01    0.840E+00
DAV:   3    -0.124369045992E+03    0.88920E+00   -0.36726E+00 14784   0.726E+00    0.538E+00
DAV:   4    -0.123999357077E+03    0.36969E+00   -0.19187E+00 14544   0.446E+00    0.799E-01
DAV:   5    -0.124000590081E+03   -0.12330E-02   -0.66400E-02 10944   0.970E-01    0.419E-01
DAV:   6    -0.123995304291E+03    0.52858E-02   -0.23578E-02 13824   0.437E-01    0.917E-02
DAV:   7    -0.123994699880E+03    0.60441E-03   -0.19201E-03 13248   0.143E-01    0.442E-02
DAV:   8    -0.123994960988E+03   -0.26111E-03   -0.88507E-04 12048   0.758E-02    0.355E-02
DAV:   9    -0.123995115949E+03   -0.15496E-03   -0.11995E-04 12096   0.282E-02    0.212E-02
DAV:  10    -0.123995249382E+03   -0.13343E-03   -0.13370E-04 10608   0.320E-02    0.172E-02
DAV:  11    -0.123995301249E+03   -0.51867E-04   -0.33607E-05 12432   0.138E-02    0.991E-03
DAV:  12    -0.123995327255E+03   -0.26006E-04   -0.18594E-05 11712   0.114E-02    0.580E-03
DAV:  13    -0.123995335213E+03   -0.79582E-05   -0.12437E-06 13728   0.343E-03    0.388E-03
DAV:  14    -0.123995342636E+03   -0.74234E-05   -0.10140E-06 12240   0.297E-03    0.971E-04
DAV:  15    -0.123995346058E+03   -0.34219E-05   -0.32789E-07 12528   0.144E-03    0.653E-04
DAV:  16    -0.123995347523E+03   -0.14647E-05   -0.93986E-08 12336   0.726E-04    0.379E-04
DAV:  17    -0.123995348298E+03   -0.77511E-06   -0.50082E-08 11136   0.468E-04
  30 F= -.12583948E+03 E0= -.12583664E+03  d E =-.192917E+00  mag=     0.0000
       N       E                     dE             d eps       ncg     rms          rms(c)
DAV:   1    -0.124135361539E+03   -0.14001E+00   -0.28142E+02  8256   0.621E+01    0.298E+00
DAV:   2    -0.124100899469E+03    0.34462E-01   -0.34930E+00 10176   0.761E+00    0.185E+00
DAV:   3    -0.124051536009E+03    0.49363E-01   -0.36984E-01 14784   0.206E+00    0.542E-01
DAV:   4    -0.124052303431E+03   -0.76742E-03   -0.29359E-02 11424   0.628E-01    0.205E-01
DAV:   5    -0.124051890307E+03    0.41312E-03   -0.28796E-03 11904   0.146E-01    0.388E-02
DAV:   6    -0.124051840914E+03    0.49394E-04   -0.27417E-04 13248   0.517E-02    0.181E-02
DAV:   7    -0.124051867799E+03   -0.26886E-04   -0.64005E-05  9984   0.279E-02    0.116E-02
DAV:   8    -0.124051898996E+03   -0.31197E-04   -0.86222E-06  9792   0.746E-03    0.871E-03
DAV:   9    -0.124051951682E+03   -0.52686E-04   -0.68864E-06  9744   0.708E-03    0.338E-03
DAV:  10    -0.124051991032E+03   -0.39350E-04   -0.30548E-06 12336   0.440E-03    0.287E-03
DAV:  11    -0.124052027074E+03   -0.36042E-04   -0.21374E-06 12720   0.362E-03    0.221E-03
DAV:  12    -0.124052043037E+03   -0.15963E-04   -0.34825E-07 13344   0.171E-03    0.658E-04
DAV:  13    -0.124052049971E+03   -0.69345E-05   -0.10968E-07 12672   0.981E-04    0.411E-04
DAV:  14    -0.124052052212E+03   -0.22407E-05   -0.40207E-08 13680   0.585E-04    0.349E-04
DAV:  15    -0.124052052856E+03   -0.64427E-06   -0.12151E-08 13248   0.306E-04
  31 F= -.12583276E+03 E0= -.12582982E+03  d E =-.186204E+00  mag=     0.0000
       N       E                     dE             d eps       ncg     rms          rms(c)
DAV:   1    -0.124057551495E+03   -0.54993E-02   -0.13884E+02  8256   0.437E+01    0.208E+00
DAV:   2    -0.124040383044E+03    0.17168E-01   -0.17178E+00 11424   0.519E+00    0.129E+00
DAV:   3    -0.124015895999E+03    0.24487E-01   -0.18406E-01 14016   0.144E+00    0.349E-01
DAV:   4    -0.124015968728E+03   -0.72728E-04   -0.18334E-02 13632   0.477E-01    0.139E-01
DAV:   5    -0.124015692535E+03    0.27619E-03   -0.10767E-03 15360   0.978E-02    0.294E-02
DAV:   6    -0.124015666291E+03    0.26244E-04   -0.15895E-04 11232   0.364E-02    0.124E-02
DAV:   7    -0.124015715501E+03   -0.49210E-04   -0.40781E-05 11712   0.190E-02    0.740E-03
DAV:   8    -0.124015757796E+03   -0.42294E-04   -0.81345E-06  9984   0.729E-03    0.549E-03
DAV:   9    -0.124015787899E+03   -0.30104E-04   -0.40916E-06 12960   0.469E-03    0.266E-03
DAV:  10    -0.124015813343E+03   -0.25444E-04   -0.46580E-06 11472   0.413E-03    0.164E-03
DAV:  11    -0.124015825270E+03   -0.11927E-04   -0.19026E-06 12384   0.269E-03    0.994E-04
DAV:  12    -0.124015829871E+03   -0.46004E-05   -0.55452E-07 14112   0.164E-03    0.459E-04
DAV:  13    -0.124015831238E+03   -0.13673E-05   -0.95451E-08 13152   0.106E-03    0.245E-04
DAV:  14    -0.124015832094E+03   -0.85636E-06   -0.64041E-08 12672   0.767E-04
  32 F= -.12584020E+03 E0= -.12583736E+03  d E =-.193641E+00  mag=     0.0000
       N       E                     dE             d eps       ncg     rms          rms(c)
DAV:   1    -0.124022611324E+03   -0.67801E-02   -0.16456E+02  8256   0.476E+01    0.227E+00
DAV:   2    -0.124002032390E+03    0.20579E-01   -0.20370E+00 11616   0.568E+00    0.140E+00
DAV:   3    -0.123972957476E+03    0.29075E-01   -0.21157E-01 14112   0.155E+00    0.389E-01
DAV:   4    -0.123972975641E+03   -0.18165E-04   -0.21556E-02 13488   0.516E-01    0.150E-01
DAV:   5    -0.123972577987E+03    0.39765E-03   -0.13280E-03 15456   0.109E-01    0.308E-02
DAV:   6    -0.123972539041E+03    0.38946E-04   -0.19389E-04 10560   0.418E-02    0.135E-02
DAV:   7    -0.123972595539E+03   -0.56498E-04   -0.65935E-05 12288   0.252E-02    0.831E-03
DAV:   8    -0.123972643766E+03   -0.48228E-04   -0.14687E-05 11664   0.105E-02    0.560E-03
DAV:   9    -0.123972681567E+03   -0.37800E-04   -0.67051E-06 12240   0.703E-03    0.283E-03
DAV:  10    -0.123972703885E+03   -0.22318E-04   -0.39391E-06 12432   0.472E-03    0.196E-03
DAV:  11    -0.123972717314E+03   -0.13429E-04   -0.25504E-06 12576   0.350E-03    0.104E-03
DAV:  12    -0.123972721529E+03   -0.42147E-05   -0.61772E-07 13488   0.214E-03    0.559E-04
DAV:  13    -0.123972723019E+03   -0.14901E-05   -0.20144E-07 13248   0.183E-03    0.298E-04
DAV:  14    -0.123972723845E+03   -0.82676E-06   -0.11962E-07 12576   0.135E-03
  33 F= -.12584865E+03 E0= -.12584578E+03  d E =-.845402E-02  mag=     0.0000
       N       E                     dE             d eps       ncg     rms          rms(c)
DAV:   1    -0.123982907637E+03   -0.10185E-01   -0.40305E+00  8256   0.745E+00    0.358E-01
DAV:   2    -0.123982016976E+03    0.89066E-03   -0.46594E-02 12288   0.853E-01    0.217E-01
DAV:   3    -0.123981331074E+03    0.68590E-03   -0.55999E-03 12528   0.252E-01    0.552E-02
DAV:   4    -0.123981352359E+03   -0.21285E-04   -0.61853E-04 11760   0.879E-02    0.230E-02
DAV:   5    -0.123981351643E+03    0.71680E-06   -0.29351E-05 12384   0.192E-02    0.456E-03
DAV:   6    -0.123981350749E+03    0.89309E-06   -0.47286E-06 11280   0.673E-03
  34 F= -.12584899E+03 E0= -.12584613E+03  d E =-.879212E-02  mag=     0.0000
       N       E                     dE             d eps       ncg     rms          rms(c)
DAV:   1    -0.123999095173E+03   -0.17744E-01   -0.12835E+00  8256   0.424E+00    0.203E-01
DAV:   2    -0.123998818004E+03    0.27717E-03   -0.15229E-02 12624   0.492E-01    0.124E-01
DAV:   3    -0.123998616551E+03    0.20145E-03   -0.18918E-03 14592   0.148E-01    0.339E-02
DAV:   4    -0.123998618066E+03   -0.15149E-05   -0.23909E-04 10272   0.556E-02    0.171E-02
DAV:   5    -0.123998620317E+03   -0.22507E-05   -0.99342E-06 10176   0.131E-02    0.524E-03
DAV:   6    -0.123998621549E+03   -0.12323E-05   -0.30987E-06 12384   0.570E-03    0.248E-03
DAV:   7    -0.123998622545E+03   -0.99648E-06   -0.27091E-07 10560   0.209E-03
  35 F= -.12586180E+03 E0= -.12585894E+03  d E =-.128088E-01  mag=     0.0000
       N       E                     dE             d eps       ncg     rms          rms(c)
DAV:   1    -0.124041902728E+03   -0.43281E-01   -0.11543E+01  8256   0.127E+01    0.607E-01
DAV:   2    -0.124039715013E+03    0.21877E-02   -0.13742E-01 14112   0.147E+00    0.372E-01
DAV:   3    -0.124037734837E+03    0.19802E-02   -0.16584E-02 14496   0.434E-01    0.101E-01
DAV:   4    -0.124037716130E+03    0.18707E-04   -0.20152E-03 10896   0.162E-01    0.507E-02
DAV:   5    -0.124037725345E+03   -0.92151E-05   -0.83402E-05 11760   0.372E-02    0.153E-02
DAV:   6    -0.124037722559E+03    0.27860E-05   -0.27349E-05 13152   0.163E-02    0.517E-03
DAV:   7    -0.124037724459E+03   -0.19001E-05   -0.24190E-06 10368   0.604E-03    0.289E-03
DAV:   8    -0.124037730811E+03   -0.63512E-05   -0.26893E-06 12816   0.535E-03    0.199E-03
DAV:   9    -0.124037734296E+03   -0.34849E-05   -0.30798E-07 10464   0.213E-03    0.175E-03
DAV:  10    -0.124037743746E+03   -0.94505E-05   -0.84666E-07 13632   0.252E-03    0.511E-04
DAV:  11    -0.124037747881E+03   -0.41348E-05   -0.13985E-07 14064   0.961E-04    0.433E-04
DAV:  12    -0.124037752067E+03   -0.41858E-05   -0.10593E-07 12384   0.838E-04    0.229E-04
DAV:  13    -0.124037753888E+03   -0.18211E-05   -0.48458E-08 14112   0.627E-04    0.123E-04
DAV:  14    -0.124037754486E+03   -0.59872E-06   -0.11432E-08 13008   0.345E-04
  36 F= -.12588764E+03 E0= -.12588480E+03  d E =-.386516E-01  mag=    -0.0000
       N       E                     dE             d eps       ncg     rms          rms(c)
DAV:   1    -0.124074924903E+03   -0.37171E-01   -0.46096E+01  8256   0.254E+01    0.121E+00
DAV:   2    -0.124067285595E+03    0.76393E-02   -0.55772E-01 14688   0.298E+00    0.745E-01
DAV:   3    -0.124059255110E+03    0.80305E-02   -0.64804E-02 14592   0.857E-01    0.205E-01
DAV:   4    -0.124059141520E+03    0.11359E-03   -0.75521E-03 10560   0.318E-01    0.101E-01
DAV:   5    -0.124059129111E+03    0.12409E-04   -0.33675E-04 13776   0.729E-02    0.307E-02
DAV:   6    -0.124059112829E+03    0.16282E-04   -0.10063E-04 10176   0.310E-02    0.103E-02
DAV:   7    -0.124059114007E+03   -0.11777E-05   -0.72665E-06 10272   0.108E-02    0.671E-03
DAV:   8    -0.124059122720E+03   -0.87130E-05   -0.60128E-06 10464   0.811E-03    0.312E-03
DAV:   9    -0.124059133098E+03   -0.10378E-04   -0.19888E-06 11280   0.454E-03    0.330E-03
DAV:  10    -0.124059152031E+03   -0.18933E-04   -0.26070E-06 13296   0.438E-03    0.969E-04
DAV:  11    -0.124059160179E+03   -0.81480E-05   -0.44648E-07 14208   0.167E-03    0.885E-04
DAV:  12    -0.124059167565E+03   -0.73861E-05   -0.21727E-07 12528   0.117E-03    0.522E-04
DAV:  13    -0.124059172888E+03   -0.53228E-05   -0.17256E-07 13104   0.947E-04    0.234E-04
DAV:  14    -0.124059174299E+03   -0.14108E-05   -0.18099E-08 13536   0.376E-04    0.149E-04
DAV:  15    -0.124059175131E+03   -0.83214E-06   -0.14167E-08 13056   0.299E-04
  37 F= -.12588298E+03 E0= -.12588009E+03  d E =-.339858E-01  mag=     0.0000
       N       E                     dE             d eps       ncg     rms          rms(c)
DAV:   1    -0.124061154363E+03   -0.19801E-02   -0.14535E+01  8256   0.143E+01    0.678E-01
DAV:   2    -0.124059091846E+03    0.20625E-02   -0.17793E-01 14208   0.166E+00    0.420E-01
DAV:   3    -0.124056492516E+03    0.25993E-02   -0.20993E-02 14880   0.490E-01    0.114E-01
DAV:   4    -0.124056448918E+03    0.43598E-04   -0.25834E-03 14496   0.184E-01    0.584E-02
DAV:   5    -0.124056426054E+03    0.22864E-04   -0.90501E-05 14496   0.378E-02    0.184E-02
DAV:   6    -0.124056413270E+03    0.12784E-04   -0.32450E-05 14208   0.175E-02    0.568E-03
DAV:   7    -0.124056416137E+03   -0.28671E-05   -0.27513E-06 11040   0.624E-03    0.317E-03
DAV:   8    -0.124056423727E+03   -0.75900E-05   -0.25296E-06 11376   0.494E-03    0.199E-03
DAV:   9    -0.124056428539E+03   -0.48120E-05   -0.47360E-07 12624   0.204E-03    0.186E-03
DAV:  10    -0.124056438841E+03   -0.10302E-04   -0.16859E-06 11904   0.304E-03    0.550E-04
DAV:  11    -0.124056441530E+03   -0.26889E-05   -0.19564E-07 14352   0.103E-03    0.451E-04
DAV:  12    -0.124056445173E+03   -0.36426E-05   -0.42376E-07 12960   0.117E-03    0.183E-04
DAV:  13    -0.124056445748E+03   -0.57533E-06   -0.26170E-08 14208   0.407E-04
  38 F= -.12589481E+03 E0= -.12589196E+03  d E =-.458138E-01  mag=    -0.0000
       N       E                     dE             d eps       ncg     rms          rms(c)
DAV:   1    -0.124057564079E+03   -0.11189E-02   -0.12781E-02 10656   0.442E-01    0.217E-02
DAV:   2    -0.124057562769E+03    0.13110E-05   -0.13176E-04 13248   0.459E-02    0.132E-02
DAV:   3    -0.124057560314E+03    0.24543E-05   -0.15880E-05 14352   0.147E-02    0.278E-03
DAV:   4    -0.124057560400E+03   -0.85849E-07   -0.17484E-06 12864   0.495E-03
  39 F= -.12589571E+03 E0= -.12589287E+03  d E =-.908731E-03  mag=    -0.0000
       N       E                     dE             d eps       ncg     rms          rms(c)
DAV:   1    -0.124059841331E+03   -0.22810E-02   -0.11500E-01  9888   0.132E+00    0.652E-02
DAV:   2    -0.124059828933E+03    0.12398E-04   -0.11699E-03 14208   0.137E-01    0.394E-02
DAV:   3    -0.124059803508E+03    0.25425E-04   -0.13891E-04 14016   0.433E-02    0.829E-03
DAV:   4    -0.124059803934E+03   -0.42580E-06   -0.15745E-05 11616   0.148E-02    0.414E-03
DAV:   5    -0.124059804326E+03   -0.39182E-06   -0.70016E-07 12240   0.335E-03
  40 F= -.12589734E+03 E0= -.12589449E+03  d E =-.253572E-02  mag=     0.0000
       N       E                     dE             d eps       ncg     rms          rms(c)
DAV:   1    -0.124060311204E+03   -0.50727E-03   -0.27367E-02 10080   0.646E-01    0.318E-02
DAV:   2    -0.124060307587E+03    0.36167E-05   -0.27465E-04 14976   0.667E-02    0.191E-02
DAV:   3    -0.124060301791E+03    0.57963E-05   -0.32534E-05 13776   0.210E-02    0.401E-03
DAV:   4    -0.124060302028E+03   -0.23776E-06   -0.37515E-06 11856   0.733E-03
  41 F= -.12589754E+03 E0= -.12589468E+03  d E =-.273328E-02  mag=     0.0000
       N       E                     dE             d eps       ncg     rms          rms(c)
DAV:   1    -0.124061483697E+03   -0.11819E-02   -0.19199E-02  8256   0.538E-01    0.238E-02
DAV:   2    -0.124061483635E+03    0.61757E-07   -0.14210E-04 14496   0.498E-02    0.142E-02
DAV:   3    -0.124061482484E+03    0.11512E-05   -0.16131E-05 10656   0.140E-02    0.264E-03
DAV:   4    -0.124061482743E+03   -0.25909E-06   -0.16765E-06 12624   0.514E-03
  42 F= -.12589852E+03 E0= -.12589567E+03  d E =-.984903E-03  mag=     0.0000
       N       E                     dE             d eps       ncg     rms          rms(c)
DAV:   1    -0.124064509068E+03   -0.30266E-02   -0.17280E-01  8256   0.161E+00    0.715E-02
DAV:   2    -0.124064509979E+03   -0.91095E-06   -0.12584E-03 15360   0.148E-01    0.423E-02
DAV:   3    -0.124064492438E+03    0.17541E-04   -0.14542E-04 11808   0.413E-02    0.781E-03
DAV:   4    -0.124064493600E+03   -0.11623E-05   -0.13193E-05 14352   0.142E-02    0.357E-03
DAV:   5    -0.124064494323E+03   -0.72278E-06   -0.10298E-06  9360   0.455E-03
  43 F= -.12590095E+03 E0= -.12589809E+03  d E =-.341102E-02  mag=    -0.0000
       N       E                     dE             d eps       ncg     rms          rms(c)
DAV:   1    -0.124068206547E+03   -0.37129E-02   -0.69087E-01  8256   0.323E+00    0.143E-01
DAV:   2    -0.124068218420E+03   -0.11874E-04   -0.50052E-03 16032   0.295E-01    0.843E-02
DAV:   3    -0.124068136842E+03    0.81578E-04   -0.57633E-04 11856   0.816E-02    0.155E-02
DAV:   4    -0.124068140512E+03   -0.36705E-05   -0.49988E-05 14592   0.272E-02    0.701E-03
DAV:   5    -0.124068141827E+03   -0.13144E-05   -0.31284E-06 11952   0.668E-03    0.186E-03
DAV:   6    -0.124068142084E+03   -0.25707E-06   -0.81910E-07 11280   0.455E-03
  44 F= -.12590344E+03 E0= -.12590058E+03  d E =-.589716E-02  mag=    -0.0000
       N       E                     dE             d eps       ncg     rms          rms(c)
DAV:   1    -0.124068617657E+03   -0.47583E-03   -0.59019E-02  8256   0.943E-01    0.417E-02
DAV:   2    -0.124068616904E+03    0.75290E-06   -0.43054E-04 15456   0.868E-02    0.247E-02
DAV:   3    -0.124068612027E+03    0.48773E-05   -0.49511E-05 10080   0.242E-02    0.452E-03
DAV:   4    -0.124068612825E+03   -0.79764E-06   -0.50065E-06 13200   0.874E-03
  45 F= -.12590357E+03 E0= -.12590071E+03  d E =-.603068E-02  mag=    -0.0000
       N       E                     dE             d eps       ncg     rms          rms(c)
DAV:   1    -0.124069930518E+03   -0.13185E-02   -0.46661E-02  8256   0.845E-01    0.505E-02
DAV:   2    -0.124069882425E+03    0.48093E-04   -0.64354E-04 16416   0.959E-02    0.267E-02
DAV:   3    -0.124069868597E+03    0.13828E-04   -0.66181E-05  9216   0.267E-02    0.788E-03
DAV:   4    -0.124069869192E+03   -0.59547E-06   -0.85188E-06 12576   0.113E-02
  46 F= -.12590465E+03 E0= -.12590181E+03  d E =-.108101E-02  mag=    -0.0000
       N       E                     dE             d eps       ncg     rms          rms(c)
DAV:   1    -0.124071003026E+03   -0.11344E-02   -0.12630E-01  8256   0.139E+00    0.832E-02
DAV:   2    -0.124070872608E+03    0.13042E-03   -0.17374E-03 16416   0.158E-01    0.439E-02
DAV:   3    -0.124070835725E+03    0.36882E-04   -0.17596E-04 10080   0.434E-02    0.131E-02
DAV:   4    -0.124070836527E+03   -0.80112E-06   -0.21931E-05 12144   0.177E-02    0.475E-03
DAV:   5    -0.124070836858E+03   -0.33101E-06   -0.16358E-06  8640   0.633E-03
  47 F= -.12590533E+03 E0= -.12590253E+03  d E =-.176008E-02  mag=     0.0000
       N       E                     dE             d eps       ncg     rms          rms(c)
DAV:   1    -0.124071814750E+03   -0.97822E-03   -0.43758E-02  8256   0.803E-01    0.449E-02
DAV:   2    -0.124071798266E+03    0.16484E-04   -0.45323E-04 16080   0.854E-02    0.255E-02
DAV:   3    -0.124071787975E+03    0.10291E-04   -0.53316E-05  9456   0.259E-02    0.720E-03
DAV:   4    -0.124071788204E+03   -0.22939E-06   -0.92816E-06  9792   0.136E-02
  48 F= -.12590620E+03 E0= -.12590342E+03  d E =-.870315E-03  mag=     0.0000
       N       E                     dE             d eps       ncg     rms          rms(c)
DAV:   1    -0.124072375318E+03   -0.58734E-03   -0.80771E-02  8256   0.109E+00    0.613E-02
DAV:   2    -0.124072346047E+03    0.29271E-04   -0.84032E-04 16176   0.116E-01    0.349E-02
DAV:   3    -0.124072327100E+03    0.18947E-04   -0.96314E-05 10128   0.341E-02    0.998E-03
DAV:   4    -0.124072327277E+03   -0.17699E-06   -0.14981E-05 10656   0.162E-02    0.432E-03
DAV:   5    -0.124072327126E+03    0.15137E-06   -0.22511E-06  9216   0.767E-03
  49 F= -.12590663E+03 E0= -.12590388E+03  d E =-.129830E-02  mag=    -0.0000
       N       E                     dE             d eps       ncg     rms          rms(c)
DAV:   1    -0.124073018508E+03   -0.69123E-03   -0.20348E-02  8256   0.527E-01    0.272E-02
DAV:   2    -0.124073015704E+03    0.28035E-05   -0.14091E-04 13680   0.459E-02    0.159E-02
DAV:   3    -0.124073014405E+03    0.12992E-05   -0.16146E-05  9600   0.148E-02    0.383E-03
DAV:   4    -0.124073014684E+03   -0.27868E-06   -0.52434E-06  8736   0.110E-02
  50 F= -.12590728E+03 E0= -.12590454E+03  d E =-.654197E-03  mag=    -0.0000
       N       E                     dE             d eps       ncg     rms          rms(c)
DAV:   1    -0.124074491053E+03   -0.14766E-02   -0.18313E-01  8256   0.158E+00    0.816E-02
DAV:   2    -0.124074471632E+03    0.19421E-04   -0.12469E-03 15408   0.135E-01    0.477E-02
DAV:   3    -0.124074448069E+03    0.23563E-04   -0.12255E-04 11040   0.348E-02    0.109E-02
DAV:   4    -0.124074449632E+03   -0.15636E-05   -0.12111E-05 11952   0.134E-02    0.354E-03
DAV:   5    -0.124074450779E+03   -0.11464E-05   -0.28971E-06 10080   0.837E-03    0.139E-03
DAV:   6    -0.124074449701E+03    0.10775E-05   -0.22225E-06 11520   0.709E-03    0.536E-04
DAV:   7    -0.124074449421E+03    0.28036E-06   -0.33361E-07 12768   0.272E-03
  51 F= -.12590862E+03 E0= -.12590588E+03  d E =-.198981E-02  mag=     0.0000
       N       E                     dE             d eps       ncg     rms          rms(c)
DAV:   1    -0.124074723945E+03   -0.27424E-03   -0.73227E-01  8256   0.316E+00    0.163E-01
DAV:   2    -0.124074640498E+03    0.83447E-04   -0.48838E-03 15216   0.266E-01    0.948E-02
DAV:   3    -0.124074538933E+03    0.10156E-03   -0.48170E-04 10800   0.682E-02    0.214E-02
DAV:   4    -0.124074544285E+03   -0.53514E-05   -0.42823E-05 15024   0.224E-02    0.688E-03
DAV:   5    -0.124074544687E+03   -0.40177E-06   -0.17479E-06 11472   0.553E-03
  52 F= -.12590852E+03 E0= -.12590579E+03  d E =-.189122E-02  mag=    -0.0000
       N       E                     dE             d eps       ncg     rms          rms(c)
DAV:   1    -0.124075001459E+03   -0.45717E-03   -0.20186E-01  8256   0.166E+00    0.854E-02
DAV:   2    -0.124074978371E+03    0.23088E-04   -0.13454E-03 14448   0.140E-01    0.498E-02
DAV:   3    -0.124074952694E+03    0.25677E-04   -0.13626E-04 11856   0.365E-02    0.111E-02
DAV:   4    -0.124074954844E+03   -0.21493E-05   -0.11815E-05 11904   0.124E-02    0.362E-03
DAV:   5    -0.124074955683E+03   -0.83907E-06   -0.13133E-06 10992   0.562E-03
  53 F= -.12590903E+03 E0= -.12590630E+03  d E =-.240337E-02  mag=    -0.0000
       N       E                     dE             d eps       ncg     rms          rms(c)
DAV:   1    -0.124075870878E+03   -0.91603E-03   -0.77711E-02  8256   0.109E+00    0.572E-02
DAV:   2    -0.124075844000E+03    0.26877E-04   -0.65962E-04 16464   0.102E-01    0.325E-02
DAV:   3    -0.124075829059E+03    0.14941E-04   -0.82482E-05  9984   0.304E-02    0.804E-03
DAV:   4    -0.124075829398E+03   -0.33938E-06   -0.10020E-05  9888   0.132E-02    0.338E-03
DAV:   5    -0.124075829593E+03   -0.19484E-06   -0.16200E-06 10368   0.649E-03
  54 F= -.12590988E+03 E0= -.12590714E+03  d E =-.851820E-03  mag=    -0.0000
       N       E                     dE             d eps       ncg     rms          rms(c)
DAV:   1    -0.124076072809E+03   -0.24341E-03   -0.46380E-02  8256   0.840E-01    0.441E-02
DAV:   2    -0.124076057681E+03    0.15127E-04   -0.39218E-04 16272   0.793E-02    0.252E-02
DAV:   3    -0.124076049396E+03    0.82855E-05   -0.49727E-05  9696   0.241E-02    0.624E-03
DAV:   4    -0.124076049747E+03   -0.35117E-06   -0.73170E-06 10800   0.122E-02
  55 F= -.12591009E+03 E0= -.12590733E+03  d E =-.105477E-02  mag=    -0.0000
       N       E                     dE             d eps       ncg     rms          rms(c)
DAV:   1    -0.124076101796E+03   -0.52400E-04   -0.42060E-03  8592   0.259E-01    0.187E-02
DAV:   2    -0.124076092120E+03    0.96755E-05   -0.95545E-05 11712   0.372E-02    0.890E-03
DAV:   3    -0.124076090965E+03    0.11550E-05   -0.10151E-05  9264   0.124E-02    0.332E-03
DAV:   4    -0.124076091253E+03   -0.28800E-06   -0.27435E-06  8544   0.792E-03
  56 F= -.12591017E+03 E0= -.12590741E+03  d E =-.867422E-04  mag=     0.0000
       N       E                     dE             d eps       ncg     rms          rms(c)
DAV:   1    -0.124076082187E+03    0.87780E-05   -0.72522E-04  8736   0.108E-01    0.801E-03
DAV:   2    -0.124076080364E+03    0.18233E-05   -0.17064E-05  9408   0.164E-02    0.380E-03
DAV:   3    -0.124076080338E+03    0.25819E-07   -0.25097E-06  8448   0.687E-03
  57 F= -.12591018E+03 E0= -.12590742E+03  d E =-.946124E-04  mag=     0.0000
       N       E                     dE             d eps       ncg     rms          rms(c)
DAV:   1    -0.124076035637E+03    0.44727E-04   -0.51174E-04  8448   0.913E-02    0.430E-03
DAV:   2    -0.124076035371E+03    0.26549E-06   -0.64887E-06  9648   0.114E-02
  58 F= -.12591020E+03 E0= -.12590744E+03  d E =-.185264E-04  mag=    -0.0000
       N       E                     dE             d eps       ncg     rms          rms(c)
DAV:   1    -0.124075871033E+03    0.16460E-03   -0.45524E-03  8352   0.272E-01    0.130E-02
DAV:   2    -0.124075869819E+03    0.12135E-05   -0.50346E-05 11856   0.292E-02    0.787E-03
DAV:   3    -0.124075869729E+03    0.90657E-07   -0.62780E-06 11088   0.105E-02
  59 F= -.12591022E+03 E0= -.12590747E+03  d E =-.434108E-04  mag=     0.0000
       N       E                     dE             d eps       ncg     rms          rms(c)
DAV:   1    -0.124075789839E+03    0.79980E-04   -0.90395E-04  8256   0.118E-01    0.589E-03
DAV:   2    -0.124075789231E+03    0.60787E-06   -0.14284E-05  8448   0.172E-02    0.379E-03
DAV:   3    -0.124075789799E+03   -0.56763E-06   -0.34592E-06 11328   0.923E-03
  60 F= -.12591024E+03 E0= -.12590748E+03  d E =-.156289E-04  mag=    -0.0000
       N       E                     dE             d eps       ncg     rms          rms(c)
DAV:   1    -0.124075660887E+03    0.12834E-03   -0.18533E-03  9408   0.168E-01    0.848E-03
DAV:   2    -0.124075659910E+03    0.97717E-06   -0.25311E-05  8880   0.219E-02    0.532E-03
DAV:   3    -0.124075660261E+03   -0.35143E-06   -0.48861E-06 12000   0.105E-02
  61 F= -.12591025E+03 E0= -.12590749E+03  d E =-.235830E-04  mag=     0.0000
       N       E                     dE             d eps       ncg     rms          rms(c)
DAV:   1    -0.124075569240E+03    0.90670E-04   -0.75967E-04  8352   0.104E-01    0.533E-03
DAV:   2    -0.124075568423E+03    0.81693E-06   -0.11508E-05  8736   0.159E-02    0.337E-03
DAV:   3    -0.124075569133E+03   -0.71025E-06   -0.35833E-06  8976   0.924E-03
  62 F= -.12591026E+03 E0= -.12590751E+03  d E =-.125385E-04  mag=    -0.0000
       N       E                     dE             d eps       ncg     rms          rms(c)
DAV:   1    -0.124075293004E+03    0.27542E-03   -0.67332E-03  8304   0.308E-01    0.151E-02
DAV:   2    -0.124075290660E+03    0.23443E-05   -0.82414E-05  8640   0.376E-02    0.935E-03
DAV:   3    -0.124075290345E+03    0.31470E-06   -0.12187E-05 12192   0.141E-02    0.257E-03
DAV:   4    -0.124075290854E+03   -0.50859E-06   -0.44569E-06  8256   0.104E-02
  63 F= -.12591029E+03 E0= -.12590754E+03  d E =-.454082E-04  mag=     0.0000
       N       E                     dE             d eps       ncg     rms          rms(c)
DAV:   1    -0.124074728638E+03    0.56171E-03   -0.26890E-02  8256   0.615E-01    0.302E-02
DAV:   2    -0.124074720005E+03    0.86327E-05   -0.32212E-04  8784   0.723E-02    0.185E-02
DAV:   3    -0.124074716652E+03    0.33530E-05   -0.42183E-05  9984   0.235E-02    0.500E-03
DAV:   4    -0.124074717201E+03   -0.54914E-06   -0.76916E-06 10224   0.120E-02
  64 F= -.12591034E+03 E0= -.12590760E+03  d E =-.944134E-04  mag=    -0.0000
       N       E                     dE             d eps       ncg     rms          rms(c)
DAV:   1    -0.124073547161E+03    0.11695E-02   -0.10751E-01  8256   0.123E+00    0.599E-02
DAV:   2    -0.124073517984E+03    0.29177E-04   -0.13014E-03  9360   0.144E-01    0.366E-02
DAV:   3    -0.124073502128E+03    0.15857E-04   -0.16281E-04 10944   0.455E-02    0.992E-03
DAV:   4    -0.124073503892E+03   -0.17644E-05   -0.26957E-05 11616   0.221E-02    0.436E-03
DAV:   5    -0.124073503434E+03    0.45812E-06   -0.68299E-06 10128   0.127E-02
  65 F= -.12591038E+03 E0= -.12590765E+03  d E =-.127799E-03  mag=    -0.0000
       N       E                     dE             d eps       ncg     rms          rms(c)
DAV:   1    -0.124073432663E+03    0.71229E-04   -0.42468E-04 10032   0.772E-02    0.350E-03
DAV:   2    -0.124073432692E+03   -0.28341E-07   -0.49493E-06 12816   0.924E-03
  66 F= -.12591038E+03 E0= -.12590765E+03  d E =-.767980E-05  mag=    -0.0000
       N       E                     dE             d eps       ncg     rms          rms(c)
DAV:   1    -0.124073225617E+03    0.20705E-03   -0.37070E-03  8352   0.228E-01    0.114E-02
DAV:   2    -0.124073224873E+03    0.74440E-06   -0.42981E-05 10752   0.263E-02    0.700E-03
DAV:   3    -0.124073224493E+03    0.38014E-06   -0.52930E-06  9408   0.843E-03
  67 F= -.12591041E+03 E0= -.12590768E+03  d E =-.348047E-04  mag=    -0.0000
       N       E                     dE             d eps       ncg     rms          rms(c)
DAV:   1    -0.124072809618E+03    0.41525E-03   -0.15114E-02  8256   0.459E-01    0.225E-02
DAV:   2    -0.124072805875E+03    0.37429E-05   -0.17652E-04 10608   0.532E-02    0.138E-02
DAV:   3    -0.124072804313E+03    0.15622E-05   -0.21507E-05  9696   0.166E-02    0.365E-03
DAV:   4    -0.124072804628E+03   -0.31442E-06   -0.40726E-06  9216   0.862E-03
  68 F= -.12591046E+03 E0= -.12590774E+03  d E =-.858423E-04  mag=    -0.0000
       N       E                     dE             d eps       ncg     rms          rms(c)
DAV:   1    -0.124071971070E+03    0.83324E-03   -0.60149E-02  8256   0.917E-01    0.442E-02
DAV:   2    -0.124071957154E+03    0.13916E-04   -0.70555E-04 10224   0.106E-01    0.271E-02
DAV:   3    -0.124071948751E+03    0.84032E-05   -0.84855E-05  9696   0.326E-02    0.722E-03
DAV:   4    -0.124071949855E+03   -0.11040E-05   -0.14463E-05  9696   0.156E-02    0.302E-03
DAV:   5    -0.124071949924E+03   -0.68805E-07   -0.32272E-06  9840   0.883E-03
  69 F= -.12591055E+03 E0= -.12590783E+03  d E =-.173847E-03  mag=    -0.0000
       N       E                     dE             d eps       ncg     rms          rms(c)
DAV:   1    -0.124070277633E+03    0.16722E-02   -0.24055E-01  8256   0.183E+00    0.879E-02
DAV:   2    -0.124070222632E+03    0.55001E-04   -0.28007E-03 10752   0.209E-01    0.536E-02
DAV:   3    -0.124070184702E+03    0.37930E-04   -0.33339E-04 10944   0.625E-02    0.141E-02
DAV:   4    -0.124070186180E+03   -0.14773E-05   -0.45392E-05 14064   0.232E-02    0.578E-03
DAV:   5    -0.124070186629E+03   -0.44962E-06   -0.16025E-06 11568   0.521E-03
  70 F= -.12591068E+03 E0= -.12590797E+03  d E =-.300362E-03  mag=     0.0000
       N       E                     dE             d eps       ncg     rms          rms(c)
DAV:   1    -0.124066800115E+03    0.33861E-02   -0.96226E-01  8256   0.367E+00    0.176E-01
DAV:   2    -0.124066602922E+03    0.19719E-03   -0.11240E-02 10992   0.417E-01    0.107E-01
DAV:   3    -0.124066436153E+03    0.16677E-03   -0.13314E-03 11616   0.124E-01    0.281E-02
DAV:   4    -0.124066438726E+03   -0.25723E-05   -0.17345E-04 14976   0.451E-02    0.116E-02
DAV:   5    -0.124066438126E+03    0.59977E-06   -0.54857E-06 13248   0.859E-03
  71 F= -.12591072E+03 E0= -.12590803E+03  d E =-.347635E-03  mag=    -0.0000
       N       E                     dE             d eps       ncg     rms          rms(c)
DAV:   1    -0.124065756793E+03    0.68193E-03   -0.40398E-02  8256   0.751E-01    0.357E-02
DAV:   2    -0.124065749932E+03    0.68615E-05   -0.47660E-04 11520   0.863E-02    0.217E-02
DAV:   3    -0.124065744035E+03    0.58964E-05   -0.53930E-05 10560   0.253E-02    0.580E-03
DAV:   4    -0.124065745084E+03   -0.10487E-05   -0.79384E-06 10176   0.100E-02    0.233E-03
DAV:   5    -0.124065746028E+03   -0.94361E-06   -0.78676E-07 11856   0.400E-03
  72 F= -.12591081E+03 E0= -.12590812E+03  d E =-.859243E-04  mag=    -0.0000
       N       E                     dE             d eps       ncg     rms          rms(c)
DAV:   1    -0.124063733415E+03    0.20117E-02   -0.36230E-01  8256   0.225E+00    0.108E-01
DAV:   2    -0.124063646439E+03    0.86976E-04   -0.42210E-03 11808   0.256E-01    0.656E-02
DAV:   3    -0.124063585392E+03    0.61047E-04   -0.49602E-04 10464   0.756E-02    0.172E-02
DAV:   4    -0.124063587031E+03   -0.16393E-05   -0.68365E-05 13488   0.284E-02    0.687E-03
DAV:   5    -0.124063587614E+03   -0.58268E-06   -0.24349E-06 11424   0.637E-03
  73 F= -.12591099E+03 E0= -.12590830E+03  d E =-.267074E-03  mag=     0.0000
       N       E                     dE             d eps       ncg     rms          rms(c)
DAV:   1    -0.124059483844E+03    0.41032E-02   -0.14492E+00  8256   0.450E+00    0.216E-01
DAV:   2    -0.124059176157E+03    0.30769E-03   -0.17078E-02 12432   0.512E-01    0.131E-01
DAV:   3    -0.124058918927E+03    0.25723E-03   -0.19452E-03 11280   0.148E-01    0.343E-02
DAV:   4    -0.124058920266E+03   -0.13393E-05   -0.24985E-04 14496   0.546E-02    0.138E-02
DAV:   5    -0.124058918556E+03    0.17101E-05   -0.88908E-06 13968   0.105E-02    0.311E-03
DAV:   6    -0.124058918619E+03   -0.62536E-07   -0.12423E-06 10992   0.408E-03
  74 F= -.12591102E+03 E0= -.12590833E+03  d E =-.301643E-03  mag=    -0.0000
       N       E                     dE             d eps       ncg     rms          rms(c)
DAV:   1    -0.124061092810E+03   -0.21743E-02   -0.27026E-01  8256   0.194E+00    0.933E-02
DAV:   2    -0.124061034920E+03    0.57890E-04   -0.32315E-03 12048   0.222E-01    0.571E-02
DAV:   3    -0.124060995315E+03    0.39605E-04   -0.37436E-04 11712   0.645E-02    0.149E-02
DAV:   4    -0.124060997872E+03   -0.25564E-05   -0.43188E-05 10272   0.232E-02    0.615E-03
DAV:   5    -0.124060999364E+03   -0.14926E-05   -0.18614E-06  9744   0.503E-03    0.135E-03
DAV:   6    -0.124060999743E+03   -0.37922E-06   -0.20447E-07 14496   0.172E-03
  75 F= -.12591107E+03 E0= -.12590838E+03  d E =-.346133E-03  mag=    -0.0000
       N       E                     dE             d eps       ncg     rms          rms(c)
DAV:   1    -0.124061171196E+03   -0.17183E-03   -0.18486E-03  9504   0.166E-01    0.794E-03
DAV:   2    -0.124061171074E+03    0.12212E-06   -0.19357E-05 13776   0.176E-02    0.473E-03
DAV:   3    -0.124061171129E+03   -0.55226E-07   -0.22949E-06 14112   0.523E-03
  76 F= -.12591112E+03 E0= -.12590842E+03  d E =-.458736E-04  mag=    -0.0000
       N       E                     dE             d eps       ncg     rms          rms(c)
DAV:   1    -0.124061622258E+03   -0.45118E-03   -0.16627E-02  8256   0.498E-01    0.242E-02
DAV:   2    -0.124061619183E+03    0.30748E-05   -0.17961E-04 11328   0.536E-02    0.146E-02
DAV:   3    -0.124061616921E+03    0.22619E-05   -0.22362E-05 15696   0.164E-02    0.377E-03
DAV:   4    -0.124061617076E+03   -0.15517E-06   -0.25851E-06  8448   0.588E-03
  77 F= -.12591118E+03 E0= -.12590849E+03  d E =-.115461E-03  mag=    -0.0000
       N       E                     dE             d eps       ncg     rms          rms(c)
DAV:   1    -0.124061808706E+03   -0.19178E-03   -0.44373E-03  9024   0.261E-01    0.122E-02
DAV:   2    -0.124061808241E+03    0.46448E-06   -0.39905E-05 13632   0.254E-02    0.748E-03
DAV:   3    -0.124061807788E+03    0.45286E-06   -0.46569E-06 12768   0.770E-03
  78 F= -.12591124E+03 E0= -.12590854E+03  d E =-.552775E-04  mag=    -0.0000
       N       E                     dE             d eps       ncg     rms          rms(c)
DAV:   1    -0.124061930848E+03   -0.12261E-03   -0.28248E-03  8640   0.208E-01    0.100E-02
DAV:   2    -0.124061930533E+03    0.31531E-06   -0.25289E-05 12576   0.203E-02    0.617E-03
DAV:   3    -0.124061930376E+03    0.15674E-06   -0.30650E-06 11040   0.634E-03
  79 F= -.12591125E+03 E0= -.12590855E+03  d E =-.701172E-04  mag=    -0.0000
       N       E                     dE             d eps       ncg     rms          rms(c)
DAV:   1    -0.124062035342E+03   -0.10481E-03   -0.25919E-03  8640   0.200E-01    0.944E-03
DAV:   2    -0.124062034703E+03    0.63838E-06   -0.22783E-05 12576   0.194E-02    0.565E-03
DAV:   3    -0.124062034704E+03   -0.98225E-09   -0.27287E-06  8832   0.595E-03
  80 F= -.12591128E+03 E0= -.12590858E+03  d E =-.223668E-04  mag=     0.0000
       N       E                     dE             d eps       ncg     rms          rms(c)
DAV:   1    -0.124062111454E+03   -0.76751E-04   -0.19163E-03  8640   0.172E-01    0.827E-03
DAV:   2    -0.124062110941E+03    0.51299E-06   -0.16973E-05 13920   0.168E-02    0.495E-03
DAV:   3    -0.124062110994E+03   -0.53280E-07   -0.20110E-06  8544   0.515E-03
  81 F= -.12591128E+03 E0= -.12590858E+03  d E =-.282127E-04  mag=    -0.0000
       N       E                     dE             d eps       ncg     rms          rms(c)
DAV:   1    -0.124062145732E+03   -0.34791E-04   -0.64397E-04  9024   0.103E-01    0.517E-03
DAV:   2    -0.124062145495E+03    0.23718E-06   -0.65056E-06 14016   0.105E-02
  82 F= -.12591130E+03 E0= -.12590859E+03  d E =-.120541E-04  mag=    -0.0000
       N       E                     dE             d eps       ncg     rms          rms(c)
DAV:   1    -0.124062195888E+03   -0.50156E-04   -0.22288E-03  8256   0.193E-01    0.997E-03
DAV:   2    -0.124062195261E+03    0.62694E-06   -0.22422E-05 15360   0.195E-02    0.622E-03
DAV:   3    -0.124062195127E+03    0.13393E-06   -0.31919E-06  8544   0.656E-03
  83 F= -.12591130E+03 E0= -.12590860E+03  d E =-.195271E-04  mag=     0.0000
       N       E                     dE             d eps       ncg     rms          rms(c)
DAV:   1    -0.124062212504E+03   -0.17243E-04   -0.19062E-04 10080   0.553E-02    0.302E-03
DAV:   2    -0.124062212430E+03    0.74379E-07   -0.12185E-06 10176   0.477E-03
  84 F= -.12591131E+03 E0= -.12590861E+03  d E =-.619895E-05  mag=     0.0000
       N       E                     dE             d eps       ncg     rms          rms(c)
DAV:   1    -0.124062259451E+03   -0.46947E-04   -0.16951E-03  8304   0.165E-01    0.774E-03
DAV:   2    -0.124062259106E+03    0.34513E-06   -0.11020E-05  8928   0.140E-02    0.473E-03
DAV:   3    -0.124062259234E+03   -0.12818E-06   -0.21143E-06 10752   0.577E-03
  85 F= -.12591132E+03 E0= -.12590862E+03  d E =-.196991E-04  mag=    -0.0000
       N       E                     dE             d eps       ncg     rms          rms(c)
DAV:   1    -0.124062323686E+03   -0.64580E-04   -0.68589E-03  8256   0.331E-01    0.154E-02
DAV:   2    -0.124062322646E+03    0.10393E-05   -0.45238E-05 12480   0.279E-02    0.941E-03
DAV:   3    -0.124062322457E+03    0.18925E-06   -0.75396E-06  9552   0.994E-03
  86 F= -.12591132E+03 E0= -.12590862E+03  d E =-.163539E-04  mag=     0.0000
       N       E                     dE             d eps       ncg     rms          rms(c)
DAV:   1    -0.124062289231E+03    0.33416E-04   -0.25338E-03  8256   0.201E-01    0.888E-03
DAV:   2    -0.124062288571E+03    0.65986E-06   -0.17976E-05 12240   0.179E-02    0.538E-03
DAV:   3    -0.124062288831E+03   -0.26004E-06   -0.36213E-06 10704   0.802E-03
  87 F= -.12591133E+03 E0= -.12590863E+03  d E =-.233347E-04  mag=    -0.0000
       N       E                     dE             d eps       ncg     rms          rms(c)
DAV:   1    -0.124062300769E+03   -0.12199E-04   -0.26448E-04  8448   0.672E-02    0.374E-03
DAV:   2    -0.124062300369E+03    0.40035E-06   -0.54142E-06 10128   0.112E-02
  88 F= -.12591133E+03 E0= -.12590864E+03  d E =-.778746E-05  mag=    -0.0000
       N       E                     dE             d eps       ncg     rms          rms(c)
DAV:   1    -0.124062309323E+03   -0.85532E-05   -0.45716E-04  9792   0.881E-02    0.570E-03
DAV:   2    -0.124062308790E+03    0.53288E-06   -0.75209E-06  9024   0.126E-02
  89 F= -.12591134E+03 E0= -.12590864E+03  d E =-.111952E-04  mag=    -0.0000
       N       E                     dE             d eps       ncg     rms          rms(c)
DAV:   1    -0.124062314863E+03   -0.55405E-05   -0.32431E-04  8256   0.737E-02    0.409E-03
DAV:   2    -0.124062314509E+03    0.35398E-06   -0.42765E-06  8448   0.977E-03
  90 F= -.12591134E+03 E0= -.12590864E+03  d E =-.692742E-05  mag=    -0.0000
       N       E                     dE             d eps       ncg     rms          rms(c)
DAV:   1    -0.124062321138E+03   -0.62752E-05   -0.29332E-03  8352   0.220E-01    0.110E-02
DAV:   2    -0.124062319729E+03    0.14088E-05   -0.29169E-05  8448   0.231E-02    0.636E-03
DAV:   3    -0.124062320308E+03   -0.57834E-06   -0.50453E-06  8736   0.100E-02
  91 F= -.12591135E+03 E0= -.12590865E+03  d E =-.163724E-04  mag=     0.0000
       N       E                     dE             d eps       ncg     rms          rms(c)
DAV:   1    -0.124062318907E+03    0.82272E-06   -0.73182E-04  8256   0.111E-01    0.593E-03
DAV:   2    -0.124062317867E+03    0.10397E-05   -0.11804E-05  8928   0.162E-02    0.343E-03
DAV:   3    -0.124062318390E+03   -0.52313E-06   -0.31412E-06  8448   0.877E-03
  92 F= -.12591136E+03 E0= -.12590866E+03  d E =-.857080E-05  mag=    -0.0000
       N       E                     dE             d eps       ncg     rms          rms(c)
DAV:   1    -0.124062312635E+03    0.52319E-05   -0.39364E-04  8832   0.817E-02    0.455E-03
DAV:   2    -0.124062312027E+03    0.60823E-06   -0.63218E-06  8448   0.120E-02
  93 F= -.12591136E+03 E0= -.12590866E+03  d E =-.986308E-05  mag=    -0.0000
       N       E                     dE             d eps       ncg     rms          rms(c)
DAV:   1    -0.124062304164E+03    0.84710E-05   -0.21811E-04  8832   0.600E-02    0.410E-03
DAV:   2    -0.124062303433E+03    0.73124E-06   -0.57259E-06  8448   0.114E-02
  94 F= -.12591137E+03 E0= -.12590867E+03  d E =-.325407E-05  mag=    -0.0000
       N       E                     dE             d eps       ncg     rms          rms(c)
DAV:   1    -0.124062297138E+03    0.70261E-05   -0.71810E-05  8832   0.355E-02    0.276E-03
DAV:   2    -0.124062296663E+03    0.47516E-06   -0.25694E-06  8544   0.807E-03
  95 F= -.12591137E+03 E0= -.12590867E+03  d E =-.346068E-05  mag=    -0.0000
       N       E                     dE             d eps       ncg     rms          rms(c)
DAV:   1    -0.124062284739E+03    0.12399E-04   -0.98308E-05  9312   0.415E-02    0.248E-03
DAV:   2    -0.124062284266E+03    0.47375E-06   -0.29955E-06  8352   0.845E-03
  96 F= -.12591137E+03 E0= -.12590867E+03  d E =-.154180E-05  mag=    -0.0000
       N       E                     dE             d eps       ncg     rms          rms(c)
DAV:   1    -0.124062259786E+03    0.24953E-04   -0.33526E-04  8928   0.756E-02    0.450E-03
DAV:   2    -0.124062259256E+03    0.53001E-06   -0.59101E-06  8352   0.107E-02
  97 F= -.12591137E+03 E0= -.12590867E+03  d E =-.245485E-05  mag=    -0.0000
       N       E                     dE             d eps       ncg     rms          rms(c)
DAV:   1    -0.124062250160E+03    0.96266E-05   -0.51102E-05  9216   0.307E-02    0.202E-03
DAV:   2    -0.124062249948E+03    0.21218E-06   -0.15440E-06  8736   0.647E-03
  98 F= -.12591137E+03 E0= -.12590867E+03  d E =-.134625E-05  mag=    -0.0000
       N       E                     dE             d eps       ncg     rms          rms(c)
DAV:   1    -0.124062221353E+03    0.28807E-04   -0.45023E-04  8832   0.888E-02    0.413E-03
DAV:   2    -0.124062221151E+03    0.20161E-06   -0.57180E-06  8448   0.116E-02
  99 F= -.12591137E+03 E0= -.12590868E+03  d E =-.451671E-05  mag=    -0.0000
       N       E                     dE             d eps       ncg     rms          rms(c)
DAV:   1    -0.124062158749E+03    0.62603E-04   -0.17947E-03  9024   0.177E-01    0.822E-03
DAV:   2    -0.124062158613E+03    0.13646E-06   -0.19069E-05  8448   0.199E-02    0.528E-03
DAV:   3    -0.124062159552E+03   -0.93895E-06   -0.39877E-06 10704   0.101E-02
 100 F= -.12591138E+03 E0= -.12590868E+03  d E =-.684578E-05  mag=     0.0000
       N       E                     dE             d eps       ncg     rms          rms(c)
DAV:   1    -0.124062182294E+03   -0.23681E-04   -0.23245E-04  8688   0.647E-02    0.255E-03
DAV:   2    -0.124062181760E+03    0.53453E-06   -0.46479E-06 10176   0.111E-02
 101 F= -.12591138E+03 E0= -.12590868E+03  d E =-.626853E-05  mag=     0.0000
       N       E                     dE             d eps       ncg     rms          rms(c)
DAV:   1    -0.124062172183E+03    0.10112E-04   -0.52671E-05  8640   0.310E-02    0.997E-04
DAV:   2    -0.124062171898E+03    0.28484E-06   -0.19198E-06  8352   0.719E-03
 102 F= -.12591138E+03 E0= -.12590868E+03  d E =-.113616E-05  mag=     0.0000
       N       E                     dE             d eps       ncg     rms          rms(c)
DAV:   1    -0.124062141939E+03    0.30244E-04   -0.45097E-04  9984   0.885E-02    0.413E-03
DAV:   2    -0.124062141880E+03    0.58611E-07   -0.43459E-06  8352   0.891E-03
 103 F= -.12591138E+03 E0= -.12590868E+03  d E =-.411445E-05  mag=     0.0000
       N       E                     dE             d eps       ncg     rms          rms(c)
DAV:   1    -0.124062078563E+03    0.63376E-04   -0.17857E-03  8352   0.176E-01    0.815E-03
DAV:   2    -0.124062078738E+03   -0.17496E-06   -0.18091E-05  8928   0.179E-02    0.522E-03
DAV:   3    -0.124062078713E+03    0.25275E-07   -0.16849E-06  9552   0.576E-03
 104 F= -.12591138E+03 E0= -.12590868E+03  d E =-.694246E-05  mag=    -0.0000
       N       E                     dE             d eps       ncg     rms          rms(c)
DAV:   1    -0.124062062760E+03    0.15978E-04   -0.11788E-04  8448   0.457E-02    0.219E-03
DAV:   2    -0.124062062688E+03    0.72277E-07   -0.18101E-06  8736   0.671E-03
 105 F= -.12591138E+03 E0= -.12590868E+03  d E =-.194295E-05  mag=    -0.0000
       N       E                     dE             d eps       ncg     rms          rms(c)
DAV:   1    -0.124062012717E+03    0.50043E-04   -0.10514E-03  8352   0.136E-01    0.607E-03
DAV:   2    -0.124062012859E+03   -0.14151E-06   -0.11854E-05  8736   0.152E-02    0.403E-03
DAV:   3    -0.124062012991E+03   -0.13213E-06   -0.15911E-06 10560   0.632E-03
 106 F= -.12591139E+03 E0= -.12590869E+03  d E =-.614887E-05  mag=     0.0000
       N       E                     dE             d eps       ncg     rms          rms(c)
DAV:   1    -0.124061904200E+03    0.10866E-03   -0.42214E-03  8256   0.271E-01    0.116E-02
DAV:   2    -0.124061905228E+03   -0.10274E-05   -0.45733E-05  9024   0.288E-02    0.767E-03
DAV:   3    -0.124061905179E+03    0.48770E-07   -0.41774E-06 11088   0.958E-03
 107 F= -.12591139E+03 E0= -.12590869E+03  d E =-.612487E-05  mag=    -0.0000
       N       E                     dE             d eps       ncg     rms          rms(c)
DAV:   1    -0.124061965150E+03   -0.59922E-04   -0.12525E-03  8592   0.148E-01    0.572E-03
DAV:   2    -0.124061965236E+03   -0.86015E-07   -0.15366E-05  9744   0.178E-02    0.376E-03
DAV:   3    -0.124061965474E+03   -0.23843E-06   -0.22618E-06  8640   0.765E-03
 108 F= -.12591139E+03 E0= -.12590869E+03  d E =-.769928E-05  mag=     0.0000
       N       E                     dE             d eps       ncg     rms          rms(c)
DAV:   1    -0.124061944998E+03    0.20238E-04   -0.18257E-04  8352   0.573E-02    0.212E-03
DAV:   2    -0.124061944619E+03    0.37895E-06   -0.38124E-06  8256   0.101E-02
 109 F= -.12591139E+03 E0= -.12590870E+03  d E =-.188736E-05  mag=     0.0000
       N       E                     dE             d eps       ncg     rms          rms(c)
DAV:   1    -0.124061879862E+03    0.65136E-04   -0.16121E-03  8256   0.168E-01    0.746E-03
DAV:   2    -0.124061880121E+03   -0.25835E-06   -0.17642E-05  8352   0.184E-02    0.499E-03
DAV:   3    -0.124061880287E+03   -0.16662E-06   -0.21856E-06  8736   0.740E-03
 110 F= -.12591140E+03 E0= -.12590870E+03  d E =-.578181E-05  mag=    -0.0000
       N       E                     dE             d eps       ncg     rms          rms(c)
DAV:   1    -0.124061739925E+03    0.14020E-03   -0.64586E-03  8256   0.335E-01    0.140E-02
DAV:   2    -0.124061741833E+03   -0.19086E-05   -0.67761E-05  8640   0.350E-02    0.942E-03
DAV:   3    -0.124061741773E+03    0.59805E-07   -0.58422E-06 10608   0.114E-02
 111 F= -.12591139E+03 E0= -.12590870E+03  d E =-.362424E-05  mag=     0.0000
       N       E                     dE             d eps       ncg     rms          rms(c)
DAV:   1    -0.124061838641E+03   -0.96808E-04   -0.30934E-03  8256   0.232E-01    0.893E-03
DAV:   2    -0.124061839334E+03   -0.69342E-06   -0.35598E-05  9984   0.263E-02    0.603E-03
DAV:   3    -0.124061839630E+03   -0.29528E-06   -0.38510E-06  8256   0.989E-03
 112 F= -.12591140E+03 E0= -.12590870E+03  d E =-.706483E-05  mag=    -0.0000
       N       E                     dE             d eps       ncg     rms          rms(c)
DAV:   1    -0.124061808312E+03    0.31022E-04   -0.44052E-04  8256   0.882E-02    0.322E-03
DAV:   2    -0.124061807592E+03    0.71985E-06   -0.79915E-06  8256   0.144E-02
 113 F= -.12591140E+03 E0= -.12590871E+03  d E =-.276698E-05  mag=    -0.0000
       N       E                     dE             d eps       ncg     rms          rms(c)
DAV:   1    -0.124061728388E+03    0.79924E-04   -0.25164E-03  8256   0.209E-01    0.943E-03
DAV:   2    -0.124061728600E+03   -0.21213E-06   -0.27528E-05  8256   0.233E-02    0.634E-03
DAV:   3    -0.124061729162E+03   -0.56114E-06   -0.37926E-06  8640   0.981E-03
 114 F= -.12591141E+03 E0= -.12590871E+03  d E =-.796620E-05  mag=     0.0000
       N       E                     dE             d eps       ncg     rms          rms(c)
DAV:   1    -0.124061690287E+03    0.38313E-04   -0.56516E-04  8256   0.997E-02    0.441E-03
DAV:   2    -0.124061689789E+03    0.49850E-06   -0.83290E-06  8448   0.145E-02
 115 F= -.12591141E+03 E0= -.12590871E+03  d E =-.808530E-05  mag=     0.0000
       N       E                     dE             d eps       ncg     rms          rms(c)
DAV:   1    -0.124061668017E+03    0.22271E-04   -0.21739E-04  8256   0.627E-02    0.345E-03
DAV:   2    -0.124061667336E+03    0.68028E-06   -0.49153E-06  8256   0.116E-02
 116 F= -.12591141E+03 E0= -.12590871E+03  d E =-.237170E-05  mag=     0.0000
       N       E                     dE             d eps       ncg     rms          rms(c)
DAV:   1    -0.124061598681E+03    0.69335E-04   -0.19453E-03  8256   0.184E-01    0.804E-03
DAV:   2    -0.124061598410E+03    0.27128E-06   -0.22604E-05  8256   0.223E-02    0.553E-03
DAV:   3    -0.124061599801E+03   -0.13904E-05   -0.51828E-06  9696   0.117E-02    0.197E-03
DAV:   4    -0.124061599333E+03    0.46748E-06   -0.57327E-06  8256   0.116E-02
 117 F= -.12591141E+03 E0= -.12590872E+03  d E =-.871262E-05  mag=     0.0000
       N       E                     dE             d eps       ncg     rms          rms(c)
DAV:   1    -0.124061453838E+03    0.14596E-03   -0.78077E-03  9264   0.367E-01    0.151E-02
DAV:   2    -0.124061455833E+03   -0.19943E-05   -0.70655E-05  8688   0.341E-02    0.101E-02
DAV:   3    -0.124061455356E+03    0.47635E-06   -0.50144E-06 10176   0.884E-03
 118 F= -.12591142E+03 E0= -.12590872E+03  d E =-.134424E-04  mag=    -0.0000
       N       E                     dE             d eps       ncg     rms          rms(c)
DAV:   1    -0.124061409191E+03    0.46641E-04   -0.96526E-04  8256   0.129E-01    0.579E-03
DAV:   2    -0.124061409457E+03   -0.26599E-06   -0.97163E-06  8352   0.133E-02
 119 F= -.12591142E+03 E0= -.12590873E+03  d E =-.603618E-05  mag=    -0.0000
       N       E                     dE             d eps       ncg     rms          rms(c)
DAV:   1    -0.124061264149E+03    0.14504E-03   -0.86437E-03  8256   0.387E-01    0.167E-02
DAV:   2    -0.124061266453E+03   -0.23034E-05   -0.82912E-05  8256   0.375E-02    0.113E-02
DAV:   3    -0.124061265902E+03    0.55041E-06   -0.59719E-06 11376   0.103E-02
 120 F= -.12591144E+03 E0= -.12590874E+03  d E =-.183076E-04  mag=     0.0000
       N       E                     dE             d eps       ncg     rms          rms(c)
DAV:   1    -0.124060946473E+03    0.31998E-03   -0.34675E-02  8256   0.774E-01    0.321E-02
DAV:   2    -0.124060956470E+03   -0.99966E-05   -0.32980E-04  8544   0.746E-02    0.217E-02
DAV:   3    -0.124060953764E+03    0.27051E-05   -0.21551E-05 10608   0.188E-02    0.726E-03
DAV:   4    -0.124060953978E+03   -0.21394E-06   -0.37612E-06  8592   0.944E-03
 121 F= -.12591144E+03 E0= -.12590875E+03  d E =-.181204E-04  mag=     0.0000
       N       E                     dE             d eps       ncg     rms          rms(c)
DAV:   1    -0.124061130968E+03   -0.17720E-03   -0.10840E-02  8256   0.433E-01    0.175E-02
DAV:   2    -0.124061133995E+03   -0.30276E-05   -0.10831E-04 10176   0.434E-02    0.120E-02
DAV:   3    -0.124061133609E+03    0.38634E-06   -0.76283E-06  8784   0.125E-02
 122 F= -.12591144E+03 E0= -.12590875E+03  d E =-.232687E-04  mag=    -0.0000
       N       E                     dE             d eps       ncg     rms          rms(c)
DAV:   1    -0.124061082740E+03    0.51255E-04   -0.11410E-03  9360   0.141E-01    0.506E-03
DAV:   2    -0.124061082194E+03    0.54652E-06   -0.13052E-05  8256   0.176E-02    0.340E-03
DAV:   3    -0.124061082939E+03   -0.74531E-06   -0.36197E-06  8832   0.973E-03
 123 F= -.12591145E+03 E0= -.12590875E+03  d E =-.547419E-05  mag=     0.0000
       N       E                     dE             d eps       ncg     rms          rms(c)
DAV:   1    -0.124060920631E+03    0.16156E-03   -0.10192E-02  8256   0.420E-01    0.168E-02
DAV:   2    -0.124060924323E+03   -0.36916E-05   -0.95893E-05  8256   0.412E-02    0.117E-02
DAV:   3    -0.124060924209E+03    0.11368E-06   -0.73168E-06  8352   0.128E-02
 124 F= -.12591146E+03 E0= -.12590877E+03  d E =-.151584E-04  mag=    -0.0000
       N       E                     dE             d eps       ncg     rms          rms(c)
DAV:   1    -0.124060571160E+03    0.35316E-03   -0.40798E-02  8256   0.840E-01    0.337E-02
DAV:   2    -0.124060586918E+03   -0.15758E-04   -0.37341E-04  8256   0.803E-02    0.235E-02
DAV:   3    -0.124060584761E+03    0.21571E-05   -0.25582E-05 10848   0.223E-02    0.739E-03
DAV:   4    -0.124060585210E+03   -0.44863E-06   -0.80956E-06  8640   0.147E-02
 125 F= -.12591146E+03 E0= -.12590877E+03  d E =-.131109E-04  mag=    -0.0000
       N       E                     dE             d eps       ncg     rms          rms(c)
DAV:   1    -0.124060810519E+03   -0.22576E-03   -0.18288E-02  8256   0.562E-01    0.220E-02
DAV:   2    -0.124060816926E+03   -0.64069E-05   -0.17555E-04 10224   0.559E-02    0.154E-02
DAV:   3    -0.124060817203E+03   -0.27658E-06   -0.13825E-05  9072   0.178E-02    0.490E-03
DAV:   4    -0.124060818366E+03   -0.11630E-05   -0.10383E-05  9168   0.163E-02    0.172E-03
DAV:   5    -0.124060815235E+03    0.31306E-05   -0.51337E-06  8688   0.109E-02    0.809E-04
DAV:   6    -0.124060814915E+03    0.32015E-06   -0.53534E-07 12672   0.350E-03
 126 F= -.12591146E+03 E0= -.12590877E+03  d E =-.170475E-04  mag=    -0.0000
       N       E                     dE             d eps       ncg     rms          rms(c)
DAV:   1    -0.124060733416E+03    0.81820E-04   -0.30699E-03  8352   0.230E-01    0.912E-03
DAV:   2    -0.124060734461E+03   -0.10455E-05   -0.28777E-05  9456   0.216E-02    0.635E-03
DAV:   3    -0.124060734305E+03    0.15652E-06   -0.15000E-06 10944   0.467E-03
 127 F= -.12591147E+03 E0= -.12590878E+03  d E =-.959664E-05  mag=    -0.0000
       N       E                     dE             d eps       ncg     rms          rms(c)
DAV:   1    -0.124060475995E+03    0.25847E-03   -0.27638E-02  8256   0.691E-01    0.277E-02
DAV:   2    -0.124060485858E+03   -0.98631E-05   -0.25176E-04  9312   0.641E-02    0.192E-02
DAV:   3    -0.124060483793E+03    0.20652E-05   -0.13248E-05 11568   0.138E-02    0.618E-03
DAV:   4    -0.124060483914E+03   -0.12133E-06   -0.15631E-06  8304   0.462E-03
 128 F= -.12591149E+03 E0= -.12590880E+03  d E =-.298473E-04  mag=     0.0000
