  16  16   0  16
  0.2062353E+02  0.5040000E-09  0.5040000E-09  0.1500000E-08  0.5000000E-15
  1.000000000000000E-004
  CAR 
 Lattice                                 
      9.81724840    -21.32125960  301     -0.96752995      1.00000000
    -21.321  0.0000E+00  0.0000E+00  0.0000E+00  0.0000E+00
    -21.217  0.0000E+00  0.0000E+00  0.0000E+00  0.0000E+00
    -21.114  0.0000E+00  0.0000E+00  0.0000E+00  0.0000E+00
    -21.010  0.0000E+00  0.0000E+00  0.0000E+00  0.0000E+00
    -20.906  0.0000E+00  0.0000E+00  0.0000E+00  0.0000E+00
    -20.802  0.0000E+00  0.0000E+00  0.0000E+00  0.0000E+00
    -20.698  0.0000E+00  0.0000E+00  0.0000E+00  0.0000E+00
    -20.595  0.0000E+00  0.0000E+00  0.0000E+00  0.0000E+00
    -20.491  0.2902E-19  0.2902E-19  0.3012E-20  0.3012E-20
    -20.387  0.2908E-14  0.2908E-14  0.3018E-15  0.3018E-15
    -20.283  0.3041E-10  0.3041E-10  0.3157E-11  0.3157E-11
    -20.180  0.4334E-07  0.4334E-07  0.4502E-08  0.4502E-08
    -20.076  0.9106E-05  0.9106E-05  0.9497E-06  0.9497E-06
    -19.972  0.3114E-03  0.3114E-03  0.3327E-04  0.3327E-04
    -19.868  0.2124E-02  0.2124E-02  0.2537E-03  0.2537E-03
    -19.764  0.4402E-02  0.4402E-02  0.7106E-03  0.7106E-03
    -19.661  0.4899E-02  0.4899E-02  0.1219E-02  0.1219E-02
    -19.557  0.5159E-02  0.5159E-02  0.1755E-02  0.1755E-02
    -19.453  0.4643E-02  0.4643E-02  0.2236E-02  0.2236E-02
    -19.349  0.5668E-02  0.5668E-02  0.2825E-02  0.2825E-02
    -19.245  0.4258E-02  0.4258E-02  0.3267E-02  0.3267E-02
    -19.142  0.5275E-02  0.5275E-02  0.3814E-02  0.3814E-02
    -19.038  0.5877E-02  0.5877E-02  0.4424E-02  0.4424E-02
    -18.934  0.3645E-02  0.3645E-02  0.4803E-02  0.4803E-02
    -18.830  0.5354E-02  0.5354E-02  0.5358E-02  0.5358E-02
    -18.726  0.6337E-02  0.6337E-02  0.6016E-02  0.6016E-02
    -18.623  0.4384E-02  0.4384E-02  0.6471E-02  0.6471E-02
    -18.519  0.3421E-02  0.3421E-02  0.6826E-02  0.6826E-02
    -18.415  0.6791E-02  0.6791E-02  0.7531E-02  0.7531E-02
    -18.311  0.5936E-02  0.5936E-02  0.8147E-02  0.8147E-02
    -18.207  0.4220E-02  0.4219E-02  0.8585E-02  0.8585E-02
    -18.104  0.3451E-02  0.3451E-02  0.8943E-02  0.8943E-02
    -18.000  0.7539E-02  0.7539E-02  0.9726E-02  0.9726E-02
    -17.896  0.1234E-01  0.1234E-01  0.1101E-01  0.1101E-01
    -17.792  0.1130E-01  0.1130E-01  0.1218E-01  0.1218E-01
    -17.688  0.1128E-01  0.1128E-01  0.1335E-01  0.1335E-01
    -17.585  0.1322E-01  0.1322E-01  0.1472E-01  0.1472E-01
    -17.481  0.1710E-01  0.1710E-01  0.1650E-01  0.1650E-01
    -17.377  0.2102E-01  0.2102E-01  0.1868E-01  0.1868E-01
    -17.273  0.1915E-01  0.1915E-01  0.2067E-01  0.2067E-01
    -17.169  0.8297E-02  0.8297E-02  0.2153E-01  0.2153E-01
    -17.066  0.4925E-02  0.4924E-02  0.2204E-01  0.2204E-01
    -16.962  0.7269E-02  0.7269E-02  0.2279E-01  0.2279E-01
    -16.858  0.6726E-02  0.6726E-02  0.2349E-01  0.2349E-01
    -16.754  0.5490E-02  0.5490E-02  0.2406E-01  0.2406E-01
    -16.650  0.4553E-02  0.4553E-02  0.2453E-01  0.2453E-01
    -16.547  0.2644E-02  0.2644E-02  0.2481E-01  0.2481E-01
    -16.443  0.4558E-02  0.4558E-02  0.2528E-01  0.2528E-01
    -16.339  0.9289E-02  0.9289E-02  0.2625E-01  0.2625E-01
    -16.235  0.6162E-02  0.6162E-02  0.2689E-01  0.2689E-01
    -16.132  0.4763E-02  0.4763E-02  0.2738E-01  0.2738E-01
    -16.028  0.4297E-02  0.4297E-02  0.2783E-01  0.2783E-01
    -15.924  0.4147E-02  0.4147E-02  0.2826E-01  0.2826E-01
    -15.820  0.3889E-02  0.3889E-02  0.2866E-01  0.2866E-01
    -15.716  0.9394E-02  0.9394E-02  0.2963E-01  0.2963E-01
    -15.613  0.1309E-01  0.1309E-01  0.3099E-01  0.3099E-01
    -15.509  0.1396E-01  0.1396E-01  0.3244E-01  0.3244E-01
    -15.405  0.1627E-01  0.1627E-01  0.3413E-01  0.3413E-01
    -15.301  0.1420E-01  0.1420E-01  0.3561E-01  0.3561E-01
    -15.197  0.1209E-01  0.1209E-01  0.3686E-01  0.3686E-01
    -15.094  0.1445E-01  0.1445E-01  0.3836E-01  0.3836E-01
    -14.990  0.1843E-01  0.1843E-01  0.4027E-01  0.4027E-01
    -14.886  0.1511E-01  0.1511E-01  0.4184E-01  0.4184E-01
    -14.782  0.1311E-01  0.1311E-01  0.4320E-01  0.4320E-01
    -14.678  0.9761E-02  0.9761E-02  0.4422E-01  0.4422E-01
    -14.575  0.1045E-01  0.1045E-01  0.4530E-01  0.4530E-01
    -14.471  0.1624E-01  0.1624E-01  0.4699E-01  0.4699E-01
    -14.367  0.2023E-01  0.2023E-01  0.4909E-01  0.4909E-01
    -14.263  0.1414E-01  0.1414E-01  0.5055E-01  0.5055E-01
    -14.159  0.9339E-02  0.9338E-02  0.5152E-01  0.5152E-01
    -14.056  0.7698E-02  0.7698E-02  0.5232E-01  0.5232E-01
    -13.952  0.8138E-02  0.8138E-02  0.5317E-01  0.5317E-01
    -13.848  0.7989E-02  0.7988E-02  0.5400E-01  0.5400E-01
    -13.744  0.5501E-02  0.5501E-02  0.5457E-01  0.5457E-01
    -13.640  0.3413E-02  0.3413E-02  0.5492E-01  0.5492E-01
    -13.537  0.4768E-02  0.4768E-02  0.5542E-01  0.5542E-01
    -13.433  0.4460E-02  0.4460E-02  0.5588E-01  0.5588E-01
    -13.329  0.6283E-02  0.6283E-02  0.5653E-01  0.5653E-01
    -13.225  0.5742E-02  0.5742E-02  0.5713E-01  0.5713E-01
    -13.121  0.6645E-02  0.6645E-02  0.5782E-01  0.5782E-01
    -13.018  0.7998E-02  0.7998E-02  0.5865E-01  0.5865E-01
    -12.914  0.7524E-02  0.7524E-02  0.5943E-01  0.5943E-01
    -12.810  0.8334E-02  0.8334E-02  0.6029E-01  0.6029E-01
    -12.706  0.5766E-02  0.5766E-02  0.6089E-01  0.6089E-01
    -12.602  0.6959E-02  0.6959E-02  0.6161E-01  0.6161E-01
    -12.499  0.4767E-02  0.4767E-02  0.6211E-01  0.6211E-01
    -12.395  0.4515E-02  0.4515E-02  0.6258E-01  0.6258E-01
    -12.291  0.8760E-02  0.8760E-02  0.6349E-01  0.6349E-01
    -12.187  0.6466E-02  0.6466E-02  0.6416E-01  0.6416E-01
    -12.084  0.7010E-02  0.7010E-02  0.6488E-01  0.6488E-01
    -11.980  0.1233E-01  0.1233E-01  0.6616E-01  0.6616E-01
    -11.876  0.1648E-01  0.1648E-01  0.6788E-01  0.6788E-01
    -11.772  0.1494E-01  0.1494E-01  0.6943E-01  0.6943E-01
    -11.668  0.1454E-01  0.1454E-01  0.7093E-01  0.7093E-01
    -11.565  0.1621E-01  0.1621E-01  0.7262E-01  0.7262E-01
    -11.461  0.1517E-01  0.1517E-01  0.7419E-01  0.7419E-01
    -11.357  0.8387E-02  0.8387E-02  0.7506E-01  0.7506E-01
    -11.253  0.9445E-02  0.9445E-02  0.7604E-01  0.7604E-01
    -11.149  0.1156E-01  0.1156E-01  0.7724E-01  0.7724E-01
    -11.046  0.1161E-01  0.1161E-01  0.7845E-01  0.7845E-01
    -10.942  0.6017E-02  0.6017E-02  0.7907E-01  0.7907E-01
    -10.838  0.6510E-02  0.6510E-02  0.7975E-01  0.7975E-01
    -10.734  0.1565E-01  0.1565E-01  0.8137E-01  0.8137E-01
    -10.630  0.1714E-01  0.1714E-01  0.8315E-01  0.8315E-01
    -10.527  0.8335E-02  0.8335E-02  0.8402E-01  0.8402E-01
    -10.423  0.6280E-02  0.6280E-02  0.8467E-01  0.8467E-01
    -10.319  0.1233E-01  0.1233E-01  0.8595E-01  0.8595E-01
    -10.215  0.1966E-01  0.1966E-01  0.8799E-01  0.8799E-01
    -10.111  0.1485E-01  0.1485E-01  0.8953E-01  0.8953E-01
    -10.008  0.8658E-02  0.8658E-02  0.9043E-01  0.9043E-01
     -9.904  0.8767E-02  0.8767E-02  0.9134E-01  0.9134E-01
     -9.800  0.1012E-01  0.1012E-01  0.9239E-01  0.9239E-01
     -9.696  0.1132E-01  0.1132E-01  0.9356E-01  0.9356E-01
     -9.592  0.9283E-02  0.9283E-02  0.9453E-01  0.9453E-01
     -9.489  0.1079E-01  0.1079E-01  0.9565E-01  0.9565E-01
     -9.385  0.9549E-02  0.9549E-02  0.9664E-01  0.9664E-01
     -9.281  0.1012E-01  0.1012E-01  0.9769E-01  0.9769E-01
     -9.177  0.8323E-02  0.8323E-02  0.9855E-01  0.9855E-01
     -9.073  0.2470E-02  0.2470E-02  0.9881E-01  0.9881E-01
     -8.970  0.5798E-02  0.5798E-02  0.9941E-01  0.9941E-01
     -8.866  0.1462E-01  0.1462E-01  0.1009E+00  0.1009E+00
     -8.762  0.1922E-01  0.1922E-01  0.1029E+00  0.1029E+00
     -8.658  0.1493E-01  0.1493E-01  0.1045E+00  0.1045E+00
     -8.554  0.8094E-02  0.8094E-02  0.1053E+00  0.1053E+00
     -8.451  0.8749E-02  0.8749E-02  0.1062E+00  0.1062E+00
     -8.347  0.1056E-01  0.1056E-01  0.1073E+00  0.1073E+00
     -8.243  0.1999E-01  0.1999E-01  0.1094E+00  0.1094E+00
     -8.139  0.2443E-01  0.2443E-01  0.1119E+00  0.1119E+00
     -8.035  0.2188E-01  0.2188E-01  0.1142E+00  0.1142E+00
     -7.932  0.1546E-01  0.1546E-01  0.1158E+00  0.1158E+00
     -7.828  0.1318E-01  0.1318E-01  0.1172E+00  0.1172E+00
     -7.724  0.1554E-01  0.1554E-01  0.1188E+00  0.1188E+00
     -7.620  0.2691E-01  0.2691E-01  0.1216E+00  0.1216E+00
     -7.517  0.2592E-01  0.2592E-01  0.1243E+00  0.1243E+00
     -7.413  0.2092E-01  0.2092E-01  0.1264E+00  0.1264E+00
     -7.309  0.2235E-01  0.2235E-01  0.1288E+00  0.1288E+00
     -7.205  0.2368E-01  0.2368E-01  0.1312E+00  0.1312E+00
     -7.101  0.2406E-01  0.2406E-01  0.1337E+00  0.1337E+00
     -6.998  0.2731E-01  0.2731E-01  0.1366E+00  0.1366E+00
     -6.894  0.2098E-01  0.2098E-01  0.1387E+00  0.1387E+00
     -6.790  0.2040E-01  0.2040E-01  0.1408E+00  0.1408E+00
     -6.686  0.2728E-01  0.2728E-01  0.1437E+00  0.1437E+00
     -6.582  0.2265E-01  0.2265E-01  0.1460E+00  0.1460E+00
     -6.479  0.2281E-01  0.2281E-01  0.1484E+00  0.1484E+00
     -6.375  0.2383E-01  0.2383E-01  0.1509E+00  0.1509E+00
     -6.271  0.2445E-01  0.2445E-01  0.1534E+00  0.1534E+00
     -6.167  0.2235E-01  0.2235E-01  0.1557E+00  0.1557E+00
     -6.063  0.1734E-01  0.1734E-01  0.1575E+00  0.1575E+00
     -5.960  0.1778E-01  0.1778E-01  0.1594E+00  0.1594E+00
     -5.856  0.2264E-01  0.2264E-01  0.1617E+00  0.1617E+00
     -5.752  0.2527E-01  0.2527E-01  0.1643E+00  0.1643E+00
     -5.648  0.1958E-01  0.1958E-01  0.1664E+00  0.1664E+00
     -5.544  0.2016E-01  0.2016E-01  0.1685E+00  0.1685E+00
     -5.441  0.2221E-01  0.2221E-01  0.1708E+00  0.1708E+00
     -5.337  0.2922E-01  0.2922E-01  0.1738E+00  0.1738E+00
     -5.233  0.2538E-01  0.2538E-01  0.1764E+00  0.1764E+00
     -5.129  0.1357E-01  0.1357E-01  0.1779E+00  0.1779E+00
     -5.025  0.1315E-01  0.1315E-01  0.1792E+00  0.1792E+00
     -4.922  0.1893E-01  0.1893E-01  0.1812E+00  0.1812E+00
     -4.818  0.1907E-01  0.1907E-01  0.1832E+00  0.1832E+00
     -4.714  0.1693E-01  0.1693E-01  0.1849E+00  0.1849E+00
     -4.610  0.1573E-01  0.1573E-01  0.1866E+00  0.1866E+00
     -4.506  0.1642E-01  0.1642E-01  0.1883E+00  0.1883E+00
     -4.403  0.1847E-01  0.1847E-01  0.1902E+00  0.1902E+00
     -4.299  0.2171E-01  0.2171E-01  0.1924E+00  0.1924E+00
     -4.195  0.2877E-01  0.2877E-01  0.1954E+00  0.1954E+00
     -4.091  0.4036E-01  0.4036E-01  0.1996E+00  0.1996E+00
     -3.987  0.3520E-01  0.3520E-01  0.2033E+00  0.2033E+00
     -3.884  0.2479E-01  0.2479E-01  0.2058E+00  0.2058E+00
     -3.780  0.1647E-01  0.1647E-01  0.2075E+00  0.2075E+00
     -3.676  0.1367E-01  0.1367E-01  0.2090E+00  0.2090E+00
     -3.572  0.1583E-01  0.1583E-01  0.2106E+00  0.2106E+00
     -3.469  0.1897E-01  0.1897E-01  0.2126E+00  0.2126E+00
     -3.365  0.2145E-01  0.2145E-01  0.2148E+00  0.2148E+00
     -3.261  0.1498E-01  0.1498E-01  0.2163E+00  0.2163E+00
     -3.157  0.1397E-01  0.1397E-01  0.2178E+00  0.2178E+00
     -3.053  0.1626E-01  0.1626E-01  0.2195E+00  0.2195E+00
     -2.950  0.2313E-01  0.2313E-01  0.2219E+00  0.2219E+00
     -2.846  0.2475E-01  0.2475E-01  0.2245E+00  0.2245E+00
     -2.742  0.1291E-01  0.1291E-01  0.2258E+00  0.2258E+00
     -2.638  0.1351E-01  0.1351E-01  0.2272E+00  0.2272E+00
     -2.534  0.2168E-01  0.2168E-01  0.2294E+00  0.2294E+00
     -2.431  0.2084E-01  0.2084E-01  0.2316E+00  0.2316E+00
     -2.327  0.1980E-01  0.1980E-01  0.2337E+00  0.2337E+00
     -2.223  0.2235E-01  0.2235E-01  0.2360E+00  0.2360E+00
     -2.119  0.1619E-01  0.1619E-01  0.2377E+00  0.2377E+00
     -2.015  0.4174E-02  0.4174E-02  0.2381E+00  0.2381E+00
     -1.912  0.4557E-02  0.4557E-02  0.2386E+00  0.2386E+00
     -1.808  0.8061E-02  0.8061E-02  0.2394E+00  0.2394E+00
     -1.704  0.5197E-02  0.5197E-02  0.2400E+00  0.2400E+00
     -1.600  0.5453E-02  0.5453E-02  0.2405E+00  0.2405E+00
     -1.496  0.7359E-02  0.7359E-02  0.2413E+00  0.2413E+00
     -1.393  0.4761E-02  0.4761E-02  0.2418E+00  0.2418E+00
     -1.289  0.2361E-02  0.2361E-02  0.2420E+00  0.2420E+00
     -1.185  0.5374E-03  0.5374E-03  0.2421E+00  0.2421E+00
     -1.081  0.9917E-04  0.9918E-04  0.2421E+00  0.2421E+00
     -0.977  0.8069E-03  0.8070E-03  0.2422E+00  0.2422E+00
     -0.874  0.2835E-02  0.2835E-02  0.2425E+00  0.2425E+00
     -0.770  0.3754E-02  0.3754E-02  0.2429E+00  0.2429E+00
     -0.666  0.5365E-02  0.5365E-02  0.2434E+00  0.2434E+00
     -0.562  0.1079E-01  0.1079E-01  0.2445E+00  0.2445E+00
     -0.458  0.1050E-01  0.1050E-01  0.2456E+00  0.2456E+00
     -0.355  0.1089E-01  0.1089E-01  0.2468E+00  0.2468E+00
     -0.251  0.1259E-01  0.1259E-01  0.2481E+00  0.2481E+00
     -0.147  0.1028E-01  0.1028E-01  0.2491E+00  0.2491E+00
     -0.043  0.5645E-02  0.5644E-02  0.2497E+00  0.2497E+00
      0.061  0.2195E-02  0.2195E-02  0.2499E+00  0.2499E+00
      0.164  0.6573E-03  0.6573E-03  0.2500E+00  0.2500E+00
      0.268  0.1924E-02  0.1924E-02  0.2502E+00  0.2502E+00
      0.372  0.7096E-02  0.7097E-02  0.2509E+00  0.2509E+00
      0.476  0.1001E-01  0.1001E-01  0.2520E+00  0.2520E+00
      0.579  0.6696E-02  0.6696E-02  0.2527E+00  0.2527E+00
      0.683  0.3815E-02  0.3815E-02  0.2531E+00  0.2531E+00
      0.787  0.8377E-02  0.8377E-02  0.2539E+00  0.2539E+00
      0.891  0.1261E-01  0.1261E-01  0.2552E+00  0.2552E+00
      0.995  0.1315E-01  0.1315E-01  0.2566E+00  0.2566E+00
      1.098  0.9403E-02  0.9403E-02  0.2576E+00  0.2576E+00
      1.202  0.4669E-02  0.4669E-02  0.2581E+00  0.2581E+00
      1.306  0.5276E-02  0.5276E-02  0.2586E+00  0.2586E+00
      1.410  0.5219E-02  0.5219E-02  0.2592E+00  0.2592E+00
      1.514  0.5086E-02  0.5086E-02  0.2597E+00  0.2597E+00
      1.617  0.7384E-02  0.7384E-02  0.2605E+00  0.2605E+00
      1.721  0.1174E-01  0.1174E-01  0.2617E+00  0.2617E+00
      1.825  0.7473E-02  0.7473E-02  0.2625E+00  0.2625E+00
      1.929  0.2839E-02  0.2839E-02  0.2627E+00  0.2627E+00
      2.033  0.3570E-02  0.3570E-02  0.2631E+00  0.2631E+00
      2.136  0.9473E-02  0.9473E-02  0.2641E+00  0.2641E+00
      2.240  0.1638E-01  0.1638E-01  0.2658E+00  0.2658E+00
      2.344  0.1358E-01  0.1358E-01  0.2672E+00  0.2672E+00
      2.448  0.1111E-01  0.1111E-01  0.2684E+00  0.2684E+00
      2.552  0.1224E-01  0.1224E-01  0.2696E+00  0.2696E+00
      2.655  0.1192E-01  0.1192E-01  0.2709E+00  0.2709E+00
      2.759  0.1008E-01  0.1008E-01  0.2719E+00  0.2719E+00
      2.863  0.6905E-02  0.6908E-02  0.2726E+00  0.2726E+00
      2.967  0.8791E-02  0.8795E-02  0.2735E+00  0.2735E+00
      3.071  0.1347E-01  0.1347E-01  0.2749E+00  0.2749E+00
      3.174  0.1347E-01  0.1346E-01  0.2763E+00  0.2763E+00
      3.278  0.1396E-01  0.1397E-01  0.2778E+00  0.2778E+00
      3.382  0.1057E-01  0.1057E-01  0.2789E+00  0.2789E+00
      3.486  0.7441E-02  0.7445E-02  0.2797E+00  0.2797E+00
      3.590  0.1210E-01  0.1210E-01  0.2809E+00  0.2809E+00
      3.693  0.1223E-01  0.1223E-01  0.2822E+00  0.2822E+00
      3.797  0.9543E-02  0.9546E-02  0.2832E+00  0.2832E+00
      3.901  0.1282E-01  0.1283E-01  0.2845E+00  0.2845E+00
      4.005  0.1903E-01  0.1903E-01  0.2865E+00  0.2865E+00
      4.109  0.1498E-01  0.1497E-01  0.2880E+00  0.2880E+00
      4.212  0.1277E-01  0.1277E-01  0.2894E+00  0.2894E+00
      4.316  0.1652E-01  0.1653E-01  0.2911E+00  0.2911E+00
      4.420  0.1638E-01  0.1639E-01  0.2928E+00  0.2928E+00
      4.524  0.1322E-01  0.1322E-01  0.2942E+00  0.2942E+00
      4.627  0.1304E-01  0.1302E-01  0.2955E+00  0.2955E+00
      4.731  0.1363E-01  0.1365E-01  0.2969E+00  0.2969E+00
      4.835  0.1728E-01  0.1729E-01  0.2987E+00  0.2987E+00
      4.939  0.1910E-01  0.1911E-01  0.3007E+00  0.3007E+00
      5.043  0.1905E-01  0.1904E-01  0.3027E+00  0.3027E+00
      5.146  0.1696E-01  0.1696E-01  0.3044E+00  0.3044E+00
      5.250  0.1542E-01  0.1541E-01  0.3060E+00  0.3060E+00
      5.354  0.1523E-01  0.1524E-01  0.3076E+00  0.3076E+00
      5.458  0.1998E-01  0.1999E-01  0.3097E+00  0.3097E+00
      5.562  0.1789E-01  0.1787E-01  0.3115E+00  0.3115E+00
      5.665  0.1435E-01  0.1435E-01  0.3130E+00  0.3130E+00
      5.769  0.1518E-01  0.1518E-01  0.3146E+00  0.3146E+00
      5.873  0.2043E-01  0.2043E-01  0.3167E+00  0.3167E+00
      5.977  0.2287E-01  0.2286E-01  0.3191E+00  0.3191E+00
      6.081  0.2607E-01  0.2608E-01  0.3218E+00  0.3218E+00
      6.184  0.2839E-01  0.2839E-01  0.3248E+00  0.3248E+00
      6.288  0.2584E-01  0.2583E-01  0.3274E+00  0.3274E+00
      6.392  0.2452E-01  0.2452E-01  0.3300E+00  0.3300E+00
      6.496  0.1865E-01  0.1864E-01  0.3319E+00  0.3319E+00
      6.600  0.1839E-01  0.1840E-01  0.3338E+00  0.3338E+00
      6.703  0.3029E-01  0.3031E-01  0.3370E+00  0.3370E+00
      6.807  0.3282E-01  0.3281E-01  0.3404E+00  0.3404E+00
      6.911  0.2828E-01  0.2827E-01  0.3433E+00  0.3433E+00
      7.015  0.3073E-01  0.3073E-01  0.3465E+00  0.3465E+00
      7.119  0.3393E-01  0.3392E-01  0.3500E+00  0.3500E+00
      7.222  0.2749E-01  0.2749E-01  0.3529E+00  0.3529E+00
      7.326  0.2985E-01  0.2986E-01  0.3560E+00  0.3560E+00
      7.430  0.3949E-01  0.3949E-01  0.3601E+00  0.3601E+00
      7.534  0.3115E-01  0.3115E-01  0.3633E+00  0.3633E+00
      7.638  0.2503E-01  0.2504E-01  0.3659E+00  0.3659E+00
      7.741  0.2704E-01  0.2704E-01  0.3687E+00  0.3687E+00
      7.845  0.2369E-01  0.2369E-01  0.3712E+00  0.3712E+00
      7.949  0.1735E-01  0.1733E-01  0.3730E+00  0.3730E+00
      8.053  0.1029E-01  0.1027E-01  0.3740E+00  0.3740E+00
      8.157  0.4582E-02  0.4573E-02  0.3745E+00  0.3745E+00
      8.260  0.1366E-02  0.1364E-02  0.3747E+00  0.3747E+00
      8.364  0.1098E-02  0.1098E-02  0.3748E+00  0.3748E+00
      8.468  0.1662E-02  0.1662E-02  0.3749E+00  0.3749E+00
      8.572  0.5160E-03  0.5158E-03  0.3750E+00  0.3750E+00
      8.676  0.2469E-04  0.2467E-04  0.3750E+00  0.3750E+00
      8.779  0.1636E-06  0.1633E-06  0.3750E+00  0.3750E+00
      8.883  0.1395E-09  0.1392E-09  0.3750E+00  0.3750E+00
      8.987  0.1470E-13  0.1466E-13  0.3750E+00  0.3750E+00
      9.091  0.0000E+00  0.0000E+00  0.3750E+00  0.3750E+00
      9.194  0.0000E+00  0.0000E+00  0.3750E+00  0.3750E+00
      9.298  0.0000E+00  0.0000E+00  0.3750E+00  0.3750E+00
      9.402  0.0000E+00  0.0000E+00  0.3750E+00  0.3750E+00
      9.506  0.0000E+00  0.0000E+00  0.3750E+00  0.3750E+00
      9.610  0.0000E+00  0.0000E+00  0.3750E+00  0.3750E+00
      9.713  0.0000E+00  0.0000E+00  0.3750E+00  0.3750E+00
      9.817  0.0000E+00  0.0000E+00  0.3750E+00  0.3750E+00
