Lattice                                 
           1
     4.364768    2.520000    0.000000
    -4.364768    2.520000    0.000000
     0.000000    0.000000   15.000000
   B    C 
     2    14
Direct configuration=     1
   0.33833034  0.66916432  0.10000000
   0.67165522  0.33584146  0.10000000
   0.16373946  0.31999962  0.10000000
   0.32250218  0.16126397  0.10000000
   0.16376430  0.84376384  0.10000000
   0.84623863  0.16123684  0.10000000
   0.68749850  0.84373000  0.10000000
   0.84626736  0.68499594  0.10000000
   0.24999933  0.24999967  0.32633333
   0.41666633  0.08333267  0.32633333
   0.24999933  0.74999967  0.32633333
   0.41666633  0.58333267  0.32633333
   0.74999933  0.24999967  0.32633333
   0.91666633  0.08333267  0.32633333
   0.74999933  0.74999967  0.32633333
   0.91666633  0.58333267  0.32633333
Direct configuration=     2
   0.33844061  0.66905677  0.10014277
   0.67179323  0.33570229  0.10008355
   0.16715189  0.32677393  0.09994342
   0.32896772  0.16452812  0.09997451
   0.16698260  0.84053971  0.09995547
   0.84282676  0.16463137  0.09995954
   0.68074031  0.84034305  0.09994381
   0.84297806  0.67854213  0.09997475
   0.24986440  0.24959775  0.32640545
   0.41630222  0.08328198  0.32639601
   0.24982209  0.75018868  0.32626991
   0.41677189  0.58322353  0.32622962
   0.75003444  0.24995588  0.32620860
   0.91686757  0.08312386  0.32638154
   0.75040194  0.75014154  0.32640693
   0.91671294  0.58369474  0.32639080
Direct configuration=     3
   0.33836005  0.66913535  0.10003846
   0.67169239  0.33580397  0.10002251
   0.16465875  0.32182458  0.09998476
   0.32424396  0.16214331  0.09999313
   0.16463129  0.84289528  0.09998800
   0.84531949  0.16215131  0.09998910
   0.68567788  0.84281758  0.09998486
   0.84538124  0.68325732  0.09999320
   0.24996298  0.24989139  0.32635276
   0.41656824  0.08331901  0.32635022
   0.24995158  0.75005059  0.32631625
   0.41669477  0.58330327  0.32630539
   0.75000879  0.24998787  0.32629973
   0.91672055  0.08327641  0.32634632
   0.75010779  0.75003789  0.32635316
   0.91667889  0.58343021  0.32634881
Direct configuration=     4
   0.33836003  0.66913536  0.10003844
   0.67169237  0.33580399  0.10002250
   0.16465826  0.32182360  0.09998476
   0.32424303  0.16214284  0.09999314
   0.16463083  0.84289574  0.09998801
   0.84531999  0.16215082  0.09998911
   0.68567886  0.84281807  0.09998487
   0.84538171  0.68325825  0.09999320
   0.24996300  0.24989145  0.32635275
   0.41656830  0.08331902  0.32635021
   0.24995161  0.75005056  0.32631626
   0.41669475  0.58330328  0.32630541
   0.75000879  0.24998788  0.32629975
   0.91672052  0.08327645  0.32634631
   0.75010774  0.75003787  0.32635315
   0.91667888  0.58343016  0.32634881
Direct configuration=     5
   0.33836028  0.66914028  0.10013154
   0.67169149  0.33580517  0.10007675
   0.16460793  0.32182798  0.09994878
   0.32424866  0.16218079  0.09997311
   0.16461095  0.84290149  0.09996263
   0.84534607  0.16214278  0.09995872
   0.68566684  0.84287363  0.09994910
   0.84533879  0.68325684  0.09997350
   0.24995736  0.24983942  0.32640243
   0.41654167  0.08329398  0.32638830
   0.24993700  0.75006457  0.32627630
   0.41671655  0.58328159  0.32623783
   0.75001494  0.24997966  0.32622240
   0.91675834  0.08323788  0.32637810
   0.75015817  0.75004246  0.32640368
   0.91670364  0.58345683  0.32638349
Direct configuration=     6
   0.33836037  0.66914200  0.10016407
   0.67169118  0.33580558  0.10009571
   0.16459035  0.32182951  0.09993620
   0.32425063  0.16219405  0.09996611
   0.16460400  0.84290350  0.09995376
   0.84535519  0.16213998  0.09994810
   0.68566264  0.84289304  0.09993660
   0.84532379  0.68325634  0.09996662
   0.24995539  0.24982124  0.32641979
   0.41653237  0.08328523  0.32640161
   0.24993190  0.75006946  0.32626233
   0.41672417  0.58327402  0.32621422
   0.75001709  0.24997679  0.32619538
   0.91677155  0.08322440  0.32638921
   0.75017579  0.75004406  0.32642134
   0.91671229  0.58346615  0.32639561
Direct configuration=     7
   0.33828985  0.66919037  0.10024952
   0.67169496  0.33581513  0.10015120
   0.16475671  0.32188035  0.09990722
   0.32415070  0.16214211  0.09993842
   0.16456670  0.84295822  0.09994240
   0.84523728  0.16223253  0.09990324
   0.68564572  0.84276965  0.09990802
   0.84533875  0.68334326  0.09993940
   0.25001932  0.24988969  0.32646342
   0.41663981  0.08329768  0.32641390
   0.25001479  0.74998570  0.32623310
   0.41671609  0.58327797  0.32617014
   0.75005361  0.24994288  0.32615887
   0.91672920  0.08326472  0.32641766
   0.75010835  0.74997998  0.32646487
   0.91669682  0.58335510  0.32640531
Direct configuration=     8
   0.33833515  0.66915930  0.10019463
   0.67169253  0.33580899  0.10011556
   0.16464985  0.32184769  0.09992584
   0.32421489  0.16217548  0.09995621
   0.16459066  0.84292307  0.09994969
   0.84531302  0.16217308  0.09993205
   0.68565659  0.84284891  0.09992638
   0.84532914  0.68328743  0.09995688
   0.24997826  0.24984572  0.32643540
   0.41657079  0.08328968  0.32640601
   0.24996154  0.75003950  0.32625188
   0.41672128  0.58327543  0.32619846
   0.75003015  0.24996466  0.32618232
   0.91675640  0.08323882  0.32639939
   0.75015167  0.75002114  0.32643691
   0.91670675  0.58342643  0.32639908
Direct configuration=     9
   0.33831211  0.66918793  0.10022090
   0.67165084  0.33584567  0.10013427
   0.16461253  0.32186787  0.09991751
   0.32422880  0.16216216  0.09994276
   0.16455456  0.84293952  0.09995435
   0.84532687  0.16218239  0.09990537
   0.68562671  0.84287888  0.09991840
   0.84535197  0.68328442  0.09994375
   0.25000529  0.24986377  0.32644635
   0.41661905  0.08328353  0.32639504
   0.24999517  0.75000439  0.32624674
   0.41672961  0.58326571  0.32620050
   0.75004793  0.24994671  0.32619555
   0.91675228  0.08324233  0.32641032
   0.75013289  0.74999304  0.32644715
   0.91671206  0.58337702  0.32638770
Direct configuration=    10
   0.33832222  0.66917536  0.10020937
   0.67166914  0.33582957  0.10012605
   0.16462892  0.32185901  0.09992117
   0.32422269  0.16216800  0.09994866
   0.16457041  0.84293229  0.09995231
   0.84532079  0.16217830  0.09991709
   0.68563983  0.84286572  0.09992190
   0.84534195  0.68328574  0.09994952
   0.24999342  0.24985584  0.32644154
   0.41659786  0.08328623  0.32639986
   0.24998041  0.75001981  0.32624900
   0.41672595  0.58326998  0.32619960
   0.75004012  0.24995459  0.32618974
   0.91675409  0.08324079  0.32640552
   0.75014114  0.75000538  0.32644265
   0.91670973  0.58339872  0.32639270
Direct configuration=    11
   0.33829859  0.66919897  0.10022752
   0.67165241  0.33584954  0.10013721
   0.16461342  0.32186749  0.09991328
   0.32420781  0.16220270  0.09993950
   0.16456589  0.84293951  0.09995857
   0.84530839  0.16219216  0.09989327
   0.68563377  0.84289029  0.09991444
   0.84529998  0.68329764  0.09994074
   0.25000705  0.24983332  0.32644671
   0.41661043  0.08326570  0.32638772
   0.24999274  0.75000623  0.32624596
   0.41674564  0.58324953  0.32620992
   0.75005549  0.24993771  0.32620846
   0.91677533  0.08321868  0.32641588
   0.75016226  0.74999042  0.32644705
   0.91672947  0.58338544  0.32638044
Direct configuration=    12
   0.33829051  0.66920705  0.10023373
   0.67164669  0.33585637  0.10014103
   0.16460812  0.32187039  0.09991058
   0.32420272  0.16221457  0.09993636
   0.16456435  0.84294198  0.09996071
   0.84530414  0.16219690  0.09988512
   0.68563170  0.84289869  0.09991188
   0.84528563  0.68330171  0.09993774
   0.25001171  0.24982562  0.32644848
   0.41661473  0.08325868  0.32638356
   0.24999696  0.75000158  0.32624493
   0.41675237  0.58324253  0.32621344
   0.75006075  0.24993194  0.32621487
   0.91678260  0.08321111  0.32641942
   0.75016948  0.74998530  0.32644856
   0.91673622  0.58338090  0.32637625
Direct configuration=    13
   0.33828607  0.66921341  0.10024385
   0.67163784  0.33586477  0.10014165
   0.16459628  0.32190572  0.09989973
   0.32417365  0.16221752  0.09993516
   0.16452584  0.84297421  0.09996619
   0.84527813  0.16222794  0.09986708
   0.68559769  0.84291224  0.09990153
   0.84528382  0.68333607  0.09993697
   0.25002792  0.24979080  0.32644943
   0.41661963  0.08323597  0.32637921
   0.25001088  0.74998700  0.32624155
   0.41677232  0.58322120  0.32622607
   0.75008033  0.24991127  0.32622707
   0.91680757  0.08318444  0.32643036
   0.75020336  0.74996830  0.32644897
   0.91675733  0.58337448  0.32637187
Direct configuration=    14
   0.33828508  0.66921483  0.10024610
   0.67163587  0.33586664  0.10014178
   0.16459364  0.32191361  0.09989731
   0.32416716  0.16221818  0.09993489
   0.16451725  0.84298140  0.09996741
   0.84527232  0.16223487  0.09986305
   0.68559010  0.84291526  0.09989922
   0.84528342  0.68334374  0.09993679
   0.25003154  0.24978303  0.32644964
   0.41662073  0.08323090  0.32637824
   0.25001399  0.74998375  0.32624080
   0.41677677  0.58321644  0.32622888
   0.75008470  0.24990666  0.32622979
   0.91681314  0.08317849  0.32643280
   0.75021092  0.74996451  0.32644906
   0.91676205  0.58337305  0.32637089
Direct configuration=    15
   0.33826566  0.66923524  0.10024768
   0.67161773  0.33588668  0.10013527
   0.16457135  0.32193207  0.09988625
   0.32414754  0.16224122  0.09993895
   0.16449911  0.84300013  0.09997286
   0.84525341  0.16225592  0.09985046
   0.68557313  0.84294030  0.09988866
   0.84525998  0.68336372  0.09994129
   0.25005239  0.24976496  0.32644977
   0.41664323  0.08321094  0.32638087
   0.25003548  0.74996099  0.32623903
   0.41679565  0.58319630  0.32623791
   0.75010444  0.24988577  0.32623413
   0.91683100  0.08315942  0.32644105
   0.75022781  0.74994243  0.32644899
   0.91678075  0.58334924  0.32637350
Direct configuration=    16
   0.33820741  0.66929647  0.10025242
   0.67156333  0.33594677  0.10011571
   0.16450450  0.32198745  0.09985309
   0.32408869  0.16231035  0.09995114
   0.16444470  0.84305631  0.09998921
   0.84519667  0.16231907  0.09981270
   0.68552222  0.84301541  0.09985698
   0.84518967  0.68342368  0.09995476
   0.25011496  0.24971078  0.32645015
   0.41671072  0.08315106  0.32638876
   0.25009997  0.74989270  0.32623371
   0.41685228  0.58313591  0.32626498
   0.75016367  0.24982313  0.32624716
   0.91688456  0.08310223  0.32646579
   0.75027848  0.74987619  0.32644878
   0.91683685  0.58327784  0.32638133
Direct configuration=    17
   0.33809090  0.66941891  0.10026190
   0.67145452  0.33606696  0.10007660
   0.16437079  0.32209822  0.09978676
   0.32397097  0.16244859  0.09997551
   0.16433589  0.84316867  0.10002191
   0.84508320  0.16244537  0.09973718
   0.68542040  0.84316565  0.09979361
   0.84504904  0.68354359  0.09998171
   0.25024009  0.24960240  0.32645090
   0.41684572  0.08303131  0.32640454
   0.25022893  0.74975614  0.32622308
   0.41696554  0.58301511  0.32631912
   0.75028212  0.24969783  0.32627323
   0.91699170  0.08298785  0.32651528
   0.75037982  0.74974371  0.32644836
   0.91694904  0.58313502  0.32639698
Direct configuration=    18
   0.33814215  0.66936505  0.10025773
   0.67150238  0.33601409  0.10009380
   0.16442960  0.32204949  0.09981594
   0.32402275  0.16238778  0.09996479
   0.16438375  0.84311924  0.10000753
   0.84513311  0.16238981  0.09977040
   0.68546519  0.84309956  0.09982149
   0.84511090  0.68349084  0.09996986
   0.25018504  0.24965007  0.32645057
   0.41678634  0.08308399  0.32639759
   0.25017220  0.74981621  0.32622775
   0.41691572  0.58306825  0.32629531
   0.75023002  0.24975295  0.32626176
   0.91694457  0.08303817  0.32649351
   0.75033524  0.74980199  0.32644854
   0.91689969  0.58319785  0.32639009
Direct configuration=    19
   0.33812891  0.66937945  0.10025569
   0.67148705  0.33602951  0.10009030
   0.16441850  0.32206354  0.09981070
   0.32401124  0.16239930  0.09996630
   0.16437061  0.84313241  0.10001270
   0.84512138  0.16240311  0.09976158
   0.68545150  0.84311121  0.09981655
   0.84510048  0.68350378  0.09997164
   0.25019710  0.24963679  0.32645285
   0.41679886  0.08307039  0.32639936
   0.25018412  0.74980344  0.32622922
   0.41692886  0.58305439  0.32629735
   0.75024230  0.24973977  0.32626393
   0.91695749  0.08302453  0.32649585
   0.75034768  0.74978909  0.32645080
   0.91691259  0.58318462  0.32639184
Direct configuration=    20
   0.33808920  0.66942265  0.10024956
   0.67144107  0.33607577  0.10007978
   0.16438517  0.32210567  0.09979497
   0.32397669  0.16243386  0.09997084
   0.16433120  0.84317191  0.10002824
   0.84508618  0.16244300  0.09973512
   0.68541042  0.84314616  0.09980173
   0.84506920  0.68354260  0.09997701
   0.25023328  0.24959696  0.32645968
   0.41683644  0.08302959  0.32640466
   0.25021987  0.74976514  0.32623363
   0.41696829  0.58301283  0.32630347
   0.75027915  0.24970024  0.32627043
   0.91699626  0.08298362  0.32650288
   0.75038498  0.74975038  0.32645758
   0.91695128  0.58314495  0.32639707
Direct configuration=    21
   0.33800976  0.66950904  0.10023731
   0.67134909  0.33616830  0.10005875
   0.16431851  0.32218995  0.09976353
   0.32390760  0.16250298  0.09997992
   0.16425236  0.84325091  0.10005932
   0.84501578  0.16252278  0.09968219
   0.68532827  0.84321607  0.09977211
   0.84500665  0.68362023  0.09998774
   0.25030562  0.24951728  0.32647336
   0.41691160  0.08294800  0.32641526
   0.25029138  0.74968853  0.32624245
   0.41704714  0.58292971  0.32631572
   0.75035284  0.24962118  0.32628342
   0.91707380  0.08290180  0.32651693
   0.75045959  0.74967298  0.32647114
   0.91702867  0.58306560  0.32640753
Direct configuration=    22
   0.33785089  0.66968182  0.10021281
   0.67116515  0.33635336  0.10001669
   0.16418520  0.32235849  0.09970063
   0.32376942  0.16264123  0.09999807
   0.16409470  0.84340891  0.10012146
   0.84487497  0.16268235  0.09957634
   0.68516396  0.84335587  0.09971286
   0.84488155  0.68377550  0.10000919
   0.25045032  0.24935793  0.32650070
   0.41706190  0.08278480  0.32643645
   0.25043439  0.74953531  0.32626009
   0.41720485  0.58276347  0.32634021
   0.75050023  0.24946305  0.32630942
   0.91722887  0.08273816  0.32654504
   0.75060882  0.74951817  0.32649827
   0.91718344  0.58290689  0.32642844
Direct configuration=    23
   0.33753315  0.67002739  0.10016380
   0.67079726  0.33672347  0.09993257
   0.16391857  0.32269558  0.09957484
   0.32349306  0.16291772  0.10003438
   0.16377936  0.84372492  0.10024576
   0.84459336  0.16300148  0.09936464
   0.68483535  0.84363549  0.09959435
   0.84463134  0.68408604  0.10005210
   0.25073971  0.24903923  0.32655538
   0.41736252  0.08245842  0.32647883
   0.25072043  0.74922887  0.32629536
   0.41752028  0.58243099  0.32638920
   0.75079500  0.24914680  0.32636141
   0.91753902  0.08241088  0.32660125
   0.75090727  0.74920856  0.32655251
   0.91749299  0.58258949  0.32647028
Direct configuration=    24
   0.33751179  0.67004934  0.10015968
   0.67077805  0.33674487  0.09992756
   0.16389911  0.32271670  0.09956662
   0.32346998  0.16294079  0.10003639
   0.16376022  0.84374674  0.10025458
   0.84457071  0.16302411  0.09934989
   0.68481663  0.84365782  0.09958662
   0.84460799  0.68410910  0.10005457
   0.25076108  0.24901650  0.32655954
   0.41738276  0.08243657  0.32648191
   0.25074177  0.74920634  0.32629866
   0.41754061  0.58240927  0.32639167
   0.75081621  0.24912440  0.32636474
   0.91755954  0.08238895  0.32660423
   0.75092881  0.74918599  0.32655667
   0.91751342  0.58256784  0.32647333
Direct configuration=    25
   0.33744770  0.67011520  0.10014732
   0.67072045  0.33680906  0.09991252
   0.16384072  0.32278007  0.09954195
   0.32340074  0.16301002  0.10004243
   0.16370279  0.84381221  0.10028104
   0.84450273  0.16309203  0.09930565
   0.68476046  0.84372483  0.09956342
   0.84453792  0.68417828  0.10006198
   0.25082520  0.24894828  0.32657202
   0.41744346  0.08237102  0.32649115
   0.25080580  0.74913873  0.32630857
   0.41760161  0.58234411  0.32639906
   0.75087983  0.24905720  0.32637473
   0.91762110  0.08232316  0.32661317
   0.75099343  0.74911826  0.32656917
   0.91757472  0.58250289  0.32648248
Direct configuration=    26
   0.33731953  0.67024690  0.10012259
   0.67060525  0.33693744  0.09988246
   0.16372395  0.32290681  0.09949263
   0.32326225  0.16314846  0.10005450
   0.16358792  0.84394315  0.10033397
   0.84436677  0.16322785  0.09921716
   0.68464814  0.84385884  0.09951702
   0.84439779  0.68431664  0.10007680
   0.25095345  0.24881186  0.32659698
   0.41756486  0.08223991  0.32650963
   0.25093386  0.74900351  0.32632837
   0.41772361  0.58221379  0.32641384
   0.75100706  0.24892280  0.32639472
   0.91774422  0.08219159  0.32663105
   0.75112268  0.74898280  0.32659417
   0.91769732  0.58237298  0.32650078
Direct configuration=    27
   0.33706320  0.67051031  0.10007314
   0.67037484  0.33719420  0.09982232
   0.16349041  0.32316028  0.09939399
   0.32298527  0.16342535  0.10007865
   0.16335819  0.84420504  0.10043982
   0.84409485  0.16349949  0.09904017
   0.68442349  0.84412686  0.09942422
   0.84411753  0.68459336  0.10010644
   0.25120994  0.24853902  0.32664689
   0.41780767  0.08197769  0.32654659
   0.25118999  0.74873307  0.32636799
   0.41796760  0.58195314  0.32644341
   0.75126154  0.24865401  0.32643469
   0.91799046  0.08192844  0.32666682
   0.75138117  0.74871190  0.32664416
   0.91794251  0.58211317  0.32653737
Direct configuration=    28
   0.33655053  0.67103713  0.09997424
   0.66991402  0.33770773  0.09970205
   0.16302333  0.32366722  0.09919670
   0.32243132  0.16397913  0.10012693
   0.16289873  0.84472881  0.10065152
   0.84355102  0.16404278  0.09868621
   0.68397418  0.84466290  0.09923862
   0.84355700  0.68514680  0.10016572
   0.25172293  0.24799333  0.32674672
   0.41829329  0.08145326  0.32662050
   0.25170223  0.74819220  0.32644722
   0.41845559  0.58143185  0.32650254
   0.75177049  0.24811642  0.32651464
   0.91848294  0.08140215  0.32673835
   0.75189816  0.74817008  0.32674415
   0.91843289  0.58159355  0.32661056
Direct configuration=    29
   0.33644107  0.67115661  0.09994999
   0.66980072  0.33782776  0.09967741
   0.16287793  0.32379532  0.09914871
   0.32231316  0.16411008  0.10013770
   0.16276869  0.84485848  0.10070037
   0.84343611  0.16417264  0.09860247
   0.68384953  0.84481021  0.09919334
   0.84343898  0.68527610  0.10017912
   0.25184679  0.24786562  0.32676917
   0.41841688  0.08132510  0.32664010
   0.25182660  0.74806032  0.32646807
   0.41857518  0.58130453  0.32651688
   0.75189228  0.24798742  0.32653239
   0.91860305  0.08127429  0.32675412
   0.75201843  0.74803876  0.32676674
   0.91855326  0.58146208  0.32663008
Direct configuration=    30
   0.33621950  0.67139848  0.09990089
   0.66957137  0.33807071  0.09962753
   0.16258359  0.32405461  0.09905159
   0.32207396  0.16437517  0.10015950
   0.16250545  0.84512096  0.10079924
   0.84320351  0.16443551  0.09843295
   0.68359722  0.84510841  0.09910168
   0.84320006  0.68553783  0.10020624
   0.25209752  0.24760710  0.32681462
   0.41866708  0.08106569  0.32667977
   0.25207836  0.74779336  0.32651028
   0.41881726  0.58104680  0.32654591
   0.75213880  0.24772629  0.32656833
   0.91884618  0.08101549  0.32678605
   0.75226190  0.74777295  0.32681247
   0.91879691  0.58119596  0.32666959
Direct configuration=    31
   0.33577635  0.67188223  0.09980270
   0.66911268  0.33855663  0.09952778
   0.16199492  0.32457320  0.09885734
   0.32159556  0.16490534  0.10020311
   0.16197897  0.84564593  0.10099699
   0.84273830  0.16496126  0.09809392
   0.68309259  0.84570480  0.09891838
   0.84272223  0.68606128  0.10026048
   0.25259896  0.24709006  0.32690552
   0.41916746  0.08054686  0.32675912
   0.25258187  0.74725943  0.32659471
   0.41930141  0.58053134  0.32660398
   0.75263186  0.24720404  0.32664021
   0.91933244  0.08049788  0.32684989
   0.75274884  0.74724133  0.32690392
   0.91928422  0.58066373  0.32674861
Direct configuration=    32
   0.33603377  0.67160123  0.09985974
   0.66937913  0.33827436  0.09958573
   0.16233687  0.32427196  0.09897018
   0.32187346  0.16459737  0.10017778
   0.16228480  0.84534098  0.10088212
   0.84300854  0.16465586  0.09829086
   0.68338573  0.84535837  0.09902486
   0.84299980  0.68575721  0.10022897
   0.25230768  0.24739040  0.32685272
   0.41887679  0.08084825  0.32671303
   0.25228938  0.74756958  0.32654567
   0.41902017  0.58083077  0.32657025
   0.75234545  0.24750741  0.32659846
   0.91904997  0.08079855  0.32681280
   0.75246598  0.74755014  0.32685080
   0.91900115  0.58097290  0.32670271
Direct configuration=    33
   0.33605020  0.67158823  0.09986443
   0.66938104  0.33826576  0.09959722
   0.16234623  0.32426734  0.09897402
   0.32190120  0.16457895  0.10017578
   0.16228857  0.84532966  0.10086913
   0.84303062  0.16463893  0.09830649
   0.68338355  0.84533879  0.09902810
   0.84302679  0.68573700  0.10022657
   0.25228982  0.24741170  0.32684463
   0.41887145  0.08085941  0.32671404
   0.25227148  0.74758713  0.32654465
   0.41901280  0.58083991  0.32657154
   0.75232844  0.24752406  0.32659362
   0.91904006  0.08081045  0.32680970
   0.75244437  0.74756771  0.32684283
   0.91899206  0.58098031  0.32670393
Direct configuration=    34
   0.33609352  0.67155397  0.09987678
   0.66938605  0.33824308  0.09962752
   0.16237088  0.32425516  0.09898413
   0.32197434  0.16453040  0.10017050
   0.16229852  0.84529981  0.10083490
   0.84308882  0.16459430  0.09834769
   0.68337780  0.84528718  0.09903663
   0.84309795  0.68568373  0.10022025
   0.25224275  0.24746783  0.32682332
   0.41885735  0.08088882  0.32671670
   0.25222427  0.74763339  0.32654197
   0.41899336  0.58086400  0.32657493
   0.75228360  0.24756794  0.32658088
   0.91901392  0.08084182  0.32680150
   0.75238740  0.74761404  0.32682181
   0.91896811  0.58099986  0.32670717
Direct configuration=    35
   0.33609795  0.67154642  0.09988221
   0.66940018  0.33823059  0.09964905
   0.16239222  0.32424478  0.09898690
   0.32198229  0.16452870  0.10016641
   0.16231659  0.84529188  0.10081494
   0.84309240  0.16457977  0.09836854
   0.68339080  0.84526654  0.09903849
   0.84309776  0.68567167  0.10021569
   0.25223318  0.24748089  0.32681123
   0.41884909  0.08090055  0.32672022
   0.25221444  0.74764386  0.32654447
   0.41898292  0.58087492  0.32657769
   0.75227416  0.24757807  0.32657451
   0.91900275  0.08085362  0.32679518
   0.75237487  0.74762418  0.32681001
   0.91895705  0.58100888  0.32671112
Direct configuration=    36
   0.33611125  0.67152379  0.09989850
   0.66944255  0.33819311  0.09971362
   0.16245622  0.32421364  0.09899520
   0.32200613  0.16452362  0.10015416
   0.16237083  0.84526809  0.10075508
   0.84310315  0.16453619  0.09843109
   0.68342980  0.84520464  0.09904406
   0.84309720  0.68563549  0.10020203
   0.25220447  0.24752006  0.32677498
   0.41882429  0.08093575  0.32673076
   0.25218496  0.74767525  0.32655199
   0.41895160  0.58090767  0.32658598
   0.75224583  0.24760843  0.32655540
   0.91896924  0.08088903  0.32677622
   0.75233729  0.74765463  0.32677462
   0.91892386  0.58103595  0.32672298
Direct configuration=    37
   0.33611415  0.67151884  0.09990206
   0.66945182  0.33818492  0.09972774
   0.16247021  0.32420684  0.09899702
   0.32201135  0.16452250  0.10015148
   0.16238268  0.84526289  0.10074199
   0.84310550  0.16452666  0.09844477
   0.68343832  0.84519110  0.09904528
   0.84309708  0.68562757  0.10019904
   0.25219819  0.24752862  0.32676705
   0.41881886  0.08094345  0.32673307
   0.25217851  0.74768211  0.32655363
   0.41894476  0.58091483  0.32658779
   0.75223964  0.24761507  0.32655122
   0.91896191  0.08089677  0.32677207
   0.75232907  0.74766128  0.32676688
   0.91891661  0.58104187  0.32672557
Direct configuration=    38
   0.33612820  0.67150585  0.09990574
   0.66947347  0.33816364  0.09976538
   0.16244804  0.32419159  0.09900818
   0.32202390  0.16450824  0.10013955
   0.16237903  0.84525960  0.10070919
   0.84312789  0.16451044  0.09848030
   0.68344547  0.84519678  0.09905469
   0.84312664  0.68561903  0.10018612
   0.25219495  0.24752627  0.32675467
   0.41879479  0.08095871  0.32673305
   0.25217450  0.74768862  0.32656430
   0.41892428  0.58093417  0.32658425
   0.75223566  0.24762179  0.32654629
   0.91894825  0.08090906  0.32675368
   0.75233359  0.74766686  0.32675504
   0.91890001  0.58106468  0.32672623
Direct configuration=    39
   0.33613803  0.67149675  0.09990831
   0.66948863  0.33814874  0.09979172
   0.16243253  0.32418091  0.09901599
   0.32203269  0.16449826  0.10013120
   0.16237647  0.84525729  0.10068624
   0.84314356  0.16449908  0.09850517
   0.68345048  0.84520075  0.09906128
   0.84314733  0.68561304  0.10017708
   0.25219268  0.24752462  0.32674601
   0.41877794  0.08096939  0.32673303
   0.25217169  0.74769318  0.32657176
   0.41890994  0.58094771  0.32658178
   0.75223287  0.24762650  0.32654284
   0.91893868  0.08091767  0.32674081
   0.75233676  0.74767077  0.32674675
   0.91888840  0.58108065  0.32672669
Direct configuration=    40
   0.33613733  0.67149474  0.09990541
   0.66949607  0.33814359  0.09981151
   0.16244024  0.32418152  0.09903210
   0.32203037  0.16450295  0.10011914
   0.16238359  0.84525760  0.10066642
   0.84313604  0.16449726  0.09853019
   0.68345453  0.84519408  0.09907612
   0.84314135  0.68561301  0.10016409
   0.25218547  0.24752708  0.32674633
   0.41877928  0.08096604  0.32672671
   0.25216461  0.74769930  0.32658082
   0.41891359  0.58094522  0.32657145
   0.75222641  0.24763191  0.32654428
   0.91894374  0.08091369  0.32672410
   0.75233323  0.74767694  0.32674739
   0.91889282  0.58108041  0.32672062
Direct configuration=    41
   0.33613611  0.67149122  0.09990034
   0.66950910  0.33813457  0.09984613
   0.16245375  0.32418257  0.09906029
   0.32202631  0.16451115  0.10009803
   0.16239604  0.84525814  0.10063172
   0.84312287  0.16449408  0.09857398
   0.68346163  0.84518241  0.09910208
   0.84313088  0.68561295  0.10014136
   0.25217285  0.24753139  0.32674689
   0.41878161  0.08096017  0.32671566
   0.25215223  0.74770999  0.32659666
   0.41891996  0.58094085  0.32655339
   0.75221510  0.24764139  0.32654679
   0.91895260  0.08090672  0.32669486
   0.75232705  0.74768774  0.32674849
   0.91890056  0.58107999  0.32671000
Direct configuration=    42
   0.33613646  0.67149638  0.09989700
   0.66949384  0.33814493  0.09985719
   0.16244084  0.32418698  0.09908239
   0.32203474  0.16450985  0.10008594
   0.16238755  0.84526131  0.10060637
   0.84313148  0.16449414  0.09860894
   0.68344913  0.84518574  0.09912265
   0.84314183  0.68561024  0.10012792
   0.25218013  0.24753097  0.32674615
   0.41878473  0.08096140  0.32671006
   0.25216009  0.74770258  0.32659827
   0.41892019  0.58093957  0.32654393
   0.75222244  0.24763444  0.32654459
   0.91894858  0.08090983  0.32668286
   0.75232816  0.74768107  0.32674795
   0.91889846  0.58107590  0.32670446
Direct configuration=    43
   0.33613699  0.67150417  0.09989195
   0.66947084  0.33816054  0.09987387
   0.16242137  0.32419361  0.09911573
   0.32204746  0.16450789  0.10006771
   0.16237475  0.84526610  0.10056815
   0.84314447  0.16449422  0.09866166
   0.68343028  0.84519077  0.09915367
   0.84315833  0.68560616  0.10010765
   0.25219111  0.24753033  0.32674503
   0.41878944  0.08096324  0.32670162
   0.25217195  0.74769140  0.32660069
   0.41892052  0.58093763  0.32652966
   0.75223351  0.24762397  0.32654128
   0.91894253  0.08091453  0.32666477
   0.75232982  0.74767102  0.32674713
   0.91889530  0.58106973  0.32669610
Direct configuration=    44
   0.33613257  0.67150824  0.09989105
   0.66946680  0.33816512  0.09987665
   0.16242246  0.32419502  0.09912963
   0.32204248  0.16451111  0.10006142
   0.16237543  0.84526871  0.10055105
   0.84313933  0.16449683  0.09868562
   0.68343035  0.84519146  0.09916660
   0.84315387  0.68560972  0.10010045
   0.25219526  0.24752780  0.32674286
   0.41879187  0.08096160  0.32669951
   0.25217646  0.74768693  0.32659793
   0.41892220  0.58093552  0.32652599
   0.75223753  0.24761996  0.32653791
   0.91894311  0.08091353  0.32666101
   0.75233248  0.74766695  0.32674501
   0.91889648  0.58106682  0.32669396
Direct configuration=    45
   0.33611934  0.67152043  0.09988837
   0.66945467  0.33817888  0.09988500
   0.16242573  0.32419922  0.09917133
   0.32202754  0.16452074  0.10004255
   0.16237745  0.84527652  0.10049974
   0.84312391  0.16450466  0.09875749
   0.68343057  0.84519353  0.09920541
   0.84314048  0.68562043  0.10007886
   0.25220769  0.24752021  0.32673635
   0.41879914  0.08095669  0.32669316
   0.25218998  0.74767353  0.32658965
   0.41892722  0.58092920  0.32651500
   0.75224958  0.24760794  0.32652781
   0.91894486  0.08091053  0.32664974
   0.75234047  0.74765474  0.32673866
   0.91890003  0.58105810  0.32668753
Direct configuration=    46
   0.33609288  0.67154483  0.09988301
   0.66943041  0.33820638  0.09990169
   0.16243226  0.32420764  0.09925474
   0.32199766  0.16454001  0.10000482
   0.16238150  0.84529214  0.10039713
   0.84309307  0.16452031  0.09890124
   0.68343102  0.84519768  0.09928302
   0.84311370  0.68564184  0.10003567
   0.25223257  0.24750502  0.32672333
   0.41881369  0.08094686  0.32668048
   0.25221702  0.74764672  0.32657309
   0.41893727  0.58091654  0.32649300
   0.75227370  0.24758390  0.32650760
   0.91894835  0.08090452  0.32662721
   0.75235644  0.74763032  0.32672596
   0.91890713  0.58104065  0.32667468
Direct configuration=    47
   0.33603995  0.67159361  0.09987229
   0.66938190  0.33826138  0.09993508
   0.16244533  0.32422446  0.09942155
   0.32193790  0.16457855  0.09992935
   0.16238959  0.84532338  0.10019191
   0.84303140  0.16455160  0.09918873
   0.68343192  0.84520596  0.09943826
   0.84306015  0.68568465  0.09994929
   0.25228232  0.24747464  0.32669729
   0.41884278  0.08092719  0.32665510
   0.25227111  0.74759310  0.32653997
   0.41895737  0.58089122  0.32644901
   0.75232193  0.24753582  0.32646719