Lattice                                 
           1
     4.200223    2.425000    0.000000
    -4.200223    2.425000    0.000000
     0.000000    0.000000   15.000000
   B    C 
     4    11
Direct configuration=     1
   0.00415361  0.00267210  0.12034134
   0.35695335  0.00285503  0.09748893
   0.00423858  0.35550699  0.09749256
   0.65142295  0.65006557  0.09747688
   0.32808646  0.32671938  0.10030508
   0.68027775  0.00278085  0.10027562
   0.00416530  0.67883808  0.10026559
   0.16666600  0.33333300  0.33720000
   0.33333300  0.16666600  0.33720000
   0.16666600  0.83333300  0.33720000
   0.33333300  0.66666600  0.33720000
   0.66666600  0.33333300  0.33720000
   0.83333300  0.16666600  0.33720000
   0.66666600  0.83333300  0.33720000
   0.83333300  0.66666600  0.33720000
Direct configuration=     2
   0.00418443  0.00274961  0.11895040
   0.35586432  0.00280368  0.09785687
   0.00419566  0.35443082  0.09785973
   0.65248337  0.65109484  0.09785245
   0.32463729  0.32323473  0.10032187
   0.68374707  0.00280173  0.10030305
   0.00420249  0.68233388  0.10029674
   0.16659213  0.33342304  0.33726174
   0.33342347  0.16659486  0.33726279
   0.16682209  0.83339376  0.33726450
   0.33333492  0.66667220  0.33711409
   0.66667134  0.33333138  0.33711407
   0.83339108  0.16681971  0.33726437
   0.66657390  0.83317511  0.33726213
   0.83317045  0.66657466  0.33726120
Direct configuration=     3
   0.00416985  0.00271294  0.11960851
   0.35637959  0.00282797  0.09768278
   0.00421597  0.35494000  0.09768601
   0.65198164  0.65060785  0.09767475
   0.32626924  0.32488346  0.10031393
   0.68210559  0.00279185  0.10029007
   0.00418490  0.68067987  0.10028200
   0.16662708  0.33338044  0.33723253
   0.33338067  0.16662852  0.33723308
   0.16674824  0.83336501  0.33723398
   0.33333401  0.66666927  0.33715474
   0.66666881  0.33333215  0.33715473
   0.83336360  0.16674698  0.33723392
   0.66661747  0.83324981  0.33723274
   0.83324736  0.66661788  0.33723225
Direct configuration=     4
   0.00418628  0.00277251  0.11829516
   0.35692933  0.00278354  0.09804923
   0.00418294  0.35551106  0.09805165
   0.65143442  0.65003107  0.09804925
   0.32642844  0.32501434  0.10029312
   0.68196061  0.00279697  0.10028039
   0.00420480  0.68054802  0.10027560
   0.16670811  0.33328592  0.33729269
   0.33328442  0.16670883  0.33729414
   0.16657156  0.83328777  0.33729641
   0.33332884  0.66666047  0.33709363
   0.66665947  0.33333139  0.33709361
   0.83328758  0.16657402  0.33729618
   0.66670686  0.83342011  0.33729309
   0.83342034  0.66670800  0.33729186
Direct configuration=     5
   0.00423557  0.00295121  0.11435510
   0.35857855  0.00265023  0.09914857
   0.00408387  0.35722423  0.09914856
   0.64979277  0.64830073  0.09917275
   0.32690603  0.32540696  0.10023069
   0.68152568  0.00281231  0.10025135
   0.00426450  0.68015246  0.10025641
   0.16695118  0.33300235  0.33747319
   0.33299567  0.16694976  0.33747730
   0.16604152  0.83305605  0.33748369
   0.33331334  0.66663407  0.33691030
   0.66663145  0.33332913  0.33691026
   0.83305954  0.16605515  0.33748299
   0.66697503  0.83393098  0.33747414
   0.83393928  0.66697836  0.33747070
Direct configuration=     6
   0.00423609  0.00295532  0.11368598
   0.35871326  0.00264479  0.09928325
   0.00408503  0.35736684  0.09928306
   0.64966711  0.64816757  0.09930975
   0.32705960  0.32555845  0.10027314
   0.68137627  0.00280473  0.10029792
   0.00426014  0.68000753  0.10030403
   0.16675612  0.33318043  0.33749081
   0.33317475  0.16675719  0.33749503
   0.16641293  0.83323509  0.33750149
   0.33331523  0.66664729  0.33692053
   0.66664343  0.33332492  0.33692050
   0.83323373  0.16642113  0.33750072
   0.66679614  0.83356279  0.33749164
   0.83356419  0.66679993  0.33748816
Direct configuration=     7
   0.00423699  0.00296245  0.11252622
   0.35894674  0.00263536  0.09951668
   0.00408702  0.35761403  0.09951619
   0.64944931  0.64793677  0.09954720
   0.32732577  0.32582102  0.10034673
   0.68111730  0.00279159  0.10037864
   0.00425258  0.67975633  0.10038657
   0.16641802  0.33348909  0.33752133
   0.33348513  0.16642342  0.33752575
   0.16705668  0.83354541  0.33753234
   0.33331851  0.66667020  0.33693826
   0.66666418  0.33331760  0.33693824
   0.83353564  0.16705546  0.33753145
   0.66648607  0.83292462  0.33752197
   0.83291405  0.66649067  0.33751842
Direct configuration=     8
   0.00423244  0.00294150  0.11177328
   0.35890039  0.00265152  0.09960915
   0.00410883  0.35756898  0.09960881
   0.64950854  0.64799902  0.09963981
   0.32745893  0.32596631  0.10045517
   0.68098335  0.00277694  0.10048936
   0.00423554  0.67962157  0.10049764
   0.16644280  0.33352358  0.33752543
   0.33352017  0.16645064  0.33752956
   0.16705484  0.83351247  0.33753554
   0.33332150  0.66667084  0.33699968
   0.66666417  0.33331869  0.33699968
   0.83350216  0.16705342  0.33753459
   0.66644984  0.83292317  0.33752575
   0.83291050  0.66645534  0.33752255
Direct configuration=     9
   0.00421881  0.00287865  0.10951444
   0.35876134  0.00270001  0.09988655
   0.00417425  0.35743384  0.09988669
   0.64968622  0.64818578  0.09991763
   0.32785842  0.32640220  0.10078050
   0.68058151  0.00273300  0.10082155
   0.00418444  0.67921730  0.10083084
   0.16651713  0.33362708  0.33753773
   0.33362528  0.16653232  0.33754099
   0.16704932  0.83341366  0.33754513
   0.33333046  0.66667273  0.33718394
   0.66666412  0.33332195  0.33718398
   0.83340171  0.16704729  0.33754402
   0.66634113  0.83291880  0.33753708
   0.83289984  0.66634938  0.33753493
Direct configuration=    10
   0.00419154  0.00275295  0.10499677
   0.35848324  0.00279699  0.10044135
   0.00430510  0.35716357  0.10044243
   0.65004160  0.64855931  0.10047328
   0.32865739  0.32727397  0.10143116
   0.67977782  0.00264512  0.10148591
   0.00408225  0.67840875  0.10149725
   0.16666579  0.33383407  0.33756234
   0.33383552  0.16669568  0.33756385
   0.16703827  0.83321604  0.33756430
   0.33334839  0.66667653  0.33755245
   0.66666402  0.33332847  0.33755259
   0.83320082  0.16703503  0.33756288
   0.66612372  0.83291008  0.33755973
   0.83287854  0.66613745  0.33755971
Direct configuration=    11
   0.00422087  0.00277857  0.10344789
   0.35867517  0.00283812  0.10071272
   0.00432806  0.35731166  0.10071442
   0.64982292  0.64837009  0.10074152
   0.32840103  0.32703269  0.10156966
   0.68001224  0.00268242  0.10162399
   0.00410678  0.67860614  0.10163489
   0.16665775  0.33315073  0.33758107
   0.33313616  0.16666469  0.33758208
   0.16647283  0.83329644  0.33758168
   0.33328698  0.66664076  0.33765933
   0.66663294  0.33330530  0.33765946
   0.83328613  0.16648496  0.33758026
   0.66679449  0.83346906  0.33757826
   0.83345966  0.66680236  0.33757878
Direct configuration=    12
   0.00421721  0.00277537  0.10364121
   0.35865122  0.00283299  0.10067885
   0.00432519  0.35729318  0.10068047
   0.64985021  0.64839371  0.10070804
   0.32843303  0.32706280  0.10155238
   0.67998298  0.00267776  0.10160675
   0.00410372  0.67858151  0.10161771
   0.16665875  0.33323602  0.33757873
   0.33322344  0.16666856  0.33757980
   0.16654340  0.83328641  0.33757951
   0.33329464  0.66664523  0.33764599
   0.66663682  0.33330819  0.33764612
   0.83327548  0.16655361  0.33757809
   0.66671077  0.83339929  0.33757595
   0.83338713  0.66671937  0.33757640
Direct configuration=    13
   0.00423615  0.00281241  0.10343632
   0.35894269  0.00283255  0.10080371
   0.00429930  0.35755129  0.10080551
   0.64952416  0.64808583  0.10082959
   0.32805877  0.32667509  0.10147783
   0.68035393  0.00273329  0.10152718
   0.00415513  0.67893131  0.10153705
   0.16657789  0.33325039  0.33759561
   0.33323867  0.16658642  0.33759680
   0.16663281  0.83337203  0.33759699
   0.33329517  0.66663884  0.33762838
   0.66662648  0.33330837  0.33762847
   0.83336153  0.16664577  0.33759567
   0.66668846  0.83331019  0.33759334
   0.83330289  0.66670021  0.33759356
Direct configuration=    14
   0.00426107  0.00286116  0.10316663
   0.35932636  0.00283197  0.10096806
   0.00426522  0.35789105  0.10097010
   0.64909497  0.64768057  0.10098958
   0.32756612  0.32616474  0.10137969
   0.68084222  0.00280637  0.10142242
   0.00422279  0.67939178  0.10143087
   0.16647144  0.33326932  0.33761784
   0.33325871  0.16647829  0.33761918
   0.16675050  0.83348475  0.33762000
   0.33329586  0.66663044  0.33760519
   0.66661286  0.33330860  0.33760524
   0.83347480  0.16676707  0.33761880
   0.66665910  0.83319291  0.33761623
   0.83319200  0.66667498  0.33761616
Direct configuration=    15
   0.00423159  0.00281879  0.10304866
   0.35955016  0.00281269  0.10107658
   0.00423273  0.35811690  0.10107865
   0.64887959  0.64746886  0.10109416
   0.32766665  0.32624560  0.10129633
   0.68077812  0.00282572  0.10133169
   0.00424682  0.67934396  0.10133857
   0.16669906  0.33334549  0.33763800
   0.33333249  0.16671095  0.33763957
   0.16660652  0.83323186  0.33764114
   0.33329414  0.66665157  0.33757442
   0.66664280  0.33330508  0.33757443
   0.83321696  0.16661333  0.33764003
   0.66659983  0.83333463  0.33763710
   0.83331654  0.66660855  0.33763668
Direct configuration=    16
   0.00423454  0.00282303  0.10306047
   0.35952776  0.00281462  0.10106572
   0.00423598  0.35809431  0.10106778
   0.64890114  0.64749004  0.10108369
   0.32765659  0.32623751  0.10130467
   0.68078454  0.00282379  0.10134076
   0.00424442  0.67934874  0.10134780
   0.16667628  0.33333787  0.33763598
   0.33332511  0.16668767  0.33763753
   0.16662093  0.83325716  0.33763902
   0.33329431  0.66664946  0.33757750
   0.66663981  0.33330543  0.33757751
   0.83324276  0.16662871  0.33763791
   0.66660576  0.83332045  0.33763501
   0.83330408  0.66661520  0.33763463
Direct configuration=    17
   0.00421056  0.00278474  0.10300579
   0.35952013  0.00280321  0.10111201
   0.00422372  0.35809896  0.10111404
   0.64892725  0.64751145  0.10112722
   0.32784132  0.32641389  0.10126746
   0.68062483  0.00281774  0.10129762
   0.00424222  0.67920549  0.10130345
   0.16660163  0.33330678  0.33764917
   0.33329642  0.16661589  0.33765086
   0.16664444  0.83333046  0.33765284
   0.33330179  0.66664246  0.33755854
   0.66663006  0.33331097  0.33755854
   0.83331947  0.16665653  0.33765179
   0.66663111  0.83329157  0.33764864
   0.83327904  0.66664384  0.33764802
Direct configuration=    18
   0.00420656  0.00277837  0.10299668
   0.35951885  0.00280131  0.10111972
   0.00422168  0.35809973  0.10112175
   0.64893160  0.64751502  0.10113447
   0.32787209  0.32644327  0.10126126
   0.68059823  0.00281673  0.10129044
   0.00424186  0.67918163  0.10129606
   0.16658920  0.33330160  0.33765137
   0.33329164  0.16660393  0.33765309
   0.16664836  0.83334267  0.33765515
   0.33330303  0.66664129  0.33755538
   0.66662844  0.33331189  0.33755538
   0.83333224  0.16666117  0.33765411
   0.66663534  0.83328676  0.33765091
   0.83327488  0.66664861  0.33765025
Direct configuration=    19
   0.00421115  0.00278457  0.10295223
   0.35941890  0.00280399  0.10113415
   0.00422445  0.35799922  0.10113616
   0.64903375  0.64761435  0.10114688
   0.32787714  0.32644948  0.10125278
   0.68059200  0.00281441  0.10127708
   0.00423842  0.67917353  0.10128173
   0.16660326  0.33330277  0.33766011
   0.33328944  0.16661297  0.33766190
   0.16666017  0.83333630  0.33766420
   0.33329121  0.66664287  0.33754831
   0.66663101  0.33330426  0.33754831
   0.83332229  0.16667074  0.33766322
   0.66663366  0.83327962  0.33765988
   0.83326715  0.66664490  0.33765907
Direct configuration=    20
   0.00421543  0.00279037  0.10291074
   0.35932560  0.00280648  0.10114762
   0.00422703  0.35790541  0.10114961
   0.64912910  0.64770707  0.10115847
   0.32788186  0.32645528  0.10124487
   0.68058619  0.00281224  0.10126461
   0.00423521  0.67916596  0.10126836
   0.16661638  0.33330387  0.33766827
   0.33328739  0.16662140  0.33767012
   0.16667120  0.83333036  0.33767265
   0.33328016  0.66664435  0.33754171
   0.66663342  0.33329714  0.33754171
   0.83331301  0.16667968  0.33767173
   0.66663209  0.83327295  0.33766825
   0.83325993  0.66664143  0.33766730
Direct configuration=    21
   0.00422529  0.00280492  0.10284779
   0.35929888  0.00281120  0.10115094
   0.00423256  0.35787577  0.10115293
   0.64915592  0.64773203  0.10115979
   0.32787281  0.32644893  0.10124891
   0.68058876  0.00281139  0.10126315
   0.00423318  0.67916341  0.10126581
   0.16659772  0.33331325  0.33767680
   0.33330594  0.16661669  0.33767868
   0.16662581  0.83332584  0.33768127
   0.33330962  0.66663554  0.33754341
   0.66661909  0.33331557  0.33754341
   0.83331787  0.16664198  0.33768042
   0.66661798  0.83330267  0.33767686
   0.83329257  0.66663482  0.33767582
Direct configuration=    22
   0.00422680  0.00280716  0.10283813
   0.35929478  0.00281193  0.10115145
   0.00423340  0.35787122  0.10115344
   0.64916004  0.64773586  0.10115999
   0.32787142  0.32644795  0.10124952
   0.68058915  0.00281126  0.10126293
   0.00423287  0.67916302  0.10126542
   0.16659486  0.33331469  0.33767811
   0.33330879  0.16661596  0.33767999
   0.16661885  0.83332515  0.33768260
   0.33331414  0.66663419  0.33754367
   0.66661689  0.33331840  0.33754367
   0.83331861  0.16663619  0.33768176
   0.66661581  0.83330723  0.33767818
   0.83329757  0.66663380  0.33767713
Direct configuration=    23
   0.00423042  0.00281231  0.10280119
   0.35929773  0.00281358  0.10115182
   0.00423577  0.35787346  0.10115381
   0.64915790  0.64773280  0.10115937
   0.32787016  0.32644769  0.10125306
   0.68058860  0.00281056  0.10126358
   0.00423203  0.67916084  0.10126551
   0.16659367  0.33331265  0.33768258
   0.33330639  0.16661549  0.33768446
   0.16661746  0.83332351  0.33768707
   0.33331416  0.66663547  0.33754651
   0.66661896  0.33331843  0.33754651
   0.83331665  0.16663443  0.33768627
   0.66661819  0.83330700  0.33768268
   0.83329590  0.66663577  0.33768160
Direct configuration=    24
   0.00424129  0.00282778  0.10269036
   0.35930659  0.00281856  0.10115292
   0.00424286  0.35788017  0.10115492
   0.64915148  0.64772361  0.10115751
   0.32786639  0.32644691  0.10126365
   0.68058694  0.00280848  0.10126552
   0.00422949  0.67915432  0.10126575
   0.16659012  0.33330656  0.33769599
   0.33329920  0.16661406  0.33769787
   0.16661329  0.83331858  0.33770050
   0.33331421  0.66663933  0.33755502
   0.66662517  0.33331853  0.33755503
   0.83331077  0.16662914  0.33769980
   0.66662533  0.83330632  0.33769616
   0.83329087  0.66664166  0.33769498
Direct configuration=    25
   0.00426302  0.00285872  0.10246871
   0.35932431  0.00282850  0.10115513
   0.00425706  0.35789359  0.10115713
   0.64913863  0.64770524  0.10115378
   0.32785885  0.32644533  0.10128485
   0.68058363  0.00280431  0.10126942
   0.00422441  0.67914127  0.10126624
   0.16658302  0.33329437  0.33772282
   0.33328481  0.16661120  0.33772470
   0.16660494  0.83330873  0.33772735
   0.33331432  0.66664704  0.33757206
   0.66663759  0.33331873  0.33757207
   0.83329900  0.16661856  0.33772686
   0.66663959  0.83330495  0.33772313
   0.83328081  0.66665344  0.33772176
Direct configuration=    26
   0.00430648  0.00292061  0.10202541
   0.35935973  0.00284838  0.10115954
   0.00428544  0.35792044  0.10116157
   0.64911294  0.64766849  0.10114633
   0.32784378  0.32644219  0.10132723
   0.68057701  0.00279597  0.10127721
   0.00421426  0.67911517  0.10126723
   0.16656881  0.33327000  0.33777646
   0.33325602  0.16660549  0.33777835
   0.16658825  0.83328903  0.33778106
   0.33331454  0.66666247  0.33760613
   0.66666243  0.33331912  0.33760614
   0.83327547  0.16659741  0.33778098
   0.66666813  0.83330223  0.33777706
   0.83326070  0.66667700  0.33777530
Direct configuration=    27
   0.00439340  0.00304437  0.10113881
   0.35943059  0.00288814  0.10116836
   0.00434221  0.35797414  0.10117043
   0.64906156  0.64759499  0.10113142
   0.32781362  0.32643590  0.10141200
   0.68056376  0.00277929  0.10129278
   0.00419396  0.67906298  0.10126919
   0.16654039  0.33322124  0.33788376
   0.33319845  0.16659407  0.33788564
   0.16655488  0.83324963  0.33788847
   0.33331498  0.66669333  0.33767428
   0.66671212  0.33331992  0.33767430
   0.83322840  0.16655509  0.33788922
   0.66672520  0.83329677  0.33788493
   0.83322048  0.66672413  0.33788240
Direct configuration=    28
   0.00433189  0.00295679  0.10176619
   0.35938045  0.00286001  0.10116212
   0.00430204  0.35793615  0.10116416
   0.64909792  0.64764700  0.10114197
   0.32783496  0.32644035  0.10135201
   0.68057314  0.00279109  0.10128176
   0.00420833  0.67909991  0.10126780
   0.16656050  0.33325574  0.33780784
   0.33323919  0.16660216  0.33780972
   0.16657850  0.83327751  0.33781247
   0.33331467  0.66667150  0.33762606
   0.66667696  0.33331936  0.33762607
   0.83326171  0.16658503  0.33781263
   0.66668481  0.83330063  0.33780860
   0.83324894  0.66669078  0.33780662
Direct configuration=    29
   0.00432794  0.00294956  0.10170265
   0.35938646  0.00285783  0.10116594
   0.00430132  0.35794541  0.10116799
   0.64909711  0.64764478  0.10114469
   0.32784121  0.32644509  0.10135306
   0.68057407  0.00278917  0.10127908
   0.00420804  0.67910456  0.10126438
   0.16656431  0.33326291  0.33781510
   0.33324597  0.16660182  0.33781697
   0.16658846  0.83328473  0.33781968
   0.33330750  0.66666344  0.33763342
   0.66666437  0.33331450  0.33763344
   0.83326831  0.16659717  0.33781988
   0.66667021  0.83329446  0.33781586
   0.83324869  0.66667856  0.33781385
Direct configuration=    30
   0.00431610  0.00292787  0.10151204
   0.35940450  0.00285132  0.10117742
   0.00429919  0.35797321  0.10117948
   0.64909468  0.64763811  0.10115285
   0.32785998  0.32645932  0.10135619
   0.68057687  0.00278341  0.10127104
   0.00420717  0.67911850  0.10125412
   0.16657575  0.33328443  0.33783690
   0.33326634  0.16660081  0.33783874
   0.16661836  0.83330640  0.33784134
   0.33328599  0.66663927  0.33765551
   0.66662660  0.33329991  0.33765553
   0.83328813  0.16663359  0.33784166
   0.66662640  0.83327595  0.33783763
   0.83324796  0.66664189  0.33783555
Direct configuration=    31
   0.00429241  0.00288448  0.10113082
   0.35944058  0.00283829  0.10120037
   0.00429491  0.35802881  0.10120245
   0.64908981  0.64762478  0.10116918
   0.32789751  0.32648779  0.10136246
   0.68058247  0.00277188  0.10125496
   0.00420543  0.67914638  0.10123359
   0.16659862  0.33332746  0.33788051
   0.33330707  0.16659879  0.33788227
   0.16667815  0.83334973  0.33788466
   0.33324296  0.66659094  0.33769968
   0.66655106  0.33327075  0.33769972
   0.83332777  0.16670643  0.33788520
   0.66653877  0.83323893  0.33788118
   0.83324648  0.66656855  0.33787894
Direct configuration=    32
   0.00427389  0.00285358  0.10096568
   0.35944755  0.00282810  0.10122065
   0.00428572  0.35804389  0.10122277
   0.64909522  0.64763038  0.10118885
   0.32791257  0.32649396  0.10134834
   0.68059520  0.00277472  0.10123612
   0.00421355  0.67917188  0.10121383
   0.16659978  0.33331627  0.33789826
   0.33329395  0.16660124  0.33789994
   0.16666763  0.83334074  0.33790212
   0.33323928  0.66659362  0.33772582
   0.66655564  0.33326856  0.33772585
   0.83331705  0.16669486  0.33790267
   0.66654885  0.83324485  0.33789864
   0.83324812  0.66657737  0.33789646
Direct configuration=    33
   0.00421833  0.00276086  0.10047024
   0.35946846  0.00279751  0.10128150
   0.00425813  0.35808911  0.10128374
   0.64911144  0.64764719  0.10124784
   0.32795775  0.32651250  0.10130598
   0.68063341  0.00278322  0.10117961
   0.00423793  0.67924839  0.10115457
   0.16660326  0.33328269  0.33795153
   0.33325459  0.16660858  0.33795293
   0.16663607  0.83331378  0.33795449
   0.33322823  0.66660164  0.33780422
   0.66656941  0.33326198  0.33780427
   0.83328487  0.16666014  0.33795506
   0.66657908  0.83326259  0.33795102
   0.83325305  0.66660382  0.33794900
Direct configuration=    34
   0.00410720  0.00257544  0.09947937
   0.35951029  0.00273634  0.10140321
   0.00420295  0.35817954  0.10140568
   0.64914388  0.64768080  0.10136583
   0.32804810  0.32654956  0.10122124
   0.68070983  0.00280023  0.10106657
   0.00428668  0.67940141  0.10103603
   0.16661022  0.33321553  0.33805805
   0.33317587  0.16662328  0.33805892
   0.16657294  0.83325986  0.33805924
   0.33320614  0.66661769  0.33796102
   0.66659693  0.33324881  0.33796109
   0.83322052  0.16659071  0.33805985
   0.66663954  0.83329808  0.33805578
   0.83326291  0.66665673  0.33805410
Direct configuration=    35
   0.00417986  0.00269667  0.10012724
   0.35948294  0.00277634  0.10132363
   0.00423902  0.35812041  0.10132595
   0.64912267  0.64765882  0.10128868
   0.32798903  0.32652533  0.10127664
   0.68065987  0.00278911  0.10114047
   0.00425480  0.67930136  0.10111353
   0.16660567  0.33325944  0.33798840
   0.33322734  0.16661367  0.33798963
   0.16661422  0.83329511  0.33799075
   0.33322059  0.66660720  0.33785850
   0.66657894  0.33325742  0.33785855
   0.83326259  0.16663611  0.33799133
   0.66660001  0.83327488  0.33798729
   0.83325646  0.66662214  0.33798539
Direct configuration=    36
   0.00423121  0.00277790  0.09991993
   0.35946704  0.00280100  0.10135568
   0.00425133  0.35806554  0.10135804
   0.64910999  0.64766024  0.10132498
   0.32793767  0.32647857  0.10123736
   0.68067377  0.00283024  0.10110787
   0.00428593  0.67927429  0.10108236
   0.16654379  0.33327220  0.33801111
   0.33324926  0.16657809  0.33801226
   0.16659041  0.83329851  0.33801302
   0.33326614  0.66661479  0.33789638
   0.66659001  0.33328549  0.33789643
   0.83327495  0.16661669  0.33801353
   0.66659172  0.83326181  0.33800939
   0.83323078  0.66661864  0.33800765
Direct configuration=    37
   0.00425045  0.00280835  0.09984222
   0.35946108  0.00281024  0.10136769
   0.00425595  0.35804497  0.10137007
   0.64910524  0.64766078  0.10133859
   0.32791842  0.32646104  0.10122264
   0.68067899  0.00284566  0.10109565
   0.00429760  0.67926415  0.10107068
   0.16652060  0.33327698  0.33801962
   0.33325748  0.16656475  0.33802075
   0.16658148  0.83329978  0.33802137
   0.33328321  0.66661764  0.33791058
   0.66659416  0.33329601  0.33791062
   0.83327958  0.16660942  0.33802185
   0.66658861  0.83325691  0.33801768
   0.83322116  0.66661732  0.33801599
Direct configuration=    38
   0.00429037  0.00286894  0.09976929
   0.35943847  0.00283450  0.10137790
   0.00427333  0.35799554  0.10138030
   0.64910894  0.64767156  0.10135487
   0.32789366  0.32644551  0.10119599
   0.68066929  0.00286397  0.10108397
   0.00430636  0.67922369  0.10106214
   0.16656420  0.33327362  0.33802880
   0.33324496  0.16659011  0.33802998
   0.16660588  0.83329066  0.33803053
   0.33324498  0.66661236  0.33792484
   0.66658696  0.33327241  0.33792487
   0.83326121  0.16663033  0.33803090
   0.66658400  0.83325152  0.33802658
   0.83322140  0.66660927  0.33802504
Direct configuration=    39
   0.00428654  0.00286313  0.09977629
   0.35944064  0.00283218  0.10137692
   0.00427166  0.35800028  0.10137932
   0.64910859  0.64767053  0.10135331
   0.32789604  0.32644700  0.10119855
   0.68067022  0.00286221  0.10108509
   0.00430552  0.67922757  0.10106296
   0.16656002  0.33327394  0.33802792
   0.33324616  0.16658768  0.33802909
   0.16660354  0.83329154  0.33802965
   0.33324864  0.66661287  0.33792347
   0.66658765  0.33327467  0.33792350
   0.83326297  0.16662832  0.33803003
   0.66658445  0.83325204  0.33802572
   0.83322138  0.66661004  0.33802417
Direct configuration=    40
   0.00428386  0.00285529  0.09976726
   0.35942960  0.00283697  0.10137479
   0.00427766  0.35799075  0.10137722
   0.64912514  0.64768549  0.10135568
   0.32791004  0.32646378  0.10118615
   0.68065909  0.00285598  0.10108560
   0.00429826  0.67921775  0.10106605
   0.16656199  0.33327166  0.33803051
   0.33324439  0.16658704  0.33803178
   0.16660042  0.83329752  0.33803243
   0.33324407  0.66660571  0.33792529
   0.66657622  0.33327157  0.33792533
   0.83326956  0.16662780  0.33803268
   0.66658039  0.83325824  0.33802837
   0.83323331  0.66660846  0.33802687
Direct configuration=    41
   0.00428080  0.00284632  0.09975692
   0.35941695  0.00284246  0.10137236
   0.00428454  0.35797983  0.10137481
   0.64914410  0.64770263  0.10135840
   0.32792609  0.32648300  0.10117195
   0.68064633  0.00284884  0.10108618
   0.00428994  0.67920650  0.10106959
   0.16656425  0.33326904  0.33803348
   0.33324237  0.16658630  0.33803487
   0.16659684  0.83330437  0.33803560
   0.33323883  0.66659750  0.33792738
   0.66656314  0.33326802  0.33792742
   0.83327710  0.16662721  0.33803571
   0.66657574  0.83326535  0.33803139
   0.83324699  0.66660665  0.33802995
Direct configuration=    42
   0.00427842  0.00283992  0.09975135
   0.35941179  0.00284584  0.10136952
   0.00428877  0.35797591  0.10137198
   0.64915424  0.64771164  0.10135943
   0.32793325  0.32649211  0.10116122
   0.68064126  0.00284439  0.10108722
   0.00428489  0.67920252  0.10107298
   0.16656189  0.33326858  0.33803569
   0.33324144  0.16658515  0.33803716
   0.16659768  0.83330234  0.33803800
   0.33323978  0.66660005  0.33792870
   0.66656729  0.33326867  0.33792875
   0.83327453  0.16662713  0.33803799
   0.66657761  0.83326209  0.33803369
   0.83324116  0.66660766  0.33803230
Direct configuration=    43
   0.00427209  0.00282292  0.09973655
   0.35939808  0.00285480  0.10136197
   0.00430002  0.35796550  0.10136448
   0.64918119  0.64773555  0.10136217
   0.32795225  0.32651633  0.10113273
   0.68062778  0.00283259  0.10108999
   0.00427149  0.67919197  0.10108201
   0.16655564  0.33326736  0.33804157
   0.33323897  0.16658211  0.33804325
   0.16659992  0.83329696  0.33804436
   0.33324231  0.66660681  0.33793223
   0.66657834  0.33327039  0.33793230
   0.83326768  0.16662693  0.33804406
   0.66658256  0.83325342  0.33803980
   0.83322566  0.66661034  0.33803852
Direct configuration=    44
   0.00427560  0.00282834  0.09973370
   0.35940524  0.00285675  0.10135855
   0.00430098  0.35796990  0.10136105
   0.64917348  0.64772885  0.10136120
   0.32794199  0.32650655  0.10112435
   0.68063517  0.00283562  0.10109094
   0.00427410  0.67919637  0.10108483
   0.16655428  0.33327004  0.33804352
   0.33324199  0.16658271  0.33804523
   0.16659809  0.83329331  0.33804647
   0.33324514  0.66660799  0.33793373
   0.66658033  0.33327211  0.33793380
   0.83326440  0.16662498  0.33804608
   0.66658064  0.83325211  0.33804189
   0.83322258  0.66660837  0.33804066
Direct configuration=    45
   0.00428616  0.00284462  0.09972513
   0.35942671  0.00286259  0.10134827
   0.00430384  0.35798309  0.10135073
   0.64915032  0.64770874  0.10135827
   0.32791118  0.32647722  0.10109923
   0.68065736  0.00284470  0.10109379
   0.00428190  0.67920958  0.10109330
   0.16655021  0.33327808  0.33804937
   0.33325106  0.16658451  0.33805118
   0.16659257  0.83328233  0.33805281
   0.33325363  0.66661153  0.33793820
   0.66658631  0.33327726  0.33793829
   0.83325457  0.16661911  0.33805217
   0.66657485  0.83324817  0.33804818
   0.83321332  0.66660246  0.33804708
Direct configuration=    46
   0.00428784  0.00284796  0.09972248
   0.35943728  0.00286049  0.10134303
   0.00430077  0.35799268  0.10134545
   0.64913800  0.64769754  0.10135505
   0.32790787  0.32647163  0.10108857
   0.68066303  0.00284983  0.10109381
   0.00428838  0.67921432  0.10109545
   0.16655371  0.33326875  0.33805235
   0.33324040  0.16658230  0.33805418
   0.16659405  0.83329129  0.33805600
   0.33324271  0.66660526  0.33794123
   0.66657618  0.33327041  0.33794131
   0.83326230  0.16662221  0.33805529
   0.66657731  0.83325318  0.33805142
   0.83322417  0.66660616  0.33805038
Direct configuration=    47
   0.00428863  0.00284954  0.09972123
   0.35944225  0.00285950  0.10134057
   0.00429933  0.35799720  0.10134296
   0.64913220  0.64769227  0.10135354
   0.32790632  0.32646899  0.10108355
   0.68066570  0.00285224  0.10109382
   0.00429142  0.67921655  0.10109646
   0.16655536  0.33326436  0.33805375
   0.33323538  0.16658126  0.33805559
   0.16659475  0.83329551  0.33805751
   0.33323757  0.66660230  0.33794266
   0.66657142  0.33326719  0.33794274
   0.83326594  0.16662366  0.33805675
   0.66657846  0.83325554  0.33805295
   0.83322927  0.66660790  0.33805194
Direct configuration=    48
   0.00428495  0.00284438  0.09972022
   0.35944499  0.00285428  0.10133602
   0.00429458  0.35800231  0.10133835
   0.64912992  0.64768962  0.10134932
   0.32791728  0.32647614  0.10107617
   0.68066448  0.00285418  0.10109206
   0.00429577  0.67921957  0.10109578
   0.16655388  0.33326401  0.33805649
   0.33323461  0.16657993  0.33805832
   0.16659555  0.83329571  0.33806044
   0.33323672  0.66660208  0.33794608
   0.66657119  0.33326662  0.33794614
   0.83326562  0.16662448  0.33805965
   0.66657783  0.83325338  0.33805597
   0.83322662  0.66660732  0.33805499
Direct configuration=    49
   0.00427495  0.00283034  0.09971749
   0.35945244  0.00284008  0.10132366
   0.00428166  0.35801621  0.10132579
   0.64912374  0.64768242  0.10133785
   0.32794712  0.32649558  0.10105609
   0.68066116  0.00285943  0.10108725
   0.00430760  0.67922781  0.10109392
   0.16654986  0.33326306  0.33806395
   0.33323253  0.16657630  0.33806576
   0.16659773  0.83329624  0.33806841
   0.33323440  0.66660150  0.33795540
   0.66657057  0.33326509  0.33795539
   0.83326475  0.16662670  0.33806754
   0.66657610  0.83324751  0.33806420
   0.83321939  0.66660574  0.33806332
Direct configuration=    50
   0.00427496  0.00283067  0.09971709
   0.35945087  0.00283870  0.10132034
   0.00428059  0.35801493  0.10132242
   0.64912638  0.64768473  0.10133440
   0.32794873  0.32649571  0.10105113
   0.68066248  0.00286067  0.10108506
   0.00430959  0.67922988  0.10109225
   0.16654890  0.33326451  0.33806617
   0.33323427  0.16657702  0.33806797
   0.16659498  0.83329312  0.33807075
   0.33323624  0.66660193  0.33795811
   0.66657127  0.33326615  0.33795809