   16   16    1    1
  0.2065628E+02  0.5044000E-09  0.5044000E-09  0.1500000E-08  0.5000000E-15
  1.000000000000000E-004
  CAR 
 BS                                      
     62    192     48
 
  0.3330000E+00  0.3330000E+00  0.0000000E+00  0.5208333E-02
      1        -18.052223   1.000000
      2        -18.046995   1.000000
      3        -18.045474   1.000000
      4        -17.218959   1.000000
      5        -15.271751   1.000000
      6        -15.268943   1.000000
      7        -13.330245   1.000000
      8        -13.323706   1.000000
      9        -10.997746   1.000000
     10        -10.625787   1.000000
     11        -10.620751   1.000000
     12         -8.933088   1.000000
     13         -8.610115   1.000000
     14         -8.608405   1.000000
     15         -8.600084   1.000000
     16         -7.155439   1.000000
     17         -7.151408   1.000000
     18         -7.145127   1.000000
     19         -6.127675   1.000000
     20         -6.121656   1.000000
     21         -6.117214   1.000000
     22         -5.952511   1.000000
     23         -5.947415   1.000000
     24         -5.754368   1.000000
     25         -5.084734   1.000000
     26         -4.853955   1.000000
     27         -3.979230   1.000000
     28         -3.976116   1.000000
     29         -3.949851   1.000000
     30         -3.945504   1.000000
     31         -0.980315   0.459062
     32         -0.971561   0.410370
     33          1.065717   0.000000
     34          1.074025   0.000000
     35          5.012072   0.000000
     36          5.017898   0.000000
     37          5.040639   0.000000
     38          5.379971   0.000000
     39          5.390834   0.000000
     40          5.394625   0.000000
     41          6.067271   0.000000
     42          6.074499   0.000000
     43          6.075015   0.000000
     44          7.103943   0.000000
     45          7.111247   0.000000
     46          7.175848   0.000000
     47          7.242233   0.000000
     48          7.424903   0.000000
 
  0.3277143E+00  0.3277143E+00  0.0000000E+00  0.5208333E-02
      1        -18.109788   1.000000
      2        -18.017632   1.000000
      3        -18.015774   1.000000
      4        -17.219446   1.000000
      5        -15.292477   1.000000
      6        -15.246695   1.000000
      7        -13.381658   1.000000
      8        -13.274409   1.000000
      9        -10.994554   1.000000
     10        -10.665605   1.000000
     11        -10.583456   1.000000
     12         -8.929744   1.000000
     13         -8.659480   1.000000
     14         -8.657554   1.000000
     15         -8.506416   1.000000
     16         -7.192081   1.000000
     17         -7.188649   1.000000
     18         -7.067566   1.000000
     19         -6.189117   1.000000
     20         -6.115349   1.000000
     21         -6.076718   1.000000
     22         -5.988494   1.000000
     23         -5.907860   1.000000
     24         -5.746512   1.000000
     25         -5.086197   1.000000
     26         -4.854142   1.000000
     27         -4.006640   1.000000
     28         -3.993547   1.000000
     29         -3.939101   1.000000
     30         -3.904000   1.000000
     31         -1.049063   0.807700
     32         -0.903006   0.115828
     33          1.000297   0.000000
     34          1.139313   0.000000
     35          4.955708   0.000000
     36          4.971049   0.000000
     37          5.141372   0.000000
     38          5.303943   0.000000
     39          5.427898   0.000000
     40          5.435801   0.000000
     41          5.988757   0.000000
     42          6.111760   0.000000
     43          6.117812   0.000000
     44          7.041425   0.000000
     45          7.096727   0.000000
     46          7.181610   0.000000
     47          7.185932   0.000000
     48          7.379376   0.000000
 
  0.3224286E+00  0.3224286E+00  0.0000000E+00  0.5208333E-02
      1        -18.166780   1.000000
      2        -17.987075   1.000000
      3        -17.985163   1.000000
      4        -17.220836   1.000000
      5        -15.311020   1.000000
      6        -15.223856   1.000000
      7        -13.432271   1.000000
      8        -13.229860   1.000000
      9        -10.985520   1.000000
     10        -10.704922   1.000000
     11        -10.551357   1.000000
     12         -8.920255   1.000000
     13         -8.713227   1.000000
     14         -8.711273   1.000000
     15         -8.412223   1.000000
     16         -7.225664   1.000000
     17         -7.222303   1.000000
     18         -6.989629   1.000000
     19         -6.255790   1.000000
     20         -6.141318   1.000000
     21         -6.038839   1.000000
     22         -5.997024   1.000000
     23         -5.870160   1.000000
     24         -5.730130   1.000000
     25         -5.090469   1.000000
     26         -4.854320   1.000000
     27         -4.030700   1.000000
     28         -4.026078   1.000000
     29         -3.906903   1.000000
     30         -3.858477   1.000000
     31         -1.116778   0.966156
     32         -0.835860   0.015949
     33          0.936037   0.000000
     34          1.203201   0.000000
     35          4.897244   0.000000
     36          4.913175   0.000000
     37          5.225964   0.000000
     38          5.250922   0.000000
     39          5.469479   0.000000
     40          5.478341   0.000000
     41          5.911354   0.000000
     42          6.149621   0.000000
     43          6.161526   0.000000
     44          6.971291   0.000000
     45          7.053106   0.000000
     46          7.181594   0.000000
     47          7.234480   0.000000
     48          7.353286   0.000000
 
  0.3171429E+00  0.3171429E+00  0.0000000E+00  0.5208333E-02
      1        -18.222915   1.000000
      2        -17.955612   1.000000
      3        -17.953644   1.000000
      4        -17.223186   1.000000
      5        -15.327307   1.000000
      6        -15.200440   1.000000
      7        -13.482083   1.000000
      8        -13.190280   1.000000
      9        -10.970441   1.000000
     10        -10.743709   1.000000
     11        -10.524711   1.000000
     12         -8.904446   1.000000
     13         -8.771298   1.000000
     14         -8.769323   1.000000
     15         -8.317714   1.000000
     16         -7.255761   1.000000
     17         -7.252457   1.000000
     18         -6.911897   1.000000
     19         -6.324925   1.000000
     20         -6.196398   1.000000
     21         -6.003789   1.000000
     22         -5.979163   1.000000
     23         -5.835258   1.000000
     24         -5.709842   1.000000
     25         -5.097770   1.000000
     26         -4.853857   1.000000
     27         -4.053159   1.000000
     28         -4.049939   1.000000
     29         -3.873271   1.000000
     30         -3.810472   1.000000
     31         -1.183452   0.997197
     32         -0.770173   0.001054
     33          0.872965   0.000000
     34          1.265604   0.000000
     35          4.836928   0.000000
     36          4.853268   0.000000
     37          5.149134   0.000000
     38          5.360357   0.000000
     39          5.512417   0.000000
     40          5.522391   0.000000
     41          5.835082   0.000000
     42          6.187789   0.000000
     43          6.206183   0.000000
     44          6.900618   0.000000
     45          7.007176   0.000000
     46          7.149476   0.000000
     47          7.288119   0.000000
     48          7.360268   0.000000
 
  0.3118571E+00  0.3118571E+00  0.0000000E+00  0.5208333E-02
      1        -18.278185   1.000000
      2        -17.923254   1.000000
      3        -17.921224   1.000000
      4        -17.226542   1.000000
      5        -15.341266   1.000000
      6        -15.176462   1.000000
      7        -13.531092   1.000000
      8        -13.155817   1.000000
      9        -10.949178   1.000000
     10        -10.781939   1.000000
     11        -10.503635   1.000000
     12         -8.882286   1.000000
     13         -8.833550   1.000000
     14         -8.831581   1.000000
     15         -8.222857   1.000000
     16         -7.282437   1.000000
     17         -7.279188   1.000000
     18         -6.834334   1.000000
     19         -6.396499   1.000000
     20         -6.261884   1.000000
     21         -5.972294   1.000000
     22         -5.951351   1.000000
     23         -5.803703   1.000000
     24         -5.687702   1.000000
     25         -5.108269   1.000000
     26         -4.851915   1.000000
     27         -4.073927   1.000000
     28         -4.064086   1.000000
     29         -3.838722   1.000000
     30         -3.760362   1.000000
     31         -1.249078   0.999891
     32         -0.705989   0.000034
     33          0.811084   0.000000
     34          1.326437   0.000000
     35          4.774564   0.000000
     36          4.791290   0.000000
     37          5.073502   0.000000
     38          5.468944   0.000000
     39          5.556608   0.000000
     40          5.568421   0.000000
     41          5.759942   0.000000
     42          6.225822   0.000000
     43          6.251732   0.000000
     44          6.830222   0.000000
     45          6.953108   0.000000
     46          7.098336   0.000000
     47          7.336460   0.000000
     48          7.386558   0.000000
 
  0.3065714E+00  0.3065714E+00  0.0000000E+00  0.5208333E-02
      1        -18.332582   1.000000
      2        -17.890000   1.000000
      3        -17.887898   1.000000
      4        -17.230933   1.000000
      5        -15.352841   1.000000
      6        -15.151931   1.000000
      7        -13.579295   1.000000
      8        -13.126532   1.000000
      9        -10.921711   1.000000
     10        -10.819581   1.000000
     11        -10.488101   1.000000
     12         -8.899984   1.000000
     13         -8.897875   1.000000
     14         -8.853705   1.000000
     15         -8.127763   1.000000
     16         -7.305744   1.000000
     17         -7.302548   1.000000
     18         -6.757110   1.000000
     19         -6.470733   1.000000
     20         -6.330067   1.000000
     21         -5.945753   1.000000
     22         -5.919693   1.000000
     23         -5.775153   1.000000
     24         -5.664655   1.000000
     25         -5.121845   1.000000
     26         -4.847605   1.000000
     27         -4.088005   1.000000
     28         -4.073012   1.000000
     29         -3.803320   1.000000
     30         -3.708401   1.000000
     31         -1.313650   0.999998
     32         -0.643354   0.000001
     33          0.750451   0.000000
     34          1.385669   0.000000
     35          4.710327   0.000000
     36          4.727432   0.000000
     37          4.999098   0.000000
     38          5.573636   0.000000
     39          5.601867   0.000000
     40          5.619580   0.000000
     41          5.686168   0.000000
     42          6.262994   0.000000
     43          6.298099   0.000000
     44          6.761004   0.000000
     45          6.897252   0.000000
     46          7.040113   0.000000
     47          7.385562   0.000000
     48          7.422082   0.000000
 
  0.3012857E+00  0.3012857E+00  0.0000000E+00  0.5208333E-02
      1        -18.386098   1.000000
      2        -17.855857   1.000000
      3        -17.853671   1.000000
      4        -17.236388   1.000000
      5        -15.361982   1.000000
      6        -15.126861   1.000000
      7        -13.626693   1.000000
      8        -13.102395   1.000000
      9        -10.888077   1.000000
     10        -10.856614   1.000000
     11        -10.477945   1.000000
     12         -8.970011   1.000000
     13         -8.967913   1.000000
     14         -8.819246   1.000000
     15         -8.032383   1.000000
     16         -7.325906   1.000000
     17         -7.322761   1.000000
     18         -6.680103   1.000000
     19         -6.547822   1.000000
     20         -6.398092   1.000000
     21         -5.926464   1.000000
     22         -5.886240   1.000000
     23         -5.748318   1.000000
     24         -5.641152   1.000000
     25         -5.138410   1.000000
     26         -4.840055   1.000000
     27         -4.095283   1.000000
     28         -4.076809   1.000000
     29         -3.767145   1.000000
     30         -3.654836   1.000000
     31         -1.377159   1.000000
     32         -0.582304   0.000000
     33          0.691047   0.000000
     34          1.443230   0.000000
     35          4.644082   0.000000
     36          4.661563   0.000000
     37          4.925918   0.000000
     38          5.611690   0.000000
     39          5.650200   0.000000
     40          5.650532   0.000000
     41          5.699535   0.000000
     42          6.297975   0.000000
     43          6.345075   0.000000
     44          6.693640   0.000000
     45          6.837957   0.000000
     46          6.979654   0.000000
     47          7.434218   0.000000
     48          7.461978   0.000000
 
  0.2960000E+00  0.2960000E+00  0.0000000E+00  0.5208333E-02
      1        -18.438736   1.000000
      2        -17.820831   1.000000
      3        -17.818546   1.000000
      4        -17.242919   1.000000
      5        -15.368662   1.000000
      6        -15.101268   1.000000
      7        -13.673287   1.000000
      8        -13.083290   1.000000
      9        -10.893026   1.000000
     10        -10.848427   1.000000
     11        -10.472878   1.000000
     12         -9.043574   1.000000
     13         -9.041455   1.000000
     14         -8.779114   1.000000
     15         -7.936834   1.000000
     16         -7.343092   1.000000
     17         -7.339997   1.000000
     18         -6.628099   1.000000
     19         -6.603159   1.000000
     20         -6.464734   1.000000
     21         -5.917136   1.000000
     22         -5.851802   1.000000
     23         -5.721064   1.000000
     24         -5.617447   1.000000
     25         -5.157631   1.000000
     26         -4.828693   1.000000
     27         -4.095757   1.000000
     28         -4.075599   1.000000
     29         -3.730218   1.000000
     30         -3.599871   1.000000
     31         -1.439632   1.000000
     32         -0.522896   0.000000
     33          0.632956   0.000000
     34          1.499075   0.000000
     35          4.576222   0.000000
     36          4.594067   0.000000
     37          4.853964   0.000000
     38          5.540712   0.000000
     39          5.697420   0.000000
     40          5.703434   0.000000
     41          5.804658   0.000000
     42          6.328357   0.000000
     43          6.392202   0.000000
     44          6.629452   0.000000
     45          6.777362   0.000000
     46          6.920114   0.000000
     47          7.483233   0.000000
     48          7.504571   0.000000
 
  0.2907143E+00  0.2907143E+00  0.0000000E+00  0.5208333E-02
      1        -18.490492   1.000000
      2        -17.784928   1.000000
      3        -17.782523   1.000000
      4        -17.250527   1.000000
      5        -15.372861   1.000000
      6        -15.075165   1.000000
      7        -13.719067   1.000000
      8        -13.068998   1.000000
      9        -10.928771   1.000000
     10        -10.802988   1.000000
     11        -10.472518   1.000000
     12         -9.120356   1.000000
     13         -9.118214   1.000000
     14         -8.733817   1.000000
     15         -7.841131   1.000000
     16         -7.357526   1.000000
     17         -7.354478   1.000000
     18         -6.710579   1.000000
     19         -6.530078   1.000000
     20         -6.526652   1.000000
     21         -5.919815   1.000000
     22         -5.816889   1.000000
     23         -5.691431   1.000000
     24         -5.593648   1.000000
     25         -5.179045   1.000000
     26         -4.813280   1.000000
     27         -4.089539   1.000000
     28         -4.069641   1.000000
     29         -3.692563   1.000000
     30         -3.543758   1.000000
     31         -1.500941   1.000000
     32         -0.465109   0.000000
     33          0.576164   0.000000
     34          1.553139   0.000000
     35          4.506629   0.000000
     36          4.524827   0.000000
     37          4.783238   0.000000
     38          5.470168   0.000000
     39          5.746573   0.000000
     40          5.754310   0.000000
     41          5.912233   0.000000
     42          6.349166   0.000000
     43          6.438217   0.000000
     44          6.571164   0.000000
     45          6.715654   0.000000
     46          6.864077   0.000000
     47          7.532676   0.000000
     48          7.548643   0.000000
 
  0.2854286E+00  0.2854286E+00  0.0000000E+00  0.5208333E-02
      1        -18.541364   1.000000
      2        -17.748162   1.000000
      3        -17.745610   1.000000
      4        -17.259199   1.000000
      5        -15.374576   1.000000
      6        -15.048575   1.000000
      7        -13.764037   1.000000
      8        -13.059274   1.000000
      9        -10.963841   1.000000
     10        -10.752059   1.000000
     11        -10.476436   1.000000
     12         -9.200089   1.000000
     13         -9.197923   1.000000
     14         -8.683914   1.000000
     15         -7.745288   1.000000
     16         -7.369449   1.000000
     17         -7.366445   1.000000
     18         -6.795484   1.000000
     19         -6.592466   1.000000
     20         -6.451373   1.000000
     21         -5.935018   1.000000
     22         -5.781962   1.000000
     23         -5.658560   1.000000
     24         -5.569891   1.000000
     25         -5.202036   1.000000
     26         -4.794048   1.000000
     27         -4.076785   1.000000
     28         -4.059281   1.000000
     29         -3.654249   1.000000
     30         -3.486590   1.000000
     31         -1.561214   1.000000
     32         -0.409024   0.000000
     33          0.520674   0.000000
     34          1.605428   0.000000
     35          4.435356   0.000000
     36          4.453893   0.000000
     37          4.713744   0.000000
     38          5.400689   0.000000
     39          5.797003   0.000000
     40          5.805750   0.000000
     41          6.019871   0.000000
     42          6.351394   0.000000
     43          6.478595   0.000000
     44          6.523775   0.000000
     45          6.658065   0.000000
     46          6.816336   0.000000
     47          7.582109   0.000000
     48          7.593945   0.000000
 
  0.2801429E+00  0.2801429E+00  0.0000000E+00  0.5208333E-02
      1        -18.591343   1.000000
      2        -17.710541   1.000000
      3        -17.707804   1.000000
      4        -17.268907   1.000000
      5        -15.373810   1.000000
      6        -15.021508   1.000000
      7        -13.808195   1.000000
      8        -13.053788   1.000000
      9        -10.998215   1.000000
     10        -10.695990   1.000000
     11        -10.484162   1.000000
     12         -9.282472   1.000000
     13         -9.280284   1.000000
     14         -8.630016   1.000000
     15         -7.649261   1.000000
     16         -7.379081   1.000000
     17         -7.376117   1.000000
     18         -6.882142   1.000000
     19         -6.653517   1.000000
     20         -6.376007   1.000000
     21         -5.961819   1.000000
     22         -5.747510   1.000000
     23         -5.622548   1.000000
     24         -5.546247   1.000000
     25         -5.225734   1.000000
     26         -4.771540   1.000000
     27         -4.057689   1.000000
     28         -4.044820   1.000000
     29         -3.615265   1.000000
     30         -3.428544   1.000000
     31         -1.620390   1.000000
     32         -0.354646   0.000000
     33          0.466561   0.000000
     34          1.655874   0.000000
     35          4.362264   0.000000
     36          4.381110   0.000000
     37          4.645485   0.000000
     38          5.332330   0.000000
     39          5.848656   0.000000
     40          5.858192   0.000000
     41          6.128086   0.000000
     42          6.326791   0.000000
     43          6.489131   0.000000
     44          6.494091   0.000000
     45          6.624080   0.000000
     46          6.783523   0.000000
     47          7.631352   0.000000
     48          7.639647   0.000000
 
  0.2748571E+00  0.2748571E+00  0.0000000E+00  0.5208333E-02
      1        -18.640426   1.000000
      2        -17.672086   1.000000
      3        -17.669109   1.000000
      4        -17.279599   1.000000
      5        -15.370588   1.000000
      6        -14.993985   1.000000
      7        -13.851540   1.000000
      8        -13.052187   1.000000
      9        -11.031873   1.000000
     10        -10.635168   1.000000
     11        -10.495222   1.000000
     12         -9.367240   1.000000
     13         -9.365031   1.000000
     14         -8.572760   1.000000
     15         -7.553156   1.000000
     16         -7.386620   1.000000
     17         -7.383690   1.000000
     18         -6.970061   1.000000
     19         -6.712891   1.000000
     20         -6.301106   1.000000
     21         -5.998730   1.000000
     22         -5.714198   1.000000
     23         -5.583900   1.000000
     24         -5.522880   1.000000
     25         -5.248975   1.000000
     26         -4.746547   1.000000
     27         -4.032455   1.000000
     28         -4.026637   1.000000
     29         -3.575673   1.000000
     30         -3.369778   1.000000
     31         -1.678458   1.000000
     32         -0.301996   0.000000
     33          0.413839   0.000000
     34          1.704485   0.000000
     35          4.287817   0.000000
     36          4.306971   0.000000
     37          4.578473   0.000000
     38          5.265112   0.000000
     39          5.901485   0.000000
     40          5.911746   0.000000
     41          6.235396   0.000000
     42          6.280136   0.000000
     43          6.456087   0.000000
     44          6.457747   0.000000
     45          6.641117   0.000000
     46          6.772240   0.000000
     47          7.679806   0.000000
     48          7.683934   0.000000
 
  0.2695714E+00  0.2695714E+00  0.0000000E+00  0.5208333E-02
      1        -18.688616   1.000000
      2        -17.632829   1.000000
      3        -17.629531   1.000000
      4        -17.291216   1.000000
      5        -15.364942   1.000000
      6        -14.966028   1.000000
      7        -13.894072   1.000000
      8        -13.054107   1.000000
      9        -11.064802   1.000000
     10        -10.570027   1.000000
     11        -10.509161   1.000000
     12         -9.454173   1.000000
     13         -9.451944   1.000000
     14         -8.512841   1.000000
     15         -7.457032   1.000000
     16         -7.392325   1.000000
     17         -7.389417   1.000000
     18         -7.058768   1.000000
     19         -6.770748   1.000000
     20         -6.226747   1.000000
     21         -6.044183   1.000000
     22         -5.683006   1.000000
     23         -5.543113   1.000000
     24         -5.500131   1.000000
     25         -5.270139   1.000000
     26         -4.719936   1.000000
     27         -4.005081   1.000000
     28         -4.001391   1.000000
     29         -3.535518   1.000000
     30         -3.310452   1.000000
     31         -1.735463   1.000000
     32         -0.251096   0.000000
     33          0.362510   0.000000
     34          1.751215   0.000000
     35          4.211849   0.000000
     36          4.231296   0.000000
     37          4.512702   0.000000
     38          5.199012   0.000000
     39          5.955402   0.000000
     40          5.966449   0.000000
     41          6.222203   0.000000
     42          6.341742   0.000000
     43          6.393854   0.000000
     44          6.413287   0.000000
     45          6.685041   0.000000
     46          6.783199   0.000000
     47          7.727456   0.000000
     48          7.728499   0.000000
 
  0.2642857E+00  0.2642857E+00  0.0000000E+00  0.5208333E-02
      1        -18.735908   1.000000
      2        -17.592819   1.000000
      3        -17.589069   1.000000
      4        -17.303657   1.000000
      5        -15.356912   1.000000
      6        -14.937652   1.000000
      7        -13.935784   1.000000
      8        -13.059160   1.000000
      9        -11.096974   1.000000
     10        -10.525787   1.000000
     11        -10.500710   1.000000
     12         -9.542968   1.000000
     13         -9.540721   1.000000
     14         -8.450961   1.000000
     15         -7.396318   1.000000
     16         -7.393475   1.000000
     17         -7.360845   1.000000
     18         -7.147688   1.000000
     19         -6.827188   1.000000
     20         -6.152970   1.000000
     21         -6.096664   1.000000
     22         -5.655431   1.000000
     23         -5.500591   1.000000
     24         -5.478526   1.000000
     25         -5.286871   1.000000
     26         -4.692462   1.000000
     27         -3.980468   1.000000
     28         -3.964718   1.000000
     29         -3.494827   1.000000
     30         -3.250636   1.000000
     31         -1.791257   1.000000
     32         -0.201916   0.000000
     33          0.312658   0.000000
     34          1.796085   0.000000
     35          4.134362   0.000000
     36          4.154097   0.000000
     37          4.448181   0.000000
     38          5.134039   0.000000
     39          6.010145   0.000000
     40          6.022322   0.000000
     41          6.159357   0.000000
     42          6.319409   0.000000
     43          6.360209   0.000000
     44          6.449090   0.000000
     45          6.737022   0.000000
     46          6.811035   0.000000
     47          7.755770   0.000000
     48          7.767482   0.000000
 
  0.2590000E+00  0.2590000E+00  0.0000000E+00  0.5208333E-02
      1        -18.782297   1.000000
      2        -17.552159   1.000000
      3        -17.547729   1.000000
      4        -17.316770   1.000000
      5        -15.346557   1.000000
      6        -14.908884   1.000000
      7        -13.976677   1.000000
      8        -13.066996   1.000000
      9        -11.128375   1.000000
     10        -10.544231   1.000000
     11        -10.428127   1.000000
     12         -9.633461   1.000000
     13         -9.631197   1.000000
     14         -8.387945   1.000000
     15         -7.398858   1.000000
     16         -7.395986   1.000000
     17         -7.264706   1.000000
     18         -7.236261   1.000000
     19         -6.882302   1.000000
     20         -6.154941   1.000000
     21         -6.079724   1.000000
     22         -5.633698   1.000000
     23         -5.458713   1.000000
     24         -5.456608   1.000000
     25         -5.296033   1.000000
     26         -4.664792   1.000000
     27         -3.953133   1.000000
     28         -3.922807   1.000000
     29         -3.453666   1.000000
     30         -3.190488   1.000000
     31         -1.845857   1.000000
     32         -0.154467   0.000000
     33          0.264303   0.000000
     34          1.839058   0.000000
     35          4.055356   0.000000
     36          4.075367   0.000000
     37          4.384911   0.000000
     38          5.070185   0.000000
     39          6.062145   0.000000
     40          6.079345   0.000000
     41          6.097354   0.000000
     42          6.241944   0.000000
     43          6.300615   0.000000
     44          6.554468   0.000000
     45          6.792529   0.000000
     46          6.849800   0.000000
     47          7.780545   0.000000
     48          7.783385   0.000000
 
  0.2537143E+00  0.2537143E+00  0.0000000E+00  0.5208333E-02
      1        -18.827783   1.000000
      2        -17.511071   1.000000
      3        -17.505511   1.000000
      4        -17.330271   1.000000
      5        -15.333928   1.000000
      6        -14.879743   1.000000
      7        -14.016750   1.000000
      8        -13.077264   1.000000
      9        -11.158987   1.000000
     10        -10.564527   1.000000
     11        -10.352309   1.000000
     12         -9.725396   1.000000
     13         -9.723118   1.000000
     14         -8.324771   1.000000
     15         -7.400146   1.000000
     16         -7.397162   1.000000
     17         -7.323599   1.000000
     18         -7.168593   1.000000
     19         -6.936157   1.000000
     20         -6.217930   1.000000
     21         -6.007106   1.000000
     22         -5.620585   1.000000
     23         -5.440584   1.000000
     24         -5.411378   1.000000
     25         -5.294541   1.000000
     26         -4.637428   1.000000
     27         -3.923305   1.000000
     28         -3.876005   1.000000
     29         -3.412083   1.000000
     30         -3.130100   1.000000
     31         -1.899366   1.000000
     32         -0.108842   0.000000
     33          0.217469   0.000000
     34          1.880134   0.000000
     35          3.975314   0.000000
     36          3.995585   0.000000
     37          4.322897   0.000000
     38          5.007451   0.000000
     39          6.022572   0.000000
     40          6.125198   0.000000
     41          6.136971   0.000000
     42          6.162060   0.000000
     43          6.238550   0.000000
     44          6.660560   0.000000
     45          6.850361   0.000000
     46          6.895487   0.000000
     47          7.751457   0.000000
     48          7.783451   0.000000
 
  0.2484286E+00  0.2484286E+00  0.0000000E+00  0.5208333E-02
      1        -18.872362   1.000000
      2        -17.470190   1.000000
      3        -17.462423   1.000000
      4        -17.343466   1.000000
      5        -15.319096   1.000000
      6        -14.850257   1.000000
      7        -14.056000   1.000000
      8        -13.089641   1.000000