  15  15   0  16
  0.2033749E+02  0.4846000E-09  0.4846000E-09  0.1500000E-08  0.5000000E-15
  1.000000000000000E-004
  CAR 
 Lattice                                 
     10.32468624    -21.69867419  301     -0.32240606      1.00000000
    -21.699  0.0000E+00  0.0000E+00  0.0000E+00  0.0000E+00
    -21.592  0.0000E+00  0.0000E+00  0.0000E+00  0.0000E+00
    -21.485  0.0000E+00  0.0000E+00  0.0000E+00  0.0000E+00
    -21.378  0.0000E+00  0.0000E+00  0.0000E+00  0.0000E+00
    -21.272  0.0000E+00  0.0000E+00  0.0000E+00  0.0000E+00
    -21.165  0.0000E+00  0.0000E+00  0.0000E+00  0.0000E+00
    -21.058  0.0000E+00  0.0000E+00  0.0000E+00  0.0000E+00
    -20.951  0.0000E+00  0.0000E+00  0.0000E+00  0.0000E+00
    -20.845  0.0000E+00  0.0000E+00  0.0000E+00  0.0000E+00
    -20.738  0.7008E-15  0.7008E-15  0.7481E-16  0.7481E-16
    -20.631  0.1199E-10  0.1199E-10  0.1280E-11  0.1280E-11
    -20.524  0.2466E-07  0.2466E-07  0.2634E-08  0.2634E-08
    -20.418  0.6714E-05  0.6714E-05  0.7193E-06  0.7193E-06
    -20.311  0.2703E-03  0.2703E-03  0.2957E-04  0.2957E-04
    -20.204  0.1971E-02  0.1971E-02  0.2400E-03  0.2400E-03
    -20.098  0.4148E-02  0.4148E-02  0.6828E-03  0.6828E-03
    -19.991  0.4516E-02  0.4516E-02  0.1165E-02  0.1165E-02
    -19.884  0.4934E-02  0.4934E-02  0.1692E-02  0.1692E-02
    -19.777  0.4151E-02  0.4151E-02  0.2135E-02  0.2135E-02
    -19.671  0.5378E-02  0.5378E-02  0.2709E-02  0.2709E-02
    -19.564  0.4217E-02  0.4217E-02  0.3159E-02  0.3159E-02
    -19.457  0.4244E-02  0.4244E-02  0.3612E-02  0.3612E-02
    -19.350  0.6006E-02  0.6006E-02  0.4253E-02  0.4253E-02
    -19.244  0.3819E-02  0.3819E-02  0.4661E-02  0.4661E-02
    -19.137  0.3866E-02  0.3866E-02  0.5073E-02  0.5073E-02
    -19.030  0.6108E-02  0.6108E-02  0.5725E-02  0.5725E-02
    -18.923  0.5213E-02  0.5213E-02  0.6282E-02  0.6282E-02
    -18.817  0.2967E-02  0.2967E-02  0.6598E-02  0.6598E-02
    -18.710  0.4345E-02  0.4345E-02  0.7062E-02  0.7062E-02
    -18.603  0.6913E-02  0.6913E-02  0.7800E-02  0.7800E-02
    -18.496  0.4574E-02  0.4574E-02  0.8288E-02  0.8288E-02
    -18.390  0.3797E-02  0.3797E-02  0.8694E-02  0.8694E-02
    -18.283  0.2966E-02  0.2966E-02  0.9010E-02  0.9010E-02
    -18.176  0.6594E-02  0.6594E-02  0.9714E-02  0.9714E-02
    -18.069  0.6626E-02  0.6626E-02  0.1042E-01  0.1042E-01
    -17.963  0.3553E-02  0.3553E-02  0.1080E-01  0.1080E-01
    -17.856  0.3271E-02  0.3271E-02  0.1115E-01  0.1115E-01
    -17.749  0.4093E-02  0.4093E-02  0.1159E-01  0.1159E-01
    -17.642  0.6182E-02  0.6182E-02  0.1225E-01  0.1225E-01
    -17.536  0.6775E-02  0.6775E-02  0.1297E-01  0.1297E-01
    -17.429  0.5503E-02  0.5503E-02  0.1356E-01  0.1356E-01
    -17.322  0.6379E-02  0.6379E-02  0.1424E-01  0.1424E-01
    -17.215  0.1008E-01  0.1008E-01  0.1531E-01  0.1531E-01
    -17.109  0.1454E-01  0.1454E-01  0.1687E-01  0.1687E-01
    -17.002  0.1558E-01  0.1558E-01  0.1853E-01  0.1853E-01
    -16.895  0.1696E-01  0.1696E-01  0.2034E-01  0.2034E-01
    -16.788  0.2069E-01  0.2069E-01  0.2255E-01  0.2255E-01
    -16.682  0.1674E-01  0.1674E-01  0.2434E-01  0.2434E-01
    -16.575  0.5296E-02  0.5296E-02  0.2490E-01  0.2490E-01
    -16.468  0.7196E-02  0.7196E-02  0.2567E-01  0.2567E-01
    -16.361  0.8202E-02  0.8202E-02  0.2654E-01  0.2654E-01
    -16.255  0.4578E-02  0.4578E-02  0.2703E-01  0.2703E-01
    -16.148  0.4155E-02  0.4155E-02  0.2748E-01  0.2748E-01
    -16.041  0.3858E-02  0.3858E-02  0.2789E-01  0.2789E-01
    -15.934  0.3826E-02  0.3826E-02  0.2830E-01  0.2830E-01
    -15.828  0.3615E-02  0.3615E-02  0.2868E-01  0.2868E-01
    -15.721  0.8000E-02  0.8000E-02  0.2954E-01  0.2954E-01
    -15.614  0.8133E-02  0.8133E-02  0.3040E-01  0.3040E-01
    -15.507  0.3962E-02  0.3962E-02  0.3083E-01  0.3083E-01
    -15.401  0.3866E-02  0.3866E-02  0.3124E-01  0.3124E-01
    -15.294  0.3359E-02  0.3359E-02  0.3160E-01  0.3160E-01
    -15.187  0.4593E-02  0.4593E-02  0.3209E-01  0.3209E-01
    -15.081  0.6085E-02  0.6085E-02  0.3274E-01  0.3274E-01
    -14.974  0.1025E-01  0.1025E-01  0.3383E-01  0.3383E-01
    -14.867  0.1641E-01  0.1641E-01  0.3558E-01  0.3558E-01
    -14.760  0.1809E-01  0.1809E-01  0.3751E-01  0.3751E-01
    -14.654  0.1767E-01  0.1767E-01  0.3940E-01  0.3940E-01
    -14.547  0.1146E-01  0.1146E-01  0.4062E-01  0.4062E-01
    -14.440  0.7572E-02  0.7572E-02  0.4143E-01  0.4143E-01
    -14.333  0.1459E-01  0.1459E-01  0.4299E-01  0.4299E-01
    -14.227  0.1565E-01  0.1565E-01  0.4466E-01  0.4466E-01
    -14.120  0.1084E-01  0.1084E-01  0.4582E-01  0.4582E-01
    -14.013  0.1080E-01  0.1080E-01  0.4697E-01  0.4697E-01
    -13.906  0.1191E-01  0.1191E-01  0.4824E-01  0.4824E-01
    -13.800  0.1932E-01  0.1932E-01  0.5031E-01  0.5031E-01
    -13.693  0.2025E-01  0.2025E-01  0.5247E-01  0.5247E-01
    -13.586  0.1843E-01  0.1843E-01  0.5443E-01  0.5443E-01
    -13.479  0.1178E-01  0.1178E-01  0.5569E-01  0.5569E-01
    -13.373  0.7140E-02  0.7140E-02  0.5645E-01  0.5645E-01
    -13.266  0.3345E-02  0.3345E-02  0.5681E-01  0.5681E-01
    -13.159  0.3999E-02  0.3999E-02  0.5724E-01  0.5724E-01
    -13.052  0.6781E-02  0.6781E-02  0.5796E-01  0.5796E-01
    -12.946  0.6950E-02  0.6950E-02  0.5870E-01  0.5870E-01
    -12.839  0.4817E-02  0.4817E-02  0.5922E-01  0.5922E-01
    -12.732  0.6679E-02  0.6679E-02  0.5993E-01  0.5993E-01
    -12.625  0.7085E-02  0.7085E-02  0.6069E-01  0.6069E-01
    -12.519  0.5594E-02  0.5594E-02  0.6128E-01  0.6128E-01
    -12.412  0.5408E-02  0.5408E-02  0.6186E-01  0.6186E-01
    -12.305  0.3364E-02  0.3364E-02  0.6222E-01  0.6222E-01
    -12.198  0.6216E-02  0.6216E-02  0.6288E-01  0.6288E-01
    -12.092  0.8093E-02  0.8093E-02  0.6375E-01  0.6375E-01
    -11.985  0.3458E-02  0.3458E-02  0.6412E-01  0.6412E-01
    -11.878  0.3328E-02  0.3328E-02  0.6447E-01  0.6447E-01
    -11.771  0.3384E-02  0.3384E-02  0.6483E-01  0.6483E-01
    -11.665  0.5858E-02  0.5858E-02  0.6546E-01  0.6546E-01
    -11.558  0.6800E-02  0.6800E-02  0.6618E-01  0.6618E-01
    -11.451  0.3926E-02  0.3926E-02  0.6660E-01  0.6660E-01
    -11.344  0.1840E-02  0.1840E-02  0.6680E-01  0.6680E-01
    -11.238  0.4638E-02  0.4638E-02  0.6730E-01  0.6730E-01
    -11.131  0.5821E-02  0.5821E-02  0.6792E-01  0.6792E-01
    -11.024  0.5167E-02  0.5167E-02  0.6847E-01  0.6847E-01
    -10.917  0.7651E-02  0.7651E-02  0.6928E-01  0.6928E-01
    -10.811  0.6230E-02  0.6230E-02  0.6995E-01  0.6995E-01
    -10.704  0.2374E-02  0.2374E-02  0.7020E-01  0.7020E-01
    -10.597  0.7634E-02  0.7634E-02  0.7102E-01  0.7102E-01
    -10.490  0.1233E-01  0.1233E-01  0.7233E-01  0.7233E-01
    -10.384  0.1534E-01  0.1534E-01  0.7397E-01  0.7397E-01
    -10.277  0.1492E-01  0.1492E-01  0.7556E-01  0.7556E-01
    -10.170  0.1439E-01  0.1439E-01  0.7710E-01  0.7710E-01
    -10.064  0.1769E-01  0.1769E-01  0.7899E-01  0.7899E-01
     -9.957  0.1913E-01  0.1913E-01  0.8103E-01  0.8103E-01
     -9.850  0.1021E-01  0.1021E-01  0.8212E-01  0.8212E-01
     -9.743  0.6313E-02  0.6313E-02  0.8279E-01  0.8279E-01
     -9.637  0.1379E-01  0.1379E-01  0.8427E-01  0.8427E-01
     -9.530  0.1589E-01  0.1589E-01  0.8596E-01  0.8596E-01
     -9.423  0.1638E-01  0.1638E-01  0.8771E-01  0.8771E-01
     -9.316  0.1510E-01  0.1510E-01  0.8932E-01  0.8932E-01
     -9.210  0.1425E-01  0.1425E-01  0.9084E-01  0.9084E-01
     -9.103  0.1103E-01  0.1103E-01  0.9202E-01  0.9202E-01
     -8.996  0.7539E-02  0.7539E-02  0.9283E-01  0.9283E-01
     -8.889  0.1471E-01  0.1471E-01  0.9440E-01  0.9440E-01
     -8.783  0.2039E-01  0.2039E-01  0.9657E-01  0.9657E-01
     -8.676  0.1628E-01  0.1628E-01  0.9831E-01  0.9831E-01
     -8.569  0.7824E-02  0.7824E-02  0.9915E-01  0.9915E-01
     -8.462  0.1002E-01  0.1002E-01  0.1002E+00  0.1002E+00
     -8.356  0.2019E-01  0.2019E-01  0.1024E+00  0.1024E+00
     -8.249  0.1944E-01  0.1944E-01  0.1044E+00  0.1044E+00
     -8.142  0.1175E-01  0.1175E-01  0.1057E+00  0.1057E+00
     -8.035  0.1531E-01  0.1530E-01  0.1073E+00  0.1073E+00
     -7.929  0.2504E-01  0.2504E-01  0.1100E+00  0.1100E+00
     -7.822  0.2457E-01  0.2457E-01  0.1126E+00  0.1126E+00
     -7.715  0.2071E-01  0.2071E-01  0.1148E+00  0.1148E+00
     -7.608  0.1090E-01  0.1090E-01  0.1160E+00  0.1160E+00
     -7.502  0.8185E-02  0.8185E-02  0.1169E+00  0.1169E+00
     -7.395  0.1826E-01  0.1826E-01  0.1188E+00  0.1188E+00
     -7.288  0.1831E-01  0.1831E-01  0.1208E+00  0.1208E+00
     -7.181  0.1202E-01  0.1202E-01  0.1221E+00  0.1221E+00
     -7.075  0.1083E-01  0.1083E-01  0.1232E+00  0.1232E+00
     -6.968  0.1670E-01  0.1670E-01  0.1250E+00  0.1250E+00
     -6.861  0.1811E-01  0.1811E-01  0.1269E+00  0.1269E+00
     -6.754  0.2008E-01  0.2008E-01  0.1291E+00  0.1291E+00
     -6.648  0.2110E-01  0.2110E-01  0.1313E+00  0.1313E+00
     -6.541  0.1811E-01  0.1811E-01  0.1333E+00  0.1333E+00
     -6.434  0.2044E-01  0.2044E-01  0.1354E+00  0.1354E+00
     -6.327  0.1728E-01  0.1728E-01  0.1373E+00  0.1373E+00
     -6.221  0.1811E-01  0.1811E-01  0.1392E+00  0.1392E+00
     -6.114  0.2622E-01  0.2622E-01  0.1420E+00  0.1420E+00
     -6.007  0.2198E-01  0.2198E-01  0.1444E+00  0.1444E+00
     -5.900  0.3120E-01  0.3120E-01  0.1477E+00  0.1477E+00
     -5.794  0.2948E-01  0.2948E-01  0.1508E+00  0.1508E+00
     -5.687  0.1653E-01  0.1653E-01  0.1526E+00  0.1526E+00
     -5.580  0.1827E-01  0.1827E-01  0.1546E+00  0.1546E+00
     -5.474  0.3181E-01  0.3181E-01  0.1580E+00  0.1580E+00
     -5.367  0.3567E-01  0.3567E-01  0.1618E+00  0.1618E+00
     -5.260  0.2445E-01  0.2446E-01  0.1644E+00  0.1644E+00
     -5.153  0.1731E-01  0.1731E-01  0.1662E+00  0.1662E+00
     -5.047  0.1054E-01  0.1054E-01  0.1673E+00  0.1673E+00
     -4.940  0.1020E-01  0.1020E-01  0.1684E+00  0.1684E+00
     -4.833  0.1420E-01  0.1420E-01  0.1700E+00  0.1700E+00
     -4.726  0.1141E-01  0.1141E-01  0.1712E+00  0.1712E+00
     -4.620  0.7989E-02  0.7989E-02  0.1720E+00  0.1720E+00
     -4.513  0.8874E-02  0.8874E-02  0.1730E+00  0.1730E+00
     -4.406  0.1583E-01  0.1583E-01  0.1747E+00  0.1747E+00
     -4.299  0.2219E-01  0.2219E-01  0.1770E+00  0.1770E+00
     -4.193  0.1852E-01  0.1852E-01  0.1790E+00  0.1790E+00
     -4.086  0.1895E-01  0.1895E-01  0.1810E+00  0.1810E+00
     -3.979  0.2198E-01  0.2198E-01  0.1834E+00  0.1834E+00
     -3.872  0.2449E-01  0.2449E-01  0.1860E+00  0.1860E+00
     -3.766  0.1848E-01  0.1848E-01  0.1880E+00  0.1880E+00
     -3.659  0.1809E-01  0.1809E-01  0.1899E+00  0.1899E+00
     -3.552  0.2039E-01  0.2039E-01  0.1921E+00  0.1921E+00
     -3.445  0.1618E-01  0.1618E-01  0.1938E+00  0.1938E+00
     -3.339  0.1350E-01  0.1350E-01  0.1952E+00  0.1952E+00
     -3.232  0.1285E-01  0.1285E-01  0.1966E+00  0.1966E+00
     -3.125  0.1735E-01  0.1735E-01  0.1985E+00  0.1985E+00
     -3.018  0.1834E-01  0.1834E-01  0.2004E+00  0.2004E+00
     -2.912  0.1208E-01  0.1208E-01  0.2017E+00  0.2017E+00
     -2.805  0.1213E-01  0.1213E-01  0.2030E+00  0.2030E+00
     -2.698  0.7671E-02  0.7671E-02  0.2038E+00  0.2038E+00
     -2.591  0.9706E-02  0.9706E-02  0.2049E+00  0.2049E+00
     -2.485  0.1891E-01  0.1891E-01  0.2069E+00  0.2069E+00
     -2.378  0.1528E-01  0.1528E-01  0.2085E+00  0.2085E+00
     -2.271  0.4323E-02  0.4323E-02  0.2090E+00  0.2090E+00
     -2.164  0.5002E-02  0.5002E-02  0.2095E+00  0.2095E+00
     -2.058  0.1058E-01  0.1058E-01  0.2106E+00  0.2106E+00
     -1.951  0.9933E-02  0.9933E-02  0.2117E+00  0.2117E+00
     -1.844  0.1108E-01  0.1108E-01  0.2129E+00  0.2129E+00
     -1.737  0.1128E-01  0.1128E-01  0.2141E+00  0.2141E+00
     -1.631  0.9644E-02  0.9644E-02  0.2151E+00  0.2151E+00
     -1.524  0.7277E-02  0.7277E-02  0.2159E+00  0.2159E+00
     -1.417  0.4305E-02  0.4305E-02  0.2163E+00  0.2163E+00
     -1.310  0.3995E-02  0.3995E-02  0.2168E+00  0.2168E+00
     -1.204  0.4070E-02  0.4070E-02  0.2172E+00  0.2172E+00
     -1.097  0.3757E-02  0.3757E-02  0.2176E+00  0.2176E+00
     -0.990  0.5789E-02  0.5789E-02  0.2182E+00  0.2182E+00
     -0.883  0.3131E-02  0.3131E-02  0.2186E+00  0.2186E+00
     -0.777  0.6592E-03  0.6592E-03  0.2186E+00  0.2186E+00
     -0.670  0.7740E-04  0.7740E-04  0.2186E+00  0.2186E+00
     -0.563  0.2536E-05  0.2536E-05  0.2186E+00  0.2186E+00
     -0.457  0.5954E-04  0.5954E-04  0.2186E+00  0.2186E+00
     -0.350  0.6517E-03  0.6517E-03  0.2187E+00  0.2187E+00
     -0.243  0.1053E-02  0.1053E-02  0.2188E+00  0.2188E+00
     -0.136  0.2596E-03  0.2596E-03  0.2189E+00  0.2189E+00
     -0.030  0.8953E-05  0.8953E-05  0.2189E+00  0.2189E+00
      0.077  0.1976E-06  0.1976E-06  0.2189E+00  0.2189E+00
      0.184  0.3366E-04  0.3366E-04  0.2189E+00  0.2189E+00
      0.291  0.8842E-03  0.8842E-03  0.2190E+00  0.2190E+00
      0.397  0.3238E-02  0.3238E-02  0.2193E+00  0.2193E+00
      0.504  0.1862E-02  0.1862E-02  0.2195E+00  0.2195E+00
      0.611  0.1131E-02  0.1131E-02  0.2196E+00  0.2196E+00
      0.718  0.3497E-02  0.3497E-02  0.2200E+00  0.2200E+00
      0.824  0.5550E-02  0.5550E-02  0.2206E+00  0.2206E+00
      0.931  0.1021E-01  0.1021E-01  0.2217E+00  0.2217E+00
      1.038  0.2425E-01  0.2425E-01  0.2243E+00  0.2243E+00
      1.145  0.1954E-01  0.1954E-01  0.2264E+00  0.2264E+00
      1.251  0.6182E-02  0.6182E-02  0.2270E+00  0.2270E+00
      1.358  0.3553E-02  0.3553E-02  0.2274E+00  0.2274E+00
      1.465  0.7740E-02  0.7740E-02  0.2282E+00  0.2282E+00
      1.572  0.1409E-01  0.1409E-01  0.2297E+00  0.2297E+00
      1.678  0.1967E-01  0.1967E-01  0.2318E+00  0.2318E+00
      1.785  0.1451E-01  0.1451E-01  0.2334E+00  0.2334E+00
      1.892  0.6656E-02  0.6656E-02  0.2341E+00  0.2341E+00
      1.999  0.7568E-02  0.7568E-02  0.2349E+00  0.2349E+00
      2.105  0.1007E-01  0.1007E-01  0.2360E+00  0.2360E+00
      2.212  0.6793E-02  0.6793E-02  0.2367E+00  0.2367E+00
      2.319  0.8596E-02  0.8596E-02  0.2376E+00  0.2376E+00
      2.426  0.7841E-02  0.7841E-02  0.2384E+00  0.2384E+00
      2.532  0.9895E-02  0.9895E-02  0.2395E+00  0.2395E+00
      2.639  0.1087E-01  0.1087E-01  0.2407E+00  0.2407E+00
      2.746  0.6701E-02  0.6701E-02  0.2414E+00  0.2414E+00
      2.853  0.4877E-02  0.4878E-02  0.2419E+00  0.2419E+00
      2.959  0.9662E-02  0.9666E-02  0.2429E+00  0.2429E+00
      3.066  0.1189E-01  0.1189E-01  0.2442E+00  0.2442E+00
      3.173  0.8056E-02  0.8057E-02  0.2451E+00  0.2451E+00
      3.280  0.1055E-01  0.1056E-01  0.2462E+00  0.2462E+00
      3.386  0.1033E-01  0.1032E-01  0.2473E+00  0.2473E+00
      3.493  0.9731E-02  0.9731E-02  0.2483E+00  0.2483E+00
      3.600  0.1624E-01  0.1625E-01  0.2501E+00  0.2501E+00
      3.707  0.2216E-01  0.2216E-01  0.2524E+00  0.2524E+00
      3.813  0.2488E-01  0.2488E-01  0.2551E+00  0.2551E+00
      3.920  0.2089E-01  0.2089E-01  0.2573E+00  0.2573E+00
      4.027  0.2410E-01  0.2410E-01  0.2599E+00  0.2599E+00
      4.134  0.2275E-01  0.2275E-01  0.2623E+00  0.2623E+00
      4.240  0.2572E-01  0.2572E-01  0.2651E+00  0.2651E+00
      4.347  0.2568E-01  0.2568E-01  0.2678E+00  0.2678E+00
      4.454  0.2376E-01  0.2376E-01  0.2703E+00  0.2703E+00
      4.560  0.2165E-01  0.2165E-01  0.2726E+00  0.2726E+00
      4.667  0.2118E-01  0.2119E-01  0.2749E+00  0.2749E+00
      4.774  0.2567E-01  0.2568E-01  0.2776E+00  0.2776E+00
      4.881  0.2438E-01  0.2438E-01  0.2802E+00  0.2802E+00
      4.987  0.2227E-01  0.2226E-01  0.2826E+00  0.2826E+00
      5.094  0.2545E-01  0.2546E-01  0.2853E+00  0.2853E+00
      5.201  0.2618E-01  0.2617E-01  0.2881E+00  0.2881E+00
      5.308  0.2372E-01  0.2372E-01  0.2907E+00  0.2907E+00
      5.414  0.2363E-01  0.2362E-01  0.2932E+00  0.2932E+00
      5.521  0.2361E-01  0.2362E-01  0.2957E+00  0.2957E+00
      5.628  0.2704E-01  0.2703E-01  0.2986E+00  0.2986E+00
      5.735  0.1837E-01  0.1838E-01  0.3006E+00  0.3006E+00
      5.841  0.2102E-01  0.2102E-01  0.3028E+00  0.3028E+00
      5.948  0.2025E-01  0.2023E-01  0.3050E+00  0.3050E+00
      6.055  0.2122E-01  0.2122E-01  0.3072E+00  0.3072E+00
      6.162  0.1715E-01  0.1716E-01  0.3091E+00  0.3091E+00
      6.268  0.1740E-01  0.1741E-01  0.3109E+00  0.3109E+00
      6.375  0.2267E-01  0.2267E-01  0.3133E+00  0.3133E+00
      6.482  0.2345E-01  0.2344E-01  0.3158E+00  0.3158E+00
      6.589  0.2515E-01  0.2515E-01  0.3185E+00  0.3185E+00
      6.695  0.2605E-01  0.2606E-01  0.3213E+00  0.3213E+00
      6.802  0.3203E-01  0.3204E-01  0.3247E+00  0.3247E+00
      6.909  0.2902E-01  0.2902E-01  0.3278E+00  0.3278E+00
      7.016  0.2640E-01  0.2640E-01  0.3306E+00  0.3306E+00
      7.122  0.2388E-01  0.2386E-01  0.3332E+00  0.3332E+00
      7.229  0.2136E-01  0.2136E-01  0.3355E+00  0.3355E+00
      7.336  0.1982E-01  0.1981E-01  0.3376E+00  0.3376E+00
      7.443  0.1855E-01  0.1858E-01  0.3396E+00  0.3396E+00
      7.549  0.2264E-01  0.2265E-01  0.3420E+00  0.3420E+00
      7.656  0.2387E-01  0.2386E-01  0.3445E+00  0.3445E+00
      7.763  0.2868E-01  0.2870E-01  0.3476E+00  0.3476E+00
      7.870  0.3645E-01  0.3646E-01  0.3515E+00  0.3515E+00
      7.976  0.2889E-01  0.2887E-01  0.3546E+00  0.3546E+00
      8.083  0.3052E-01  0.3052E-01  0.3578E+00  0.3578E+00
      8.190  0.3453E-01  0.3452E-01  0.3615E+00  0.3615E+00
      8.297  0.3203E-01  0.3202E-01  0.3649E+00  0.3649E+00
      8.403  0.3745E-01  0.3747E-01  0.3689E+00  0.3689E+00
      8.510  0.2946E-01  0.2944E-01  0.3721E+00  0.3721E+00
      8.617  0.1468E-01  0.1467E-01  0.3736E+00  0.3736E+00
      8.724  0.6254E-02  0.6249E-02  0.3743E+00  0.3743E+00
      8.830  0.3365E-02  0.3363E-02  0.3747E+00  0.3747E+00
      8.937  0.2600E-02  0.2600E-02  0.3749E+00  0.3749E+00
      9.044  0.5517E-03  0.5518E-03  0.3750E+00  0.3750E+00
      9.150  0.2043E-04  0.2044E-04  0.3750E+00  0.3750E+00
      9.257  0.1006E-06  0.1007E-06  0.3750E+00  0.3750E+00
      9.364  0.5759E-10  0.5765E-10  0.3750E+00  0.3750E+00
      9.471  0.3616E-14  0.3621E-14  0.3750E+00  0.3750E+00
      9.577  0.0000E+00  0.0000E+00  0.3750E+00  0.3750E+00
      9.684  0.0000E+00  0.0000E+00  0.3750E+00  0.3750E+00
      9.791  0.0000E+00  0.0000E+00  0.3750E+00  0.3750E+00
      9.898  0.0000E+00  0.0000E+00  0.3750E+00  0.3750E+00
     10.004  0.0000E+00  0.0000E+00  0.3750E+00  0.3750E+00
     10.111  0.0000E+00  0.0000E+00  0.3750E+00  0.3750E+00
     10.218  0.0000E+00  0.0000E+00  0.3750E+00  0.3750E+00
     10.325  0.0000E+00  0.0000E+00  0.3750E+00  0.3750E+00
