 ----------------------------------------------------
    OOO  PPPP  EEEEE N   N M   M PPPP
   O   O P   P E     NN  N MM MM P   P
   O   O PPPP  EEEEE N N N M M M PPPP   -- VERSION
   O   O P     E     N  NN M   M P
    OOO  P     EEEEE N   N M   M P
 ----------------------------------------------------
 running   48 mpi-ranks, with    1 threads/rank
 distrk:  each k-point on   48 cores,    1 groups
 distr:  one band on    1 cores,   48 groups
 vasp.6.3.2 27Jun22 (build Dec 22 2022 13:13:19) complex                        
  
 POSCAR found type information on POSCAR B C 
 POSCAR found :  2 types and      15 ions
 Reading from existing POTCAR
 -----------------------------------------------------------------------------
|                                                                             |
|           W    W    AA    RRRRR   N    N  II  N    N   GGGG   !!!           |
|           W    W   A  A   R    R  NN   N  II  NN   N  G    G  !!!           |
|           W    W  A    A  R    R  N N  N  II  N N  N  G       !!!           |
|           W WW W  AAAAAA  RRRRR   N  N N  II  N  N N  G  GGG   !            |
|           WW  WW  A    A  R   R   N   NN  II  N   NN  G    G                |
|           W    W  A    A  R    R  N    N  II  N    N   GGGG   !!!           |
|                                                                             |
|     You use a magnetic or noncollinear calculation, but did not specify     |
|     the initial magnetic moment with the MAGMOM tag. Note that a            |
|     default of 1 will be used for all atoms. This ferromagnetic setup       |
|     may break the symmetry of the crystal, in particular it may rule        |
|     out finding an antiferromagnetic solution. Thence, we recommend         |
|     setting the initial magnetic moment manually or verifying carefully     |
|     that this magnetic setup is desired.                                    |
|                                                                             |
 -----------------------------------------------------------------------------

 scaLAPACK will be used
 Reading from existing POTCAR
 LDA part: xc-table for Pade appr. of Perdew
 POSCAR found type information on POSCAR B C 
 POSCAR found :  2 types and      15 ions
 POSCAR, INCAR and KPOINTS ok, starting setup
 FFT: planning ... GRIDC
 FFT: planning ... GRID_SOFT
 FFT: planning ... GRID
 WAVECAR not read
 entering main loop
       N       E                     dE             d eps       ncg     rms          rms(c)
DAV:   1     0.202206422976E+03    0.20221E+03   -0.25707E+04 14208   0.859E+02
DAV:   2    -0.116426369222E+03   -0.31863E+03   -0.31699E+03 20304   0.163E+02
DAV:   3    -0.129377799101E+03   -0.12951E+02   -0.12926E+02 26544   0.429E+01
DAV:   4    -0.129402831926E+03   -0.25033E-01   -0.25030E-01 20976   0.183E+00
DAV:   5    -0.129402887984E+03   -0.56058E-04   -0.56058E-04 25680   0.833E-02    0.244E+01
DAV:   6    -0.920280808481E+02    0.37375E+02   -0.72119E+01 25824   0.255E+01    0.139E+01
DAV:   7    -0.100439051263E+03   -0.84110E+01   -0.98633E+00 21888   0.101E+01    0.809E+00
DAV:   8    -0.110466925268E+03   -0.10028E+02   -0.88850E+00 24048   0.899E+00    0.434E+00
DAV:   9    -0.117151151084E+03   -0.66842E+01   -0.38383E+00 19440   0.607E+00    0.277E+00
DAV:  10    -0.123458637042E+03   -0.63075E+01   -0.80587E+00 23952   0.703E+00    0.159E+00
DAV:  11    -0.125281111053E+03   -0.18225E+01   -0.29332E+00 24912   0.386E+00    0.997E-01
DAV:  12    -0.125435534817E+03   -0.15442E+00   -0.22086E-01 20016   0.134E+00    0.472E-01
DAV:  13    -0.125461790146E+03   -0.26255E-01   -0.22950E-02 17472   0.547E-01    0.190E-01
DAV:  14    -0.125484819112E+03   -0.23029E-01   -0.61133E-03 20640   0.282E-01    0.847E-02
DAV:  15    -0.125492587383E+03   -0.77683E-02   -0.31790E-03 19536   0.157E-01    0.446E-02
DAV:  16    -0.125494585272E+03   -0.19979E-02   -0.63737E-04 16368   0.805E-02    0.224E-02
DAV:  17    -0.125495855522E+03   -0.12702E-02   -0.17555E-04 15456   0.515E-02    0.173E-02
DAV:  18    -0.125496552439E+03   -0.69692E-03   -0.83566E-05 17088   0.373E-02    0.125E-02
DAV:  19    -0.125496997910E+03   -0.44547E-03   -0.40791E-05 19152   0.241E-02    0.734E-03
DAV:  20    -0.125497044241E+03   -0.46331E-04   -0.21625E-05 22896   0.175E-02    0.448E-03
DAV:  21    -0.125497065748E+03   -0.21507E-04   -0.60370E-06 20256   0.947E-03    0.221E-03
DAV:  22    -0.125497087343E+03   -0.21595E-04   -0.21757E-06 21792   0.550E-03    0.139E-03
DAV:  23    -0.125497103275E+03   -0.15932E-04   -0.17241E-06 20976   0.400E-03    0.729E-04
DAV:  24    -0.125497106491E+03   -0.32157E-05   -0.34071E-07 23088   0.214E-03    0.381E-04
DAV:  25    -0.125497107452E+03   -0.96141E-06   -0.11739E-07 22560   0.114E-03
   1 F= -.12708443E+03 E0= -.12708364E+03  d E =-.127084E+03  mag=    -0.0000
 curvature:   0.00 expect dE= 0.000E+00 dE for cont linesearch  0.000E+00
 trial: gam= 0.00000 g(F)=  0.288E-01 g(S)=  0.000E+00 ort = 0.000E+00 (trialstep = 0.100E+01)
 search vector abs. value=  0.288E-01
 bond charge predicted
       N       E                     dE             d eps       ncg     rms          rms(c)
DAV:   1    -0.125507121855E+03   -0.10015E-01   -0.30992E+00 14208   0.540E+00    0.479E-01
DAV:   2    -0.125498931047E+03    0.81908E-02   -0.62358E-02 26016   0.699E-01    0.211E-01
DAV:   3    -0.125498021163E+03    0.90988E-03   -0.50924E-03 20736   0.196E-01    0.828E-02
DAV:   4    -0.125497983250E+03    0.37913E-04   -0.59144E-04 27072   0.680E-02    0.215E-02
DAV:   5    -0.125497986530E+03   -0.32793E-05   -0.16746E-05 24624   0.126E-02    0.700E-03
DAV:   6    -0.125497986541E+03   -0.11160E-07   -0.38979E-06 22944   0.566E-03
   2 F= -.12708471E+03 E0= -.12708393E+03  d E =-.281347E-03  mag=    -0.0000
 trial-energy change:   -0.000281  1 .order   -0.000339   -0.028756    0.028078
 step:   0.5044(harm=  0.5060)  dis= 0.00757  next Energy=  -127.091671 (dE=-0.725E-02)
 bond charge predicted
       N       E                     dE             d eps       ncg     rms          rms(c)
DAV:   1    -0.125506935973E+03   -0.89494E-02   -0.76142E-01 14208   0.267E+00    0.238E-01
DAV:   2    -0.125504877610E+03    0.20584E-02   -0.15254E-02 25920   0.343E-01    0.104E-01
DAV:   3    -0.125504661605E+03    0.21600E-03   -0.12332E-03 23184   0.972E-02    0.416E-02
DAV:   4    -0.125504652686E+03    0.89192E-05   -0.14042E-04 23376   0.330E-02    0.104E-02
DAV:   5    -0.125504653407E+03   -0.72081E-06   -0.46049E-06 22128   0.658E-03
   3 F= -.12709167E+03 E0= -.12709088E+03  d E =-.724070E-02  mag=    -0.0000
 curvature:  -0.25 expect dE=-0.209E-02 dE for cont linesearch -0.491E-07
 trial: gam= 0.28404 g(F)=  0.824E-02 g(S)=  0.000E+00 ort = 0.747E-04 (trialstep = 0.901E+00)
 search vector abs. value=  0.106E-01
 bond charge predicted
       N       E                     dE             d eps       ncg     rms          rms(c)
DAV:   1    -0.125511295364E+03   -0.66427E-02   -0.32369E-01 14208   0.196E+00    0.118E-01
DAV:   2    -0.125511358557E+03   -0.63192E-04   -0.19983E-03 27936   0.177E-01    0.693E-02
DAV:   3    -0.125511356371E+03    0.21854E-05   -0.19713E-04 22176   0.490E-02    0.154E-02
DAV:   4    -0.125511357419E+03   -0.10472E-05   -0.25883E-05 26784   0.188E-02    0.606E-03
DAV:   5    -0.125511357771E+03   -0.35222E-06   -0.98444E-07 21792   0.422E-03
   4 F= -.12709821E+03 E0= -.12709743E+03  d E =-.654549E-02  mag=    -0.0000
 ZBRENT: can't locate minimum, use default step
 trial-energy change:   -0.006545  1 .order   -0.006552   -0.007445   -0.005660
 step:   3.6036(harm=  3.7582)  dis= 0.02242  next Energy=  -127.107195 (dE=-0.155E-01)
 bond charge predicted
       N       E                     dE             d eps       ncg     rms          rms(c)
DAV:   1    -0.125520596000E+03   -0.92386E-02   -0.29311E+00 14208   0.590E+00    0.353E-01
DAV:   2    -0.125521309954E+03   -0.71395E-03   -0.18488E-02 26976   0.536E-01    0.207E-01
DAV:   3    -0.125521276756E+03    0.33197E-04   -0.18219E-03 21360   0.148E-01    0.460E-02
DAV:   4    -0.125521287240E+03   -0.10484E-04   -0.23396E-04 27696   0.562E-02    0.182E-02
DAV:   5    -0.125521290704E+03   -0.34644E-05   -0.84121E-06 21936   0.123E-02    0.830E-03
DAV:   6    -0.125521290872E+03   -0.16757E-06   -0.57440E-06 24912   0.867E-03
   5 F= -.12710766E+03 E0= -.12710688E+03  d E =-.159933E-01  mag=     0.0000
 curvature:  -2.40 expect dE=-0.772E-01 dE for cont linesearch -0.157E-03
 trial: gam= 3.87614 g(F)=  0.321E-01 g(S)=  0.000E+00 ort = 0.831E-03 (trialstep = 0.772E-01)
 search vector abs. value=  0.198E+00
 bond charge predicted
       N       E                     dE             d eps       ncg     rms          rms(c)
DAV:   1    -0.125523826624E+03   -0.25359E-02   -0.54475E-02 14400   0.898E-01    0.524E-02
DAV:   2    -0.125523829464E+03   -0.28400E-05   -0.48713E-04 26784   0.957E-02    0.292E-02
DAV:   3    -0.125523823566E+03    0.58985E-05   -0.50785E-05 21552   0.270E-02    0.902E-03
DAV:   4    -0.125523824019E+03   -0.45360E-06   -0.80962E-06 26064   0.106E-02
   6 F= -.12711013E+03 E0= -.12710935E+03  d E =-.247509E-02  mag=     0.0000
 ZBRENT: can't locate minimum, use default step
 trial-energy change:   -0.002475  1 .order   -0.002475   -0.002730   -0.002220
 step:   0.3090(harm=  0.4139)  dis= 0.00666  next Energy=  -127.114972 (dE=-0.731E-02)
 bond charge predicted
       N       E                     dE             d eps       ncg     rms          rms(c)
DAV:   1    -0.125528446987E+03   -0.46234E-02   -0.49097E-01 14304   0.269E+00    0.157E-01
DAV:   2    -0.125528470186E+03   -0.23199E-04   -0.42814E-03 27168   0.284E-01    0.873E-02
DAV:   3    -0.125528418795E+03    0.51391E-04   -0.44366E-04 21072   0.799E-02    0.267E-02
DAV:   4    -0.125528420836E+03   -0.20405E-05   -0.69629E-05 26496   0.306E-02    0.116E-02
DAV:   5    -0.125528422159E+03   -0.13229E-05   -0.24737E-06 19056   0.664E-03    0.468E-03
DAV:   6    -0.125528422020E+03    0.13853E-06   -0.12571E-06 25824   0.442E-03
   7 F= -.12711454E+03 E0= -.12711376E+03  d E =-.687871E-02  mag=     0.0000
 curvature:  -1.05 expect dE=-0.703E-02 dE for cont linesearch -0.461E-03
 ZBRENT: extrapolating
 opt :   0.4204  next Energy=  -127.115059 (dE=-0.740E-02)
 bond charge predicted
       N       E                     dE             d eps       ncg     rms          rms(c)
DAV:   1    -0.125529060634E+03   -0.63848E-03   -0.11384E-01 14304   0.130E+00    0.752E-02
DAV:   2    -0.125529064986E+03   -0.43519E-05   -0.10098E-03 25440   0.138E-01    0.419E-02
DAV:   3    -0.125529053448E+03    0.11538E-04   -0.10562E-04 21120   0.390E-02    0.129E-02
DAV:   4    -0.125529054092E+03   -0.64423E-06   -0.16365E-05 23616   0.149E-02    0.558E-03
DAV:   5    -0.125529054454E+03   -0.36152E-06   -0.70432E-07 20496   0.347E-03
   8 F= -.12711507E+03 E0= -.12711429E+03  d E =-.740662E-02  mag=     0.0000
 curvature:  -1.18 expect dE=-0.150E-01 dE for cont linesearch -0.847E-07
 trial: gam= 0.58474 g(F)=  0.127E-01 g(S)=  0.000E+00 ort = 0.119E-03 (trialstep = 0.146E+00)
 search vector abs. value=  0.805E-01
 bond charge predicted
       N       E                     dE             d eps       ncg     rms          rms(c)
DAV:   1    -0.125530914910E+03   -0.18608E-02   -0.70945E-02 14208   0.878E-01    0.504E-02
DAV:   2    -0.125530929882E+03   -0.14972E-04   -0.38667E-04 23088   0.717E-02    0.301E-02
DAV:   3    -0.125530928345E+03    0.15362E-05   -0.46038E-05 20112   0.210E-02    0.490E-03
DAV:   4    -0.125530928501E+03   -0.15535E-06   -0.30929E-06 24144   0.684E-03
   9 F= -.12711681E+03 E0= -.12711603E+03  d E =-.174857E-02  mag=     0.0000
 ZBRENT: can't locate minimum, use default step
 trial-energy change:   -0.001749  1 .order   -0.001751   -0.001866   -0.001636
 step:   0.5835(harm=  1.1832)  dis= 0.00528  next Energy=  -127.122633 (dE=-0.757E-02)
 bond charge predicted
       N       E                     dE             d eps       ncg     rms          rms(c)
DAV:   1    -0.125535106615E+03   -0.41783E-02   -0.63911E-01 14208   0.263E+00    0.150E-01
DAV:   2    -0.125535252757E+03   -0.14614E-03   -0.33811E-03 26976   0.213E-01    0.899E-02
DAV:   3    -0.125535232877E+03    0.19880E-04   -0.41104E-04 21312   0.616E-02    0.139E-02
DAV:   4    -0.125535233173E+03   -0.29590E-06   -0.24427E-05 23424   0.195E-02    0.730E-03
DAV:   5    -0.125535231660E+03    0.15122E-05   -0.32998E-06 22080   0.695E-03    0.276E-03
DAV:   6    -0.125535231206E+03    0.45424E-06   -0.10508E-06 24624   0.366E-03
  10 F= -.12712074E+03 E0= -.12711996E+03  d E =-.567813E-02  mag=     0.0000
 curvature:  -2.48 expect dE=-0.194E-01 dE for cont linesearch -0.145E-02
 ZBRENT: increasing intervall
 opt :   1.4588  next Energy=  -127.122960 (dE=-0.789E-02)
 bond charge predicted
       N       E                     dE             d eps       ncg     rms          rms(c)
DAV:   1    -0.125538112717E+03   -0.28811E-02   -0.25586E+00 14208   0.525E+00    0.297E-01
DAV:   2    -0.125538708707E+03   -0.59599E-03   -0.12988E-02 26784   0.420E-01    0.178E-01
DAV:   3    -0.125538630350E+03    0.78357E-04   -0.16696E-03 22032   0.124E-01    0.258E-02
DAV:   4    -0.125538629690E+03    0.66010E-06   -0.94019E-05 22992   0.386E-02    0.143E-02
DAV:   5    -0.125538625090E+03    0.45997E-05   -0.13039E-05 24048   0.140E-02    0.456E-03
DAV:   6    -0.125538624189E+03    0.90116E-06   -0.40722E-06 24720   0.734E-03
  11 F= -.12712341E+03 E0= -.12712264E+03  d E =-.833889E-02  mag=     0.0000
 curvature:  -3.78 expect dE=-0.773E-01 dE for cont linesearch -0.105E-04
 trial: gam= 1.55607 g(F)=  0.205E-01 g(S)=  0.000E+00 ort =-0.473E-03 (trialstep = 0.154E+00)
 search vector abs. value=  0.214E+00
 bond charge predicted
       N       E                     dE             d eps       ncg     rms          rms(c)
DAV:   1    -0.125540997649E+03   -0.23726E-02   -0.23272E-01 14208   0.183E+00    0.962E-02
DAV:   2    -0.125541044296E+03   -0.46648E-04   -0.17597E-03 26208   0.178E-01    0.565E-02
DAV:   3    -0.125541026261E+03    0.18036E-04   -0.19779E-04 21408   0.518E-02    0.154E-02
DAV:   4    -0.125541027191E+03   -0.92982E-06   -0.29322E-05 24576   0.202E-02    0.716E-03
DAV:   5    -0.125541028764E+03   -0.15730E-05   -0.13321E-06 21456   0.494E-03    0.333E-03
DAV:   6    -0.125541030080E+03   -0.13161E-05   -0.45178E-07 21168   0.278E-03    0.163E-03
DAV:   7    -0.125541031502E+03   -0.14224E-05   -0.30191E-07 20304   0.213E-03    0.581E-04
DAV:   8    -0.125541034129E+03   -0.26263E-05   -0.49541E-07 19680   0.208E-03    0.501E-04
DAV:   9    -0.125541035877E+03   -0.17481E-05   -0.17833E-07 22128   0.119E-03    0.226E-04
DAV:  10    -0.125541036558E+03   -0.68115E-06   -0.28553E-08 22080   0.556E-04
  12 F= -.12712563E+03 E0= -.12712485E+03  d E =-.222437E-02  mag=     0.0000
 trial-energy change:   -0.002224  1 .order   -0.002215   -0.003033   -0.001398
 step:   0.2777(harm=  0.2852)  dis= 0.00394  next Energy=  -127.126198 (dE=-0.279E-02)
 bond charge predicted
       N       E                     dE             d eps       ncg     rms          rms(c)
DAV:   1    -0.125541778577E+03   -0.74270E-03   -0.15154E-01 14208   0.148E+00    0.775E-02
DAV:   2    -0.125541809232E+03   -0.30655E-04   -0.11364E-03 27552   0.143E-01    0.456E-02
DAV:   3    -0.125541799100E+03    0.10131E-04   -0.12456E-04 17376   0.412E-02    0.121E-02
DAV:   4    -0.125541799417E+03   -0.31655E-06   -0.19591E-05 25536   0.162E-02    0.564E-03
DAV:   5    -0.125541799673E+03   -0.25620E-06   -0.61506E-07 21792   0.329E-03
  13 F= -.12712623E+03 E0= -.12712545E+03  d E =-.282845E-02  mag=    -0.0000
 curvature:  -1.54 expect dE=-0.323E-02 dE for cont linesearch -0.284E-05
 ZBRENT: extrapolating
 opt :   0.2869  next Energy=  -127.126237 (dE=-0.283E-02)
 bond charge predicted
       N       E                     dE             d eps       ncg     rms          rms(c)
DAV:   1    -0.125541814500E+03   -0.15083E-04   -0.84678E-04 15744   0.110E-01    0.582E-03
DAV:   2    -0.125541814789E+03   -0.28861E-06   -0.67250E-06 26496   0.110E-02
