Lattice                                 
           1
     4.196759    2.423000    0.000000
    -4.196759    2.423000    0.000000
     0.000000    0.000000   15.000000
   B    C 
     4    11
Direct configuration=     1
   0.00415361  0.00267210  0.12034134
   0.35695335  0.00285503  0.09748893
   0.00423858  0.35550699  0.09749256
   0.65142295  0.65006557  0.09747688
   0.32808646  0.32671938  0.10030508
   0.68027775  0.00278085  0.10027562
   0.00416530  0.67883808  0.10026559
   0.11111044  0.38888856  0.33726667
   0.27777744  0.22222156  0.33726667
   0.11111044  0.88888856  0.33726667
   0.27777744  0.72222156  0.33726667
   0.61111044  0.38888856  0.33726667
   0.77777744  0.22222156  0.33726667
   0.61111044  0.88888856  0.33726667
   0.77777744  0.72222156  0.33726667
Direct configuration=     2
   0.00416788  0.00269624  0.11905679
   0.35572726  0.00279194  0.09782232
   0.00418917  0.35451031  0.09787879
   0.65253846  0.65107208  0.09784928
   0.32476290  0.32323407  0.10031274
   0.68386817  0.00279468  0.10032664
   0.00422509  0.68218228  0.10028152
   0.11103920  0.38899153  0.33727979
   0.27791538  0.22234582  0.33735359
   0.11129729  0.88901902  0.33729083
   0.27796852  0.72221853  0.33720529
   0.61107139  0.38883644  0.33720038
   0.77773651  0.22226760  0.33728919
   0.61092660  0.88883937  0.33734256
   0.77741573  0.72207854  0.33728962
Direct configuration=     3
   0.00416081  0.00268428  0.11969336
   0.35633486  0.00282320  0.09765711
   0.00421365  0.35500422  0.09768740
   0.65198566  0.65057330  0.09766473
   0.32640991  0.32496123  0.10030894
   0.68208892  0.00278783  0.10030136
   0.00419546  0.68052504  0.10027363
   0.11107451  0.38894050  0.33727329
   0.27784703  0.22228424  0.33731051
   0.11120470  0.88895437  0.33727885
   0.27787383  0.72222003  0.33723571
   0.61109074  0.38886226  0.33723323
   0.77775679  0.22224478  0.33727803
   0.61101771  0.88886375  0.33730495
   0.77759498  0.72214941  0.33727824
Direct configuration=     4
   0.00417036  0.00272097  0.11853333
   0.35683907  0.00275683  0.09797677
   0.00420939  0.35550671  0.09806102
   0.65154792  0.65000231  0.09802372
   0.32657483  0.32500039  0.10028286
   0.68201537  0.00278321  0.10031732
   0.00424015  0.68040840  0.10025569
   0.11109380  0.38887794  0.33728925
   0.27767620  0.22224788  0.33738475
   0.11097606  0.88885798  0.33730673
   0.27765699  0.72226550  0.33719021
   0.61108957  0.38892475  0.33718642
   0.77773671  0.22222547  0.33729882
   0.61115201  0.88897330  0.33737124
   0.77787112  0.72232681  0.33730120
Direct configuration=     5
   0.00419901  0.00283106  0.11505327
   0.35835170  0.00255772  0.09893574
   0.00419660  0.35701416  0.09918191
   0.65023467  0.64828936  0.09910067
   0.32706960  0.32511787  0.10020461
   0.68179474  0.00276936  0.10036519
   0.00437421  0.68005846  0.10020189
   0.11115167  0.38869025  0.33733713
   0.27716373  0.22213880  0.33760747
   0.11029015  0.88856880  0.33739034
   0.27700645  0.72240190  0.33705373
   0.61108606  0.38911221  0.33704598
   0.77767647  0.22216754  0.33736121
   0.61155494  0.88930195  0.33757012
   0.77869956  0.72285901  0.33737008
Direct configuration=     6
   0.00420539  0.00283519  0.11461562
   0.35848432  0.00253986  0.09903214
   0.00420776  0.35712549  0.09929283
   0.65013497  0.64815113  0.09920756
   0.32717354  0.32519256  0.10022344
   0.68170885  0.00275642  0.10039635
   0.00438557  0.67996795  0.10022340
   0.11109743  0.38878666  0.33734290
   0.27728502  0.22217087  0.33762252
   0.11048108  0.88871701  0.33739979
   0.27717339  0.72239286  0.33705102
   0.61104677  0.38909522  0.33704383
   0.77767408  0.22222077  0.33736712
   0.61138812  0.88921328  0.33758378
   0.77840326  0.72271317  0.33737706
Direct configuration=     7
   0.00422452  0.00284759  0.11330270
   0.35888218  0.00248630  0.09932133
   0.00424125  0.35745947  0.09962559
   0.64983587  0.64773645  0.09952823
   0.32748535  0.32541663  0.10027993
   0.68145120  0.00271762  0.10048983
   0.00441966  0.67969641  0.10028793
   0.11093470  0.38907589  0.33736019
   0.27764890  0.22226709  0.33766766
   0.11105387  0.88916162  0.33742812
   0.27767419  0.72236575  0.33704289
   0.61092888  0.38904427  0.33703736
   0.77766694  0.22238045  0.33738485
   0.61088765  0.88894727  0.33762475
   0.77751438  0.72227564  0.33739798
Direct configuration=     8
   0.00423372  0.00285355  0.11267117
   0.35907356  0.00246054  0.09946043
   0.00425735  0.35762012  0.09978565
   0.64969201  0.64753699  0.09968247
   0.32763534  0.32552441  0.10030710
   0.68132726  0.00269895  0.10053480
   0.00443606  0.67956580  0.10031897
   0.11085643  0.38921501  0.33736851
   0.27782393  0.22231337  0.33768938
   0.11132939  0.88937549  0.33744175
   0.27791508  0.72235270  0.33703897
   0.61087218  0.38901976  0.33703425
   0.77766350  0.22245726  0.33739338
   0.61064693  0.88881931  0.33764446
   0.77708683  0.72206519  0.33740804
Direct configuration=     9
   0.00425040  0.00283490  0.11210632
   0.35907287  0.00245268  0.09953964
   0.00429257  0.35757506  0.09986990
   0.64973330  0.64755634  0.09976506
   0.32772541  0.32560906  0.10038768
   0.68124392  0.00266397  0.10062275
   0.00444321  0.67947511  0.10040151
   0.11085770  0.38920462  0.33737536
   0.27783103  0.22242280  0.33768266
   0.11129832  0.88931707  0.33745037
   0.27791748  0.72237240  0.33706514
   0.61086809  0.38897996  0.33706250
   0.77760918  0.22245468  0.33739743
   0.61064307  0.88885980  0.33763897
   0.77706301  0.72209999  0.33741405
Direct configuration=    10
   0.00430044  0.00277896  0.11041177
   0.35907083  0.00242909  0.09977725
   0.00439823  0.35743989  0.10012264
   0.64985719  0.64761441  0.10001281
   0.32799560  0.32586301  0.10062943
   0.68099390  0.00255902  0.10088659
   0.00446467  0.67920303  0.10064915
   0.11086151  0.38917346  0.33739590
   0.27785232  0.22275109  0.33766252
   0.11120512  0.88914180  0.33747625
   0.27792466  0.72243148  0.33714365
   0.61085583  0.38886057  0.33714724
   0.77744621  0.22244695  0.33740956
   0.61063150  0.88898127  0.33762250
   0.77699156  0.72220439  0.33743208
Direct configuration=    11
   0.00440053  0.00266708  0.10702268
   0.35906673  0.00238192  0.10025247
   0.00460954  0.35716956  0.10062811
   0.65010496  0.64773054  0.10050832
   0.32853600  0.32637091  0.10111293
   0.68049386  0.00234913  0.10141427
   0.00450758  0.67865888  0.10114442
   0.11086913  0.38911115  0.33743698
   0.27789491  0.22340767  0.33762224
   0.11101872  0.88879128  0.33752800
   0.27793903  0.72254965  0.33730067
   0.61083130  0.38862179  0.33731672
   0.77712026  0.22243149  0.33743382
   0.61060835  0.88922421  0.33758955
   0.77684866  0.72241319  0.33746813
Direct configuration=    12
   0.00444221  0.00262063  0.10607558
   0.35908689  0.00237713  0.10039797
   0.00465812  0.35715757  0.10076672
   0.65011321  0.64772665  0.10064876
   0.32856613  0.32638333  0.10124640
   0.68051164  0.00230818  0.10154910
   0.00453115  0.67858728  0.10127978
   0.11078967  0.38915941  0.33744759
   0.27763290  0.22292744  0.33760525
   0.11084944  0.88900733  0.33753919
   0.27766434  0.72249984  0.33735593
   0.61080766  0.38894195  0.33737169
   0.77728735  0.22242699  0.33744303
   0.61072567  0.88928652  0.33757283
   0.77718318  0.72246820  0.33747952
Direct configuration=    13
   0.00447583  0.00258316  0.10531164
   0.35910315  0.00237327  0.10051533
   0.00469731  0.35714789  0.10087852
   0.65011987  0.64772351  0.10076205
   0.32859042  0.32639334  0.10135407
   0.68052598  0.00227516  0.10165784
   0.00455017  0.67852953  0.10138896
   0.11072557  0.38919834  0.33745615
   0.27742155  0.22254007  0.33759154
   0.11071290  0.88918160  0.33754822
   0.27744278  0.72245966  0.33740050
   0.61078859  0.38920020  0.33741602
   0.77742213  0.22242336  0.33745045
   0.61082030  0.88933678  0.33755935
   0.77745301  0.72251257  0.33748870
Direct configuration=    14
   0.00447832  0.00258038  0.10525493
   0.35910436  0.00237298  0.10052405
   0.00470022  0.35714717  0.10088682
   0.65012037  0.64772327  0.10077046
   0.32859223  0.32639408  0.10136206
   0.68052704  0.00227271  0.10166592
   0.00455158  0.67852525  0.10139707
   0.11072081  0.38920123  0.33745678
   0.27740586  0.22251132  0.33759052
   0.11070276  0.88919453  0.33754889
   0.27742634  0.72245668  0.33740380
   0.61078718  0.38921937  0.33741931
   0.77743214  0.22242309  0.33745100
   0.61082732  0.88934051  0.33755835
   0.77747303  0.72251587  0.33748938
Direct configuration=    15
   0.00449352  0.00256059  0.10511265
   0.35918768  0.00237609  0.10057841
   0.00468875  0.35724172  0.10092336
   0.65001606  0.64763547  0.10081244
   0.32848586  0.32626579  0.10136141
   0.68067792  0.00229412  0.10165233
   0.00456900  0.67860292  0.10139554
   0.11073181  0.38919065  0.33745842
   0.27738996  0.22245450  0.33758890
   0.11075854  0.88924650  0.33754763
   0.27742095  0.72252609  0.33741615
   0.61075601  0.38922199  0.33742726
   0.77745172  0.22251849  0.33745655
   0.61077591  0.88920930  0.33755469
   0.77744586  0.72253422  0.33749360
Direct configuration=    16
   0.00452196  0.00252356  0.10484648
   0.35934355  0.00238191  0.10068011
   0.00466730  0.35741857  0.10099170
   0.64982094  0.64747122  0.10089098
   0.32828688  0.32602581  0.10136019
   0.68096016  0.00233417  0.10162692
   0.00460158  0.67874823  0.10139268
   0.11075238  0.38917086  0.33746149
   0.27736021  0.22234822  0.33758586
   0.11086289  0.88934371  0.33754528
   0.27741087  0.72265593  0.33743926
   0.61069771  0.38922689  0.33744211
   0.77748836  0.22269694  0.33746694
   0.61067976  0.88896385  0.33754784
   0.77739502  0.72256856  0.33750149
Direct configuration=    17
   0.00453653  0.00248685  0.10468373
   0.35952782  0.00238323  0.10077240
   0.00464288  0.35755897  0.10104716
   0.64963677  0.64730821  0.10095766
   0.32819444  0.32589556  0.10134094
   0.68110895  0.00237466  0.10157828
   0.00462638  0.67883319  0.10137134
   0.11076617  0.38921132  0.33746541
   0.27740983  0.22248600  0.33758637
   0.11081856  0.88928582  0.33754320
   0.27743921  0.72261016  0.33745254
   0.61069440  0.38920216  0.33744937
   0.77740945  0.22260633  0.33747639
   0.61067834  0.88909363  0.33754714
   0.77735982  0.72254233  0.33750742
Direct configuration=    18
   0.00454891  0.00245568  0.10454551
   0.35968431  0.00238436  0.10085078
   0.00462215  0.35767821  0.10109426
   0.64948037  0.64716978  0.10101428
   0.32811594  0.32578495  0.10132459
   0.68123530  0.00240904  0.10153698
   0.00464744  0.67890534  0.10135322
   0.11077788  0.38924568  0.33746873
   0.27745197  0.22260302  0.33758680
   0.11078091  0.88923666  0.33754143
   0.27746328  0.72257129  0.33746382
   0.61069160  0.38918116  0.33745552
   0.77734244  0.22252937  0.33748441
   0.61067713  0.88920385  0.33754654
   0.77732993  0.72252005  0.33751245
Direct configuration=    19
   0.00454790  0.00243340  0.10447491
   0.35975315  0.00238051  0.10089848
   0.00461794  0.35765890  0.10111739
   0.64945917  0.64714158  0.10104482
   0.32820751  0.32586158  0.10131464
   0.68114828  0.00241572  0.10150399
   0.00465074  0.67885078  0.10134174
   0.11070719  0.38922703  0.33747405
   0.27740161  0.22256833  0.33758972
   0.11074519  0.88925052  0.33754318
   0.27743159  0.72255282  0.33746367
   0.61072319  0.38920703  0.33745652
   0.77738379  0.22253172  0.33748881
   0.61072072  0.88925320  0.33755364
   0.77735158  0.72254531  0.33751377
Direct configuration=    20
   0.00454716  0.00241709  0.10442323
   0.35980354  0.00237769  0.10093340
   0.00461486  0.35764476  0.10113432
   0.64944365  0.64712094  0.10106717
   0.32827454  0.32591768  0.10130736
   0.68108459  0.00242061  0.10147983
   0.00465315  0.67881085  0.10133334
   0.11065544  0.38921338  0.33747794
   0.27736475  0.22254295  0.33759186
   0.11071905  0.88926065  0.33754446
   0.27740839  0.72253930  0.33746356
   0.61074631  0.38922596  0.33745725
   0.77741407  0.22253344  0.33749203
   0.61075263  0.88928933  0.33755884
   0.77736742  0.72256380  0.33751474
Direct configuration=    21
   0.00455506  0.00240072  0.10434757
   0.35977378  0.00237543  0.10097489
   0.00462129  0.35756189  0.10114929
   0.64951222  0.64717204  0.10109014
   0.32834645  0.32597693  0.10130606
   0.68102517  0.00241344  0.10145055
   0.00465450  0.67875008  0.10133020
   0.11068955  0.38922162  0.33748502
   0.27737103  0.22254774  0.33759720
   0.11074581  0.88927572  0.33754819
   0.27740837  0.72259213  0.33746038
   0.61070939  0.38921914  0.33745704
   0.77739097  0.22258356  0.33749685
   0.61070262  0.88921369  0.33757010
   0.77734337  0.72257432  0.33751586
Direct configuration=    22
   0.00455984  0.00239081  0.10430176
   0.35975576  0.00237406  0.10100001
   0.00462518  0.35751171  0.10115835
   0.64955373  0.64720298  0.10110405
   0.32838999  0.32601280  0.10130527
   0.68098918  0.00240910  0.10143282
   0.00465532  0.67871328  0.10132830
   0.11071021  0.38922661  0.33748931
   0.27737483  0.22255063  0.33760044
   0.11076201  0.88928483  0.33755044
   0.27740835  0.72262413  0.33745845
   0.61068703  0.38921501  0.33745691
   0.77737698  0.22261392  0.33749977
   0.61067233  0.88916789  0.33757691
   0.77732881  0.72258069  0.33751654
Direct configuration=    23
   0.00458250  0.00238147  0.10420437
   0.35966268  0.00237236  0.10103551
   0.00464150  0.35742211  0.10116626
   0.64966227  0.64728592  0.10112025
   0.32839120  0.32599701  0.10131606
   0.68102100  0.00239014  0.10141046
   0.00466176  0.67868308  0.10133687
   0.11072401  0.38926953  0.33749705
   0.27738586  0.22257669  0.33760861
   0.11074199  0.88929594  0.33755519
   0.27740419  0.72260982  0.33745629
   0.61066112  0.38923626  0.33745667
   0.77733942  0.22258097  0.33750664
   0.61065223  0.88921501  0.33758968
   0.77731783  0.72256213  0.33751942
Direct configuration=    24
   0.00459727  0.00237539  0.10414094
   0.35960204  0.00237124  0.10105864
   0.00465213  0.35736374  0.10117142
   0.64973298  0.64733996  0.10113080
   0.32839199  0.32598673  0.10132309
   0.68104172  0.00237780  0.10139589
   0.00466595  0.67866341  0.10134246
   0.11073300  0.38929749  0.33750210
   0.27739304  0.22259367  0.33761394
   0.11072895  0.88930317  0.33755828
   0.27740148  0.72260050  0.33745488
   0.61064424  0.38925010  0.33745652
   0.77731495  0.22255951  0.33751111
   0.61063914  0.88924571  0.33759800
   0.77731068  0.72255004  0.33752129
Direct configuration=    25
   0.00462515  0.00236868  0.10401746
   0.35957859  0.00236038  0.10108377
   0.00467616  0.35734173  0.10117351
   0.64977777  0.64734706  0.10113971
   0.32838086  0.32594806  0.10134624
   0.68109056  0.00235040  0.10138489
   0.00468156  0.67864996  0.10136340
   0.11064589  0.38926151  0.33750931
   0.27733766  0.22260576  0.33762430
   0.11069275  0.88929909  0.33756333
   0.27737083  0.72261122  0.33745811
   0.61067341  0.38925083  0.33745845
   0.77734329  0.22259534  0.33752067
   0.61067222  0.88928437  0.33760866
   0.77730285  0.72260405  0.33752751
Direct configuration=    26
   0.00464300  0.00236438  0.10393845
   0.35956358  0.00235343  0.10109985
   0.00469153  0.35732765  0.10117485
   0.64980644  0.64735160  0.10114542
   0.32837373  0.32592332  0.10136106
   0.68112182  0.00233287  0.10137785
   0.00469154  0.67864136  0.10137680
   0.11059015  0.38923848  0.33751392
   0.27730222  0.22261350  0.33763094
   0.11066958  0.88929649  0.33756656
   0.27735122  0.72261808  0.33746019
   0.61069208  0.38925129  0.33745968
   0.77736142  0.22261826  0.33752678
   0.61069338  0.88930911  0.33761548
   0.77729784  0.72263861  0.33753148
Direct configuration=    27
   0.00465689  0.00235781  0.10385437
   0.35959973  0.00234065  0.10111201
   0.00470722  0.35734144  0.10117659
   0.64979729  0.64731441  0.10115022
   0.32838564  0.32591310  0.10137690
   0.68113037  0.00231558  0.10137467
   0.00470431  0.67863214  0.10139150
   0.11058288  0.38925056  0.33751830
   0.27729152  0.22261737  0.33763722
   0.11066436  0.88931205  0.33757013
   0.27734207  0.72263217  0.33746467
   0.61067809  0.38926263  0.33746270
   0.77734979  0.22263376  0.33753300
   0.61067577  0.88930789  0.33762069
   0.77728362  0.72264688  0.33753636
Direct configuration=    28
   0.00469854  0.00233810  0.10360212
   0.35970818  0.00230231  0.10114849
   0.00475430  0.35738283  0.10118180
   0.64976985  0.64720282  0.10116460
   0.32842137  0.32588242  0.10142439
   0.68115600  0.00226373  0.10136511
   0.00474260  0.67860447  0.10143558
   0.11056105  0.38928678  0.33753144
   0.27725941  0.22262900  0.33765604
   0.11064872  0.88935873  0.33758085
   0.27731461  0.72267444  0.33747813
   0.61063613  0.38929663  0.33747177
   0.77731488  0.22268027  0.33755168
   0.61062294  0.88930420  0.33763634
   0.77724096  0.72267171  0.33755100
Direct configuration=    29
   0.00478186  0.00229868  0.10309762
   0.35992509  0.00222562  0.10122145
   0.00484844  0.35746560  0.10119222
   0.64971498  0.64697965  0.10119337
   0.32849283  0.32582108  0.10151937
   0.68120728  0.00216002  0.10134600
   0.00481918  0.67854913  0.10152374
   0.11051739  0.38935924  0.33755772
   0.27719520  0.22265224  0.33769369
   0.11061742  0.88945210  0.33760228
   0.27725970  0.72275897  0.33750503
   0.61055219  0.38936464  0.33748991
   0.77724507  0.22277327  0.33758903
   0.61051728  0.88929684  0.33766763
   0.77715564  0.72272135  0.33758026
Direct configuration=    30
   0.00480015  0.00226339  0.10289782
   0.35999455  0.00218442  0.10125381
   0.00487531  0.35744567  0.10122104
   0.64972883  0.64692920  0.10122298
   0.32853662  0.32579421  0.10153149
   0.68123116  0.00213676  0.10133574
   0.00485486  0.67854062  0.10153483
   0.11054176  0.38942495  0.33757075
   0.27720884  0.22273977  0.33770190
   0.11054468  0.88943760  0.33761543
   0.27722169  0.72274415  0.33751960
   0.61049044  0.38939799  0.33750725
   0.77716263  0.22270922  0.33759877
   0.61049707  0.88941303  0.33767741
   0.77716097  0.72271746  0.33759051
Direct configuration=    31
   0.00480643  0.00225126  0.10282920
   0.36001841  0.00217027  0.10126493
   0.00488453  0.35743882  0.10123094
   0.64973359  0.64691187  0.10123315
   0.32855166  0.32578499  0.10153564
   0.68123936  0.00212877  0.10133222
   0.00486712  0.67853770  0.10153864
   0.11055013  0.38944752  0.33757523
   0.27721352  0.22276984  0.33770472
   0.11051969  0.88943262  0.33761994
   0.27720863  0.72273906  0.33752460
   0.61046923  0.38940945  0.33751321
   0.77713431  0.22268722  0.33760212
   0.61049013  0.88945294  0.33768077
   0.77716280  0.72271612  0.33759402
Direct configuration=    32
   0.00482359  0.00220938  0.10264289
   0.36004492  0.00212927  0.10129783
   0.00490491  0.35738161  0.10127774
   0.64978164  0.64690336  0.10127547
   0.32859544  0.32575021  0.10152583
   0.68127732  0.00211910  0.10132141
   0.00490570  0.67852428  0.10152930
   0.11051085  0.38945993  0.33758883
   0.27718168  0.22281302  0.33770861
   0.11048533  0.88944453  0.33763518
   0.27717709  0.72276461  0.33754104
   0.61044781  0.38942350  0.33753568
   0.77710811  0.22271538  0.33760824
   0.61047239  0.88948854  0.33768797
   0.77713278  0.72275172  0.33760331
Direct configuration=    33
   0.00487507  0.00208372  0.10208395
   0.36012447  0.00200630  0.10139652
   0.00496604  0.35720998  0.10141815
   0.64992578  0.64687784  0.10140241
   0.32872679  0.32564587  0.10149638
   0.68139120  0.00209010  0.10128899
   0.00502143  0.67848403  0.10150131
   0.11039301  0.38949716  0.33762964
   0.27708615  0.22294257  0.33772026
   0.11038224  0.88948028  0.33768091
   0.27708245  0.72284124  0.33759036
   0.61038354  0.38946567  0.33760308
   0.77702951  0.22279985  0.33762663
   0.61041918  0.88959535  0.33770957
   0.77704269  0.72285851  0.33763115
Direct configuration=    34
   0.00497802  0.00183239  0.10096606
   0.36028355  0.00176034  0.10159391
   0.00508831  0.35686672  0.10169898
   0.65021408  0.64682680  0.10165629
   0.32898949  0.32543718  0.10143749
   0.68161895  0.00203211  0.10122414
   0.00525290  0.67840352  0.10144532
   0.11015732  0.38957161  0.33771125
   0.27689510  0.22320167  0.33774357
   0.11017605  0.88955176  0.33777237
   0.27689319  0.72299451  0.33768901
   0.61025500  0.38955000  0.33773790
   0.77687231  0.22296880  0.33766341
   0.61031276  0.88980896  0.33775278
   0.77686253  0.72307208  0.33768685
Direct configuration=    35
   0.00490530  0.00200991  0.10175566
   0.36017118  0.00193407  0.10145449
   0.00500195  0.35710917  0.10150062
   0.65001045  0.64686285  0.10147697
   0.32880394  0.32558458  0.10147909
   0.68145808  0.00207307  0.10126994
   0.00508941  0.67846038  0.10148487
   0.11032379  0.38951902  0.33765361
   0.27703005  0.22301866  0.33772710
   0.11032169  0.88950127  0.33770777
   0.27702687  0.72288625  0.33761933
   0.61034579  0.38949044  0.33764268
   0.77698334  0.22284946  0.33763743
   0.61038793  0.88965808  0.33772226
   0.77698978  0.72292123  0.33764751
Direct configuration=    36
   0.00495196  0.00198194  0.10155928
   0.36018068  0.00190499  0.10148353
   0.00503598  0.35707746  0.10154880
   0.65004788  0.64683929  0.10151919
   0.32884596  0.32555045  0.10146740
   0.68150070  0.00205364  0.10126838
   0.00513095  0.67840080  0.10147442
   0.11028576  0.38956599  0.33766487
   0.27698399  0.22296587  0.33773681
   0.11032590  0.88959329  0.33772124
   0.27700869  0.72292756  0.33763721
   0.61031319  0.38954921  0.33766053
   0.77697426  0.22291104  0.33764756
   0.61032294  0.88962437  0.33772924
   0.77694073  0.72293253  0.33766087
Direct configuration=    37
   0.00499953  0.00195342  0.10135909
   0.36019035  0.00187536  0.10151314
   0.00507066  0.35704512  0.10159791
   0.65008604  0.64681527  0.10156223
   0.32888879  0.32551565  0.10145549
   0.68154414  0.00203384  0.10126678
   0.00517329  0.67834005  0.10146376
   0.11024698  0.38961387  0.33767636
   0.27693704  0.22291207  0.33774671
   0.11033019  0.88968711  0.33773498
   0.27699016  0.72296967  0.33765544
   0.61027996  0.38960913  0.33767873
   0.77696499  0.22297381  0.33765788
   0.61025669  0.88959001  0.33773636
   0.77689073  0.72294406  0.33767449
Direct configuration=    38
   0.00503735  0.00195664  0.10129470
   0.36019355  0.00187940  0.10151420
   0.00509676  0.35705901  0.10160768
   0.65008526  0.64678899  0.10156950
   0.32889548  0.32550938  0.10145439
   0.68155426  0.00201008  0.10128095
   0.00518331  0.67829230  0.10146380
   0.11025801  0.38963265  0.33767655
   0.27693305  0.22292835  0.33775720
   0.11031105  0.88968824  0.33773609
   0.27697364  0.72298410  0.33766027
   0.61025578  0.38962291  0.33767622
   0.77693837  0.22297201  0.33766575
   0.61024140  0.88960092  0.33773935
   0.77689227  0.72295347  0.33768267
Direct configuration=    39
   0.00513246  0.00196472  0.10113278
   0.36020161  0.00188956  0.10151687
   0.00516240  0.35709393  0.10163226
   0.65008332  0.64672292  0.10158778
   0.32891229  0.32549360  0.10145165
   0.68157968  0.00195033  0.10131659
   0.00520850  0.67817221  0.10146391
   0.11028575  0.38967987  0.33767704
   0.27692304  0.22296930  0.33778359
   0.11026292  0.88969109  0.33773889
   0.27693210  0.72302040  0.33767239
   0.61019495  0.38965756  0.33766993
   0.77687142  0.22296749  0.33768555
   0.61020296  0.88962835  0.33774687
   0.77689614  0.72297712  0.33770323
Direct configuration=    40
   0.00516558  0.00194970  0.10103986
   0.36024138  0.00188928  0.10151124
   0.00520239  0.35708300  0.10163957
   0.65010277  0.64669339  0.10159155
   0.32891688  0.32548459  0.10145200
   0.68158823  0.00189870  0.10135132
   0.00521471  0.67815335  0.10146658
   0.11023081  0.38967345  0.33767847
   0.27689423  0.22300373  0.33780125
   0.11024432  0.88970039  0.33774140
   0.27691500  0.72302901  0.33767473
   0.61019756  0.38965666  0.33766297
   0.77687079  0.22299635  0.33769755
   0.61020269  0.88966236  0.33775629
   0.77686221  0.72300449  0.33771455
Direct configuration=    41
   0.00520006  0.00193407  0.10094313
   0.36028278  0.00188898  0.10150538
   0.00524402  0.35707163  0.10164718
   0.65012301  0.64666266  0.10159546
   0.32892167  0.32547521  0.10145237
   0.68159714  0.00184496  0.10138747
   0.00522118  0.67813371  0.10146936
   0.11017361  0.38966676  0.33767997
   0.27686423  0.22303958  0.33781963
   0.11022496  0.88971008  0.33774401
   0.27689720  0.72303796  0.33767716
   0.61020027  0.38965573  0.33765572
   0.77687014  0.22302639  0.33771005
   0.61020241  0.88969776  0.33776610
   0.77682690  0.72303298  0.33772634
Direct configuration=    42
   0.00519212  0.00189528  0.10087509
   0.36033606  0.00186895  0.10150133
   0.00526231  0.35702479  0.10165000
   0.65016320  0.64665801  0.10159669
   0.32893501  0.32546456  0.10144969
   0.68160933  0.00181037  0.10141864
   0.00522918  0.67816704  0.10146882
   0.11016344  0.38970468  0.33768740
   0.27685054  0.22302389  0.33782708
   0.11021921  0.88975435  0.33775143
   0.27689008  0.72304849  0.33767322
   0.61017609  0.38969066  0.33765628
   0.77685248  0.22303669  0.33771420
   0.61016667  0.88970221  0.33778023
   0.77680381  0.72302848  0.33772923
Direct configuration=    43
   0.00519018  0.00188579  0.10085845
   0.36034908  0.00186405  0.10150034
   0.00526678  0.35701334  0.10165069
   0.65017303  0.64665687  0.10159699
   0.32893828  0.32546196  0.10144903
   0.68161231  0.00180192  0.10142626
   0.00523114  0.67817519  0.10146869
   0.11016096  0.38971395  0.33768922
   0.27684719  0.22302005  0.33782891
   0.11021781  0.88976518  0.33775325
   0.27688835  0.72305106  0.33767225
   0.61017018  0.38969920  0.33765642
   0.77684816  0.22303921  0.33771521
   0.61015794  0.88970330  0.33778369
   0.77679817  0.72302738  0.33772994
Direct configuration=    44
   0.00518613  0.00186306  0.10083001
   0.36036261  0.00184244  0.10150239
   0.00526726  0.35699168  0.10165204
   0.65019298  0.64665495  0.10159897
   0.32895881  0.32545046  0.10144232
   0.68163112  0.00180034  0.10143953
   0.00524909  0.67817848  0.10146315
   0.11017369  0.38971988  0.33769731
   0.27684009  0.22304185  0.33782659
   0.11019916  0.88975501  0.33776035
   0.27686802  0.72307738  0.33766881
   0.61014773  0.38970404  0.33766301
   0.77682315  0.22304923  0.33771394
   0.61014635  0.88970037  0.33779354
   0.77680336  0.72304929  0.33772738
Direct configuration=    45
   0.00518478  0.00185548  0.10082052
   0.36036712  0.00183524  0.10150308
   0.00526742  0.35698445  0.10165250
   0.65019963  0.64665431  0.10159964
   0.32896565  0.32544662  0.10144008
   0.68163739  0.00179981  0.10144395
   0.00525507  0.67817957  0.10146130
   0.11017793  0.38972185  0.33770000
   0.27683773  0.22304912  0.33782581
   0.11019294  0.88975161  0.33776272
   0.27686124  0.72308615  0.33766766
   0.61014025  0.38970565  0.33766521
   0.77681481  0.22305257  0.33771351
   0.61014249  0.88969940  0.33779682
   0.77680509  0.72305659  0.33772653
Direct configuration=    46
   0.00519812  0.00184160  0.10079432
   0.36036573  0.00180941  0.10150923
   0.00526871  0.35697284  0.10165455
   0.65021174  0.64664206  0.10160349
   0.32899360  0.32542514  0.10142847
   0.68166549  0.00180890  0.10145413
   0.00528678  0.67815487  0.10145092
   0.11015343  0.38973136  0.33770845
   0.27682018  0.22306223  0.33782200
   0.11017640  0.88976501  0.33776942
   0.27684563  0.72309143  0.33766720
   0.61013186  0.38971821  0.33767426
   0.77680647  0.22306338  0.33771314
   0.61013545  0.88972297  0.33780534
   0.77678997  0.72306902  0.33772443
Direct configuration=    47
   0.00521477  0.00182428  0.10076162
   0.36036399  0.00177718  0.10151691
   0.00527032  0.35695834  0.10165710
   0.65022684  0.64662678  0.10160831
   0.32902848  0.32539834  0.10141398
   0.68170055  0.00182025  0.10146682
   0.00532635  0.67812405  0.10143796
   0.11012285  0.38974322  0.33771900
   0.27679827  0.22307859  0.33781724
   0.11015576  0.88978172  0.33777779
   0.27682615  0.72309802  0.33766662
   0.61012138  0.38973389  0.33768555
   0.77679607  0.22307687  0.33771267
   0.61012667  0.88975238  0.33781598
   0.77677111  0.72308453  0.33772180
Direct configuration=    48
   0.00524734  0.00181464  0.10073216
   0.36037830  0.00175076  0.10152600
   0.00529188  0.35693260  0.10165928
   0.65024618  0.64660263  0.10161331
   0.32905003  0.32536314  0.10139938
   0.68172550  0.00181395  0.10147344
   0.00535816  0.67810305  0.10142452
   0.11009913  0.38977075  0.33772095
   0.27678197  0.22308566  0.33782038
   0.11015081  0.88981892  0.33777760
   0.27682168  0.72311703  0.33767675
   0.61010061  0.38975473  0.33769004
   0.77677701  0.22310204  0.33772085
   0.61008864  0.88975713  0.33781652
   0.77673232  0.72309142  0.33772816
Direct configuration=    49
   0.00527004  0.00180792  0.10071163
   0.36038828  0.00173234  0.10153233
   0.00530691  0.35691465  0.10166080
   0.65025967  0.64658579  0.10161680
   0.32906504  0.32533861  0.10138919
   0.68174289  0.00180956  0.10147806
   0.00538033  0.67808841  0.10141516
   0.11008260  0.38978995  0.33772231
   0.27677060  0.22309058  0.33782256
   0.11014736  0.88984485  0.33777746
   0.27681856  0.72313028  0.33768381
   0.61008613  0.38976925  0.33769318
   0.77676373  0.22311959  0.33772655
   0.61006213  0.88976045  0.33781690
   0.77670528  0.72309623  0.33773260
Direct configuration=    50
   0.00528879  0.00179634  0.10069283
   0.36040712  0.00171720  0.10153710
   0.00532761  0.35689617  0.10166132
   0.65027803  0.64656996  0.10161900
   0.32907895  0.32531981  0.10138125
   0.68175673  0.00179309  0.10148042
   0.00539478  0.67807855  0.10140778
   0.11007446  0.38979935  0.33772195
   0.27675550  0.22311134  0.33782688
   0.11012627  0.88984694  0.33777594
   0.27679652  0.72314765  0.33769231
   0.61006884  0.38977995  0.33769450