Lattice                                 
           1
     4.196759    2.423000    0.000000
    -4.196759    2.423000    0.000000
     0.000000    0.000000   15.000000
   B    C 
     4    11
Direct configuration=     1
   0.00415361  0.00267210  0.12034134
   0.35695335  0.00285503  0.09748893
   0.00423858  0.35550699  0.09749256
   0.65142295  0.65006557  0.09747688
   0.32808646  0.32671938  0.10030508
   0.68027775  0.00278085  0.10027562
   0.00416530  0.67883808  0.10026559
   0.11111044  0.38888856  0.33726667
   0.27777744  0.22222156  0.33726667
   0.11111044  0.88888856  0.33726667
   0.27777744  0.72222156  0.33726667
   0.61111044  0.38888856  0.33726667
   0.77777744  0.22222156  0.33726667
   0.61111044  0.88888856  0.33726667
   0.77777744  0.72222156  0.33726667
Direct configuration=     2
   0.00416788  0.00269624  0.11905679
   0.35572726  0.00279194  0.09782232
   0.00418917  0.35451031  0.09787879
   0.65253846  0.65107208  0.09784928
   0.32476290  0.32323407  0.10031274
   0.68386817  0.00279468  0.10032664
   0.00422509  0.68218228  0.10028152
   0.11103920  0.38899153  0.33727979
   0.27791538  0.22234582  0.33735359
   0.11129729  0.88901902  0.33729083
   0.27796852  0.72221853  0.33720529
   0.61107139  0.38883644  0.33720038
   0.77773651  0.22226760  0.33728919
   0.61092660  0.88883937  0.33734256
   0.77741573  0.72207854  0.33728962
Direct configuration=     3
   0.00416081  0.00268428  0.11969336
   0.35633486  0.00282320  0.09765711
   0.00421365  0.35500422  0.09768740
   0.65198566  0.65057330  0.09766473
   0.32640991  0.32496123  0.10030894
   0.68208892  0.00278783  0.10030136
   0.00419546  0.68052504  0.10027363
   0.11107451  0.38894050  0.33727329
   0.27784703  0.22228424  0.33731051
   0.11120470  0.88895437  0.33727885
   0.27787383  0.72222003  0.33723571
   0.61109074  0.38886226  0.33723323
   0.77775679  0.22224478  0.33727803
   0.61101771  0.88886375  0.33730495
   0.77759498  0.72214941  0.33727824
