Lattice                                 
           1
     4.195893    2.422500    0.000000
    -4.195893    2.422500    0.000000
     0.000000    0.000000   15.000000
   B    C 
     4    11
Direct configuration=     1
   0.00415361  0.00267210  0.12034134
   0.35695335  0.00285503  0.09748893
   0.00423858  0.35550699  0.09749256
   0.65142295  0.65006557  0.09747688
   0.32808646  0.32671938  0.10030508
   0.68027775  0.00278085  0.10027562
   0.00416530  0.67883808  0.10026559
   0.08333267  0.41666633  0.33646667
   0.24999967  0.24999933  0.33646667
   0.08333267  0.91666633  0.33646667
   0.24999967  0.74999933  0.33646667
   0.58333267  0.41666633  0.33646667
   0.74999967  0.24999933  0.33646667
   0.58333267  0.91666633  0.33646667
   0.74999967  0.74999933  0.33646667
Direct configuration=     2
   0.00414275  0.00267089  0.11912768
   0.35570019  0.00282984  0.09781321
   0.00413894  0.35445871  0.09787438
   0.65259505  0.65107791  0.09784518
   0.32480180  0.32320157  0.10030045
   0.68393986  0.00285632  0.10032539
   0.00417239  0.68216797  0.10027695
   0.08331735  0.41677897  0.33646313
   0.25017672  0.25026303  0.33656002
   0.08349758  0.91679555  0.33645149
   0.25029823  0.74995682  0.33643635
   0.58328504  0.41664552  0.33642156
   0.74993328  0.25000281  0.33646139
   0.58309092  0.91661605  0.33653672
   0.74953724  0.74977869  0.33648542
Direct configuration=     3
   0.00414830  0.00267151  0.11974841
   0.35634112  0.00284272  0.09764736
   0.00418990  0.35499486  0.09767910
   0.65199558  0.65056015  0.09765681
   0.32648174  0.32500075  0.10030282
   0.68206687  0.00281772  0.10029994
   0.00416876  0.68046490  0.10027114
   0.08332518  0.41672136  0.33646494
   0.25008616  0.25012816  0.33651228
   0.08341324  0.91672946  0.33645925
   0.25014553  0.74997856  0.33645185
   0.58330940  0.41665617  0.33644463
   0.74996724  0.25000103  0.33646409
   0.58321456  0.91664177  0.33650089
   0.74977375  0.74989154  0.33647583
Direct configuration=     4
   0.00414814  0.00269701  0.11869136
   0.35681331  0.00280860  0.09794882
   0.00415754  0.35543425  0.09803798
   0.65162401  0.65001733  0.09800133
   0.32663091  0.32497957  0.10026705
   0.68205298  0.00285391  0.10031555
   0.00418155  0.68036511  0.10025041
   0.08328600  0.41665757  0.33646789
   0.24988849  0.24998632  0.33658611
   0.08321685  0.91664326  0.33645739
   0.24983657  0.75006241  0.33642755
   0.58331664  0.41667928  0.33641601
   0.74996838  0.25002931  0.33645889
   0.58339948  0.91675181  0.33656164
   0.75010649  0.75013494  0.33649134
Direct configuration=     5
   0.00414773  0.00276368  0.11592724
   0.35804804  0.00271937  0.09873710
   0.00407293  0.35658323  0.09897645
   0.65065236  0.64859788  0.09890223
   0.32702100  0.32492419  0.10017351
   0.68201666  0.00294855  0.10035639
   0.00421499  0.68010416  0.10019620
   0.08318355  0.41649077  0.33647563
   0.24937158  0.24961539  0.33677919
   0.08270330  0.91641785  0.33645250
   0.24902865  0.75028165  0.33636399
   0.58333558  0.41673972  0.33634116
   0.74997137  0.25010325  0.33644530
   0.58388303  0.91703956  0.33672051
   0.75097658  0.75077142  0.33653192
Direct configuration=     6
   0.00415135  0.00276787  0.11562162
   0.35816121  0.00270906  0.09881102
   0.00407538  0.35667862  0.09906360
   0.65056829  0.64847515  0.09898603
   0.32709545  0.32496648  0.10017912
   0.68196371  0.00294562  0.10037454
   0.00422179  0.68004036  0.10020563
   0.08318285  0.41654221  0.33647763
   0.24943351  0.24967470  0.33679257
   0.08276930  0.91648922  0.33645502
   0.24914251  0.75026618  0.33636106
   0.58330847  0.41675746  0.33633870
   0.74995831  0.25010777  0.33644500
   0.58377684  0.91700328  0.33673230
   0.75081835  0.75067670  0.33653549
Direct configuration=     7
   0.00416223  0.00278043  0.11470475
   0.35850074  0.00267813  0.09903279
   0.00408274  0.35696479  0.09932506
   0.65031606  0.64810695  0.09923741
   0.32731882  0.32509337  0.10019594
   0.68180484  0.00293683  0.10042896
   0.00424221  0.67984899  0.10023393
   0.08318076  0.41669652  0.33648364
   0.24961932  0.24985261  0.33683271
   0.08296730  0.91670331  0.33646258
   0.24948410  0.75021977  0.33635228
   0.58322716  0.41681068  0.33633131
   0.74991912  0.25012132  0.33644411
   0.58345828  0.91689443  0.33676767
   0.75034368  0.75039254  0.33654620
Direct configuration=     8
   0.00418398  0.00280555  0.11287101
   0.35917978  0.00261626  0.09947631
   0.00409745  0.35753714  0.09984799
   0.64981160  0.64737055  0.09974018
   0.32776556  0.32534714  0.10022959
   0.68148710  0.00291924  0.10053781
   0.00428304  0.67946623  0.10029052
   0.08317656  0.41700515  0.33649565
   0.24999093  0.25020845  0.33691299
   0.08336329  0.91713149  0.33647770
   0.25016727  0.75012696  0.33633471
   0.58306453  0.41691712  0.33631653
   0.74984074  0.25014842  0.33644232
   0.58282115  0.91667673  0.33683842
   0.74939435  0.74982424  0.33656761
Direct configuration=     9
   0.00420351  0.00279277  0.11236221
   0.35918956  0.00259828  0.09955282
   0.00413710  0.35751301  0.09993188
   0.64983243  0.64737121  0.09982200
   0.32783248  0.32541673  0.10029818
   0.68141571  0.00287109  0.10061679
   0.00430617  0.67939917  0.10036249
   0.08317056  0.41698309  0.33650245
   0.24998822  0.25031792  0.33690604
   0.08334311  0.91706556  0.33649126
   0.25014275  0.75015235  0.33634623
   0.58306807  0.41686279  0.33633311
   0.74979028  0.25016644  0.33644740
   0.58284576  0.91670626  0.33683537
   0.74936164  0.74988399  0.33657110
Direct configuration=    10
   0.00426208  0.00275442  0.11083581
   0.35921892  0.00254435  0.09978234
   0.00425604  0.35744060  0.10018357
   0.64989492  0.64737319  0.10006747
   0.32803325  0.32562553  0.10050398
   0.68120152  0.00272666  0.10085370
   0.00437553  0.67919796  0.10057838
   0.08315255  0.41691691  0.33652285
   0.24998008  0.25064632  0.33688521
   0.08328255  0.91686778  0.33653194
   0.25006918  0.75022854  0.33638077
   0.58307870  0.41669982  0.33638286
   0.74963891  0.25022051  0.33646266
   0.58291959  0.91679485  0.33682623
   0.74926351  0.75006324  0.33658155
Direct configuration=    11
   0.00437924  0.00267773  0.10778302
   0.35927763  0.00243647  0.10024138
   0.00449392  0.35729578  0.10068694
   0.65001989  0.64737714  0.10055842
   0.32843480  0.32604312  0.10091556
   0.68077313  0.00243781  0.10132753
   0.00451427  0.67879555  0.10101016
   0.08311654  0.41678454  0.33656365
   0.24996380  0.25130313  0.33684355
   0.08316145  0.91647222  0.33661331
   0.24992204  0.75038091  0.33644985
   0.58309995  0.41637387  0.33648236
   0.74933618  0.25032864  0.33649318
   0.58306725  0.91697204  0.33680795
   0.74906726  0.75042173  0.33660247
Direct configuration=    12
   0.00440621  0.00265201  0.10719065
   0.35927656  0.00241665  0.10032906
   0.00454041  0.35726901  0.10077532
   0.65004349  0.64739314  0.10064663
   0.32847569  0.32608889  0.10100323
   0.68073848  0.00238420  0.10142105
   0.00454295  0.67873873  0.10110026
   0.08306067  0.41683448  0.33657087
   0.24989168  0.25112648  0.33683030
   0.08309734  0.91657254  0.33662930
   0.24985296  0.75036533  0.33646961
   0.58307195  0.41649826  0.33650487
   0.74938543  0.25031441  0.33650290
   0.58306014  0.91702764  0.33679743
   0.74918336  0.75041890  0.33660785
Direct configuration=    13
   0.00448713  0.00257484  0.10541351
   0.35927337  0.00235720  0.10059208
   0.00467989  0.35718873  0.10104045
   0.65011430  0.64744116  0.10091124
   0.32859835  0.32622623  0.10126625
   0.68063454  0.00222338  0.10170159
   0.00462900  0.67856827  0.10137057
   0.08289309  0.41698430  0.33659253
   0.24967531  0.25059651  0.33679055
   0.08290500  0.91687352  0.33667727
   0.24964572  0.75031857  0.33652888
   0.58298795  0.41687144  0.33657243
   0.74953321  0.25027171  0.33653207
   0.58303879  0.91719443  0.33676588
   0.74953168  0.75041038  0.33662402
Direct configuration=    14
   0.00451193  0.00255119  0.10486891
   0.35927239  0.00233898  0.10067269
   0.00472263  0.35716412  0.10112170
   0.65013600  0.64745587  0.10099234
   0.32863594  0.32626832  0.10134685
   0.68060268  0.00217410  0.10178757
   0.00465538  0.67851603  0.10145341
   0.08284173  0.41703021  0.33659916
   0.24960901  0.25043410  0.33677836
   0.08284606  0.91696576  0.33669197
   0.24958221  0.75030424  0.33654705
   0.58296221  0.41698581  0.33659313
   0.74957849  0.25025862  0.33654101
   0.58303225  0.91724554  0.33675621
   0.74963842  0.75040778  0.33662897
Direct configuration=    15
   0.00451893  0.00253236  0.10479598
   0.35930688  0.00233915  0.10070188
   0.00471438  0.35720503  0.10113696
   0.65009182  0.64742759  0.10101167
   0.32857789  0.32619164  0.10135042
   0.68069770  0.00219337  0.10177976
   0.00465656  0.67855430  0.10145481
   0.08287728  0.41703669  0.33659813
   0.24959452  0.25038703  0.33677663
   0.08289963  0.91703299  0.33669012
   0.24961056  0.75034859  0.33655679
   0.58293849  0.41701998  0.33659502
   0.74958666  0.25031610  0.33654846
   0.58295979  0.91713616  0.33674903
   0.74959624  0.75037969  0.33663366
Direct configuration=    16
   0.00453499  0.00248918  0.10462870
   0.35938601  0.00233955  0.10076884
   0.00469545  0.35729888  0.10117196
   0.64999048  0.64736270  0.10105602
   0.32844473  0.32601576  0.10135862
   0.68091566  0.00223756  0.10176185
   0.00465928  0.67864207  0.10145802
   0.08295882  0.41705155  0.33659575
   0.24956129  0.25027906  0.33677266
   0.08302253  0.91718721  0.33668589
   0.24967559  0.75045031  0.33657914
   0.58288408  0.41709837  0.33659938
   0.74960538  0.25044793  0.33656555
   0.58279357  0.91688526  0.33673256
   0.74949948  0.75031526  0.33664442
Direct configuration=    17
   0.00454410  0.00246198  0.10457583
   0.35946500  0.00234117  0.10081110
   0.00467759  0.35735731  0.10118777
   0.64990785  0.64730252  0.10107945
   0.32839349  0.32593345  0.10135337
   0.68101646  0.00227539  0.10173318
   0.00465733  0.67868129  0.10144816
   0.08296047  0.41705584  0.33659502
   0.24957560  0.25033427  0.33677080
   0.08299626  0.91714852  0.33668198
   0.24965745  0.75044133  0.33659136
   0.58287646  0.41707443  0.33660096
   0.74957894  0.25042712  0.33657567
   0.58281687  0.91692908  0.33672448
   0.74950347  0.75033697  0.33665023
Direct configuration=    18
   0.00456615  0.00239618  0.10444791
   0.35965609  0.00234509  0.10091335
   0.00463438  0.35749868  0.10122604
   0.64970792  0.64715691  0.10113613
   0.32826952  0.32573429  0.10134066
   0.68126033  0.00236692  0.10166381
   0.00465261  0.67877616  0.10142430
   0.08296448  0.41706621  0.33659325
   0.24961025  0.25046785  0.33676630
   0.08293269  0.91705491  0.33667254
   0.24961356  0.75041958  0.33662093
   0.58285801  0.41701653  0.33660477
   0.74951497  0.25037676  0.33660014
   0.58287324  0.91703511  0.33670491
   0.74951312  0.75038949  0.33666429
Direct configuration=    19
   0.00457814  0.00237423  0.10440533
   0.35973315  0.00234647  0.10095550
   0.00462483  0.35750148  0.10123594
   0.64965529  0.64711227  0.10115514
   0.32831565  0.32575786  0.10133732
   0.68123602  0.00239185  0.10162879
   0.00465028  0.67874707  0.10141489
   0.08289570  0.41707073  0.33659797
   0.24957960  0.25041999  0.33676289
   0.08291590  0.91709043  0.33667270
   0.24961221  0.75040291  0.33662697
   0.58288515  0.41704903  0.33660955
   0.74954657  0.25037300  0.33660578
   0.58287886  0.91708229  0.33670524
   0.74951999  0.75038106  0.33666531
Direct configuration=    20
   0.00458547  0.00236081  0.10437931
   0.35978024  0.00234731  0.10098125
   0.00461900  0.35750320  0.10124199
   0.64962313  0.64708499  0.10116676
   0.32834384  0.32577226  0.10133529
   0.68122116  0.00240708  0.10160739
   0.00464885  0.67872930  0.10140914
   0.08285368  0.41707349  0.33660085
   0.24956087  0.25039075  0.33676082
   0.08290564  0.91711213  0.33667280
   0.24961138  0.75039272  0.33663066
   0.58290173  0.41706889  0.33661246
   0.74956587  0.25037070  0.33660923
   0.58288229  0.91711112  0.33670544
   0.74952419  0.75037590  0.33666594
Direct configuration=    21
   0.00459951  0.00234422  0.10433874
   0.35980029  0.00234934  0.10101582
   0.00461959  0.35745809  0.10124467
   0.64963301  0.64708993  0.10117838
   0.32840319  0.32581922  0.10133861
   0.68117306  0.00241124  0.10157618
   0.00464884  0.67868113  0.10140598
   0.08286805  0.41706952  0.33660880
   0.24954868  0.25039863  0.33675796
   0.08291777  0.91712133  0.33667595
   0.24960775  0.75042582  0.33663182
   0.58288940  0.41706998  0.33661869
   0.74955507  0.25040460  0.33661151
   0.58285894  0.91706957  0.33671218
   0.74950419  0.75038804  0.33666404
Direct configuration=    22
   0.00461206  0.00232939  0.10430247
   0.35981822  0.00235116  0.10104674
   0.00462012  0.35741775  0.10124707
   0.64964185  0.64709435  0.10118877
   0.32845627  0.32586121  0.10134157
   0.68113004  0.00241496  0.10154828
   0.00464883  0.67863805  0.10140315
   0.08288090  0.41706597  0.33661591
   0.24953778  0.25040567  0.33675540
   0.08292861  0.91712956  0.33667877
   0.24960450  0.75045542  0.33663286
   0.58287836  0.41707094  0.33662425
   0.74954542  0.25043492  0.33661355
   0.58283805  0.91703242  0.33671820
   0.74948631  0.75039889  0.33666235
Direct configuration=    23
   0.00463050  0.00231175  0.10424717
   0.35977720  0.00235263  0.10107821
   0.00462953  0.35735175  0.10124363
   0.64970751  0.64714425  0.10119504
   0.32846817  0.32586256  0.10135440
   0.68114101  0.00239960  0.10151879
   0.00465480  0.67860875  0.10140815
   0.08289755  0.41709595  0.33662506
   0.24955209  0.25043944  0.33675592
   0.08290484  0.91712543  0.33668274
   0.24958707  0.75044950  0.33663365
   0.58284405  0.41707616  0.33663030
   0.74951507  0.25041675  0.33661670
   0.58283152  0.91706154  0.33672841
   0.74948642  0.75040461  0.33666117
Direct configuration=    24
   0.00465249  0.00229071  0.10418123
   0.35972830  0.00235439  0.10111574
   0.00464074  0.35727306  0.10123953
   0.64978579  0.64720374  0.10120251
   0.32848235  0.32586416  0.10136968
   0.68115409  0.00238128  0.10148363
   0.00466193  0.67857381  0.10141411
   0.08291741  0.41713169  0.33663597
   0.24956916  0.25047971  0.33675655
   0.08287648  0.91712050  0.33668748
   0.24956629  0.75044245  0.33663460
   0.58280314  0.41708237  0.33663750
   0.74947888  0.25039509  0.33662046
   0.58282373  0.91709627  0.33674058
   0.74948656  0.75041144  0.33665977
Direct configuration=    25
   0.00467177  0.00227480  0.10411105
   0.35970451  0.00234783  0.10113846
   0.00465769  0.35724024  0.10123242
   0.64983617  0.64722549  0.10120356
   0.32847386  0.32583883  0.10139015
   0.68119160  0.00235317  0.10146139
   0.00467702  0.67856093  0.10142683
   0.08284999  0.41712001  0.33664249
   0.24952360  0.25045838  0.33676338
   0.08287032  0.91715052  0.33668989
   0.24956057  0.75045969  0.33663891
   0.58282971  0.41710214  0.33664074
   0.74949813  0.25043051  0.33662747
   0.58281682  0.91711272  0.33674935
   0.74946558  0.75042542  0.33666323
Direct configuration=    26
   0.00468592  0.00226313  0.10405954
   0.35968705  0.00234302  0.10115513
   0.00467013  0.35721615  0.10122720
   0.64987314  0.64724145  0.10120433
   0.32846764  0.32582023  0.10140516
   0.68121913  0.00233254  0.10144507
   0.00468809  0.67855147  0.10143618
   0.08280051  0.41711143  0.33664729
   0.24949016  0.25044273  0.33676839
   0.08286580  0.91717255  0.33669167
   0.24955637  0.75047235  0.33664208
   0.58284920  0.41711664  0.33664312
   0.74951225  0.25045650  0.33663262
   0.58281175  0.91712479  0.33675579
   0.74945019  0.75043568  0.33666577
Direct configuration=    27
   0.00470405  0.00225108  0.10397698
   0.35972886  0.00232382  0.10116794
   0.00469296  0.35722814  0.10122086
   0.64987074  0.64719643  0.10120305
   0.32848058  0.32580415  0.10142814
   0.68123376  0.00230129  0.10143109
   0.00471152  0.67854037  0.10145273
   0.08279455  0.41712402  0.33665139
   0.24947472  0.25046422  0.33678010
   0.08285395  0.91718357  0.33669360
   0.24954100  0.75049658  0.33665009
   0.58282919  0.41712784  0.33664475
   0.74949059  0.25047826  0.33664275
   0.58279124  0.91712535  0.33676203
   0.74942963  0.75045555  0.33667384
Direct configuration=    28
   0.00475843  0.00221491  0.10372931
   0.35985429  0.00226622  0.10120637
   0.00476145  0.35726413  0.10120186
   0.64986354  0.64706136  0.10119920
   0.32851938  0.32575592  0.10149705
   0.68127766  0.00220755  0.10138915
   0.00478178  0.67850707  0.10150239
   0.08277669  0.41716178  0.33666370
   0.24942840  0.25052868  0.33681523
   0.08281838  0.91721661  0.33669941
   0.24949489  0.75056930  0.33667412
   0.58276914  0.41716144  0.33664965
   0.74942562  0.25054353  0.33667312
   0.58272970  0.91712703  0.33678073
   0.74936797  0.75051515  0.33669805
Direct configuration=    29
   0.00477852  0.00220052  0.10362888
   0.35991907  0.00223340  0.10121567
   0.00478745  0.35727031  0.10120758
   0.64985216  0.64699441  0.10120544
   0.32855503  0.32573789  0.10151068
   0.68128506  0.00218581  0.10137843
   0.00481016  0.67849464  0.10151210
   0.08276457  0.41722023  0.33667175
   0.24943252  0.25054508  0.33682491
   0.08277175  0.91724445  0.33670790
   0.24946383  0.75054590  0.33668228
   0.58272200  0.41719996  0.33665762
   0.74939674  0.25051374  0.33668126
   0.58271494  0.91720314  0.33678865
   0.74937355  0.75051120  0.33670618
Direct configuration=    30
   0.00478394  0.00219664  0.10360177
   0.35993656  0.00222454  0.10121818
   0.00479447  0.35727198  0.10120912
   0.64984909  0.64697633  0.10120712
   0.32856465  0.32573302  0.10151436
   0.68128706  0.00217993  0.10137553
   0.00481782  0.67849128  0.10151472
   0.08276130  0.41723601  0.33667393
   0.24943364  0.25054951  0.33682753
   0.08275915  0.91725196  0.33671020
   0.24945544  0.75053958  0.33668449
   0.58270927  0.41721036  0.33665977
   0.74938894  0.25050570  0.33668346
   0.58271095  0.91722369  0.33679079
   0.74937505  0.75051014  0.33670837
Direct configuration=    31
   0.00480524  0.00217809  0.10349411
   0.35998856  0.00218439  0.10122385
   0.00482031  0.35726098  0.10122898
   0.64985266  0.64692022  0.10122245
   0.32860706  0.32570228  0.10151353
   0.68130673  0.00216913  0.10136902
   0.00484727  0.67847590  0.10151351
   0.08272927  0.41725541  0.33668560
   0.24940814  0.25057476  0.33683354
   0.08273079  0.91727151  0.33672491
   0.24942574  0.75055693  0.33669192
   0.58268825  0.41722979  0.33667403
   0.74936727  0.25052727  0.33668853
   0.58269462  0.91725941  0.33679976
   0.74935543  0.75053460  0.33671558
Direct configuration=    32
   0.00486913  0.00212246  0.10317113
   0.36014456  0.00206393  0.10124086
   0.00489785  0.35722799  0.10128855
   0.64986336  0.64675190  0.10126846
   0.32873429  0.32561006  0.10151103
   0.68136577  0.00213671  0.10134949
   0.00493562  0.67842975  0.10150989
   0.08263317  0.41731361  0.33672062
   0.24933165  0.25065053  0.33685158
   0.08264570  0.91733015  0.33676906
   0.24933664  0.75060899  0.33671421
   0.58262518  0.41728809  0.33671681
   0.74930225  0.25059197  0.33670376
   0.58264562  0.91736656  0.33682666
   0.74929654  0.75060798  0.33673721
Direct configuration=    33
   0.00499691  0.00201119  0.10252518
   0.36045655  0.00182303  0.10127490
   0.00505292  0.35716200  0.10140770
   0.64988478  0.64641525  0.10136046
   0.32898874  0.32542563  0.10150602
   0.68148384  0.00207186  0.10131043
   0.00511232  0.67833744  0.10150266
   0.08244097  0.41743001  0.33679067
   0.24917868  0.25080205  0.33688766
   0.08247553  0.91744742  0.33685735
   0.24915845  0.75071310  0.33675880
   0.58249904  0.41740469  0.33680237
   0.74917221  0.25072139  0.33673421
   0.58254762  0.91758087  0.33688045
   0.74917878  0.75075474  0.33678047
Direct configuration=    34
   0.00492997  0.00206948  0.10286359
   0.36029310  0.00194924  0.10125707
   0.00497168  0.35719657  0.10134528
   0.64987356  0.64659162  0.10131226
   0.32885544  0.32552225  0.10150864
   0.68142198  0.00210583  0.10133089
   0.00501975  0.67838580  0.10150645
   0.08254166  0.41736903  0.33675398
   0.24925882  0.25072267  0.33686876
   0.08256468  0.91738598  0.33681109
   0.24925180  0.75065856  0.33673544
   0.58256513  0.41734360  0.33675755
   0.74924034  0.25065359  0.33671826
   0.58259896  0.91746860  0.33685227
   0.74924048  0.75067785  0.33675781
Direct configuration=    35
   0.00494372  0.00205595  0.10280241
   0.36030369  0.00192999  0.10126040
   0.00498705  0.35718597  0.10135731
   0.64989101  0.64657668  0.10132161
   0.32887036  0.32549847  0.10150624
   0.68144651  0.00209570  0.10132847
   0.00503580  0.67837201  0.10150436
   0.08253100  0.41737820  0.33675963
   0.24924149  0.25073473  0.33687330
   0.08255765  0.91740049  0.33681837
   0.24924322  0.75068204  0.33674073
   0.58255283  0.41735621  0.33676461
   0.74922577  0.25067588  0.33672225
   0.58257840  0.91746468  0.33685658
   0.74921882  0.75069365  0.33676305
Direct configuration=    36
   0.00498499  0.00201537  0.10261890
   0.36033547  0.00187227  0.10127039
   0.00503317  0.35715416  0.10139340
   0.64994337  0.64653188  0.10134967
   0.32891510  0.32542714  0.10149902
   0.68152009  0.00206532  0.10132121
   0.00508397  0.67833065  0.10149811
   0.08249903  0.41740571  0.33677659
   0.24918949  0.25077091  0.33688693
   0.08253658  0.91744402  0.33684019
   0.24921747  0.75075246  0.33675661
   0.58251594  0.41739404  0.33678581
   0.74918207  0.25074274  0.33673425
   0.58251673  0.91745294  0.33686951
   0.74915387  0.75074105  0.33677876
Direct configuration=    37
   0.00506752  0.00193420  0.10225186
   0.36039903  0.00175681  0.10129038
   0.00512540  0.35709056  0.10146557
   0.65004808  0.64644228  0.10140578
   0.32900460  0.32528446  0.10148459
   0.68166724  0.00200456  0.10130668
   0.00518030  0.67824793  0.10148560
   0.08243510  0.41746073  0.33681051
   0.24908549  0.25084328  0.33691418
   0.08249443  0.91753107  0.33688384
   0.24916596  0.75089331  0.33678835
   0.58244217  0.41746969  0.33682820
   0.74909468  0.25087648  0.33675824
   0.58239337  0.91742947  0.33689537
   0.74902395  0.75083584  0.33681018
Direct configuration=    38
   0.00510117  0.00189989  0.10213359
   0.36038384  0.00173253  0.10129822
   0.00515975  0.35705068  0.10148765
   0.65011809  0.64645214  0.10142370
   0.32902039  0.32524276  0.10147631
   0.68172495  0.00196682  0.10130718
   0.00520937  0.67820379  0.10147931
   0.08241658  0.41750620  0.33681752
   0.24906611  0.25086080  0.33692773
   0.08246001  0.91756520  0.33689271
   0.24914008  0.75090982  0.33680222
   0.58240251  0.41750996  0.33683688
   0.74906204  0.25088409  0.33677052
   0.58235954  0.91746414  0.33690148
   0.74900289  0.75085185  0.33682432
Direct configuration=    39
   0.00520212  0.00179694  0.10177877
   0.36033827  0.00165968  0.10132174
   0.00526282  0.35693105  0.10155388
   0.65032812  0.64648175  0.10147745
   0.32906776  0.32511764  0.10145146
   0.68189806  0.00185360  0.10130868
   0.00529660  0.67807136  0.10146046
   0.08236102  0.41764263  0.33683856
   0.24900795  0.25091337  0.33696837
   0.08235673  0.91766759  0.33691931
   0.24906246  0.75095932  0.33684383
   0.58228353  0.41763075  0.33686290
   0.74896413  0.25090693  0.33680737
   0.58225804  0.91756815  0.33691980
   0.74893972  0.75089991  0.33686675
Direct configuration=    40
   0.00524738  0.00175668  0.10165706
   0.36035085  0.00164695  0.10133271
   0.00530529  0.35685861  0.10157101
   0.65039838  0.64648666  0.10149322
   0.32911047  0.32512467  0.10143994
   0.68190058  0.00179431  0.10131788
   0.00532674  0.67801261  0.10145269
   0.08231287  0.41765148  0.33684360
   0.24897216  0.25096362  0.33698606
   0.08231554  0.91767483  0.33692351
   0.24900992  0.75098242  0.33685984
   0.58226396  0.41763683  0.33686736
   0.74893719  0.25094181  0.33682380
   0.58225482  0.91762489  0.33692710
   0.74892117  0.75094429  0.33688354
Direct configuration=    41
   0.00532105  0.00169114  0.10145896
   0.36037134  0.00162622  0.10135058
   0.00537440  0.35674070  0.10159888
   0.65051275  0.64649465  0.10151890
   0.32918000  0.32513612  0.10142120
   0.68190466  0.00169780  0.10133286
   0.00537580  0.67791699  0.10144005
   0.08223451  0.41766588  0.33685180
   0.24891390  0.25104543  0.33701486
   0.08224850  0.91768663  0.33693034
   0.24892440  0.75102003  0.33688590
   0.58223210  0.41764672  0.33687462
   0.74889336  0.25099859  0.33685055
   0.58224958  0.91771725  0.33693898
   0.74889098  0.75101653  0.33691086
Direct configuration=    42
   0.00537099  0.00165078  0.10134692
   0.36044546  0.00161843  0.10136480
   0.00541457  0.35666659  0.10160612
   0.65054029  0.64645879  0.10152917
   0.32923717  0.32516717  0.10140909
   0.68186978  0.00163776  0.10135070
   0.00540902  0.67787166  0.10143278
   0.08220320  0.41769589  0.33686008
   0.24887826  0.25105898  0.33702874
   0.08223748  0.91773942  0.33693474
   0.24891745  0.75106052  0.33689691
   0.58220488  0.41768594  0.33687986
   0.74886932  0.25104168  0.33686422
   0.58219402  0.91771374  0.33695249
   0.74883545  0.75103331  0.33692271
Direct configuration=    43
   0.00541240  0.00161730  0.10125398
   0.36050694  0.00161198  0.10137660
   0.00544788  0.35660512  0.10161213
   0.65056314  0.64642904  0.10153769
   0.32928459  0.32519293  0.10139904
   0.68184084  0.00158796  0.10136550
   0.00543658  0.67783407  0.10142676
   0.08217723  0.41772077  0.33686694
   0.24884870  0.25107023  0.33704026
   0.08222833  0.91778322  0.33693838
   0.24891169  0.75109411  0.33690605
   0.58218230  0.41771846  0.33688421
   0.74884939  0.25107742  0.33687555
   0.58214793  0.91771082  0.33696369
   0.74878938  0.75104723  0.33693254
Direct configuration=    44
   0.00544452  0.00158458  0.10118800
   0.36057048  0.00160248  0.10138957
   0.00546569  0.35659157  0.10160818
   0.65055560  0.64638517  0.10153978
   0.32928990  0.32516618  0.10139085
   0.68187434  0.00156155  0.10138266
   0.00546384  0.67782503  0.10142235
   0.08217601  0.41776220  0.33687815
   0.24883805  0.25108551  0.33704257
   0.08219547  0.91780049  0.33694479
   0.24888656  0.75110956  0.33690711
   0.58214510  0.41775141  0.33689197
   0.74881542  0.25107408  0.33688014
   0.58212439  0.91773590  0.33697967
   0.74878196  0.75106496  0.33693355
Direct configuration=    45
   0.00548755  0.00154075  0.10109960
   0.36065560  0.00158976  0.10140693
   0.00548954  0.35657341  0.10160290
   0.65054550  0.64632640  0.10154258
   0.32929701  0.32513034  0.10137987
   0.68191921  0.00152617  0.10140566
   0.00550036  0.67781291  0.10141644
   0.08217439  0.41781771  0.33689317
   0.24882379  0.25110599  0.33704566
   0.08215144  0.91782363  0.33695336
   0.24885290  0.75113026  0.33690854
   0.58209525  0.41779555  0.33690236
   0.74876991  0.25106960  0.33688629
   0.58209285  0.91776949  0.33700107
   0.74877203  0.75108872  0.33693490
Direct configuration=    46
   0.00551355  0.00150907  0.10104507
   0.36069843  0.00157481  0.10141994
   0.00550261  0.35657339  0.10159721
   0.65054323  0.64629184  0.10154344
   0.32929499  0.32508536  0.10137231
   0.68197615  0.00151099  0.10142060
   0.00552599  0.67780333  0.10141215
   0.08214328  0.41781872  0.33690324
   0.24879589  0.25113421  0.33704647
   0.08213335  0.91783338  0.33695890
   0.24882664  0.75115514  0.33690964
   0.58208569  0.41780058  0.33690955
   0.74875494  0.25110387  0.33689062
   0.58208183  0.91778810  0.33701487
   0.74875075  0.75111790  0.33693531
Direct configuration=    47
   0.00554144  0.00147508  0.10098659
   0.36074437  0.00155877  0.10143389
   0.00551662  0.35657337  0.10159111
   0.65054080  0.64625478  0.10154435
   0.32929282  0.32503714  0.10136420
   0.68203722  0.00149470  0.10143663
   0.00555347  0.67779306  0.10140755
   0.08210992  0.41781979  0.33691404
   0.24876596  0.25116447  0.33704735
   0.08211394  0.91784384  0.33696484
   0.24879849  0.75118182  0.33691083
   0.58207544  0.41780597  0.33691727
   0.74873890  0.25114062  0.33689526
   0.58207002  0.91780806  0.33702966
   0.74872793  0.75114919  0.33693576
Direct configuration=    48
   0.00554889  0.00146364  0.10096918
   0.36074344  0.00154266  0.10143996
   0.00552375  0.35656695  0.10158887
   0.65055579  0.64625073  0.10154496
   0.32930734  0.32501800  0.10136064
   0.68205932  0.00149518  0.10143934
   0.00556378  0.67777834  0.10140486
   0.08208634  0.41782483  0.33691532
   0.24875293  0.25116817  0.33704899
   0.08211326  0.91786708  0.33696491
   0.24879833  0.75118526  0.33691472
   0.58207303  0.41781602  0.33691833
   0.74873955  0.25115686  0.33689981
   0.58205556  0.91781888  0.33703088
   0.74870602  0.75114807  0.33693854
Direct configuration=    49
   0.00556006  0.00144648  0.10094308
   0.36074205  0.00151849  0.10144905
   0.00553445  0.35655733  0.10158551
   0.65057827  0.64624468  0.10154587
   0.32932912  0.32498930  0.10135531
   0.68209246  0.00149588  0.10144342
   0.00557924  0.67775626  0.10140084
   0.08205098  0.41783239  0.33691726
   0.24873338  0.25117372  0.33705144
   0.08211224  0.91790193  0.33696501
   0.24879810  0.75119042  0.33692056
   0.58206942  0.41783110  0.33691993
   0.74874052  0.25118120  0.33690664
   0.58203388  0.91783510  0.33703271
   0.74867316  0.75114638  0.33694271
Direct configuration=    50
   0.00556652  0.00143881  0.10092912
   0.36073905  0.00149986  0.10145440
   0.00554384  0.35654340  0.10158385
   0.65059781  0.64624143  0.10154658
   0.32935128  0.32497508  0.10135187
   0.68210493  0.00149626  0.10144387
   0.00558923  0.67774095  0.10139791
   0.08204627  0.41784432  0.33691769
   0.24872639  0.25118466  0.33705332
   0.08210046  0.91790808  0.33696471
   0.24878731  0.75119941  0.33692529
   0.58205629  0.41784071  0.33692065