<?xml version="1.0" encoding="ISO-8859-1"?>
<modeling>
 <generator>
  <i name="program" type="string">vasp </i>
  <i name="version" type="string">6.3.2  </i>
  <i name="subversion" type="string">27Jun22 (build Dec 22 2022 13:13:19) complex                          parallel </i>
  <i name="platform" type="string">LinuxIFC </i>
  <i name="date" type="string">2023 08 21 </i>
  <i name="time" type="string">16:28:02 </i>
 </generator>
 <incar>
  <i type="string" name="SYSTEM">Lattice</i>
  <i type="int" name="ISTART">     0</i>
  <i type="string" name="PREC">Accurate</i>
  <i type="string" name="ALGO">Normal</i>
  <i type="int" name="ISPIN">     2</i>
  <i type="int" name="ICHARG">     2</i>
  <i type="int" name="NELM">    64</i>
  <i type="int" name="IBRION">     2</i>
  <i name="EDIFF">      0.00000100</i>
  <i name="EDIFFG">     -0.00100000</i>
  <i type="int" name="NSW">   128</i>
  <i type="int" name="ISIF">     2</i>
  <i name="ENCUT">    450.00000000</i>
  <i name="POTIM">      0.50000000</i>
  <i type="int" name="ISMEAR">     0</i>
  <i name="SIGMA">      0.10000000</i>
  <i type="logical" name="LWAVE"> F  </i>
  <i type="logical" name="LCHARG"> F  </i>
  <i type="string" name="GGA">PE</i>
  <i type="int" name="IVDW">    12</i>
 </incar>
 <primitive_cell>
  <structure name="primitive_cell" >
   <crystal>
    <varray name="basis" >
     <v>       4.29548600       2.48000000       0.00000000 </v>
     <v>      -4.29548600       2.48000000       0.00000000 </v>
     <v>       0.00000000       0.00000000      15.00000000 </v>
    </varray>
    <i name="volume">    319.58415861 </i>
    <varray name="rec_basis" >
     <v>       0.11640126       0.20161290       0.00000000 </v>
     <v>      -0.11640126       0.20161290       0.00000000 </v>
     <v>       0.00000000       0.00000000       0.06666667 </v>
    </varray>
   </crystal>
   <varray name="positions" >
    <v>       0.66888689       1.00000000       0.10000000 </v>
    <v>       0.33111211       1.00000000       0.10000000 </v>
    <v>       1.00000000       0.33111211       0.10000000 </v>
    <v>       1.00000000       0.66888689       0.10000000 </v>
    <v>       0.33111211       0.33111211       0.10000000 </v>
    <v>       0.66888689       0.66888689       0.10000000 </v>
    <v>       0.66666600       0.33333300       0.09922189 </v>
    <v>       0.33333300       0.66666600       0.10077811 </v>
    <v>       0.24999933       0.24999967       0.46906667 </v>
    <v>       0.41666633       0.08333267       0.46906667 </v>
    <v>       0.24999933       0.74999967       0.46906667 </v>
    <v>       0.41666633       0.58333267       0.46906667 </v>
    <v>       0.74999933       0.24999967       0.46906667 </v>
    <v>       0.91666633       0.08333267       0.46906667 </v>
    <v>       0.74999933       0.74999967       0.46906667 </v>
    <v>       0.91666633       0.58333267       0.46906667 </v>
   </varray>
  </structure>
  <varray name="primitive_index" >
   <v type="int" >        1 </v>
   <v type="int" >        2 </v>
   <v type="int" >        3 </v>
   <v type="int" >        4 </v>
   <v type="int" >        5 </v>
   <v type="int" >        6 </v>
   <v type="int" >        7 </v>
   <v type="int" >        8 </v>
   <v type="int" >        9 </v>
   <v type="int" >       10 </v>
   <v type="int" >       11 </v>
   <v type="int" >       12 </v>
   <v type="int" >       13 </v>
   <v type="int" >       14 </v>
   <v type="int" >       15 </v>
   <v type="int" >       16 </v>
  </varray>
 </primitive_cell>
 <kpoints>
  <generation param="Gamma">
   <v type="int" name="divisions">      12       12        1 </v>
   <v name="usershift">      0.00000000       0.00000000       0.00000000 </v>
   <v name="genvec1">      0.08333333      -0.00000000       0.00000000 </v>
   <v name="genvec2">     -0.00000000       0.08333333       0.00000000 </v>
   <v name="genvec3">      0.00000000       0.00000000       1.00000000 </v>
   <v name="shift">      0.00000000       0.00000000       0.00000000 </v>
  </generation>
  <varray name="kpointlist" >
   <v>       0.00000000       0.00000000       0.00000000 </v>
   <v>       0.08333333      -0.00000000       0.00000000 </v>
   <v>      -0.08333333       0.08333333       0.00000000 </v>
   <v>       0.16666667      -0.00000000       0.00000000 </v>
   <v>      -0.16666667       0.16666667       0.00000000 </v>
   <v>       0.25000000      -0.00000000       0.00000000 </v>
   <v>      -0.25000000       0.25000000       0.00000000 </v>
   <v>       0.33333333      -0.00000000       0.00000000 </v>
   <v>      -0.33333333       0.33333333       0.00000000 </v>
   <v>       0.41666667      -0.00000000       0.00000000 </v>
   <v>      -0.41666667       0.41666667       0.00000000 </v>
   <v>       0.50000000      -0.00000000       0.00000000 </v>
   <v>       0.50000000       0.50000000       0.00000000 </v>
   <v>       0.08333333       0.08333333       0.00000000 </v>
   <v>      -0.08333333       0.16666667       0.00000000 </v>
   <v>       0.16666667       0.08333333       0.00000000 </v>
   <v>      -0.08333333       0.25000000       0.00000000 </v>
   <v>      -0.25000000       0.16666667       0.00000000 </v>
   <v>       0.25000000       0.08333333       0.00000000 </v>
   <v>      -0.08333333       0.33333333       0.00000000 </v>
   <v>      -0.33333333       0.25000000       0.00000000 </v>
   <v>       0.33333333       0.08333333       0.00000000 </v>
   <v>      -0.08333333       0.41666667       0.00000000 </v>
   <v>      -0.41666667       0.33333333       0.00000000 </v>
   <v>       0.41666667       0.08333333       0.00000000 </v>
   <v>      -0.08333333       0.50000000       0.00000000 </v>
   <v>       0.50000000       0.41666667       0.00000000 </v>
   <v>       0.16666667       0.16666667       0.00000000 </v>
   <v>      -0.16666667       0.33333333       0.00000000 </v>
   <v>       0.25000000       0.16666667       0.00000000 </v>
   <v>      -0.16666667       0.41666667       0.00000000 </v>
   <v>      -0.41666667       0.25000000       0.00000000 </v>
   <v>       0.33333333       0.16666667       0.00000000 </v>
   <v>      -0.16666667       0.50000000       0.00000000 </v>
   <v>       0.50000000       0.33333333       0.00000000 </v>
   <v>       0.41666667       0.16666667       0.00000000 </v>
   <v>       0.41666667       0.41666667       0.00000000 </v>
   <v>       0.25000000       0.25000000       0.00000000 </v>
   <v>      -0.25000000       0.50000000       0.00000000 </v>
   <v>       0.33333333       0.25000000       0.00000000 </v>
   <v>      -0.25000000      -0.41666667       0.00000000 </v>
   <v>       0.41666667       0.33333333       0.00000000 </v>
   <v>       0.33333333       0.33333333       0.00000000 </v>
  </varray>
  <varray name="weights" >
   <v>       0.00694444 </v>
   <v>       0.02777778 </v>
   <v>       0.01388889 </v>
   <v>       0.02777778 </v>
   <v>       0.01388889 </v>
   <v>       0.02777778 </v>
   <v>       0.01388889 </v>
   <v>       0.02777778 </v>
   <v>       0.01388889 </v>
   <v>       0.02777778 </v>
   <v>       0.01388889 </v>
   <v>       0.01388889 </v>
   <v>       0.00694444 </v>
   <v>       0.01388889 </v>
   <v>       0.02777778 </v>
   <v>       0.02777778 </v>
   <v>       0.02777778 </v>
   <v>       0.02777778 </v>
   <v>       0.02777778 </v>
   <v>       0.02777778 </v>
   <v>       0.02777778 </v>
   <v>       0.02777778 </v>
   <v>       0.02777778 </v>
   <v>       0.02777778 </v>
   <v>       0.02777778 </v>
   <v>       0.02777778 </v>
   <v>       0.02777778 </v>
   <v>       0.01388889 </v>
   <v>       0.02777778 </v>
   <v>       0.02777778 </v>
   <v>       0.02777778 </v>
   <v>       0.02777778 </v>
   <v>       0.02777778 </v>
   <v>       0.02777778 </v>
   <v>       0.02777778 </v>
   <v>       0.02777778 </v>
   <v>       0.01388889 </v>
   <v>       0.01388889 </v>
   <v>       0.02777778 </v>
   <v>       0.02777778 </v>
   <v>       0.02777778 </v>
   <v>       0.02777778 </v>
   <v>       0.01388889 </v>
  </varray>
 </kpoints>
 <parameters>
  <separator name="general" >
   <i type="string" name="SYSTEM">Lattice</i>
   <i type="logical" name="LCOMPAT"> F  </i>
  </separator>
  <separator name="electronic" >
   <i type="string" name="PREC">accura</i>
   <i name="ENMAX">    450.00000000</i>
   <i name="ENAUG">    644.87300000</i>
   <i name="EDIFF">      0.00000100</i>
   <i type="int" name="IALGO">    38</i>
   <i type="int" name="IWAVPR">    11</i>
   <i type="int" name="NBANDS">    48</i>
   <i type="int" name="NBANDSLOW">    -1</i>
   <i type="int" name="NBANDSHIGH">    -1</i>
   <i name="NELECT">     56.00000000</i>
   <i type="int" name="TURBO">     0</i>
   <i type="int" name="IRESTART">     0</i>
   <i type="int" name="NREBOOT">     0</i>
   <i type="int" name="NMIN">     0</i>
   <i name="EREF">      0.00000000</i>
   <separator name="electronic smearing" >
    <i type="int" name="ISMEAR">     0</i>
    <i name="SIGMA">      0.10000000</i>
    <i name="KSPACING">      0.50000000</i>
    <i type="logical" name="KGAMMA"> T  </i>
    <i type="logical" name="KBLOWUP"> T  </i>
   </separator>
   <separator name="electronic projectors" >
    <i type="logical" name="LREAL"> F  </i>
    <v name="ROPT">      0.00000000      0.00000000</v>
    <i type="int" name="LMAXPAW">  -100</i>
    <i type="int" name="LMAXMIX">     2</i>
    <i type="logical" name="NLSPLINE"> F  </i>
   </separator>
   <separator name="electronic startup" >
    <i type="int" name="ISTART">     0</i>
    <i type="int" name="ICHARG">     2</i>
    <i type="int" name="INIWAV">     1</i>
   </separator>
   <separator name="electronic spin" >
    <i type="int" name="ISPIN">     2</i>
    <i type="logical" name="LNONCOLLINEAR"> F  </i>
    <v name="MAGMOM">      1.00000000      1.00000000      1.00000000      1.00000000      1.00000000      1.00000000      1.00000000      1.00000000      1.00000000      1.00000000      1.00000000      1.00000000      1.00000000      1.00000000      1.00000000      1.00000000</v>
    <i name="NUPDOWN">     -1.00000000</i>
    <i type="logical" name="LSORBIT"> F  </i>
    <v name="SAXIS">      0.00000000      0.00000000      1.00000000</v>
    <i type="logical" name="LSPIRAL"> F  </i>
    <v name="QSPIRAL">      0.00000000      0.00000000      0.00000000</v>
    <i type="logical" name="LZEROZ"> F  </i>
   </separator>
   <separator name="electronic exchange-correlation" >
    <i type="logical" name="LASPH"> F  </i>
    <i type="logical" name="LMETAGGA"> F  </i>
   </separator>
   <separator name="electronic convergence" >
    <i type="int" name="NELM">    64</i>
    <i type="int" name="NELMDL">    -5</i>
    <i type="int" name="NELMIN">     2</i>
    <i name="ENINI">    450.00000000</i>
    <separator name="electronic convergence detail" >
     <i type="logical" name="LDIAG"> T  </i>
     <i type="logical" name="LSUBROT"> F  </i>
     <i name="WEIMIN">      0.00100000</i>
     <i name="EBREAK">      0.00000001</i>
     <i name="DEPER">      0.30000000</i>
     <i type="int" name="NRMM">     4</i>
     <i name="TIME">      0.40000000</i>
    </separator>
   </separator>
   <separator name="electronic mixer" >
    <i name="AMIX">      0.40000000</i>
    <i name="BMIX">      1.00000000</i>
    <i name="AMIN">      0.10000000</i>
    <i name="AMIX_MAG">      1.60000000</i>
    <i name="BMIX_MAG">      1.00000000</i>
    <separator name="electronic mixer details" >
     <i type="int" name="IMIX">     4</i>
     <i type="logical" name="MIXFIRST"> F  </i>
     <i type="int" name="MAXMIX">   -45</i>
     <i name="WC">    100.00000000</i>
     <i type="int" name="INIMIX">     1</i>
     <i type="int" name="MIXPRE">     1</i>
     <i type="int" name="MREMOVE">     5</i>
    </separator>
   </separator>
   <separator name="electronic dipolcorrection" >
    <i type="logical" name="LDIPOL"> F  </i>
    <i type="logical" name="LMONO"> F  </i>
    <i type="int" name="IDIPOL">     0</i>
    <i name="EPSILON">      1.00000000</i>
    <v name="DIPOL">   -100.00000000   -100.00000000   -100.00000000</v>
    <i name="EFIELD">      0.00000000</i>
   </separator>
  </separator>
  <separator name="grids" >
   <i type="int" name="NGX">    36</i>
   <i type="int" name="NGY">    36</i>
   <i type="int" name="NGZ">   108</i>
   <i type="int" name="NGXF">    72</i>
   <i type="int" name="NGYF">    72</i>
   <i type="int" name="NGZF">   216</i>
   <i type="logical" name="ADDGRID"> F  </i>
  </separator>
  <separator name="ionic" >
   <i type="int" name="NSW">   128</i>
   <i type="int" name="IBRION">     2</i>
   <i type="int" name="MDALGO">     0</i>
   <i type="int" name="ISIF">     2</i>
   <i name="PSTRESS">      0.00000000</i>
   <i name="EDIFFG">     -0.00100000</i>
   <i type="int" name="NFREE">     1</i>
   <i name="POTIM">      0.50000000</i>
   <i name="SMASS">     -3.00000000</i>
   <i name="SCALEE">      1.00000000</i>
  </separator>
  <separator name="ionic md" >
   <i name="TEBEG">      0.00010000</i>
   <i name="TEEND">      0.00010000</i>
   <i type="int" name="NBLOCK">     1</i>
   <i type="int" name="KBLOCK">   128</i>
   <i type="int" name="NPACO">   256</i>
   <i name="APACO">     10.00000000</i>
  </separator>
  <separator name="symmetry" >
   <i type="int" name="ISYM">     2</i>
   <i name="SYMPREC">      0.00001000</i>
  </separator>
  <separator name="dos" >
   <i type="int" name="LORBIT">     0</i>
   <v name="RWIGS">     -1.00000000     -1.00000000</v>
   <i type="int" name="NEDOS">   301</i>
   <i name="EMIN">     10.00000000</i>
   <i name="EMAX">    -10.00000000</i>
   <i name="EFERMI">      0.00000000</i>
  </separator>
  <separator name="writing" >
   <i type="int" name="NWRITE">     2</i>
   <i type="logical" name="LWAVE"> F  </i>
   <i type="logical" name="LDOWNSAMPLE"> F  </i>
   <i type="logical" name="LCHARG"> F  </i>
   <i type="logical" name="LPARD"> F  </i>
   <i type="logical" name="LVTOT"> F  </i>
   <i type="logical" name="LVHAR"> F  </i>
   <i type="logical" name="LELF"> F  </i>
   <i type="logical" name="LOPTICS"> F  </i>
   <v name="STM">      0.00000000      0.00000000      0.00000000      0.00000000      0.00000000      0.00000000      0.00000000</v>
  </separator>
  <separator name="performance" >
   <i type="int" name="NPAR">    48</i>
   <i type="int" name="NSIM">     4</i>
   <i type="int" name="NBLK">    -1</i>
   <i type="logical" name="LPLANE"> T  </i>
   <i type="logical" name="LSCALAPACK"> T  </i>
   <i type="logical" name="LSCAAWARE"> F  </i>
   <i type="logical" name="LSCALU"> F  </i>
   <i type="logical" name="LASYNC"> F  </i>
   <i type="logical" name="LORBITALREAL"> F  </i>
  </separator>
  <separator name="miscellaneous" >
   <i type="int" name="IDIOT">     3</i>
   <i type="int" name="PHON_NSTRUCT">    -1</i>
   <i type="logical" name="LMUSIC"> F  </i>
   <v name="POMASS">     10.81100000     12.01100000</v>
   <v name="DARWINR">      0.00000000      0.00000000</v>
   <v name="DARWINV">      1.00000000      1.00000000</v>
   <i type="logical" name="LCORR"> T  </i>
  </separator>
  <i type="logical" name="GGA_COMPAT"> T  </i>
  <i type="logical" name="LBERRY"> F  </i>
  <i type="int" name="ICORELEVEL">     0</i>
  <i type="logical" name="LDAU"> F  </i>
  <i type="int" name="I_CONSTRAINED_M">     0</i>
  <separator name="electronic exchange-correlation" >
   <i type="string" name="GGA">PE</i>
   <i type="int" name="VOSKOWN">     0</i>
   <i type="logical" name="LHFCALC"> F  </i>
   <i type="string" name="PRECFOCK"></i>
   <i type="logical" name="LSYMGRAD"> F  </i>
   <i type="logical" name="LHFONE"> F  </i>
   <i type="logical" name="LRHFCALC"> F  </i>
   <i type="logical" name="LTHOMAS"> F  </i>
   <i type="logical" name="LMODELHF"> F  </i>
   <i type="logical" name="LFOCKACE"> F  </i>
   <i name="ENCUT4O">     -1.00000000</i>
   <i type="int" name="EXXOEP">     0</i>
   <i type="int" name="FOURORBIT">     0</i>
   <i name="AEXX">      0.00000000</i>
   <i name="HFALPHA">      0.00000000</i>
   <i name="MCALPHA">      0.00000000</i>
   <i name="ALDAX">      1.00000000</i>
   <i name="AGGAX">      1.00000000</i>
   <i name="ALDAC">      1.00000000</i>
   <i name="AGGAC">      1.00000000</i>
   <i type="int" name="NKREDX">     1</i>
   <i type="int" name="NKREDY">     1</i>
   <i type="int" name="NKREDZ">     1</i>
   <i type="logical" name="SHIFTRED"> F  </i>
   <i type="logical" name="ODDONLY"> F  </i>
   <i type="logical" name="EVENONLY"> F  </i>
   <i type="int" name="LMAXFOCK">     0</i>
   <i type="int" name="NMAXFOCKAE">     0</i>
   <i type="logical" name="LFOCKAEDFT"> F  </i>
   <i name="HFSCREEN">      0.00000000</i>
   <i name="HFSCREENC">      0.00000000</i>
   <i type="int" name="NBANDSGWLOW">     0</i>
  </separator>
  <separator name="vdW DFT" >
   <i type="logical" name="LUSE_VDW"> F  </i>
   <i name="Zab_VDW">     -0.84910000</i>
   <i name="PARAM1">      0.12340000</i>
   <i name="PARAM2">      1.00000000</i>
   <i name="PARAM3">      0.00000000</i>
  </separator>
  <separator name="model GW" >
   <i type="int" name="MODEL_GW">     0</i>
   <i name="MODEL_EPS0">     11.98440595</i>
   <i name="MODEL_ALPHA">      1.00000000</i>
  </separator>
  <separator name="linear response parameters" >
   <i type="logical" name="LEPSILON"> F  </i>
   <i type="logical" name="LRPA"> F  </i>
   <i type="logical" name="LNABLA"> F  </i>
   <i type="logical" name="LVEL"> F  </i>
   <i name="CSHIFT">      0.10000000</i>
   <i name="OMEGAMAX">     -1.00000000</i>
   <i name="DEG_THRESHOLD">      0.00200000</i>
   <i name="RTIME">     -0.10000000</i>
   <i name="WPLASMAI">      0.00000000</i>
   <v name="DFIELD">      0.00000000      0.00000000      0.00000000</v>
   <v name="WPLASMA">      0.00000000      0.00000000      0.00000000      0.00000000      0.00000000      0.00000000      0.00000000      0.00000000      0.00000000</v>
  </separator>
  <separator name="orbital magnetization" >
   <i type="logical" name="NUCIND"> F  </i>
   <v name="MAGPOS">      0.00000000      0.00000000      0.00000000</v>
   <i type="logical" name="LNICSALL"> T  </i>
   <i type="logical" name="ORBITALMAG"> F  </i>
   <i type="logical" name="LMAGBLOCH"> F  </i>
   <i type="logical" name="LCHIMAG"> F  </i>
   <i type="logical" name="LGAUGE"> T  </i>
   <i type="int" name="MAGATOM">     0</i>
   <v name="MAGDIPOL">      0.00000000      0.00000000      0.00000000</v>
   <v name="AVECCONST">      0.00000000      0.00000000      0.00000000</v>
  </separator>
  <separator name="response functions" >
   <i type="logical" name="LFINITE_TEMPERATURE"> F  </i>
   <i type="logical" name="LADDER"> F  </i>
   <i type="logical" name="LRPAFORCE"> F  </i>
   <i type="logical" name="LFXC"> F  </i>
   <i type="logical" name="LHARTREE"> T  </i>
   <i type="int" name="IBSE">     0</i>
   <v type="int" name="KPOINT">    -1     0     0     0</v>
   <i type="logical" name="LTCTC"> F  </i>
   <i type="logical" name="LTCTE"> F  </i>
   <i type="logical" name="LTETE"> F  </i>
   <i type="logical" name="LTRIPLET"> F  </i>
   <i type="logical" name="LFXCEPS"> F  </i>
   <i type="logical" name="LFXHEG"> F  </i>
   <i type="int" name="NATURALO">     2</i>
   <i type="logical" name="LHOLEGF"> F  </i>
   <i type="logical" name="L2ORDER"> F  </i>
   <i type="logical" name="LDMP1"> F  </i>
   <i type="logical" name="LMP2LT"> F  </i>
   <i type="logical" name="LSMP2LT"> F  </i>
   <i type="logical" name="LGWLF"> F  </i>
   <i name="ENCUTGW">     -2.00000000</i>
   <i name="ENCUTGWSOFT">     -2.00000000</i>
   <i name="ENCUTLF">     -1.00000000</i>
   <i type="logical" name="LESF_SPLINES"> F  </i>
   <i type="int" name="LMAXMP2">    -1</i>
   <i name="SCISSOR">      0.00000000</i>
   <i type="int" name="NOMEGA">     0</i>
   <i type="int" name="NOMEGAR">     0</i>
   <i type="int" name="NBANDSGW">    -1</i>
   <i type="int" name="NBANDSO">    -1</i>
   <i type="int" name="NBANDSV">    -1</i>
   <i type="int" name="NELMGW">     1</i>
   <i type="int" name="NELMHF">     1</i>
   <i type="int" name="DIM">     3</i>
   <i type="int" name="IESPILON">     4</i>
   <i type="int" name="ANTIRES">     0</i>
   <i name="OMEGAMAX">    -30.00000000</i>
   <i name="OMEGAMIN">    -30.00000000</i>
   <i name="OMEGATL">   -200.00000000</i>
   <i type="int" name="OMEGAGRID">     0</i>
   <i name="CSHIFT">     -0.10000000</i>
   <i type="logical" name="LSELFENERGY"> F  </i>
   <i type="logical" name="LSPECTRAL"> F  </i>
   <i type="logical" name="LSPECTRALGW"> F  </i>
   <i type="logical" name="LSINGLES"> F  </i>
   <i type="logical" name="LFERMIGW"> F  </i>
   <i type="logical" name="ODDONLYGW"> F  </i>
   <i type="logical" name="EVENONLYGW"> F  </i>
   <i type="int" name="NKREDLFX">     1</i>
   <i type="int" name="NKREDLFY">     1</i>
   <i type="int" name="NKREDLFZ">     1</i>
   <i type="int" name="MAXMEM">  2800</i>
   <i type="int" name="TELESCOPE">     0</i>
   <i type="int" name="NTAUPAR">    -1</i>
   <i type="int" name="NOMEGAPAR">    -1</i>
   <i name="DAMP_NEWTON">      0.80000001</i>
   <i name="LAMBDA">      1.00000000</i>
  </separator>
  <separator name="External order field" >
   <i name="OFIELD_KAPPA">      0.00000000</i>
   <v name="OFIELD_K">      0.00000000      0.00000000      0.00000000</v>
   <i name="OFIELD_Q6_NEAR">      0.00000000</i>
   <i name="OFIELD_Q6_FAR">      0.00000000</i>
   <i name="OFIELD_A">      0.00000000</i>
  </separator>
  <separator name="optional k-points parameters" >
   <i type="int" name="KPOINTS_OPT_MODE">     1</i>
   <i type="logical" name="LKPOINTS_OPT"> F  </i>
  </separator>
  <separator name="solvation model" >
   <i type="logical" name="LSOL"> F  </i>
  </separator>
 </parameters>
 <atominfo>
  <atoms>      16 </atoms>
  <types>       2 </types>
  <array name="atoms" >
   <dimension dim="1">ion</dimension>
   <field type="string">element</field>
   <field type="int">atomtype</field>
   <set>
    <rc><c>B </c><c>   1</c></rc>
    <rc><c>B </c><c>   1</c></rc>
    <rc><c>B </c><c>   1</c></rc>
    <rc><c>B </c><c>   1</c></rc>
    <rc><c>B </c><c>   1</c></rc>
    <rc><c>B </c><c>   1</c></rc>
    <rc><c>B </c><c>   1</c></rc>
    <rc><c>B </c><c>   1</c></rc>
    <rc><c>C </c><c>   2</c></rc>
    <rc><c>C </c><c>   2</c></rc>
    <rc><c>C </c><c>   2</c></rc>
    <rc><c>C </c><c>   2</c></rc>
    <rc><c>C </c><c>   2</c></rc>
    <rc><c>C </c><c>   2</c></rc>
    <rc><c>C </c><c>   2</c></rc>
    <rc><c>C </c><c>   2</c></rc>
   </set>
  </array>
  <array name="atomtypes" >
   <dimension dim="1">type</dimension>
   <field type="int">atomspertype</field>
   <field type="string">element</field>
   <field>mass</field>
   <field>valence</field>
   <field type="string">pseudopotential</field>
   <set>
    <rc><c>   8</c><c>B </c><c>     10.81100000</c><c>      3.00000000</c><c>  PAW_PBE B 06Sep2000                   </c></rc>
    <rc><c>   8</c><c>C </c><c>     12.01100000</c><c>      4.00000000</c><c>  PAW_PBE C 08Apr2002                   </c></rc>
   </set>
  </array>
 </atominfo>
 <structure name="initialpos" >
  <crystal>
   <varray name="basis" >
    <v>       4.29548600       2.48000000       0.00000000 </v>
    <v>      -4.29548600       2.48000000       0.00000000 </v>
    <v>       0.00000000       0.00000000      15.00000000 </v>
   </varray>
   <i name="volume">    319.58415861 </i>
   <varray name="rec_basis" >
    <v>       0.11640126       0.20161290       0.00000000 </v>
    <v>      -0.11640126       0.20161290       0.00000000 </v>
    <v>       0.00000000       0.00000000       0.06666667 </v>
   </varray>
  </crystal>
  <varray name="positions" >
   <v>       0.66888689       0.00000000       0.10000000 </v>
   <v>       0.33111211       0.00000000       0.10000000 </v>
   <v>       0.00000000       0.33111211       0.10000000 </v>
   <v>       0.00000000       0.66888689       0.10000000 </v>
   <v>       0.33111211       0.33111211       0.10000000 </v>
   <v>       0.66888689       0.66888689       0.10000000 </v>
   <v>       0.66666600       0.33333300       0.09922189 </v>
   <v>       0.33333300       0.66666600       0.10077811 </v>
   <v>       0.24999933       0.24999967       0.46906667 </v>
   <v>       0.41666633       0.08333267       0.46906667 </v>
   <v>       0.24999933       0.74999967       0.46906667 </v>
   <v>       0.41666633       0.58333267       0.46906667 </v>
   <v>       0.74999933       0.24999967       0.46906667 </v>
   <v>       0.91666633       0.08333267       0.46906667 </v>
   <v>       0.74999933       0.74999967       0.46906667 </v>
   <v>       0.91666633       0.58333267       0.46906667 </v>
  </varray>
 </structure>
 <calculation>
  <scstep>
   <time name="dav">    3.31    3.36</time>
   <time name="total">    3.36    3.41</time>
   <energy>
    <i name="alphaZ">     60.93491439 </i>
    <i name="ewald">   1902.94944918 </i>
    <i name="hartreedc">  -3313.96979731 </i>
    <i name="XCdc">    163.82799124 </i>
    <i name="pawpsdc">   1214.24570090 </i>
    <i name="pawaedc">  -1211.68112031 </i>
    <i name="eentropy">     -0.01913150 </i>
    <i name="bandstr">   -374.58445106 </i>
    <i name="atom">   1746.50554237 </i>
    <i name="e_fr_energy">    188.20909789 </i>
    <i name="e_wo_entrp">    188.22822939 </i>
    <i name="e_0_energy">    188.21866364 </i>
   </energy>
  </scstep>
  <scstep>
   <time name="dav">    5.25    5.30</time>
   <time name="total">    5.25    5.30</time>
   <energy>
    <i name="e_fr_energy">   -118.79501210 </i>
    <i name="e_wo_entrp">   -118.78347322 </i>
    <i name="e_0_energy">   -118.78924266 </i>
   </energy>
  </scstep>
  <scstep>
   <time name="dav">    5.92    5.97</time>
   <time name="total">    5.92    5.97</time>
   <energy>
    <i name="e_fr_energy">   -128.23352674 </i>
    <i name="e_wo_entrp">   -128.22132006 </i>
    <i name="e_0_energy">   -128.22742340 </i>
   </energy>
  </scstep>
  <scstep>
   <time name="dav">    5.35    5.40</time>
   <time name="total">    5.35    5.40</time>
   <energy>
    <i name="e_fr_energy">   -128.26165049 </i>
    <i name="e_wo_entrp">   -128.24944761 </i>
    <i name="e_0_energy">   -128.25554905 </i>
   </energy>
  </scstep>
  <scstep>
   <time name="dav">    5.47    5.51</time>
   <time name="total">    5.67    5.75</time>
   <energy>
    <i name="e_fr_energy">   -128.26169062 </i>
    <i name="e_wo_entrp">   -128.24948770 </i>
    <i name="e_0_energy">   -128.25558916 </i>
   </energy>
  </scstep>
  <scstep>
   <time name="dav">    4.54    4.57</time>
   <time name="total">    4.77    4.83</time>
   <energy>
    <i name="e_fr_energy">    -94.67545371 </i>
    <i name="e_wo_entrp">    -94.66369742 </i>
    <i name="e_0_energy">    -94.66957556 </i>
   </energy>
  </scstep>
  <scstep>
   <time name="dav">    5.19    5.23</time>
   <time name="total">    5.43    5.51</time>
   <energy>
    <i name="e_fr_energy">   -105.70540976 </i>
    <i name="e_wo_entrp">   -105.69596358 </i>
    <i name="e_0_energy">   -105.70068667 </i>
   </energy>
  </scstep>
  <scstep>
   <time name="dav">    5.40    5.45</time>
   <time name="total">    5.64    5.69</time>
   <energy>
    <i name="e_fr_energy">   -111.44933086 </i>
    <i name="e_wo_entrp">   -111.44008481 </i>
    <i name="e_0_energy">   -111.44470784 </i>
   </energy>
  </scstep>
  <scstep>
   <time name="dav">    4.50    4.55</time>
   <time name="total">    4.73    4.78</time>
   <energy>
    <i name="e_fr_energy">   -116.68516937 </i>
    <i name="e_wo_entrp">   -116.68276897 </i>
    <i name="e_0_energy">   -116.68396917 </i>
   </energy>
  </scstep>
  <scstep>
   <time name="dav">    5.46    5.49</time>
   <time name="total">    5.68    5.72</time>
   <energy>
    <i name="e_fr_energy">   -120.91378893 </i>
    <i name="e_wo_entrp">   -120.90888638 </i>
    <i name="e_0_energy">   -120.91133765 </i>
   </energy>
  </scstep>
  <scstep>
   <time name="dav">    5.14    5.18</time>
   <time name="total">    5.37    5.41</time>
   <energy>
    <i name="e_fr_energy">   -122.73914986 </i>
    <i name="e_wo_entrp">   -122.73594120 </i>
    <i name="e_0_energy">   -122.73754553 </i>
   </energy>
  </scstep>
  <scstep>
   <time name="dav">    5.65    5.68</time>
   <time name="total">    5.87    5.91</time>
   <energy>
    <i name="e_fr_energy">   -123.73779894 </i>
    <i name="e_wo_entrp">   -123.73292816 </i>
    <i name="e_0_energy">   -123.73536355 </i>
   </energy>
  </scstep>
  <scstep>
   <time name="dav">    5.22    5.25</time>
   <time name="total">    5.44    5.48</time>
   <energy>
    <i name="e_fr_energy">   -124.03651525 </i>
    <i name="e_wo_entrp">   -124.03045590 </i>
    <i name="e_0_energy">   -124.03348557 </i>
   </energy>
  </scstep>
  <scstep>
   <time name="dav">    4.48    4.51</time>
   <time name="total">    4.70    4.74</time>
   <energy>
    <i name="e_fr_energy">   -124.08933099 </i>
    <i name="e_wo_entrp">   -124.08325562 </i>
    <i name="e_0_energy">   -124.08629331 </i>
   </energy>
  </scstep>
  <scstep>
   <time name="dav">    3.78    3.81</time>
   <time name="total">    4.00    4.04</time>
   <energy>
    <i name="e_fr_energy">   -124.11296118 </i>
    <i name="e_wo_entrp">   -124.10690406 </i>
    <i name="e_0_energy">   -124.10993262 </i>
   </energy>
  </scstep>
  <scstep>
   <time name="dav">    3.96    4.00</time>
   <time name="total">    4.19    4.23</time>
   <energy>
    <i name="e_fr_energy">   -124.11452858 </i>
    <i name="e_wo_entrp">   -124.10848145 </i>
    <i name="e_0_energy">   -124.11150501 </i>
   </energy>
  </scstep>
  <scstep>
   <time name="dav">    3.63    3.66</time>
   <time name="total">    3.85    3.89</time>
   <energy>
    <i name="e_fr_energy">   -124.11496865 </i>
    <i name="e_wo_entrp">   -124.10892445 </i>
    <i name="e_0_energy">   -124.11194655 </i>
   </energy>
  </scstep>
  <scstep>
   <time name="dav">    3.59    3.62</time>
   <time name="total">    3.81    3.85</time>
   <energy>
    <i name="e_fr_energy">   -124.11501438 </i>
    <i name="e_wo_entrp">   -124.10896090 </i>
    <i name="e_0_energy">   -124.11198764 </i>
   </energy>
  </scstep>
  <scstep>
   <time name="dav">    3.70    3.72</time>
   <time name="total">    3.92    3.96</time>
   <energy>
    <i name="e_fr_energy">   -124.11507141 </i>
    <i name="e_wo_entrp">   -124.10901471 </i>
    <i name="e_0_energy">   -124.11204306 </i>
   </energy>
  </scstep>
  <scstep>
   <time name="dav">    3.64    3.67</time>
   <time name="total">    3.87    3.90</time>
   <energy>
    <i name="e_fr_energy">   -124.11510019 </i>
    <i name="e_wo_entrp">   -124.10904653 </i>
    <i name="e_0_energy">   -124.11207336 </i>
   </energy>
  </scstep>
  <scstep>
   <time name="dav">    3.43    3.45</time>
   <time name="total">    3.65    3.69</time>
   <energy>
    <i name="e_fr_energy">   -124.11515110 </i>
    <i name="e_wo_entrp">   -124.10909916 </i>
    <i name="e_0_energy">   -124.11212513 </i>
   </energy>
  </scstep>
  <scstep>
   <time name="dav">    4.22    4.25</time>
   <time name="total">    4.44    4.48</time>
   <energy>
    <i name="e_fr_energy">   -124.11517659 </i>
    <i name="e_wo_entrp">   -124.10912401 </i>
    <i name="e_0_energy">   -124.11215030 </i>
   </energy>
  </scstep>
  <scstep>
   <time name="dav">    5.10    5.13</time>
   <time name="total">    5.32    5.36</time>
   <energy>
    <i name="e_fr_energy">   -124.11518086 </i>
    <i name="e_wo_entrp">   -124.10912799 </i>
    <i name="e_0_energy">   -124.11215442 </i>
   </energy>
  </scstep>
  <scstep>
   <time name="dav">    5.03    5.06</time>
   <time name="total">    5.25    5.29</time>
   <energy>
    <i name="e_fr_energy">   -124.11518375 </i>
    <i name="e_wo_entrp">   -124.10913077 </i>
    <i name="e_0_energy">   -124.11215726 </i>
   </energy>
  </scstep>
  <scstep>
   <time name="dav">    4.56    4.60</time>
   <time name="total">    4.79    4.83</time>
   <energy>
    <i name="e_fr_energy">   -124.11518521 </i>
    <i name="e_wo_entrp">   -124.10913231 </i>
    <i name="e_0_energy">   -124.11215876 </i>
   </energy>
  </scstep>
  <scstep>
   <time name="dav">    5.48    5.52</time>
   <time name="total">    5.51    5.55</time>
   <energy>
    <i name="alphaZ">     60.93491439 </i>
    <i name="ewald">   1902.94944918 </i>
    <i name="hartreedc">  -3513.71388731 </i>
    <i name="XCdc">    168.78783031 </i>
    <i name="pawpsdc">   5918.29545715 </i>
    <i name="pawaedc">  -5917.71632404 </i>
    <i name="eentropy">     -0.00605277 </i>
    <i name="bandstr">   -490.15211483 </i>
    <i name="atom">   1746.50554237 </i>
    <i name="e_fr_energy">   -124.11518556 </i>
    <i name="e_wo_entrp">   -124.10913279 </i>
    <i name="e_0_energy">   -124.11215917 </i>
   </energy>
  </scstep>
  <structure>
   <crystal>
    <varray name="basis" >
     <v>       4.29548600       2.48000000       0.00000000 </v>
     <v>      -4.29548600       2.48000000       0.00000000 </v>
     <v>       0.00000000       0.00000000      15.00000000 </v>
    </varray>
    <i name="volume">    319.58415861 </i>
    <varray name="rec_basis" >
     <v>       0.11640126       0.20161290       0.00000000 </v>
     <v>      -0.11640126       0.20161290       0.00000000 </v>
     <v>       0.00000000       0.00000000       0.06666667 </v>
    </varray>
   </crystal>
   <varray name="positions" >
    <v>       0.66888689       0.00000000       0.10000000 </v>
    <v>       0.33111211       0.00000000       0.10000000 </v>
    <v>       0.00000000       0.33111211       0.10000000 </v>
    <v>       0.00000000       0.66888689       0.10000000 </v>
    <v>       0.33111211       0.33111211       0.10000000 </v>
    <v>       0.66888689       0.66888689       0.10000000 </v>
    <v>       0.66666600       0.33333300       0.09922189 </v>
    <v>       0.33333300       0.66666600       0.10077811 </v>
    <v>       0.24999933       0.24999967       0.46906667 </v>
    <v>       0.41666633       0.08333267       0.46906667 </v>
    <v>       0.24999933       0.74999967       0.46906667 </v>
    <v>       0.41666633       0.58333267       0.46906667 </v>
    <v>       0.74999933       0.24999967       0.46906667 </v>
    <v>       0.91666633       0.08333267       0.46906667 </v>
    <v>       0.74999933       0.74999967       0.46906667 </v>
    <v>       0.91666633       0.58333267       0.46906667 </v>
   </varray>
  </structure>
  <varray name="forces" >
   <v>       0.19501297       0.11257464       0.00825193 </v>
   <v>      -0.19498041      -0.11258797       0.00826837 </v>
   <v>       0.19501297      -0.11257464       0.00825193 </v>
   <v>      -0.19498041       0.11258797       0.00826837 </v>
   <v>       0.00001059      -0.22518749       0.00827246 </v>
   <v>       0.00001059       0.22518749       0.00827246 </v>
   <v>       0.00001187       0.00000000       0.00535715 </v>
   <v>      -0.00008059      -0.00000000       0.01284392 </v>
   <v>       0.00005423      -0.00047253      -0.00838832 </v>
   <v>      -0.00044512      -0.00009861      -0.00856038 </v>
   <v>      -0.00007134      -0.00000000      -0.00868127 </v>
   <v>       0.00012370      -0.00000000      -0.00848735 </v>
   <v>       0.00052736       0.00000000      -0.00844478 </v>
   <v>       0.00018446       0.00000000      -0.00827577 </v>
   <v>       0.00005423       0.00047253      -0.00838832 </v>
   <v>      -0.00044512       0.00009861      -0.00856038 </v>
  </varray>
  <varray name="stress" >
   <v>      21.33002437       0.00000000      -0.00068070 </v>
   <v>       0.00000000      21.33083001       0.00000000 </v>
   <v>      -0.00068070       0.00000000      -3.66213507 </v>
  </varray>
  <energy>
   <i name="e_fr_energy">   -125.61398763 </i>
   <i name="e_wo_entrp">   -125.60793486 </i>
   <i name="e_0_energy">   -125.61096124 </i>
  </energy>
  <time name="totalsc">  128.90  130.15</time>
 </calculation>
 <calculation>
  <scstep>
   <time name="dav">    3.39    3.41</time>
   <time name="total">    3.62    3.66</time>
   <energy>
    <i name="alphaZ">     60.93491439 </i>
    <i name="ewald">   1901.51575452 </i>
    <i name="hartreedc">  -3513.19100719 </i>
    <i name="XCdc">    168.74236942 </i>
    <i name="pawpsdc">   5918.29642554 </i>
    <i name="pawaedc">  -5917.71729583 </i>
    <i name="eentropy">     -0.00597255 </i>
    <i name="bandstr">   -489.20207983 </i>
    <i name="atom">   1746.50554237 </i>
    <i name="e_fr_energy">   -124.12134917 </i>
    <i name="e_wo_entrp">   -124.11537663 </i>
    <i name="e_0_energy">   -124.11836290 </i>
   </energy>
  </scstep>
  <scstep>
   <time name="dav">    5.26    5.30</time>
   <time name="total">    5.49    5.54</time>
   <energy>
    <i name="e_fr_energy">   -124.11569403 </i>
    <i name="e_wo_entrp">   -124.10963560 </i>
    <i name="e_0_energy">   -124.11266481 </i>
   </energy>
  </scstep>
  <scstep>
   <time name="dav">    4.62    4.65</time>
   <time name="total">    4.84    4.88</time>
   <energy>
    <i name="e_fr_energy">   -124.11482070 </i>
    <i name="e_wo_entrp">   -124.10877925 </i>
    <i name="e_0_energy">   -124.11179998 </i>
   </energy>
  </scstep>
  <scstep>
   <time name="dav">    5.56    5.59</time>
   <time name="total">    5.78    5.83</time>
   <energy>
    <i name="e_fr_energy">   -124.11478847 </i>
    <i name="e_wo_entrp">   -124.10876279 </i>
    <i name="e_0_energy">   -124.11177563 </i>
   </energy>
  </scstep>
  <scstep>
   <time name="dav">    4.77    4.80</time>
   <time name="total">    4.99    5.04</time>
   <energy>
    <i name="e_fr_energy">   -124.11478836 </i>
    <i name="e_wo_entrp">   -124.10875880 </i>
    <i name="e_0_energy">   -124.11177358 </i>
   </energy>
  </scstep>
  <scstep>
   <time name="dav">    4.05    4.07</time>
   <time name="total">    4.27    4.31</time>
   <energy>
    <i name="e_fr_energy">   -124.11479010 </i>
    <i name="e_wo_entrp">   -124.10876084 </i>
    <i name="e_0_energy">   -124.11177547 </i>
   </energy>
  </scstep>
  <scstep>
   <time name="dav">    4.56    4.59</time>
   <time name="total">    4.78    4.82</time>
   <energy>
    <i name="e_fr_energy">   -124.11479206 </i>
    <i name="e_wo_entrp">   -124.10876358 </i>
    <i name="e_0_energy">   -124.11177782 </i>
   </energy>
  </scstep>
  <scstep>
   <time name="dav">    3.66    3.68</time>
   <time name="total">    3.87    3.91</time>
   <energy>
    <i name="e_fr_energy">   -124.11479499 </i>
    <i name="e_wo_entrp">   -124.10876728 </i>
    <i name="e_0_energy">   -124.11178114 </i>
   </energy>
  </scstep>
  <scstep>
   <time name="dav">    3.90    3.93</time>
   <time name="total">    4.12    4.16</time>
   <energy>
    <i name="e_fr_energy">   -124.11479790 </i>
    <i name="e_wo_entrp">   -124.10877020 </i>
    <i name="e_0_energy">   -124.11178405 </i>
   </energy>
  </scstep>
  <scstep>
   <time name="dav">    4.08    4.11</time>
   <time name="total">    4.30    4.34</time>
   <energy>
    <i name="e_fr_energy">   -124.11479912 </i>
    <i name="e_wo_entrp">   -124.10877145 </i>
    <i name="e_0_energy">   -124.11178529 </i>
   </energy>
  </scstep>
  <scstep>
   <time name="dav">    4.37    4.39</time>
   <time name="total">    4.40    4.43</time>
   <energy>
    <i name="alphaZ">     60.93491439 </i>
    <i name="ewald">   1901.51575452 </i>
    <i name="hartreedc">  -3512.38084088 </i>
    <i name="XCdc">    168.72710746 </i>
    <i name="pawpsdc">   5896.37496055 </i>
    <i name="pawaedc">  -5895.78919706 </i>
    <i name="eentropy">     -0.00602764 </i>
    <i name="bandstr">   -489.99701326 </i>
    <i name="atom">   1746.50554237 </i>
    <i name="e_fr_energy">   -124.11479956 </i>
    <i name="e_wo_entrp">   -124.10877192 </i>
    <i name="e_0_energy">   -124.11178574 </i>
   </energy>
  </scstep>
  <structure>
   <crystal>
    <varray name="basis" >
     <v>       4.29548600       2.48000000       0.00000000 </v>
     <v>      -4.29548600       2.48000000       0.00000000 </v>
     <v>       0.00000000       0.00000000      15.00000000 </v>
    </varray>
    <i name="volume">    319.58415861 </i>
    <varray name="rec_basis" >
     <v>       0.11640126       0.20161290       0.00000000 </v>
     <v>      -0.11640126       0.20161290       0.00000000 </v>
     <v>       0.00000000       0.00000000       0.06666667 </v>
    </varray>
   </crystal>
   <varray name="positions" >
    <v>       0.67107692      -0.00000016       0.10002654 </v>
    <v>       0.32892213      -0.00000016       0.10002659 </v>
    <v>       0.00000016       0.32892208       0.10002654 </v>
    <v>       0.00000016       0.67107687       0.10002659 </v>
    <v>       0.32892192       0.32892180       0.10002661 </v>
    <v>       0.67107720       0.67107708       0.10002661 </v>
    <v>       0.66666607       0.33333293       0.09923912 </v>
    <v>       0.33333255       0.66666645       0.10081942 </v>
    <v>       0.24999504       0.24999477       0.46903969 </v>
    <v>       0.41666287       0.08333421       0.46903913 </v>
    <v>       0.24999893       0.75000007       0.46903875 </v>
    <v>       0.41666703       0.58333197       0.46903937 </v>
    <v>       0.75000229       0.24999671       0.46903951 </v>
    <v>       0.91666737       0.08333163       0.46904005 </v>
    <v>       0.75000423       0.75000396       0.46903969 </v>
    <v>       0.91666479       0.58333613       0.46903913 </v>
   </varray>
  </structure>
  <varray name="forces" >
   <v>      -0.19682241      -0.11362047       0.00833887 </v>
   <v>       0.19681178       0.11365539       0.00835376 </v>
   <v>      -0.19682241       0.11362047       0.00833887 </v>
   <v>       0.19681178      -0.11365539       0.00835376 </v>
   <v>      -0.00000826       0.22731492       0.00835727 </v>
   <v>      -0.00000826      -0.22731492       0.00835727 </v>
   <v>      -0.00001727      -0.00000000       0.00782204 </v>
   <v>       0.00007230      -0.00000000       0.00987069 </v>
   <v>      -0.00031224       0.00125333      -0.00842801 </v>
   <v>       0.00133390       0.00026819      -0.00852247 </v>
   <v>       0.00003572      -0.00000000      -0.00858071 </v>
   <v>      -0.00018669      -0.00000000      -0.00848187 </v>
   <v>      -0.00157337      -0.00000000      -0.00845524 </v>
   <v>      -0.00033621      -0.00000000      -0.00837375 </v>
   <v>      -0.00031224      -0.00125333      -0.00842801 </v>
   <v>       0.00133390      -0.00026819      -0.00852247 </v>
  </varray>
  <varray name="stress" >
   <v>      19.46529555       0.00000000      -0.00062255 </v>
   <v>       0.00000000      19.46170322       0.00000000 </v>
   <v>      -0.00062257       0.00000000      -3.66290436 </v>
  </varray>
  <energy>
   <i name="e_fr_energy">   -125.61389720 </i>
   <i name="e_wo_entrp">   -125.60786957 </i>
   <i name="e_0_energy">   -125.61088338 </i>
  </energy>
  <time name="totalsc">   53.57   54.04</time>
 </calculation>
 <calculation>
  <scstep>
   <time name="dav">    3.37    3.39</time>
   <time name="total">    3.59    3.62</time>
   <energy>
    <i name="alphaZ">     60.93491439 </i>
    <i name="ewald">   1902.21837396 </i>
    <i name="hartreedc">  -3512.62607282 </i>
    <i name="XCdc">    168.74944120 </i>
    <i name="pawpsdc">   5896.37501797 </i>
    <i name="pawaedc">  -5895.78925592 </i>
    <i name="eentropy">     -0.00592420 </i>
    <i name="bandstr">   -490.48235928 </i>
    <i name="atom">   1746.50554237 </i>
    <i name="e_fr_energy">   -124.12032233 </i>
    <i name="e_wo_entrp">   -124.11439813 </i>
    <i name="e_0_energy">   -124.11736023 </i>
   </energy>
  </scstep>
  <scstep>
   <time name="dav">    5.37    5.40</time>
   <time name="total">    5.59    5.63</time>
   <energy>
    <i name="e_fr_energy">   -124.11890567 </i>
    <i name="e_wo_entrp">   -124.11291914 </i>
    <i name="e_0_energy">   -124.11591240 </i>
   </energy>
  </scstep>
  <scstep>
   <time name="dav">    6.06    6.10</time>
   <time name="total">    6.28    6.32</time>
   <energy>
    <i name="e_fr_energy">   -124.11868467 </i>
    <i name="e_wo_entrp">   -124.11266005 </i>
    <i name="e_0_energy">   -124.11567236 </i>
   </energy>
  </scstep>
  <scstep>
   <time name="dav">    4.60    4.63</time>
   <time name="total">    4.83    4.86</time>
   <energy>
    <i name="e_fr_energy">   -124.11867675 </i>
    <i name="e_wo_entrp">   -124.11264842 </i>
    <i name="e_0_energy">   -124.11566259 </i>
   </energy>
  </scstep>
  <scstep>
   <time name="dav">    6.21    6.25</time>
   <time name="total">    6.25    6.28</time>
   <energy>
    <i name="alphaZ">     60.93491439 </i>
    <i name="ewald">   1902.21837396 </i>
    <i name="hartreedc">  -3513.01368294 </i>
    <i name="XCdc">    168.75688614 </i>
    <i name="pawpsdc">   5907.09697605 </i>
    <i name="pawaedc">  -5906.51438760 </i>
    <i name="eentropy">     -0.00602776 </i>
    <i name="bandstr">   -490.09727144 </i>
    <i name="atom">   1746.50554237 </i>
    <i name="e_fr_energy">   -124.11867683 </i>
    <i name="e_wo_entrp">   -124.11264907 </i>
    <i name="e_0_energy">   -124.11566295 </i>
   </energy>
  </scstep>
  <structure>
   <crystal>
    <varray name="basis" >
     <v>       4.29548600       2.48000000       0.00000000 </v>
     <v>      -4.29548600       2.48000000       0.00000000 </v>
     <v>       0.00000000       0.00000000      15.00000000 </v>
    </varray>
    <i name="volume">    319.58415861 </i>
    <varray name="rec_basis" >
     <v>       0.11640126       0.20161290       0.00000000 </v>
     <v>      -0.11640126       0.20161290       0.00000000 </v>
     <v>       0.00000000       0.00000000       0.06666667 </v>
    </varray>
   </crystal>
   <varray name="positions" >
    <v>       0.66997230      -0.00000008       0.10001315 </v>
    <v>       0.33002673      -0.00000008       0.10001318 </v>
    <v>       0.00000008       0.33002670       0.10001315 </v>
    <v>       0.00000008       0.66997227       0.10001318 </v>
    <v>       0.33002662       0.33002656       0.10001319 </v>
    <v>       0.66997244       0.66997238       0.10001319 </v>
    <v>       0.66666603       0.33333297       0.09923043 </v>
    <v>       0.33333278       0.66666622       0.10079859 </v>
    <v>       0.24999721       0.24999724       0.46905330 </v>
    <v>       0.41666462       0.08333343       0.46905302 </v>
    <v>       0.24999913       0.74999987       0.46905283 </v>
    <v>       0.41666668       0.58333232       0.46905314 </v>
    <v>       0.75000080       0.24999820       0.46905321 </v>
    <v>       0.91666685       0.08333215       0.46905348 </v>
    <v>       0.75000176       0.75000179       0.46905330 </v>
    <v>       0.91666557       0.58333438       0.46905302 </v>
   </varray>
  </structure>
  <varray name="forces" >
   <v>       0.00041938       0.00024022       0.00829672 </v>
   <v>      -0.00040707      -0.00023132       0.00831292 </v>
   <v>       0.00041938      -0.00024022       0.00829672 </v>
   <v>      -0.00040707       0.00023132       0.00831292 </v>
   <v>      -0.00000020      -0.00046450       0.00831611 </v>
   <v>      -0.00000020       0.00046450       0.00831611 </v>
   <v>      -0.00000251       0.00000000       0.00656582 </v>
   <v>      -0.00000402       0.00000000       0.01133642 </v>
   <v>      -0.00012710       0.00038095      -0.00840296 </v>
   <v>       0.00043504       0.00008242      -0.00853733 </v>
   <v>      -0.00001885      -0.00000000      -0.00862765 </v>
   <v>      -0.00002955       0.00000000      -0.00848054 </v>
   <v>      -0.00051270       0.00000000      -0.00844615 </v>
   <v>      -0.00007249       0.00000000      -0.00831884 </v>
   <v>      -0.00012710      -0.00038095      -0.00840296 </v>
   <v>       0.00043504      -0.00008242      -0.00853733 </v>
  </varray>
  <varray name="stress" >
   <v>      20.33371863       0.00000000      -0.00063534 </v>
   <v>       0.00000000      20.33233533       0.00000000 </v>
   <v>      -0.00063534       0.00000000      -3.65264810 </v>
  </varray>
  <energy>
   <i name="e_fr_energy">   -125.61762718 </i>
   <i name="e_wo_entrp">   -125.61159942 </i>
   <i name="e_0_energy">   -125.61461330 </i>
  </energy>
  <time name="totalsc">   29.64   29.86</time>
 </calculation>
 <calculation>
  <scstep>
   <time name="dav">    3.69    3.71</time>
   <time name="total">    3.91    3.95</time>
   <energy>
    <i name="alphaZ">     60.93491439 </i>
    <i name="ewald">   1902.21413419 </i>
    <i name="hartreedc">  -3513.01476247 </i>
    <i name="XCdc">    168.75665853 </i>
    <i name="pawpsdc">   5907.17630366 </i>
    <i name="pawaedc">  -5906.59371169 </i>
    <i name="eentropy">     -0.00602792 </i>
    <i name="bandstr">   -490.09172712 </i>
    <i name="atom">   1746.50554237 </i>
    <i name="e_fr_energy">   -124.11867607 </i>
    <i name="e_wo_entrp">   -124.11264815 </i>
    <i name="e_0_energy">   -124.11566211 </i>
   </energy>
  </scstep>
  <scstep>
   <time name="dav">    4.73    4.76</time>
   <time name="total">    4.76    4.80</time>
   <energy>
    <i name="alphaZ">     60.93491439 </i>
    <i name="ewald">   1902.21413419 </i>
    <i name="hartreedc">  -3513.01648452 </i>
    <i name="XCdc">    168.75667589 </i>
    <i name="pawpsdc">   5907.13508775 </i>
    <i name="pawaedc">  -5906.55249177 </i>
    <i name="eentropy">     -0.00602812 </i>
    <i name="bandstr">   -490.09002640 </i>
    <i name="atom">   1746.50554237 </i>
    <i name="e_fr_energy">   -124.11867622 </i>
    <i name="e_wo_entrp">   -124.11264810 </i>
    <i name="e_0_energy">   -124.11566216 </i>
   </energy>
  </scstep>
  <structure>
   <crystal>
    <varray name="basis" >
     <v>       4.29548600       2.48000000       0.00000000 </v>
     <v>      -4.29548600       2.48000000       0.00000000 </v>
     <v>       0.00000000       0.00000000      15.00000000 </v>
    </varray>
    <i name="volume">    319.58415861 </i>
    <varray name="rec_basis" >
     <v>       0.11640126       0.20161290       0.00000000 </v>
     <v>      -0.11640126       0.20161290       0.00000000 </v>
     <v>       0.00000000       0.00000000       0.06666667 </v>
    </varray>
   </crystal>
   <varray name="positions" >
    <v>       0.66997877      -0.00000008       0.10001323 </v>
    <v>       0.33002025      -0.00000008       0.10001326 </v>
    <v>       0.00000008       0.33002023       0.10001323 </v>
    <v>       0.00000008       0.66997875       0.10001326 </v>
    <v>       0.33002015       0.33002009       0.10001326 </v>
    <v>       0.66997891       0.66997885       0.10001326 </v>
    <v>       0.66666603       0.33333297       0.09923048 </v>
    <v>       0.33333277       0.66666623       0.10079871 </v>
    <v>       0.24999719       0.24999722       0.46905322 </v>
    <v>       0.41666461       0.08333343       0.46905294 </v>
    <v>       0.24999913       0.74999987       0.46905275 </v>
    <v>       0.41666668       0.58333232       0.46905306 </v>
    <v>       0.75000081       0.24999819       0.46905313 </v>
    <v>       0.91666685       0.08333215       0.46905340 </v>
    <v>       0.75000178       0.75000181       0.46905322 </v>
    <v>       0.91666557       0.58333439       0.46905294 </v>
   </varray>
  </structure>
  <varray name="forces" >
   <v>      -0.00155923      -0.00090106       0.00828978 </v>
   <v>       0.00157032       0.00091175       0.00830560 </v>
   <v>      -0.00155923       0.00090106       0.00828978 </v>
   <v>       0.00157032      -0.00091175       0.00830560 </v>
   <v>       0.00000088       0.00182033       0.00830920 </v>
   <v>       0.00000088      -0.00182033       0.00830920 </v>
   <v>      -0.00000281      -0.00000000       0.00658001 </v>
   <v>      -0.00000352      -0.00000000       0.01131866 </v>
   <v>      -0.00012858       0.00038814      -0.00839795 </v>
   <v>       0.00044217       0.00008405      -0.00853107 </v>
   <v>      -0.00001790      -0.00000000      -0.00862103 </v>
   <v>      -0.00003103      -0.00000000      -0.00847402 </v>
   <v>      -0.00052061      -0.00000000      -0.00843975 </v>
   <v>      -0.00007524      -0.00000000      -0.00831497 </v>
   <v>      -0.00012858      -0.00038814      -0.00839795 </v>
   <v>       0.00044217      -0.00008405      -0.00853107 </v>
  </varray>
  <varray name="stress" >
   <v>      20.33393404       0.00000000      -0.00063850 </v>
   <v>       0.00000000      20.33250442       0.00000000 </v>
   <v>      -0.00063849       0.00000000      -3.65519913 </v>
  </varray>
  <energy>
   <i name="e_fr_energy">   -125.61762745 </i>
   <i name="e_wo_entrp">   -125.61159932 </i>
   <i name="e_0_energy">   -125.61461338 </i>
  </energy>
  <time name="totalsc">   11.85   11.96</time>
 </calculation>
 <calculation>
  <scstep>
   <time name="dav">    3.88    3.91</time>
   <time name="total">    4.10    4.14</time>
   <energy>
    <i name="alphaZ">     60.93491439 </i>
    <i name="ewald">   1902.21589680 </i>
    <i name="hartreedc">  -3513.01941517 </i>
    <i name="XCdc">    168.75676077 </i>
    <i name="pawpsdc">   5907.10470848 </i>
    <i name="pawaedc">  -5906.52210876 </i>
    <i name="eentropy">     -0.00602795 </i>
    <i name="bandstr">   -490.08894781 </i>
    <i name="atom">   1746.50554237 </i>
    <i name="e_fr_energy">   -124.11867690 </i>
    <i name="e_wo_entrp">   -124.11264895 </i>
    <i name="e_0_energy">   -124.11566292 </i>
   </energy>
  </scstep>
  <scstep>
   <time name="dav">    4.59    4.62</time>
   <time name="total">    4.62    4.65</time>
   <energy>
    <i name="alphaZ">     60.93491439 </i>
    <i name="ewald">   1902.21589680 </i>
    <i name="hartreedc">  -3513.02158896 </i>
    <i name="XCdc">    168.75679658 </i>
    <i name="pawpsdc">   5907.10622977 </i>
    <i name="pawaedc">  -5906.52363286 </i>
    <i name="eentropy">     -0.00602809 </i>
    <i name="bandstr">   -490.08680703 </i>
    <i name="atom">   1746.50554237 </i>
    <i name="e_fr_energy">   -124.11867704 </i>
    <i name="e_wo_entrp">   -124.11264895 </i>
    <i name="e_0_energy">   -124.11566299 </i>
   </energy>
  </scstep>
  <structure>
   <crystal>
    <varray name="basis" >
     <v>       4.29548600       2.48000000       0.00000000 </v>
     <v>      -4.29548600       2.48000000       0.00000000 </v>
     <v>       0.00000000       0.00000000      15.00000000 </v>
    </varray>
    <i name="volume">    319.58415861 </i>
    <varray name="rec_basis" >
     <v>       0.11640126       0.20161290       0.00000000 </v>
     <v>      -0.11640126       0.20161290       0.00000000 </v>
     <v>       0.00000000       0.00000000       0.06666667 </v>
    </varray>
   </crystal>
   <varray name="positions" >
    <v>       0.66997608      -0.00000008       0.10001320 </v>
    <v>       0.33002294      -0.00000008       0.10001323 </v>
    <v>       0.00000008       0.33002292       0.10001320 </v>
    <v>       0.00000008       0.66997606       0.10001323 </v>
    <v>       0.33002284       0.33002278       0.10001323 </v>
    <v>       0.66997622       0.66997616       0.10001323 </v>
    <v>       0.66666603       0.33333297       0.09923046 </v>
    <v>       0.33333277       0.66666623       0.10079866 </v>
    <v>       0.24999720       0.24999723       0.46905325 </v>
    <v>       0.41666461       0.08333343       0.46905297 </v>
    <v>       0.24999913       0.74999987       0.46905278 </v>
    <v>       0.41666668       0.58333232       0.46905309 </v>
    <v>       0.75000081       0.24999819       0.46905316 </v>
    <v>       0.91666685       0.08333215       0.46905343 </v>
    <v>       0.75000177       0.75000180       0.46905325 </v>
    <v>       0.91666557       0.58333439       0.46905297 </v>
   </varray>
  </structure>
  <varray name="forces" >
   <v>      -0.00136751      -0.00079039       0.00828822 </v>
   <v>       0.00137862       0.00080114       0.00830400 </v>
   <v>      -0.00136751       0.00079039       0.00828822 </v>
   <v>       0.00137862      -0.00080114       0.00830400 </v>
   <v>       0.00000091       0.00159897       0.00830757 </v>
   <v>       0.00000091      -0.00159897       0.00830757 </v>
   <v>      -0.00000285       0.00000000       0.00658734 </v>
   <v>      -0.00000356       0.00000000       0.01132535 </v>
   <v>      -0.00012838       0.00038570      -0.00839835 </v>
   <v>       0.00043987       0.00008369      -0.00853179 </v>
   <v>      -0.00001817       0.00000000      -0.00862174 </v>
   <v>      -0.00003028       0.00000000      -0.00847474 </v>
   <v>      -0.00051791       0.00000000      -0.00844035 </v>
   <v>      -0.00007424       0.00000000      -0.00831515 </v>
   <v>      -0.00012838      -0.00038570      -0.00839835 </v>
   <v>       0.00043987      -0.00008369      -0.00853179 </v>
  </varray>
  <varray name="stress" >
   <v>      20.33636903       0.00000000      -0.00063895 </v>
   <v>       0.00000000      20.33492298       0.00000000 </v>
   <v>      -0.00063895       0.00000000      -3.65408682 </v>
  </varray>
  <energy>
   <i name="e_fr_energy">   -125.61762790 </i>
   <i name="e_wo_entrp">   -125.61159981 </i>
   <i name="e_0_energy">   -125.61461385 </i>
  </energy>
  <time name="totalsc">   11.83   11.92</time>
 </calculation>
 <calculation>
  <scstep>
   <time name="dav">    4.13    4.15</time>
   <time name="total">    4.35    4.38</time>
   <energy>
    <i name="alphaZ">     60.93491439 </i>
    <i name="ewald">   1902.21713532 </i>
    <i name="hartreedc">  -3513.02393193 </i>
    <i name="XCdc">    168.75686216 </i>
    <i name="pawpsdc">   5907.10432591 </i>
    <i name="pawaedc">  -5906.52173030 </i>
    <i name="eentropy">     -0.00602805 </i>
    <i name="bandstr">   -490.08576732 </i>
    <i name="atom">   1746.50554237 </i>
    <i name="e_fr_energy">   -124.11867745 </i>
    <i name="e_wo_entrp">   -124.11264941 </i>
    <i name="e_0_energy">   -124.11566343 </i>
   </energy>
  </scstep>
  <scstep>
   <time name="dav">    5.02    5.05</time>
   <time name="total">    5.05    5.09</time>
   <energy>
    <i name="alphaZ">     60.93491439 </i>
    <i name="ewald">   1902.21713532 </i>
    <i name="hartreedc">  -3513.02551944 </i>
    <i name="XCdc">    168.75688639 </i>
    <i name="pawpsdc">   5907.11186629 </i>
    <i name="pawaedc">  -5906.52927347 </i>
    <i name="eentropy">     -0.00602817 </i>
    <i name="bandstr">   -490.08420120 </i>
    <i name="atom">   1746.50554237 </i>
    <i name="e_fr_energy">   -124.11867754 </i>
    <i name="e_wo_entrp">   -124.11264937 </i>
    <i name="e_0_energy">   -124.11566345 </i>
   </energy>
  </scstep>
  <structure>
   <crystal>
    <varray name="basis" >
     <v>       4.29548600       2.48000000       0.00000000 </v>
     <v>      -4.29548600       2.48000000       0.00000000 </v>
     <v>       0.00000000       0.00000000      15.00000000 </v>
    </varray>
    <i name="volume">    319.58415861 </i>
    <varray name="rec_basis" >
     <v>       0.11640126       0.20161290       0.00000000 </v>
     <v>      -0.11640126       0.20161290       0.00000000 </v>
     <v>       0.00000000       0.00000000       0.06666667 </v>
    </varray>
   </crystal>
   <varray name="positions" >
    <v>       0.66997419      -0.00000008       0.10001318 </v>
    <v>       0.33002483      -0.00000008       0.10001320 </v>
    <v>       0.00000008       0.33002481       0.10001318 </v>
    <v>       0.00000008       0.66997417       0.10001320 </v>
    <v>       0.33002473       0.33002467       0.10001321 </v>
    <v>       0.66997433       0.66997427       0.10001321 </v>
    <v>       0.66666603       0.33333297       0.09923044 </v>
    <v>       0.33333278       0.66666622       0.10079862 </v>
    <v>       0.24999720       0.24999723       0.46905327 </v>
    <v>       0.41666462       0.08333343       0.46905300 </v>
    <v>       0.24999913       0.74999987       0.46905280 </v>
    <v>       0.41666668       0.58333232       0.46905311 </v>
    <v>       0.75000080       0.24999820       0.46905318 </v>
    <v>       0.91666685       0.08333215       0.46905345 </v>
    <v>       0.75000177       0.75000180       0.46905327 </v>
    <v>       0.91666557       0.58333438       0.46905300 </v>
   </varray>
  </structure>
  <varray name="forces" >
   <v>      -0.00102383      -0.00059204       0.00828901 </v>
   <v>       0.00103499       0.00060269       0.00830476 </v>
   <v>      -0.00102383       0.00059204       0.00828901 </v>
   <v>       0.00103499      -0.00060269       0.00830476 </v>
   <v>       0.00000090       0.00120211       0.00830835 </v>
   <v>       0.00000090      -0.00120211       0.00830835 </v>
   <v>      -0.00000281       0.00000000       0.00658879 </v>
   <v>      -0.00000367       0.00000000       0.01133228 </v>
   <v>      -0.00012812       0.00038418      -0.00839993 </v>
   <v>       0.00043839       0.00008339      -0.00853351 </v>
   <v>      -0.00001831       0.00000000      -0.00862347 </v>
   <v>      -0.00002995       0.00000000      -0.00847641 </v>
   <v>      -0.00051614       0.00000000      -0.00844202 </v>
   <v>      -0.00007377       0.00000000      -0.00831653 </v>
   <v>      -0.00012812      -0.00038418      -0.00839993 </v>
   <v>       0.00043839      -0.00008339      -0.00853351 </v>
  </varray>
  <varray name="stress" >
   <v>      20.33804684       0.00000000      -0.00063898 </v>
   <v>       0.00000000      20.33660102       0.00000000 </v>
   <v>      -0.00063898       0.00000000      -3.65648252 </v>
  </varray>
  <energy>
   <i name="e_fr_energy">   -125.61762814 </i>
   <i name="e_wo_entrp">   -125.61159997 </i>
   <i name="e_0_energy">   -125.61461406 </i>
  </energy>
  <time name="totalsc">   12.49   12.59</time>
 </calculation>
 <calculation>
  <scstep>
   <time name="dav">    3.92    3.94</time>
   <time name="total">    4.14    4.17</time>
   <energy>
    <i name="alphaZ">     60.93491439 </i>
    <i name="ewald">   1902.21775463 </i>
    <i name="hartreedc">  -3513.02740584 </i>
    <i name="XCdc">    168.75692695 </i>
    <i name="pawpsdc">   5907.11660642 </i>
    <i name="pawaedc">  -5906.53401511 </i>
    <i name="eentropy">     -0.00602819 </i>
    <i name="bandstr">   -490.08297336 </i>
    <i name="atom">   1746.50554237 </i>
    <i name="e_fr_energy">   -124.11867776 </i>
    <i name="e_wo_entrp">   -124.11264957 </i>
    <i name="e_0_energy">   -124.11566366 </i>
   </energy>
  </scstep>
  <scstep>
   <time name="dav">    5.11    5.14</time>
   <time name="total">    5.15    5.18</time>
   <energy>
    <i name="alphaZ">     60.93491439 </i>
    <i name="ewald">   1902.21775463 </i>
    <i name="hartreedc">  -3513.02838584 </i>
    <i name="XCdc">    168.75693995 </i>
    <i name="pawpsdc">   5907.12192406 </i>
    <i name="pawaedc">  -5906.53933407 </i>
    <i name="eentropy">     -0.00602825 </i>
    <i name="bandstr">   -490.08200503 </i>
    <i name="atom">   1746.50554237 </i>
    <i name="e_fr_energy">   -124.11867780 </i>
    <i name="e_wo_entrp">   -124.11264955 </i>
    <i name="e_0_energy">   -124.11566368 </i>
   </energy>
  </scstep>
  <structure>
   <crystal>
    <varray name="basis" >
     <v>       4.29548600       2.48000000       0.00000000 </v>
     <v>      -4.29548600       2.48000000       0.00000000 </v>
     <v>       0.00000000       0.00000000      15.00000000 </v>
    </varray>
    <i name="volume">    319.58415861 </i>
    <varray name="rec_basis" >
     <v>       0.11640126       0.20161290       0.00000000 </v>
     <v>      -0.11640126       0.20161290       0.00000000 </v>
     <v>       0.00000000       0.00000000       0.06666667 </v>
    </varray>
   </crystal>
   <varray name="positions" >
    <v>       0.66997325      -0.00000008       0.10001316 </v>
    <v>       0.33002578      -0.00000008       0.10001319 </v>
    <v>       0.00000008       0.33002575       0.10001316 </v>
    <v>       0.00000008       0.66997322       0.10001319 </v>
    <v>       0.33002568       0.33002562       0.10001320 </v>
    <v>       0.66997338       0.66997332       0.10001320 </v>
    <v>       0.66666603       0.33333297       0.09923043 </v>
    <v>       0.33333278       0.66666622       0.10079860 </v>
    <v>       0.24999720       0.24999724       0.46905328 </v>
    <v>       0.41666462       0.08333343       0.46905301 </v>
    <v>       0.24999913       0.74999987       0.46905282 </v>
    <v>       0.41666668       0.58333232       0.46905313 </v>
    <v>       0.75000080       0.24999820       0.46905319 </v>
    <v>       0.91666685       0.08333215       0.46905346 </v>
    <v>       0.75000176       0.75000180       0.46905328 </v>
    <v>       0.91666557       0.58333438       0.46905301 </v>
   </varray>
  </structure>
  <varray name="forces" >
   <v>      -0.00082095      -0.00047494       0.00829043 </v>
   <v>       0.00083215       0.00048552       0.00830623 </v>
   <v>      -0.00082095       0.00047494       0.00829043 </v>
   <v>       0.00083215      -0.00048552       0.00830623 </v>
   <v>       0.00000088       0.00096784       0.00830978 </v>
   <v>       0.00000088      -0.00096784       0.00830978 </v>
   <v>      -0.00000278       0.00000000       0.00659059 </v>
   <v>      -0.00000376      -0.00000000       0.01133691 </v>
   <v>      -0.00012797       0.00038343      -0.00840176 </v>
   <v>       0.00043761       0.00008322      -0.00853542 </v>
   <v>      -0.00001836       0.00000000      -0.00862547 </v>
   <v>      -0.00002981      -0.00000000      -0.00847838 </v>
   <v>      -0.00051522      -0.00000000      -0.00844396 </v>
   <v>      -0.00007353      -0.00000000      -0.00831820 </v>
   <v>      -0.00012797      -0.00038343      -0.00840176 </v>
   <v>       0.00043761      -0.00008322      -0.00853542 </v>
  </varray>
  <varray name="stress" >
   <v>      20.33896181       0.00000000      -0.00063905 </v>
   <v>       0.00000000      20.33751956       0.00000000 </v>
   <v>      -0.00063904       0.00000000      -3.65868589 </v>
  </varray>
  <energy>
   <i name="e_fr_energy">   -125.61762828 </i>
   <i name="e_wo_entrp">   -125.61160003 </i>
   <i name="e_0_energy">   -125.61461415 </i>
  </energy>
  <time name="totalsc">   12.40   12.51</time>
 </calculation>
 <calculation>
  <scstep>
   <time name="dav">    3.52    3.54</time>
   <time name="total">    3.74    3.77</time>
   <energy>
    <i name="alphaZ">     60.93491439 </i>
    <i name="ewald">   1902.84762365 </i>
    <i name="hartreedc">  -3513.65930849 </i>
    <i name="XCdc">    168.75694621 </i>
    <i name="pawpsdc">   5907.12524259 </i>
    <i name="pawaedc">  -5906.54265322 </i>
    <i name="eentropy">     -0.00602835 </i>
    <i name="bandstr">   -490.08096432 </i>
    <i name="atom">   1746.50554237 </i>
    <i name="e_fr_energy">   -124.11868518 </i>
    <i name="e_wo_entrp">   -124.11265683 </i>
    <i name="e_0_energy">   -124.11567100 </i>
   </energy>
  </scstep>
  <scstep>
   <time name="dav">    3.91    3.94</time>
   <time name="total">    4.13    4.16</time>
   <energy>
    <i name="e_fr_energy">   -124.11868385 </i>
    <i name="e_wo_entrp">   -124.11265527 </i>
    <i name="e_0_energy">   -124.11566956 </i>
   </energy>
  </scstep>
  <scstep>
   <time name="dav">    4.01    4.04</time>
   <time name="total">    4.05    4.08</time>
   <energy>
    <i name="alphaZ">     60.93491439 </i>
    <i name="ewald">   1902.84762365 </i>
    <i name="hartreedc">  -3513.66872933 </i>
    <i name="XCdc">    168.75697691 </i>
    <i name="pawpsdc">   5907.11886449 </i>
    <i name="pawaedc">  -5906.53627233 </i>
    <i name="eentropy">     -0.00602842 </i>
    <i name="bandstr">   -490.07157492 </i>
    <i name="atom">   1746.50554237 </i>
    <i name="e_fr_energy">   -124.11868320 </i>
    <i name="e_wo_entrp">   -124.11265479 </i>
    <i name="e_0_energy">   -124.11566900 </i>
   </energy>
  </scstep>
  <structure>
   <crystal>
    <varray name="basis" >
     <v>       4.29548600       2.48000000       0.00000000 </v>
     <v>      -4.29548600       2.48000000       0.00000000 </v>
     <v>       0.00000000       0.00000000      15.00000000 </v>
    </varray>
    <i name="volume">    319.58415861 </i>
    <varray name="rec_basis" >
     <v>       0.11640126       0.20161290       0.00000000 </v>
     <v>      -0.11640126       0.20161290       0.00000000 </v>
     <v>       0.00000000       0.00000000       0.06666667 </v>
    </varray>
   </crystal>
   <varray name="positions" >
    <v>       0.66997331      -0.00000009       0.10003724 </v>
    <v>       0.33002587      -0.00000003       0.10003731 </v>
    <v>       0.00000009       0.33002569       0.10003724 </v>
    <v>       0.00000003       0.66997313       0.10003731 </v>
    <v>       0.33002578       0.33002571       0.10003733 </v>
    <v>       0.66997329       0.66997322       0.10003733 </v>
    <v>       0.66666602       0.33333298       0.09924956 </v>
    <v>       0.33333275       0.66666625       0.10083155 </v>
    <v>       0.24999990       0.25000122       0.46902888 </v>
    <v>       0.41666754       0.08333195       0.46902822 </v>
    <v>       0.24999904       0.74999996       0.46902777 </v>
    <v>       0.41666653       0.58333247       0.46902850 </v>
    <v>       0.74999821       0.25000079       0.46902867 </v>
    <v>       0.91666648       0.08333252       0.46902931 </v>
    <v>       0.74999778       0.74999910       0.46902888 </v>
    <v>       0.91666705       0.58333146       0.46902822 </v>
   </varray>
  </structure>
  <varray name="forces" >
   <v>      -0.00079506      -0.00046899       0.00800011 </v>
   <v>       0.00080440       0.00045052       0.00801498 </v>
   <v>      -0.00079506       0.00046899       0.00800011 </v>
   <v>       0.00080440      -0.00045052       0.00801498 </v>
   <v>      -0.00000282       0.00091876       0.00801822 </v>
   <v>      -0.00000282      -0.00091876       0.00801822 </v>
   <v>       0.00000738       0.00000000       0.00629185 </v>
   <v>      -0.00000446       0.00000000       0.01109511 </v>
   <v>       0.00047553      -0.00092833      -0.00814445 </v>
   <v>      -0.00122820      -0.00021627      -0.00821947 </v>
   <v>       0.00019016       0.00000000      -0.00826620 </v>
   <v>      -0.00010648       0.00000000      -0.00819103 </v>
   <v>       0.00139776       0.00000000      -0.00817128 </v>
   <v>       0.00000791       0.00000000      -0.00809724 </v>
   <v>       0.00047553       0.00092833      -0.00814445 </v>
   <v>      -0.00122820       0.00021627      -0.00821947 </v>
  </varray>
  <varray name="stress" >
   <v>      20.33665686       0.00000000      -0.00063839 </v>
   <v>       0.00000000      20.33947230       0.00000000 </v>
   <v>      -0.00063840       0.00000000      -3.66374137 </v>
  </varray>
  <energy>
   <i name="e_fr_energy">   -125.61767888 </i>
   <i name="e_wo_entrp">   -125.61165046 </i>
   <i name="e_0_energy">   -125.61466467 </i>
  </energy>
  <time name="totalsc">   15.02   15.15</time>
 </calculation>
 <calculation>
  <scstep>
   <time name="dav">    3.33    3.35</time>
   <time name="total">    3.54    3.57</time>
   <energy>
    <i name="alphaZ">     60.93491439 </i>
    <i name="ewald">   1904.73862539 </i>
    <i name="hartreedc">  -3515.55791953 </i>
    <i name="XCdc">    168.75695961 </i>
    <i name="pawpsdc">   5907.12188861 </i>
    <i name="pawaedc">  -5906.53929609 </i>
    <i name="eentropy">     -0.00602850 </i>
    <i name="bandstr">   -490.07340244 </i>
    <i name="atom">   1746.50554237 </i>
    <i name="e_fr_energy">   -124.11871620 </i>
    <i name="e_wo_entrp">   -124.11268771 </i>
    <i name="e_0_energy">   -124.11570195 </i>
   </energy>
  </scstep>
  <scstep>
   <time name="dav">    3.80    3.82</time>
   <time name="total">    4.01    4.05</time>
   <energy>
    <i name="e_fr_energy">   -124.11870468 </i>
    <i name="e_wo_entrp">   -124.11267552 </i>
    <i name="e_0_energy">   -124.11569010 </i>
   </energy>
  </scstep>
  <scstep>
   <time name="dav">    4.50    4.52</time>
   <time name="total">    4.72    4.75</time>
   <energy>
    <i name="e_fr_energy">   -124.11869816 </i>
    <i name="e_wo_entrp">   -124.11266952 </i>
    <i name="e_0_energy">   -124.11568384 </i>
   </energy>
  </scstep>
  <scstep>
   <time name="dav">    4.37    4.39</time>
   <time name="total">    4.40    4.42</time>
   <energy>
    <i name="alphaZ">     60.93491439 </i>
    <i name="ewald">   1904.73862539 </i>
    <i name="hartreedc">  -3515.57356616 </i>
    <i name="XCdc">    168.75700931 </i>
    <i name="pawpsdc">   5907.11266754 </i>
    <i name="pawaedc">  -5906.53006742 </i>
    <i name="eentropy">     -0.00602847 </i>
    <i name="bandstr">   -490.05779559 </i>
    <i name="atom">   1746.50554237 </i>
    <i name="e_fr_energy">   -124.11869864 </i>
    <i name="e_wo_entrp">   -124.11267018 </i>
    <i name="e_0_energy">   -124.11568441 </i>
   </energy>
  </scstep>
  <structure>
   <crystal>
    <varray name="basis" >
     <v>       4.29548600       2.48000000       0.00000000 </v>
     <v>      -4.29548600       2.48000000       0.00000000 </v>
     <v>       0.00000000       0.00000000      15.00000000 </v>
    </varray>
    <i name="volume">    319.58415861 </i>
    <varray name="rec_basis" >
     <v>       0.11640126       0.20161290       0.00000000 </v>
     <v>      -0.11640126       0.20161290       0.00000000 </v>
     <v>       0.00000000       0.00000000       0.06666667 </v>
    </varray>
   </crystal>
   <varray name="positions" >
    <v>       0.66997350      -0.00000011       0.10010947 </v>
    <v>       0.33002612       0.00000010       0.10010968 </v>
    <v>       0.00000011       0.33002550       0.10010947 </v>
    <v>      -0.00000010       0.66997288       0.10010968 </v>
    <v>       0.33002610       0.33002600       0.10010973 </v>
    <v>       0.66997300       0.66997290       0.10010973 </v>
    <v>       0.66666598       0.33333302       0.09930694 </v>
    <v>       0.33333269       0.66666631       0.10093038 </v>
    <v>       0.25000797       0.25001316       0.46895568 </v>
    <v>       0.41667632       0.08332753       0.46895385 </v>
    <v>       0.24999876       0.75000024       0.46895261 </v>
    <v>       0.41666609       0.58333291       0.46895463 </v>
    <v>       0.74999044       0.25000856       0.46895510 </v>
    <v>       0.91666538       0.08333362       0.46895683 </v>
    <v>       0.74998584       0.74999103       0.46895568 </v>
    <v>       0.91667147       0.58332268       0.46895385 </v>
   </varray>
  </structure>
  <varray name="forces" >
   <v>      -0.00082160      -0.00051812       0.00835228 </v>
   <v>       0.00083099       0.00040806       0.00836428 </v>
   <v>      -0.00082160       0.00051812       0.00835228 </v>
   <v>       0.00083099      -0.00040806       0.00836428 </v>
   <v>      -0.00002077       0.00089708       0.00836594 </v>
   <v>      -0.00002077      -0.00089708       0.00836594 </v>
   <v>       0.00004079      -0.00000000       0.00643409 </v>
   <v>      -0.00000048      -0.00000000       0.01138106 </v>
   <v>       0.00228395      -0.00469114      -0.00854191 </v>
   <v>      -0.00612694      -0.00104308      -0.00845149 </v>
   <v>       0.00090991      -0.00000000      -0.00837467 </v>
   <v>      -0.00038877      -0.00000000      -0.00850090 </v>
   <v>       0.00703063      -0.00000000      -0.00851927 </v>
   <v>       0.00011664      -0.00000000      -0.00859851 </v>
   <v>       0.00228395       0.00469114      -0.00854191 </v>
   <v>      -0.00612694       0.00104308      -0.00845149 </v>
  </varray>
  <varray name="stress" >
   <v>      20.32791910       0.00000000      -0.00064527 </v>
   <v>       0.00000000      20.34765648       0.00000000 </v>
   <v>      -0.00064525       0.00000000      -3.66856600 </v>
  </varray>
  <energy>
   <i name="e_fr_energy">   -125.61783011 </i>
   <i name="e_wo_entrp">   -125.61180165 </i>
   <i name="e_0_energy">   -125.61481588 </i>
  </energy>
  <time name="totalsc">   19.76   19.93</time>
 </calculation>
 <calculation>
  <scstep>
   <time name="dav">    3.30    3.32</time>
   <time name="total">    3.52    3.55</time>
   <energy>
    <i name="alphaZ">     60.93491439 </i>
    <i name="ewald">   1908.52690863 </i>
    <i name="hartreedc">  -3519.35584110 </i>
    <i name="XCdc">    168.75697659 </i>
    <i name="pawpsdc">   5907.11305350 </i>
    <i name="pawaedc">  -5906.53045636 </i>
    <i name="eentropy">     -0.00602862 </i>
    <i name="bandstr">   -490.06386170 </i>
    <i name="atom">   1746.50554237 </i>
    <i name="e_fr_energy">   -124.11879231 </i>
    <i name="e_wo_entrp">   -124.11276369 </i>
    <i name="e_0_energy">   -124.11577800 </i>
   </energy>
  </scstep>
  <scstep>
   <time name="dav">    3.73    3.75</time>
   <time name="total">    3.95    3.98</time>
   <energy>
    <i name="e_fr_energy">   -124.11875056 </i>
    <i name="e_wo_entrp">   -124.11272066 </i>
    <i name="e_0_energy">   -124.11573561 </i>
   </energy>
  </scstep>
  <scstep>
   <time name="dav">    4.66    4.68</time>
   <time name="total">    4.88    4.91</time>
   <energy>
    <i name="e_fr_energy">   -124.11872158 </i>
    <i name="e_wo_entrp">   -124.11269267 </i>
    <i name="e_0_energy">   -124.11570712 </i>
   </energy>
  </scstep>
  <scstep>
   <time name="dav">    4.75    4.77</time>
   <time name="total">    4.97    5.00</time>
   <energy>
    <i name="e_fr_energy">   -124.11872275 </i>
    <i name="e_wo_entrp">   -124.11269420 </i>
    <i name="e_0_energy">   -124.11570848 </i>
   </energy>
  </scstep>
  <scstep>
   <time name="dav">    3.52    3.54</time>
   <time name="total">    3.55    3.57</time>
   <energy>
    <i name="alphaZ">     60.93491439 </i>
    <i name="ewald">   1908.52690863 </i>
    <i name="hartreedc">  -3519.37272824 </i>
    <i name="XCdc">    168.75705304 </i>
    <i name="pawpsdc">   5907.09463665 </i>
    <i name="pawaedc">  -5906.51203064 </i>
    <i name="eentropy">     -0.00602849 </i>
    <i name="bandstr">   -490.04699110 </i>
    <i name="atom">   1746.50554237 </i>
    <i name="e_fr_energy">   -124.11872341 </i>
    <i name="e_wo_entrp">   -124.11269491 </i>
    <i name="e_0_energy">   -124.11570916 </i>
   </energy>
  </scstep>
  <structure>
   <crystal>
    <varray name="basis" >
     <v>       4.29548600       2.48000000       0.00000000 </v>
     <v>      -4.29548600       2.48000000       0.00000000 </v>
     <v>       0.00000000       0.00000000      15.00000000 </v>
    </varray>
    <i name="volume">    319.58415861 </i>
    <varray name="rec_basis" >
     <v>       0.11640126       0.20161290       0.00000000 </v>
     <v>      -0.11640126       0.20161290       0.00000000 </v>
     <v>       0.00000000       0.00000000       0.06666667 </v>
    </varray>
   </crystal>
   <varray name="positions" >
    <v>       0.66997389      -0.00000017       0.10025394 </v>
    <v>       0.33002663       0.00000036       0.10025442 </v>
    <v>       0.00000017       0.33002511       0.10025394 </v>
    <v>      -0.00000036       0.66997237       0.10025442 </v>
    <v>       0.33002673       0.33002658       0.10025453 </v>
    <v>       0.66997242       0.66997227       0.10025453 </v>
    <v>       0.66666590       0.33333310       0.09942169 </v>
    <v>       0.33333257       0.66666643       0.10112805 </v>
    <v>       0.25002411       0.25003705       0.46880927 </v>
    <v>       0.41669386       0.08331867       0.46880511 </v>
    <v>       0.24999819       0.75000081       0.46880230 </v>
    <v>       0.41666520       0.58333380       0.46880689 </v>
    <v>       0.74997490       0.25002410       0.46880796 </v>
    <v>       0.91666317       0.08333583       0.46881188 </v>
    <v>       0.74996195       0.74997489       0.46880927 </v>
    <v>       0.91668033       0.58330514       0.46880511 </v>
   </varray>
  </structure>
  <varray name="forces" >
   <v>      -0.00088165      -0.00060111       0.00832612 </v>
[...]
       <r>     2.6331     1.7319    31.3179 </r>
       <r>     2.7367     1.7686    31.5010 </r>
       <r>     2.8402     1.4758    31.6537 </r>
       <r>     2.9437     1.4623    31.8051 </r>
       <r>     3.0472     1.1790    31.9271 </r>
       <r>     3.1507     1.4348    32.0756 </r>
       <r>     3.2542     2.5388    32.3384 </r>
       <r>     3.3577     2.4037    32.5872 </r>
       <r>     3.4612     2.1929    32.8142 </r>
       <r>     3.5647     1.5410    32.9737 </r>
       <r>     3.6682     2.3872    33.2208 </r>
       <r>     3.7717     2.9309    33.5242 </r>
       <r>     3.8752     2.8578    33.8200 </r>
       <r>     3.9787     2.5151    34.0803 </r>
       <r>     4.0822     2.0475    34.2922 </r>
       <r>     4.1858     2.1876    34.5187 </r>
       <r>     4.2893     2.8572    34.8144 </r>
       <r>     4.3928     3.5937    35.1864 </r>
       <r>     4.4963     2.6900    35.4648 </r>
       <r>     4.5998     2.2727    35.7001 </r>
       <r>     4.7033     3.7907    36.0924 </r>
       <r>     4.8068     3.5924    36.4643 </r>
       <r>     4.9103     2.4600    36.7189 </r>
       <r>     5.0138     2.7410    37.0026 </r>
       <r>     5.1173     3.8454    37.4006 </r>
       <r>     5.2208     4.1893    37.8343 </r>
       <r>     5.3243     3.4721    38.1936 </r>
       <r>     5.4278     3.1856    38.5234 </r>
       <r>     5.5313     3.0441    38.8385 </r>
       <r>     5.6349     3.3455    39.1848 </r>
       <r>     5.7384     3.4335    39.5401 </r>
       <r>     5.8419     3.0306    39.8538 </r>
       <r>     5.9454     2.8013    40.1438 </r>
       <r>     6.0489     2.4410    40.3965 </r>
       <r>     6.1524     2.9510    40.7019 </r>
       <r>     6.2559     2.4882    40.9595 </r>
       <r>     6.3594     2.2997    41.1975 </r>
       <r>     6.4629     2.6237    41.4691 </r>
       <r>     6.5664     3.0102    41.7806 </r>
       <r>     6.6699     2.8075    42.0712 </r>
       <r>     6.7734     3.4499    42.4283 </r>
       <r>     6.8769     3.7952    42.8211 </r>
       <r>     6.9805     3.7509    43.2094 </r>
       <r>     7.0840     3.5467    43.5765 </r>
       <r>     7.1875     3.5146    43.9403 </r>
       <r>     7.2910     3.9041    44.3444 </r>
       <r>     7.3945     4.3715    44.7969 </r>
       <r>     7.4980     4.2826    45.2402 </r>
       <r>     7.6015     5.1326    45.7714 </r>
       <r>     7.7050     4.5233    46.2396 </r>
       <r>     7.8085     4.0348    46.6572 </r>
       <r>     7.9120     4.3945    47.1121 </r>
       <r>     8.0155     3.7548    47.5008 </r>
       <r>     8.1190     2.3909    47.7482 </r>
       <r>     8.2225     1.7057    47.9248 </r>
       <r>     8.3260     0.5953    47.9864 </r>
       <r>     8.4296     0.0825    47.9949 </r>
       <r>     8.5331     0.0370    47.9988 </r>
       <r>     8.6366     0.0112    47.9999 </r>
       <r>     8.7401     0.0006    48.0000 </r>
       <r>     8.8436     0.0000    48.0000 </r>
       <r>     8.9471     0.0000    48.0000 </r>
       <r>     9.0506     0.0000    48.0000 </r>
       <r>     9.1541     0.0000    48.0000 </r>
       <r>     9.2576     0.0000    48.0000 </r>
       <r>     9.3611     0.0000    48.0000 </r>
       <r>     9.4646     0.0000    48.0000 </r>
       <r>     9.5681     0.0000    48.0000 </r>
       <r>     9.6716     0.0000    48.0000 </r>
       <r>     9.7751     0.0000    48.0000 </r>
       <r>     9.8787     0.0000    48.0000 </r>
      </set>
      <set comment="spin 2">
       <r>   -21.1735     0.0000     0.0000 </r>
       <r>   -21.0700     0.0000     0.0000 </r>
       <r>   -20.9665     0.0000     0.0000 </r>
       <r>   -20.8630     0.0000     0.0000 </r>
       <r>   -20.7595     0.0000     0.0000 </r>
       <r>   -20.6560     0.0000     0.0000 </r>
       <r>   -20.5525     0.0000     0.0000 </r>
       <r>   -20.4490     0.0000     0.0000 </r>
       <r>   -20.3455     0.0000     0.0000 </r>
       <r>   -20.2420     0.0000     0.0000 </r>
       <r>   -20.1385     0.0000     0.0000 </r>
       <r>   -20.0350     0.0000     0.0000 </r>
       <r>   -19.9315     0.0012     0.0001 </r>
       <r>   -19.8279     0.0390     0.0042 </r>
       <r>   -19.7244     0.2641     0.0315 </r>
       <r>   -19.6209     0.5480     0.0882 </r>
       <r>   -19.5174     0.6052     0.1509 </r>
       <r>   -19.4139     0.6504     0.2182 </r>
       <r>   -19.3104     0.5636     0.2765 </r>
       <r>   -19.2069     0.7103     0.3501 </r>
       <r>   -19.1034     0.5546     0.4075 </r>
       <r>   -18.9999     0.5909     0.4686 </r>
       <r>   -18.8964     0.7824     0.5496 </r>
       <r>   -18.7929     0.4921     0.6005 </r>
       <r>   -18.6894     0.5552     0.6580 </r>
       <r>   -18.5859     0.8108     0.7419 </r>
       <r>   -18.4824     0.6610     0.8103 </r>
       <r>   -18.3788     0.3857     0.8503 </r>
       <r>   -18.2753     0.6583     0.9184 </r>
       <r>   -18.1718     0.8861     1.0101 </r>
       <r>   -18.0683     0.5804     1.0702 </r>
       <r>   -17.9648     0.4798     1.1199 </r>
       <r>   -17.8613     0.4594     1.1674 </r>
       <r>   -17.7578     0.9398     1.2647 </r>
       <r>   -17.6543     0.7972     1.3472 </r>
       <r>   -17.5508     0.4253     1.3912 </r>
       <r>   -17.4473     0.4780     1.4407 </r>
       <r>   -17.3438     0.5871     1.5015 </r>
       <r>   -17.2403     0.8987     1.5945 </r>
       <r>   -17.1368     0.8258     1.6800 </r>
       <r>   -17.0333     0.5593     1.7379 </r>
       <r>   -16.9297     0.2909     1.7680 </r>
       <r>   -16.8262     0.5899     1.8290 </r>
       <r>   -16.7227     0.9204     1.9243 </r>
       <r>   -16.6192     0.8185     2.0090 </r>
       <r>   -16.5157     0.6733     2.0787 </r>
       <r>   -16.4122     0.5707     2.1378 </r>
       <r>   -16.3087     0.3391     2.1729 </r>
       <r>   -16.2052     0.4716     2.2217 </r>
       <r>   -16.1017     1.1640     2.3422 </r>
       <r>   -15.9982     0.9429     2.4398 </r>
       <r>   -15.8947     1.0594     2.5494 </r>
       <r>   -15.7912     1.2652     2.6804 </r>
       <r>   -15.6877     1.3460     2.8197 </r>
       <r>   -15.5841     1.2433     2.9484 </r>
       <r>   -15.4806     1.6688     3.1211 </r>
       <r>   -15.3771     2.0839     3.3368 </r>
       <r>   -15.2736     1.7123     3.5141 </r>
       <r>   -15.1701     1.5892     3.6786 </r>
       <r>   -15.0666     1.8060     3.8655 </r>
       <r>   -14.9631     1.3674     4.0070 </r>
       <r>   -14.8596     1.2431     4.1357 </r>
       <r>   -14.7561     1.3195     4.2723 </r>
       <r>   -14.6526     1.3848     4.4156 </r>
       <r>   -14.5491     1.0686     4.5262 </r>
       <r>   -14.4456     1.1845     4.6488 </r>
       <r>   -14.3421     1.0352     4.7560 </r>
       <r>   -14.2386     1.1683     4.8769 </r>
       <r>   -14.1350     1.9397     5.0777 </r>
       <r>   -14.0315     1.6847     5.2521 </r>
       <r>   -13.9280     0.8509     5.3401 </r>
       <r>   -13.8245     0.6811     5.4106 </r>
       <r>   -13.7210     0.5403     5.4666 </r>
       <r>   -13.6175     0.5310     5.5215 </r>
       <r>   -13.5140     0.9594     5.6208 </r>
       <r>   -13.4105     1.2101     5.7461 </r>
       <r>   -13.3070     0.8950     5.8387 </r>
       <r>   -13.2035     0.7562     5.9170 </r>
       <r>   -13.1000     0.9709     6.0175 </r>
       <r>   -12.9965     1.0434     6.1255 </r>
       <r>   -12.8930     0.7998     6.2083 </r>
       <r>   -12.7895     1.0520     6.3172 </r>
       <r>   -12.6859     1.1261     6.4337 </r>
       <r>   -12.5824     1.3075     6.5691 </r>
       <r>   -12.4789     1.8306     6.7586 </r>
       <r>   -12.3754     1.4166     6.9052 </r>
       <r>   -12.2719     1.7410     7.0854 </r>
       <r>   -12.1684     1.6167     7.2527 </r>
       <r>   -12.0649     1.5913     7.4174 </r>
       <r>   -11.9614     2.5575     7.6822 </r>
       <r>   -11.8579     2.1649     7.9062 </r>
       <r>   -11.7544     1.4971     8.0612 </r>
       <r>   -11.6509     1.3874     8.2048 </r>
       <r>   -11.5474     1.2530     8.3345 </r>
       <r>   -11.4439     1.0676     8.4450 </r>
       <r>   -11.3403     0.6190     8.5091 </r>
       <r>   -11.2368     0.4057     8.5511 </r>
       <r>   -11.1333     0.6232     8.6156 </r>
       <r>   -11.0298     0.7091     8.6890 </r>
       <r>   -10.9263     0.7512     8.7667 </r>
       <r>   -10.8228     0.9458     8.8646 </r>
       <r>   -10.7193     1.2742     8.9965 </r>
       <r>   -10.6158     1.2014     9.1209 </r>
       <r>   -10.5123     1.7793     9.3050 </r>
       <r>   -10.4088     2.5545     9.5694 </r>
       <r>   -10.3053     1.9378     9.7700 </r>
       <r>   -10.2018     0.8876     9.8619 </r>
       <r>   -10.0983     0.5236     9.9161 </r>
       <r>    -9.9948     1.4727    10.0685 </r>
       <r>    -9.8912     2.2312    10.2995 </r>
       <r>    -9.7877     1.2508    10.4289 </r>
       <r>    -9.6842     0.6991    10.5013 </r>
       <r>    -9.5807     0.8546    10.5898 </r>
       <r>    -9.4772     1.8308    10.7793 </r>
       <r>    -9.3737     2.3515    11.0227 </r>
       <r>    -9.2702     2.1445    11.2446 </r>
       <r>    -9.1667     2.4056    11.4936 </r>
       <r>    -9.0632     1.7072    11.6703 </r>
       <r>    -8.9597     1.2630    11.8011 </r>
       <r>    -8.8562     1.9539    12.0033 </r>
       <r>    -8.7527     2.4591    12.2578 </r>
       <r>    -8.6492     1.6900    12.4328 </r>
       <r>    -8.5456     1.1665    12.5535 </r>
       <r>    -8.4421     1.7932    12.7391 </r>
       <r>    -8.3386     2.6612    13.0146 </r>
       <r>    -8.2351     1.9679    13.2182 </r>
       <r>    -8.1316     1.1087    13.3330 </r>
       <r>    -8.0281     1.9520    13.5351 </r>
       <r>    -7.9246     1.7356    13.7147 </r>
       <r>    -7.8211     2.2356    13.9461 </r>
       <r>    -7.7176     3.4246    14.3006 </r>
       <r>    -7.6141     2.2911    14.5377 </r>
       <r>    -7.5106     1.6923    14.7129 </r>
       <r>    -7.4071     1.9206    14.9117 </r>
       <r>    -7.3036     2.5124    15.1717 </r>
       <r>    -7.2001     2.4919    15.4297 </r>
       <r>    -7.0965     1.9952    15.6362 </r>
       <r>    -6.9930     1.8830    15.8311 </r>
       <r>    -6.8895     2.3506    16.0744 </r>
       <r>    -6.7860     3.0371    16.3887 </r>
       <r>    -6.6825     3.3546    16.7360 </r>
       <r>    -6.5790     3.7061    17.1196 </r>
       <r>    -6.4755     3.4858    17.4804 </r>
       <r>    -6.3720     3.4330    17.8357 </r>
       <r>    -6.2685     3.2521    18.1723 </r>
       <r>    -6.1650     2.5347    18.4347 </r>
       <r>    -6.0615     2.1146    18.6536 </r>
       <r>    -5.9580     2.0482    18.8656 </r>
       <r>    -5.8545     1.8002    19.0519 </r>
       <r>    -5.7510     2.2918    19.2891 </r>
       <r>    -5.6474     2.6213    19.5604 </r>
       <r>    -5.5439     1.3749    19.7028 </r>
       <r>    -5.4404     0.9351    19.7995 </r>
       <r>    -5.3369     1.9719    20.0037 </r>
       <r>    -5.2334     2.6945    20.2826 </r>
       <r>    -5.1299     1.9881    20.4883 </r>
       <r>    -5.0264     1.4013    20.6334 </r>
       <r>    -4.9229     2.0153    20.8420 </r>
       <r>    -4.8194     2.1273    21.0622 </r>
       <r>    -4.7159     1.5026    21.2177 </r>
       <r>    -4.6124     1.3791    21.3604 </r>
       <r>    -4.5089     1.6318    21.5294 </r>
       <r>    -4.4054     2.5253    21.7907 </r>
       <r>    -4.3018     2.6469    22.0647 </r>
       <r>    -4.1983     2.3270    22.3056 </r>
       <r>    -4.0948     2.1185    22.5249 </r>
       <r>    -3.9913     2.5473    22.7885 </r>
       <r>    -3.8878     3.0971    23.1091 </r>
       <r>    -3.7843     3.1551    23.4357 </r>
       <r>    -3.6808     3.5305    23.8011 </r>
       <r>    -3.5773     3.5891    24.1726 </r>
       <r>    -3.4738     2.7528    24.4575 </r>
       <r>    -3.3703     1.8393    24.6479 </r>
       <r>    -3.2668     1.6775    24.8215 </r>
       <r>    -3.1633     1.6081    24.9880 </r>
       <r>    -3.0598     1.4301    25.1360 </r>
       <r>    -2.9563     1.8196    25.3244 </r>
       <r>    -2.8527     1.9594    25.5272 </r>
       <r>    -2.7492     1.3480    25.6667 </r>
       <r>    -2.6457     1.0488    25.7753 </r>
       <r>    -2.5422     1.4039    25.9206 </r>
       <r>    -2.4387     2.3933    26.1683 </r>
       <r>    -2.3352     1.8804    26.3629 </r>
       <r>    -2.2317     0.8668    26.4527 </r>
       <r>    -2.1282     1.1442    26.5711 </r>
       <r>    -2.0247     1.1246    26.6875 </r>
       <r>    -1.9212     0.9921    26.7902 </r>
       <r>    -1.8177     1.0860    26.9026 </r>
       <r>    -1.7142     1.1144    27.0179 </r>
       <r>    -1.6107     0.9690    27.1182 </r>
       <r>    -1.5072     1.0750    27.2295 </r>
       <r>    -1.4036     1.2551    27.3594 </r>
       <r>    -1.3001     0.6746    27.4292 </r>
       <r>    -1.1966     0.7041    27.5021 </r>
       <r>    -1.0931     0.8489    27.5900 </r>
       <r>    -0.9896     0.8808    27.6811 </r>
       <r>    -0.8861     0.8787    27.7721 </r>
       <r>    -0.7826     0.4994    27.8238 </r>
       <r>    -0.6791     0.2074    27.8453 </r>
       <r>    -0.5756     0.1944    27.8654 </r>
       <r>    -0.4721     0.5084    27.9180 </r>
       <r>    -0.3686     0.4782    27.9675 </r>
       <r>    -0.2651     0.3624    28.0050 </r>
       <r>    -0.1616     0.3264    28.0388 </r>
       <r>    -0.0580     0.4430    28.0847 </r>
       <r>     0.0455     0.3713    28.1231 </r>
       <r>     0.1490     0.4373    28.1684 </r>
       <r>     0.2525     0.9758    28.2694 </r>
       <r>     0.3560     1.3653    28.4107 </r>
       <r>     0.4595     1.4229    28.5579 </r>
       <r>     0.5630     1.2124    28.6834 </r>
       <r>     0.6665     0.6689    28.7527 </r>
       <r>     0.7700     0.7499    28.8303 </r>
       <r>     0.8735     1.4030    28.9755 </r>
       <r>     0.9770     1.0629    29.0855 </r>
       <r>     1.0805     0.5584    29.1433 </r>
       <r>     1.1840     1.1141    29.2587 </r>
       <r>     1.2875     2.0519    29.4710 </r>
       <r>     1.3911     2.0940    29.6878 </r>
       <r>     1.4946     1.6517    29.8587 </r>
       <r>     1.5981     1.3901    30.0026 </r>
       <r>     1.7016     0.9175    30.0976 </r>
       <r>     1.8051     1.1609    30.2177 </r>
       <r>     1.9086     1.4037    30.3630 </r>
       <r>     2.0121     1.3547    30.5033 </r>
       <r>     2.1156     1.7090    30.6802 </r>
       <r>     2.2191     1.1199    30.7961 </r>
       <r>     2.3226     1.4096    30.9420 </r>
       <r>     2.4261     1.1925    31.0654 </r>
       <r>     2.5296     0.7077    31.1387 </r>
       <r>     2.6331     1.7319    31.3179 </r>
       <r>     2.7367     1.7686    31.5010 </r>
       <r>     2.8402     1.4757    31.6537 </r>
       <r>     2.9437     1.4621    31.8051 </r>
       <r>     3.0472     1.1787    31.9271 </r>
       <r>     3.1507     1.4347    32.0756 </r>
       <r>     3.2542     2.5383    32.3383 </r>
       <r>     3.3577     2.4040    32.5871 </r>
       <r>     3.4612     2.1933    32.8142 </r>
       <r>     3.5647     1.5407    32.9736 </r>
       <r>     3.6682     2.3869    33.2207 </r>
       <r>     3.7717     2.9306    33.5240 </r>
       <r>     3.8752     2.8577    33.8198 </r>
       <r>     3.9787     2.5156    34.0802 </r>
       <r>     4.0822     2.0475    34.2921 </r>
       <r>     4.1858     2.1874    34.5186 </r>
       <r>     4.2893     2.8570    34.8143 </r>
       <r>     4.3928     3.5937    35.1862 </r>
       <r>     4.4963     2.6905    35.4647 </r>
       <r>     4.5998     2.2722    35.6999 </r>
       <r>     4.7033     3.7899    36.0922 </r>
       <r>     4.8068     3.5914    36.4639 </r>
       <r>     4.9103     2.4594    36.7185 </r>
       <r>     5.0138     2.7416    37.0023 </r>
       <r>     5.1173     3.8439    37.4001 </r>
       <r>     5.2208     4.1896    37.8338 </r>
       <r>     5.3243     3.4730    38.1933 </r>
       <r>     5.4278     3.1851    38.5230 </r>
       <r>     5.5313     3.0426    38.8379 </r>
       <r>     5.6349     3.3474    39.1844 </r>
       <r>     5.7384     3.4346    39.5399 </r>
       <r>     5.8419     3.0300    39.8535 </r>
       <r>     5.9454     2.8013    40.1435 </r>
       <r>     6.0489     2.4383    40.3958 </r>
       <r>     6.1524     2.9523    40.7014 </r>
       <r>     6.2559     2.4904    40.9592 </r>
       <r>     6.3594     2.2994    41.1972 </r>
       <r>     6.4629     2.6223    41.4686 </r>
       <r>     6.5664     3.0097    41.7802 </r>
       <r>     6.6699     2.8083    42.0708 </r>
       <r>     6.7734     3.4486    42.4278 </r>
       <r>     6.8769     3.7954    42.8206 </r>
       <r>     6.9805     3.7516    43.2090 </r>
       <r>     7.0840     3.5462    43.5760 </r>
       <r>     7.1875     3.5142    43.9398 </r>
       <r>     7.2910     3.9041    44.3439 </r>
       <r>     7.3945     4.3696    44.7962 </r>
       <r>     7.4980     4.2843    45.2396 </r>
       <r>     7.6015     5.1327    45.7709 </r>
       <r>     7.7050     4.5228    46.2390 </r>
       <r>     7.8085     4.0355    46.6567 </r>
       <r>     7.9120     4.3949    47.1116 </r>
       <r>     8.0155     3.7567    47.5005 </r>
       <r>     8.1190     2.3917    47.7480 </r>
       <r>     8.2225     1.7068    47.9247 </r>
       <r>     8.3260     0.5960    47.9864 </r>
       <r>     8.4296     0.0826    47.9949 </r>
       <r>     8.5331     0.0370    47.9988 </r>
       <r>     8.6366     0.0112    47.9999 </r>
       <r>     8.7401     0.0006    48.0000 </r>
       <r>     8.8436     0.0000    48.0000 </r>
       <r>     8.9471     0.0000    48.0000 </r>
       <r>     9.0506     0.0000    48.0000 </r>
       <r>     9.1541     0.0000    48.0000 </r>
       <r>     9.2576     0.0000    48.0000 </r>
       <r>     9.3611     0.0000    48.0000 </r>
       <r>     9.4646     0.0000    48.0000 </r>
       <r>     9.5681     0.0000    48.0000 </r>
       <r>     9.6716     0.0000    48.0000 </r>
       <r>     9.7751     0.0000    48.0000 </r>
       <r>     9.8787     0.0000    48.0000 </r>
      </set>
     </set>
    </array>
   </total>
  </dos>
 </calculation>
 <structure name="finalpos" >
  <crystal>
   <varray name="basis" >
    <v>       4.29548600       2.48000000       0.00000000 </v>
    <v>      -4.29548600       2.48000000       0.00000000 </v>
    <v>       0.00000000       0.00000000      15.00000000 </v>
   </varray>
   <i name="volume">    319.58415861 </i>
   <varray name="rec_basis" >
    <v>       0.11640126       0.20161290       0.00000000 </v>
    <v>      -0.11640126       0.20161290       0.00000000 </v>
    <v>       0.00000000       0.00000000       0.06666667 </v>
   </varray>
  </crystal>
  <varray name="positions" >
   <v>       0.67199747      -0.00300046       0.16809902 </v>
   <v>       0.33434705      -0.00293579       0.16805016 </v>
   <v>       0.00300046       0.32800153       0.16809902 </v>
   <v>       0.00293579       0.66565195       0.16805016 </v>
   <v>       0.33412527       0.32815745       0.16637997 </v>
   <v>       0.67184155       0.66587373       0.16637997 </v>
   <v>       0.66930790       0.33069110       0.15406033 </v>
   <v>       0.33599780       0.66400120       0.18101251 </v>
   <v>       0.24706624       0.25292478       0.40155543 </v>
   <v>       0.41373629       0.08631896       0.40154457 </v>
   <v>       0.24705267       0.75294633       0.40159023 </v>
   <v>       0.41373589       0.58626311       0.40165080 </v>
   <v>       0.74704783       0.25295117       0.40151568 </v>
   <v>       0.91371321       0.08628579       0.40144547 </v>
   <v>       0.74707422       0.75293276       0.40155543 </v>
   <v>       0.91368004       0.58626271       0.40154457 </v>
  </varray>
 </structure>
</modeling>
