Lattice                                 
           1
     4.269505    2.465000    0.000000
    -4.269505    2.465000    0.000000
     0.000000    0.000000   15.000000
   B    C 
     8     8
Direct configuration=     1
   0.66888689  0.00000000  0.10000000
   0.33111211  0.00000000  0.10000000
   0.00000000  0.33111211  0.10000000
   0.00000000  0.66888689  0.10000000
   0.33111211  0.33111211  0.10000000
   0.66888689  0.66888689  0.10000000
   0.66666600  0.33333300  0.09922189
   0.33333300  0.66666600  0.10077811
   0.16666600  0.33333300  0.46773333
   0.33333300  0.16666600  0.46773333
   0.16666600  0.83333300  0.46773333
   0.33333300  0.66666600  0.46773333
   0.66666600  0.33333300  0.46773333
   0.83333300  0.16666600  0.46773333
   0.66666600  0.83333300  0.46773333
   0.83333300  0.66666600  0.46773333
Direct configuration=     2
   0.67189384  0.00000008  0.10002738
   0.32810524  0.00000008  0.10002738
  -0.00000008  0.32810516  0.10002738
  -0.00000008  0.67189376  0.10002738
   0.32810524  0.32810516  0.10002738
   0.67189384  0.67189376  0.10002738
   0.66666600  0.33333300  0.09923051
   0.33333300  0.66666600  0.10082870
   0.16666360  0.33332820  0.46770538
   0.33332832  0.16666366  0.46770540
   0.16666360  0.83333540  0.46770538
   0.33333300  0.66666600  0.46770536
   0.66666600  0.33333300  0.46770545
   0.83333534  0.16666366  0.46770540
   0.66667080  0.83333540  0.46770538
   0.83333534  0.66667068  0.46770540
Direct configuration=     3
   0.67029898  0.00000004  0.10001286
   0.32970006  0.00000004  0.10001286
  -0.00000004  0.32970002  0.10001286
  -0.00000004  0.67029894  0.10001286
   0.32970006  0.32970002  0.10001286
   0.67029898  0.67029894  0.10001286
   0.66666600  0.33333300  0.09922594
   0.33333300  0.66666600  0.10080187
   0.16666487  0.33333075  0.46772021
   0.33333080  0.16666490  0.46772022
   0.16666487  0.83333413  0.46772021
   0.33333300  0.66666600  0.46772020
   0.66666600  0.33333300  0.46772024
   0.83333410  0.16666490  0.46772022
   0.66666825  0.83333413  0.46772021
   0.83333410  0.66666820  0.46772022
Direct configuration=     4
   0.67030001  0.00000004  0.10001287
   0.32969903  0.00000004  0.10001287
  -0.00000004  0.32969899  0.10001287
  -0.00000004  0.67029997  0.10001287
   0.32969903  0.32969899  0.10001287
   0.67030001  0.67029997  0.10001287
   0.66666600  0.33333300  0.09922594
   0.33333300  0.66666600  0.10080188
   0.16666487  0.33333075  0.46772020
   0.33333080  0.16666490  0.46772021
   0.16666487  0.83333413  0.46772020
   0.33333300  0.66666600  0.46772019
   0.66666600  0.33333300  0.46772023
   0.83333410  0.16666490  0.46772021
   0.66666825  0.83333413  0.46772020
   0.83333410  0.66666820  0.46772021
Direct configuration=     5
   0.67029991  0.00000001  0.10003752
   0.32969909  0.00000001  0.10003752
  -0.00000001  0.32969909  0.10003752
  -0.00000001  0.67029991  0.10003752
   0.32969909  0.32969909  0.10003752
   0.67029991  0.67029991  0.10003752
   0.66666600  0.33333300  0.09923838
   0.33333300  0.66666600  0.10084152
   0.16666660  0.33333421  0.46769518
   0.33333418  0.16666659  0.46769521
   0.16666660  0.83333240  0.46769518
   0.33333300  0.66666600  0.46769518
   0.66666600  0.33333300  0.46769527
   0.83333241  0.16666659  0.46769521
   0.66666479  0.83333240  0.46769518
   0.83333241  0.66666482  0.46769521
Direct configuration=     6
   0.67029962 -0.00000009  0.10011149
   0.32969929 -0.00000009  0.10011149
   0.00000009  0.32969938  0.10011149
   0.00000009  0.67029971  0.10011149
   0.32969929  0.32969938  0.10011149
   0.67029962  0.67029971  0.10011149
   0.66666600  0.33333300  0.09927570
   0.33333300  0.66666600  0.10096044
   0.16667180  0.33334460  0.46762013
   0.33334430  0.16667165  0.46762021
   0.16667180  0.83332720  0.46762013
   0.33333300  0.66666600  0.46762014
   0.66666600  0.33333300  0.46762042
   0.83332735  0.16667165  0.46762021
   0.66665440  0.83332720  0.46762013
   0.83332735  0.66665470  0.46762021
Direct configuration=     7
   0.67029904 -0.00000027  0.10025942
   0.32969969 -0.00000027  0.10025942
   0.00000027  0.32969996  0.10025942
   0.00000027  0.67029931  0.10025942
   0.32969969  0.32969996  0.10025942
   0.67029904  0.67029931  0.10025942
   0.66666600  0.33333300  0.09935033
   0.33333300  0.66666600  0.10119828
   0.16668219  0.33336538  0.46747003
   0.33336456  0.16668178  0.46747022
   0.16668219  0.83331681  0.46747003
   0.33333300  0.66666600  0.46747008
   0.66666600  0.33333300  0.46747070
   0.83331722  0.16668178  0.46747022
   0.66663362  0.83331681  0.46747003
   0.83331722  0.66663444  0.46747022
Direct configuration=     8
   0.67029788 -0.00000065  0.10055528
   0.32970047 -0.00000065  0.10055528
   0.00000065  0.32970112  0.10055528
   0.00000065  0.67029853  0.10055528
   0.32970047  0.32970112  0.10055528
   0.67029788  0.67029853  0.10055528
   0.66666600  0.33333300  0.09949960
   0.33333300  0.66666600  0.10167396
   0.16670297  0.33340693  0.46716983
   0.33340506  0.16670203  0.46717024
   0.16670297  0.83329603  0.46716983
   0.33333300  0.66666600  0.46716994
   0.66666600  0.33333300  0.46717127
   0.83329697  0.16670203  0.46717024
   0.66659207  0.83329603  0.46716983
   0.83329697  0.66659394  0.46717024
Direct configuration=     9
   0.67029555 -0.00000139  0.10114700
   0.32970205 -0.00000139  0.10114700
   0.00000139  0.32970345  0.10114700
   0.00000139  0.67029695  0.10114700
   0.32970205  0.32970345  0.10114700
   0.67029555  0.67029695  0.10114700
   0.66666600  0.33333300  0.09979815
   0.33333300  0.66666600  0.10262531
   0.16674452  0.33349005  0.46656943
   0.33348608  0.16674254  0.46657027
   0.16674452  0.83325448  0.46656943
   0.33333300  0.66666600  0.46656968
   0.66666600  0.33333300  0.46657241
   0.83325646  0.16674254  0.46657027
   0.66650895  0.83325448  0.46656943
   0.83325646  0.66651292  0.46657027
Direct configuration=    10
   0.67029090 -0.00000289  0.10233044
   0.32970521 -0.00000289  0.10233044
   0.00000289  0.32970810  0.10233044
   0.00000289  0.67029379  0.10233044
   0.32970521  0.32970810  0.10233044
   0.67029090  0.67029379  0.10233044
   0.66666600  0.33333300  0.10039523
   0.33333300  0.66666600  0.10452802
   0.16682764  0.33365628  0.46536864
   0.33364810  0.16682355  0.46537034
   0.16682764  0.83317136  0.46536864
   0.33333300  0.66666600  0.46536914
   0.66666600  0.33333300  0.46537468
   0.83317545  0.16682355  0.46537034
   0.66634272  0.83317136  0.46536864
   0.83317545  0.66635090  0.46537034
Direct configuration=    11
   0.67028160 -0.00000587  0.10469733
   0.32971152 -0.00000587  0.10469733
   0.00000587  0.32971740  0.10469733
   0.00000587  0.67028748  0.10469733
   0.32971152  0.32971740  0.10469733
   0.67028160  0.67028748  0.10469733
   0.66666600  0.33333300  0.10158941
   0.33333300  0.66666600  0.10833343
   0.16699387  0.33398873  0.46296704
   0.33397216  0.16698558  0.46297048
   0.16699387  0.83300513  0.46296704
   0.33333300  0.66666600  0.46296807
   0.66666600  0.33333300  0.46297923
   0.83301342  0.16698558  0.46297048
   0.66601027  0.83300513  0.46296704
   0.83301342  0.66602684  0.46297048
Direct configuration=    12
   0.67026300 -0.00001185  0.10943109
   0.32972415 -0.00001185  0.10943109
   0.00001185  0.32973600  0.10943109
   0.00001185  0.67027485  0.10943109
   0.32972415  0.32973600  0.10943109
   0.67026300  0.67027485  0.10943109
   0.66666600  0.33333300  0.10397776
   0.33333300  0.66666600  0.11594425
   0.16732632  0.33465365  0.45816385
   0.33462027  0.16730963  0.45817076
   0.16732632  0.83267268  0.45816385
   0.33333300  0.66666600  0.45816594
   0.66666600  0.33333300  0.45818832
   0.83268937  0.16730963  0.45817076
   0.66534535  0.83267268  0.45816385
   0.83268937  0.66537873  0.45817076
Direct configuration=    13
   0.67022580 -0.00002380  0.11889863
   0.32974940 -0.00002380  0.11889863
   0.00002380  0.32977320  0.11889863
   0.00002380  0.67024960  0.11889863
   0.32974940  0.32977320  0.11889863
   0.67022580  0.67024960  0.11889863
   0.66666600  0.33333300  0.10875445
   0.33333300  0.66666600  0.13116590
   0.16799124  0.33598348  0.44855747
   0.33591648  0.16795774  0.44857132
   0.16799124  0.83200776  0.44855747
   0.33333300  0.66666600  0.44856166
   0.66666600  0.33333300  0.44860651
   0.83204126  0.16795774  0.44857132
   0.66401552  0.83200776  0.44855747
   0.83204126  0.66408252  0.44857132
Direct configuration=    14
   0.67015140 -0.00004769  0.13783370
   0.32979991 -0.00004769  0.13783370
   0.00004769  0.32984760  0.13783370
   0.00004769  0.67019909  0.13783370
   0.32979991  0.32984760  0.13783370
   0.67015140  0.67019909  0.13783370
   0.66666600  0.33333300  0.11830784
   0.33333300  0.66666600  0.16160920
   0.16932107  0.33864313  0.42934471
   0.33850891  0.16925396  0.42937243
   0.16932107  0.83067793  0.42934471
   0.33333300  0.66666600  0.42935311
   0.66666600  0.33333300  0.42944289
   0.83074504  0.16925396  0.42937243
   0.66135587  0.83067793  0.42934471
   0.83074504  0.66149009  0.42937243
Direct configuration=    15
   0.67021924 -0.00002590  0.12056738
   0.32975385 -0.00002590  0.12056738
   0.00002590  0.32977976  0.12056738
   0.00002590  0.67024515  0.12056738
   0.32975385  0.32977976  0.12056738
   0.67021924  0.67024515  0.12056738
   0.66666600  0.33333300  0.10959639
   0.33333300  0.66666600  0.13384888
   0.16810844  0.33621787  0.44686425
   0.33614495  0.16807198  0.44687932
   0.16810844  0.83189056  0.44686425
   0.33333300  0.66666600  0.44686881
   0.66666600  0.33333300  0.44691762
   0.83192702  0.16807198  0.44687932
   0.66378113  0.83189056  0.44686425
   0.83192702  0.66385405  0.44687932
Direct configuration=    16
   0.67020021 -0.00003202  0.12541097
   0.32976677 -0.00003202  0.12541097
   0.00003202  0.32979879  0.12541097
   0.00003202  0.67023223  0.12541097
   0.32976677  0.32979879  0.12541097
   0.67020021  0.67023223  0.12541097
   0.66666600  0.33333300  0.11204015
   0.33333300  0.66666600  0.14163627
   0.16844861  0.33689821  0.44194962
   0.33680810  0.16840355  0.44196824
   0.16844861  0.83155039  0.44194962
   0.33333300  0.66666600  0.44195526
   0.66666600  0.33333300  0.44201556
   0.83159545  0.16840355  0.44196824
   0.66310079  0.83155039  0.44194962
   0.83159545  0.66319090  0.44196824
Direct configuration=    17
   0.67020020 -0.00003202  0.12541166
   0.32976678 -0.00003202  0.12541166
   0.00003202  0.32979880  0.12541166
   0.00003202  0.67023222  0.12541166
   0.32976678  0.32979880  0.12541166
   0.67020020  0.67023222  0.12541166
   0.66666600  0.33333300  0.11204050
   0.33333300  0.66666600  0.14163737
   0.16844863  0.33689826  0.44194893
   0.33680815  0.16840357  0.44196755
   0.16844863  0.83155037  0.44194893
   0.33333300  0.66666600  0.44195457
   0.66666600  0.33333300  0.44201487
   0.83159543  0.16840357  0.44196755
   0.66310074  0.83155037  0.44194893
   0.83159543  0.66319085  0.44196755
Direct configuration=    18
   0.67020017 -0.00003203  0.12541371
   0.32976681 -0.00003203  0.12541371
   0.00003203  0.32979883  0.12541371
   0.00003203  0.67023219  0.12541371
   0.32976681  0.32979883  0.12541371
   0.67020017  0.67023219  0.12541371
   0.66666600  0.33333300  0.11204153
   0.33333300  0.66666600  0.14164067
   0.16844871  0.33689841  0.44194685
   0.33680829  0.16840365  0.44196547
   0.16844871  0.83155029  0.44194685
   0.33333300  0.66666600  0.44195248
   0.66666600  0.33333300  0.44201279
   0.83159535  0.16840365  0.44196547
   0.66310059  0.83155029  0.44194685
   0.83159535  0.66319071  0.44196547
Direct configuration=    19
   0.67020010 -0.00003205  0.12541782
   0.32976686 -0.00003205  0.12541782
   0.00003205  0.32979890  0.12541782
   0.00003205  0.67023214  0.12541782
   0.32976686  0.32979890  0.12541782
   0.67020010  0.67023214  0.12541782
   0.66666600  0.33333300  0.11204360
   0.33333300  0.66666600  0.14164727
   0.16844885  0.33689871  0.44194268
   0.33680858  0.16840379  0.44196130
   0.16844885  0.83155015  0.44194268
   0.33333300  0.66666600  0.44194832
   0.66666600  0.33333300  0.44200863
   0.83159521  0.16840379  0.44196130
   0.66310029  0.83155015  0.44194268
   0.83159521  0.66319042  0.44196130
Direct configuration=    20
   0.67019995 -0.00003208  0.12542603
   0.32976697 -0.00003208  0.12542603
   0.00003208  0.32979905  0.12542603
   0.00003208  0.67023203  0.12542603
   0.32976697  0.32979905  0.12542603
   0.67019995  0.67023203  0.12542603
   0.66666600  0.33333300  0.11204774
   0.33333300  0.66666600  0.14166046
   0.16844915  0.33689930  0.44193435
   0.33680916  0.16840408  0.44195298
   0.16844915  0.83154985  0.44193435
   0.33333300  0.66666600  0.44193999
   0.66666600  0.33333300  0.44200032
   0.83159492  0.16840408  0.44195298
   0.66309970  0.83154985  0.44193435
   0.83159492  0.66318984  0.44195298
Direct configuration=    21
   0.67019967 -0.00003215  0.12544246
   0.32976718 -0.00003215  0.12544246
   0.00003215  0.32979933  0.12544246
   0.00003215  0.67023182  0.12544246
   0.32976718  0.32979933  0.12544246
   0.67019967  0.67023182  0.12544246
   0.66666600  0.33333300  0.11205602
   0.33333300  0.66666600  0.14168685
   0.16844975  0.33690049  0.44191768
   0.33681032  0.16840466  0.44193632
   0.16844975  0.83154925  0.44191768
   0.33333300  0.66666600  0.44192332
   0.66666600  0.33333300  0.44198370
   0.83159434  0.16840466  0.44193632
   0.66309851  0.83154925  0.44191768
   0.83159434  0.66318868  0.44193632
Direct configuration=    22
   0.67019911 -0.00003229  0.12547532
   0.32976760 -0.00003229  0.12547532
   0.00003229  0.32979989  0.12547532
   0.00003229  0.67023140  0.12547532
   0.32976760  0.32979989  0.12547532
   0.67019911  0.67023140  0.12547532
   0.66666600  0.33333300  0.11207259
   0.33333300  0.66666600  0.14173962
   0.16845094  0.33690287  0.44188435
   0.33681264  0.16840582  0.44190302
   0.16845094  0.83154806  0.44188435
   0.33333300  0.66666600  0.44189000
   0.66666600  0.33333300  0.44195045
   0.83159318  0.16840582  0.44190302
   0.66309613  0.83154806  0.44188435
   0.83159318  0.66318636  0.44190302
Direct configuration=    23
   0.67019798 -0.00003256  0.12554103
   0.32976846 -0.00003256  0.12554103
   0.00003256  0.32980102  0.12554103
   0.00003256  0.67023054  0.12554103
   0.32976846  0.32980102  0.12554103
   0.67019798  0.67023054  0.12554103
   0.66666600  0.33333300  0.11210571
   0.33333300  0.66666600  0.14184517
   0.16845332  0.33690763  0.44181770
   0.33681729  0.16840814  0.44183641
   0.16845332  0.83154568  0.44181770
   0.33333300  0.66666600  0.44182335
   0.66666600  0.33333300  0.44188395
   0.83159086  0.16840814  0.44183641
   0.66309137  0.83154568  0.44181770
   0.83159086  0.66318171  0.44183641
Direct configuration=    24
   0.67019573 -0.00003311  0.12567246
   0.32977016 -0.00003311  0.12567246
   0.00003311  0.32980327  0.12567246
   0.00003311  0.67022884  0.12567246
   0.32977016  0.32980327  0.12567246
   0.67019573  0.67022884  0.12567246
   0.66666600  0.33333300  0.11217196
   0.33333300  0.66666600  0.14205626
   0.16845807  0.33691715  0.44168438
   0.33682657  0.16841279  0.44170318
   0.16845807  0.83154093  0.44168438
   0.33333300  0.66666600  0.44169006
   0.66666600  0.33333300  0.44175095
   0.83158621  0.16841279  0.44170318
   0.66308185  0.83154093  0.44168438
   0.83158621  0.66317243  0.44170318
Direct configuration=    25
   0.67019123 -0.00003421  0.12593531
   0.32977356 -0.00003421  0.12593531
   0.00003421  0.32980777  0.12593531
   0.00003421  0.67022544  0.12593531
   0.32977356  0.32980777  0.12593531
   0.67019123  0.67022544  0.12593531
   0.66666600  0.33333300  0.11230446
   0.33333300  0.66666600  0.14247845
   0.16846759  0.33693618  0.44141775
   0.33684515  0.16842207  0.44143673
   0.16846759  0.83153141  0.44141775
   0.33333300  0.66666600  0.44142347
   0.66666600  0.33333300  0.44148495
   0.83157693  0.16842207  0.44143673
   0.66306282  0.83153141  0.44141775
   0.83157693  0.66315385  0.44143673
Direct configuration=    26
   0.67018222 -0.00003641  0.12646102
   0.32978037 -0.00003641  0.12646102
   0.00003641  0.32981678  0.12646102
   0.00003641  0.67021863  0.12646102
   0.32978037  0.32981678  0.12646102
   0.67018222  0.67021863  0.12646102
   0.66666600  0.33333300  0.11256945
   0.33333300  0.66666600  0.14332283
   0.16848663  0.33697425  0.44088449
   0.33688229  0.16844065  0.44090384
   0.16848663  0.83151237  0.44088449
   0.33333300  0.66666600  0.44089030
   0.66666600  0.33333300  0.44095296
   0.83155835  0.16844065  0.44090384
   0.66302475  0.83151237  0.44088449
   0.83155835  0.66311671  0.44090384
Direct configuration=    27
   0.67016420 -0.00004081  0.12751244
   0.32979399 -0.00004081  0.12751244
   0.00004081  0.32983480  0.12751244
   0.00004081  0.67020501  0.12751244
   0.32979399  0.32983480  0.12751244
   0.67016420  0.67020501  0.12751244
   0.66666600  0.33333300  0.11309944
   0.33333300  0.66666600  0.14501158
   0.16852470  0.33705040  0.43981798
   0.33695659  0.16847779  0.43983805
   0.16852470  0.83147430  0.43981798
   0.33333300  0.66666600  0.43982395
   0.66666600  0.33333300  0.43988897
   0.83152121  0.16847779  0.43983805
   0.66294860  0.83147430  0.43981798
   0.83152121  0.66304241  0.43983805
Direct configuration=    28
   0.67012816 -0.00004961  0.12961528
   0.32982123 -0.00004961  0.12961528
   0.00004961  0.32987084  0.12961528
   0.00004961  0.67017777  0.12961528
   0.32982123  0.32987084  0.12961528
   0.67012816  0.67017777  0.12961528
   0.66666600  0.33333300  0.11415942
   0.33333300  0.66666600  0.14838909
   0.16860084  0.33720268  0.43768494
   0.33710517  0.16855209  0.43770647
   0.16860084  0.83139816  0.43768494
   0.33333300  0.66666600  0.43769125
   0.66666600  0.33333300  0.43776100
   0.83144691  0.16855209  0.43770647
   0.66279632  0.83139816  0.43768494
   0.83144691  0.66289383  0.43770647
Direct configuration=    29
   0.67005609 -0.00006721  0.13382095
   0.32987570 -0.00006721  0.13382095
   0.00006721  0.32994291  0.13382095
   0.00006721  0.67012330  0.13382095
   0.32987570  0.32994291  0.13382095
   0.67005609  0.67012330  0.13382095
   0.66666600  0.33333300  0.11627939
   0.33333300  0.66666600  0.15514411
   0.16875312  0.33750724  0.43341887
   0.33740234  0.16870067  0.43344331
   0.16875312  0.83124588  0.43341887
   0.33333300  0.66666600  0.43342585
   0.66666600  0.33333300  0.43350505
   0.83129833  0.16870067  0.43344331
   0.66249176  0.83124588  0.43341887
   0.83129833  0.66259666  0.43344331
Direct configuration=    30
   0.67008936 -0.00005908  0.13187910
   0.32985055 -0.00005908  0.13187910
   0.00005908  0.32990964  0.13187910
   0.00005908  0.67014845  0.13187910
   0.32985055  0.32990964  0.13187910
   0.67008936  0.67014845  0.13187910
   0.66666600  0.33333300  0.11530056
   0.33333300  0.66666600  0.15202518
   0.16868281  0.33736662  0.43538861
   0.33726513  0.16863207  0.43541170
   0.16868281  0.83131619  0.43538861
   0.33333300  0.66666600  0.43539528
   0.66666600  0.33333300  0.43547011
   0.83136693  0.16863207  0.43541170
   0.66263238  0.83131619  0.43538861
   0.83136693  0.66273387  0.43541170
Direct configuration=    31
   0.67006302 -0.00006528  0.13209485
   0.32987069 -0.00006528  0.13209485
   0.00006528  0.32993598  0.13209485
   0.00006528  0.67012831  0.13209485
   0.32987069  0.32993598  0.13209485
   0.67006302  0.67012831  0.13209485
   0.66666600  0.33333300  0.11541074
   0.33333300  0.66666600  0.15236606
   0.16864076  0.33728252  0.43517037
   0.33718334  0.16859117  0.43519354
   0.16864076  0.83135824  0.43517037
   0.33333300  0.66666600  0.43517697
   0.66666600  0.33333300  0.43525208
   0.83140783  0.16859117  0.43519354
   0.66271648  0.83135824  0.43517037
   0.83140783  0.66281566  0.43519354
Direct configuration=    32
   0.66998400 -0.00008388  0.13274208
   0.32993112 -0.00008388  0.13274208
   0.00008388  0.33001500  0.13274208
   0.00008388  0.67006788  0.13274208
   0.32993112  0.33001500  0.13274208
   0.66998400  0.67006788  0.13274208
   0.66666600  0.33333300  0.11574130
   0.33333300  0.66666600  0.15338872
   0.16851461  0.33703022  0.43451565
   0.33693797  0.16846849  0.43453905
   0.16851461  0.83148439  0.43451565
   0.33333300  0.66666600  0.43452204
   0.66666600  0.33333300  0.43459800
   0.83153051  0.16846849  0.43453905
   0.66296878  0.83148439  0.43451565
   0.83153051  0.66306103  0.43453905
Direct configuration=    33
   0.66982596 -0.00012108  0.13403656
   0.33005196 -0.00012108  0.13403656
   0.00012108  0.33017304  0.13403656
   0.00012108  0.66994704  0.13403656
   0.33005196  0.33017304  0.13403656
   0.66982596  0.66994704  0.13403656
   0.66666600  0.33333300  0.11640241
   0.33333300  0.66666600  0.15543403
   0.16826231  0.33652562  0.43320621
   0.33644724  0.16822312  0.43323008
   0.16826231  0.83173669  0.43320621
   0.33333300  0.66666600  0.43321217
   0.66666600  0.33333300  0.43328983
   0.83177588  0.16822312  0.43323008
   0.66347338  0.83173669  0.43320621
   0.83177588  0.66355176  0.43323008
Direct configuration=    34
   0.66950986 -0.00019548  0.13662551
   0.33029365 -0.00019548  0.13662551
   0.00019548  0.33048914  0.13662551
   0.00019548  0.66970535  0.13662551
   0.33029365  0.33048914  0.13662551
   0.66950986  0.66970535  0.13662551
   0.66666600  0.33333300  0.11772463
   0.33333300  0.66666600  0.15952466
   0.16775771  0.33551643  0.43058734
   0.33546577  0.16773239  0.43061213
   0.16775771  0.83224129  0.43058734
   0.33333300  0.66666600  0.43059244
   0.66666600  0.33333300  0.43067350
   0.83226661  0.16773239  0.43061213
   0.66448257  0.83224129  0.43058734
   0.83226661  0.66453323  0.43061213
Direct configuration=    35
   0.66887768 -0.00034429  0.14180340
   0.33077703 -0.00034429  0.14180340
   0.00034429  0.33112132  0.14180340
   0.00034429  0.66922197  0.14180340
   0.33077703  0.33112132  0.14180340
   0.66887768  0.66922197  0.14180340
   0.66666600  0.33333300  0.12036907
   0.33333300  0.66666600  0.16770592
   0.16674852  0.33349804  0.42534958
   0.33350283  0.16675092  0.42537623
   0.16674852  0.83325048  0.42534958
   0.33333300  0.66666600  0.42535298
   0.66666600  0.33333300  0.42544084
   0.83324808  0.16675092  0.42537623
   0.66650096  0.83325048  0.42534958
   0.83324808  0.66649617  0.42537623
Direct configuration=    36
   0.66889993 -0.00033905  0.14162119
   0.33076002 -0.00033905  0.14162119
   0.00033905  0.33109907  0.14162119
   0.00033905  0.66923898  0.14162119
   0.33076002  0.33109907  0.14162119
   0.66889993  0.66923898  0.14162119
   0.66666600  0.33333300  0.12027601
   0.33333300  0.66666600  0.16741802
   0.16678403  0.33356907  0.42553390
   0.33357191  0.16678546  0.42556048
   0.16678403  0.83321497  0.42553390
   0.33333300  0.66666600  0.42553736
   0.66666600  0.33333300  0.42562498
   0.83321354  0.16678546  0.42556048
   0.66642993  0.83321497  0.42553390
   0.83321354  0.66642709  0.42556048
Direct configuration=    37
   0.66876822 -0.00036539  0.14154424
   0.33086539 -0.00036539  0.14154424
   0.00036539  0.33123078  0.14154424
   0.00036539  0.66913361  0.14154424
   0.33086539  0.33123078  0.14154424
   0.66876822  0.66913361  0.14154424
   0.66666600  0.33333300  0.12030572
   0.33333300  0.66666600  0.16716669
   0.16677052  0.33354204  0.42562045
   0.33354725  0.16677312  0.42564587
   0.16677052  0.83322848  0.42562045
   0.33333300  0.66666600  0.42562239
   0.66666600  0.33333300  0.42570744
   0.83322588  0.16677312  0.42564587
   0.66645696  0.83322848  0.42562045
   0.83322588  0.66645175  0.42564587
Direct configuration=    38
   0.66837310 -0.00044441  0.14131339
   0.33118150 -0.00044441  0.14131339
   0.00044441  0.33162590  0.14131339
   0.00044441  0.66881750  0.14131339
   0.33118150  0.33162590  0.14131339
   0.66837310  0.66881750  0.14131339
   0.66666600  0.33333300  0.12039484
   0.33333300  0.66666600  0.16641269
   0.16672998  0.33346096  0.42588012
   0.33347326  0.16673613  0.42590204
   0.16672998  0.83326902  0.42588012
   0.33333300  0.66666600  0.42587748
   0.66666600  0.33333300  0.42595482
   0.83326287  0.16673613  0.42590204
   0.66653804  0.83326902  0.42588012
   0.83326287  0.66652574  0.42590204
Direct configuration=    39
   0.66758285 -0.00060244  0.14085170
   0.33181371 -0.00060244  0.14085170
   0.00060244  0.33241615  0.14085170
   0.00060244  0.66818529  0.14085170
   0.33181371  0.33241615  0.14085170
   0.66758285  0.66818529  0.14085170
   0.66666600  0.33333300  0.12057309
   0.33333300  0.66666600  0.16490470
   0.16664890  0.33329880  0.42639944
   0.33332527  0.16666214  0.42641437
   0.16664890  0.83335010  0.42639944
   0.33333300  0.66666600  0.42638767
   0.66666600  0.33333300  0.42644958
   0.83333686  0.16666214  0.42641437
   0.66670020  0.83335010  0.42639944
   0.83333686  0.66667373  0.42641437
Direct configuration=    40
   0.66600235 -0.00091852  0.13992831
   0.33307813 -0.00091852  0.13992831
   0.00091852  0.33399665  0.13992831
   0.00091852  0.66692087  0.13992831
   0.33307813  0.33399665  0.13992831
   0.66600235  0.66692087  0.13992831
   0.66666600  0.33333300  0.12092958
   0.33333300  0.66666600  0.16188872
   0.16648674  0.33297448  0.42743809
   0.33302931  0.16651415  0.42743903
   0.16648674  0.83351226  0.42743809
   0.33333300  0.66666600  0.42740804
   0.66666600  0.33333300  0.42743911
   0.83348485  0.16651415  0.42743903
   0.66702452  0.83351226  0.42743809
   0.83348485  0.66696969  0.42743903
Direct configuration=    41
   0.66708996 -0.00070101  0.14056373
   0.33220803 -0.00070101  0.14056373
   0.00070101  0.33290904  0.14056373
   0.00070101  0.66779097  0.14056373
   0.33220803  0.33290904  0.14056373
   0.66708996  0.66779097  0.14056373
   0.66666600  0.33333300  0.12068426
   0.33333300  0.66666600  0.16396415
   0.16659833  0.33319766  0.42672335
   0.33323297  0.16661599  0.42673391
   0.16659833  0.83340067  0.42672335
   0.33333300  0.66666600  0.42670588
   0.66666600  0.33333300  0.42675817
   0.83338301  0.16661599  0.42673391
   0.66680134  0.83340067  0.42672335
   0.83338301  0.66676603  0.42673391
Direct configuration=    42
   0.66734439 -0.00056143  0.14044020
   0.33209318 -0.00056143  0.14044020
   0.00056143  0.33265461  0.14044020
   0.00056143  0.66790582  0.14044020
   0.33209318  0.33265461  0.14044020
   0.66734439  0.66790582  0.14044020
   0.66666600  0.33333300  0.12092387
   0.33333300  0.66666600  0.16323450
   0.16662197  0.33324494  0.42688061
   0.33326656  0.16663278  0.42688763
   0.16662197  0.83337703  0.42688061
   0.33333300  0.66666600  0.42686070
   0.66666600  0.33333300  0.42690168
   0.83336622  0.16663278  0.42688763
   0.66675406  0.83337703  0.42688061
   0.83336622  0.66673244  0.42688763
Direct configuration=    43
   0.66810768 -0.00014269  0.14006958
   0.33174862 -0.00014269  0.14006958
   0.00014269  0.33189132  0.14006958
   0.00014269  0.66825038  0.14006958
   0.33174862  0.33189132  0.14006958
   0.66810768  0.66825038  0.14006958
   0.66666600  0.33333300  0.12164271
   0.33333300  0.66666600  0.16104555
   0.16669290  0.33338679  0.42735238
   0.33336733  0.16668317  0.42734879
   0.16669290  0.83330610  0.42735238
   0.33333300  0.66666600  0.42732519
   0.66666600  0.33333300  0.42733221
   0.83331583  0.16668317  0.42734879
   0.66661221  0.83330610  0.42735238
   0.83331583  0.66663167  0.42734879
Direct configuration=    44
   0.66963427  0.00069478  0.13932836
   0.33105951  0.00069478  0.13932836
  -0.00069478  0.33036473  0.13932836
  -0.00069478  0.66893949  0.13932836
   0.33105951  0.33036473  0.13932836
   0.66963427  0.66893949  0.13932836
   0.66666600  0.33333300  0.12308038
   0.33333300  0.66666600  0.15666766
   0.16683475  0.33367049  0.42829593
   0.33356887  0.16678394  0.42827110
   0.16683475  0.83316425  0.42829593
   0.33333300  0.66666600  0.42825416
   0.66666600  0.33333300  0.42819327
   0.83321506  0.16678394  0.42827110
   0.66632851  0.83316425  0.42829593
   0.83321506  0.66643013  0.42827110
Direct configuration=    45
   0.66903341  0.00036516  0.13962010
   0.33133074  0.00036516  0.13962010
  -0.00036516  0.33096559  0.13962010
  -0.00036516  0.66866826  0.13962010
   0.33133074  0.33096559  0.13962010
   0.66903341  0.66866826  0.13962010
   0.66666600  0.33333300  0.12251452
   0.33333300  0.66666600  0.15839078
   0.16677892  0.33355883  0.42792455
   0.33348955  0.16674427  0.42790808
   0.16677892  0.83322008  0.42792455
   0.33333300  0.66666600  0.42788852
   0.66666600  0.33333300  0.42785436
   0.83325473  0.16674427  0.42790808
   0.66644017  0.83322008  0.42792455
   0.83325473  0.66650945  0.42790808
Direct configuration=    46
   0.66874330 -0.00025385  0.13953563
   0.33100185 -0.00025385  0.13953563
   0.00025385  0.33125570  0.13953563
   0.00025385  0.66899715  0.13953563
   0.33100185  0.33125570  0.13953563
   0.66874330  0.66899715  0.13953563
   0.66666600  0.33333300  0.12292507
   0.33333300  0.66666600  0.15729272
   0.16657209  0.33314518  0.42807184
   0.33320978  0.16660439  0.42805458
   0.16657209  0.83342691  0.42807184
   0.33333300  0.66666600  0.42804885
   0.66666600  0.33333300  0.42800696
   0.83339461  0.16660439  0.42805458
   0.66685382  0.83342691  0.42807184
   0.83339461  0.66678922  0.42805458
Direct configuration=    47
   0.66877244 -0.00019168  0.13954412
   0.33103488 -0.00019168  0.13954412
   0.00019168  0.33122656  0.13954412
   0.00019168  0.66896412  0.13954412
   0.33103488  0.33122656  0.13954412
   0.66877244  0.66896412  0.13954412
   0.66666600  0.33333300  0.12288384
   0.33333300  0.66666600  0.15740301
   0.16659286  0.33318672  0.42805705
   0.33323788  0.16661844  0.42803987
   0.16659286  0.83340614  0.42805705
   0.33333300  0.66666600  0.42803275
   0.66666600  0.33333300  0.42799163