Lattice                                 
           1
     4.317137    2.492500    0.000000
    -4.317137    2.492500    0.000000
     0.000000    0.000000   15.000000
   B    C 
     8     8
Direct configuration=     1
   0.66888689  0.00000000  0.10000000
   0.33111211  0.00000000  0.10000000
   0.00000000  0.33111211  0.10000000
   0.00000000  0.66888689  0.10000000
   0.33111211  0.33111211  0.10000000
   0.66888689  0.66888689  0.10000000
   0.66666600  0.33333300  0.09922189
   0.33333300  0.66666600  0.10077811
   0.24999933  0.24999967  0.46906667
   0.41666633  0.08333267  0.46906667
   0.24999933  0.74999967  0.46906667
   0.41666633  0.58333267  0.46906667
   0.74999933  0.24999967  0.46906667
   0.91666633  0.08333267  0.46906667
   0.74999933  0.74999967  0.46906667
   0.91666633  0.58333267  0.46906667
Direct configuration=     2
   0.67042980 -0.00000012  0.10002638
   0.32956935 -0.00000015  0.10002645
   0.00000012  0.32956920  0.10002638
   0.00000015  0.67042965  0.10002645
   0.32956904  0.32956898  0.10002646
   0.67043002  0.67042996  0.10002646
   0.66666609  0.33333291  0.09924623
   0.33333255  0.66666645  0.10081282
   0.24999508  0.24999487  0.46903974
   0.41666296  0.08333420  0.46903918
   0.24999892  0.75000008  0.46903879
   0.41666705  0.58333195  0.46903942
   0.75000223  0.24999677  0.46903956
   0.91666736  0.08333164  0.46904010
   0.75000413  0.75000392  0.46903974
   0.91666480  0.58333604  0.46903918
Direct configuration=     3
   0.66968991 -0.00000006  0.10001373
   0.33030917 -0.00000008  0.10001377
   0.00000006  0.33030909  0.10001373
   0.00000008  0.66968983  0.10001377
   0.33030901  0.33030897  0.10001377
   0.66969003  0.66968999  0.10001377
   0.66666605  0.33333295  0.09923456
   0.33333277  0.66666623  0.10079618
   0.24999712  0.24999717  0.46905265
   0.41666458  0.08333346  0.46905236
   0.24999912  0.74999988  0.46905216
   0.41666671  0.58333229  0.46905249
   0.75000084  0.24999816  0.46905256
   0.91666687  0.08333213  0.46905284
   0.75000183  0.75000188  0.46905265
   0.91666554  0.58333442  0.46905236
Direct configuration=     4
   0.66969330 -0.00000006  0.10001379
   0.33030578 -0.00000008  0.10001382
   0.00000006  0.33030570  0.10001379
   0.00000008  0.66969322  0.10001382
   0.33030562  0.33030558  0.10001383
   0.66969342  0.66969338  0.10001383
   0.66666605  0.33333295  0.09923461
   0.33333276  0.66666624  0.10079626
   0.24999711  0.24999716  0.46905259
   0.41666457  0.08333347  0.46905230
   0.24999912  0.74999988  0.46905210
   0.41666671  0.58333229  0.46905243
   0.75000085  0.24999815  0.46905250
   0.91666687  0.08333213  0.46905278
   0.75000184  0.75000189  0.46905259
   0.91666553  0.58333443  0.46905230
Direct configuration=     5
   0.66969191 -0.00000006  0.10001376
   0.33030717 -0.00000008  0.10001380
   0.00000006  0.33030709  0.10001376
   0.00000008  0.66969183  0.10001380
   0.33030701  0.33030697  0.10001381
   0.66969203  0.66969199  0.10001381
   0.66666605  0.33333295  0.09923459
   0.33333276  0.66666624  0.10079622
   0.24999711  0.24999716  0.46905262
   0.41666457  0.08333347  0.46905233
   0.24999912  0.74999988  0.46905212
   0.41666671  0.58333229  0.46905245
   0.75000085  0.24999815  0.46905252
   0.91666687  0.08333213  0.46905280
   0.75000184  0.75000189  0.46905262
   0.91666553  0.58333443  0.46905233
Direct configuration=     6
   0.66969091 -0.00000006  0.10001375
   0.33030817 -0.00000008  0.10001378
   0.00000006  0.33030809  0.10001375
   0.00000008  0.66969083  0.10001378
   0.33030801  0.33030797  0.10001379
   0.66969103  0.66969099  0.10001379
   0.66666605  0.33333295  0.09923457
   0.33333276  0.66666624  0.10079620
   0.24999712  0.24999717  0.46905263
   0.41666457  0.08333346  0.46905234
   0.24999912  0.74999988  0.46905214
   0.41666671  0.58333229  0.46905247
   0.75000084  0.24999816  0.46905254
   0.91666687  0.08333213  0.46905282
   0.75000183  0.75000188  0.46905263
   0.91666554  0.58333443  0.46905234
Direct configuration=     7
   0.66969041 -0.00000006  0.10001374
   0.33030867 -0.00000008  0.10001377
   0.00000006  0.33030859  0.10001374
   0.00000008  0.66969033  0.10001377
   0.33030851  0.33030847  0.10001378
   0.66969053  0.66969049  0.10001378
   0.66666605  0.33333295  0.09923456
   0.33333276  0.66666624  0.10079619
   0.24999712  0.24999717  0.46905264
   0.41666457  0.08333346  0.46905235
   0.24999912  0.74999988  0.46905215
   0.41666671  0.58333229  0.46905248
   0.75000084  0.24999816  0.46905255
   0.91666687  0.08333213  0.46905283
   0.75000183  0.75000188  0.46905264
   0.91666554  0.58333443  0.46905235
Direct configuration=     8
   0.66969052 -0.00000009  0.10003789
   0.33030871 -0.00000005  0.10003799
   0.00000009  0.33030848  0.10003789
   0.00000005  0.66969029  0.10003799
   0.33030858  0.33030853  0.10003801
   0.66969047  0.66969042  0.10003801
   0.66666602  0.33333298  0.09925934
   0.33333274  0.66666626  0.10082460
   0.24999993  0.25000117  0.46902804
   0.41666745  0.08333189  0.46902736
   0.24999902  0.74999998  0.46902690
   0.41666648  0.58333252  0.46902765
   0.74999820  0.25000080  0.46902782
   0.91666647  0.08333253  0.46902846
   0.74999783  0.74999907  0.46902804
   0.91666711  0.58333155  0.46902736
Direct configuration=     9
   0.66969084 -0.00000018  0.10011035
   0.33030883  0.00000005  0.10011063
   0.00000018  0.33030816  0.10011035
  -0.00000005  0.66969017  0.10011063
   0.33030878  0.33030869  0.10011068
   0.66969031  0.66969022  0.10011068
   0.66666595  0.33333305  0.09933365
   0.33333268  0.66666632  0.10090981
   0.25000836  0.25001319  0.46895422
   0.41667606  0.08332716  0.46895239
   0.24999872  0.75000028  0.46895115
   0.41666580  0.58333320  0.46895317
   0.74999028  0.25000872  0.46895364
   0.91666527  0.08333373  0.46895537
   0.74998581  0.74999064  0.46895422
   0.91667184  0.58332294  0.46895239
Direct configuration=    10
   0.66969150 -0.00000035  0.10025527
   0.33030908  0.00000024  0.10025592
   0.00000035  0.33030750  0.10025527
  -0.00000024  0.66968992  0.10025592
   0.33030918  0.33030901  0.10025604
   0.66968999  0.66968982  0.10025604
   0.66666581  0.33333319  0.09948228
   0.33333256  0.66666644  0.10108024
   0.25002521  0.25003721  0.46880659
   0.41669330  0.08331769  0.46880244
   0.24999812  0.75000088  0.46879964
   0.41666443  0.58333457  0.46880420
   0.74997442  0.25002458  0.46880528
   0.91666286  0.08333614  0.46880917
   0.74996179  0.74997379  0.46880659
   0.91668131  0.58330570  0.46880244
Direct configuration=    11
   0.66969280 -0.00000069  0.10054511
   0.33030956  0.00000062  0.10054650
   0.00000069  0.33030620  0.10054511
  -0.00000062  0.66968944  0.10054650
   0.33030999  0.33030966  0.10054674
   0.66968934  0.66968901  0.10054674
   0.66666553  0.33333347  0.09977955
   0.33333232  0.66666668  0.10142111
   0.25005893  0.25008527  0.46851132
   0.41672776  0.08329877  0.46850255
   0.24999691  0.75000209  0.46849663
   0.41666171  0.58333729  0.46850628
   0.74994272  0.25005628  0.46850855
   0.91665806  0.08334094  0.46851678
   0.74991373  0.74994007  0.46851132
   0.91670023  0.58327124  0.46850255
Direct configuration=    12
   0.66969541 -0.00000137  0.10112479
   0.33031054  0.00000137  0.10112766
   0.00000137  0.33030359  0.10112479
  -0.00000137  0.66968846  0.10112766
   0.33031161  0.33031096  0.10112815
   0.66968804  0.66968739  0.10112815
   0.66666497  0.33333403  0.10037408
   0.33333184  0.66666716  0.10210283
   0.25012636  0.25018139  0.46792078
   0.41679669  0.08326092  0.46790276
   0.24999450  0.75000450  0.46789062
   0.41665625  0.58334275  0.46791042
   0.74987931  0.25011969  0.46791510
   0.91664846  0.08335054  0.46793201
   0.74981761  0.74987264  0.46792078
   0.91673808  0.58320231  0.46790276
Direct configuration=    13
   0.66970063 -0.00000274  0.10228415
   0.33031249  0.00000289  0.10228997
   0.00000274  0.33029837  0.10228415
  -0.00000289  0.66968651  0.10228997
   0.33031485  0.33031356  0.10229097
   0.66968544  0.66968415  0.10229097
   0.66666386  0.33333514  0.10156313
   0.33333088  0.66666812  0.10346629
   0.25026122  0.25037362  0.46673972
   0.41693455  0.08318523  0.46670318
   0.24998968  0.75000932  0.46667859
   0.41664534  0.58335366  0.46671870
   0.74975249  0.25024651  0.46672820
   0.91662926  0.08336974  0.46676245
   0.74962538  0.74973778  0.46673972
   0.91681377  0.58306445  0.46670318
Direct configuration=    14
   0.66971106 -0.00000547  0.10460287
   0.33031638  0.00000592  0.10461459
   0.00000547  0.33028794  0.10460287
  -0.00000592  0.66968262  0.10461459
   0.33032133  0.33031875  0.10461661
   0.66968025  0.66967767  0.10461661
   0.66666162  0.33333738  0.10394124
   0.33332895  0.66667005  0.10619319
   0.25053094  0.25075808  0.46437758
   0.41721028  0.08303384  0.46430403
   0.24998004  0.75001896  0.46425453
   0.41662351  0.58337549  0.46433527
   0.74949885  0.25050015  0.46435439
   0.91659085  0.08340815  0.46442335
   0.74924092  0.74946806  0.46437758
   0.91696516  0.58278872  0.46430403
Direct configuration=    15
   0.66973193 -0.00001093  0.10924030
   0.33032417  0.00001199  0.10926384
   0.00001093  0.33026707  0.10924030
  -0.00001199  0.66967483  0.10926384
   0.33033428  0.33032914  0.10926790
   0.66966986  0.66966472  0.10926790
   0.66665714  0.33334186  0.10869747
   0.33332509  0.66667391  0.11164701
   0.25107037  0.25152700  0.45965330
   0.41776173  0.08273107  0.45950572
   0.24996076  0.75003824  0.45940640
   0.41657986  0.58341914  0.45956841
   0.74899158  0.25100742  0.45960678
   0.91651403  0.08348497  0.45974514
   0.74847200  0.74892863  0.45965330
   0.91726793  0.58223727  0.45950572
Direct configuration=    16
   0.66973193 -0.00001093  0.10924147
   0.33032417  0.00001199  0.10926502
   0.00001093  0.33026707  0.10924147
  -0.00001199  0.66967483  0.10926502
   0.33033428  0.33032914  0.10926907
   0.66966986  0.66966472  0.10926907
   0.66665714  0.33334186  0.10869867
   0.33332508  0.66667392  0.11164839
   0.25107041  0.25152704  0.45965211
   0.41776175  0.08273106  0.45950451
   0.24996077  0.75003823  0.45940518
   0.41657985  0.58341915  0.45956721
   0.74899156  0.25100744  0.45960558
   0.91651401  0.08348499  0.45974395
   0.74847196  0.74892859  0.45965211
   0.91726794  0.58223725  0.45950451
Direct configuration=    17
   0.66973194 -0.00001094  0.10924500
   0.33032418  0.00001198  0.10926855
   0.00001094  0.33026706  0.10924500
  -0.00001198  0.66967482  0.10926855
   0.33033429  0.33032915  0.10927261
   0.66966985  0.66966471  0.10927261
   0.66665714  0.33334186  0.10870227
   0.33332508  0.66667392  0.11165252
   0.25107053  0.25152714  0.45964852
   0.41776181  0.08273104  0.45950087
   0.24996080  0.75003820  0.45940151
   0.41657981  0.58341919  0.45956359
   0.74899150  0.25100750  0.45960197
   0.91651396  0.08348504  0.45974039
   0.74847186  0.74892847  0.45964852
   0.91726796  0.58223719  0.45950087
Direct configuration=    18
   0.66973195 -0.00001096  0.10925204
   0.33032419  0.00001198  0.10927561
   0.00001096  0.33026705  0.10925204
  -0.00001198  0.66967481  0.10927561
   0.33033431  0.33032917  0.10927967
   0.66966983  0.66966469  0.10927967
   0.66665714  0.33334186  0.10870948
   0.33332508  0.66667392  0.11166079
   0.25107077  0.25152734  0.45964134
   0.41776192  0.08273100  0.45949359
   0.24996085  0.75003815  0.45939416
   0.41657973  0.58341927  0.45955635
   0.74899140  0.25100760  0.45959476
   0.91651387  0.08348513  0.45973328
   0.74847166  0.74892823  0.45964134
   0.91726800  0.58223708  0.45949359
Direct configuration=    19
   0.66973198 -0.00001098  0.10926613
   0.33032421  0.00001197  0.10928973
   0.00001098  0.33026702  0.10926613
  -0.00001197  0.66967479  0.10928973
   0.33033434  0.33032920  0.10929380
   0.66966980  0.66966466  0.10929380
   0.66665714  0.33334186  0.10872390
   0.33332506  0.66667394  0.11167733
   0.25107124  0.25152775  0.45962699
   0.41776216  0.08273091  0.45947904
   0.24996096  0.75003804  0.45937947
   0.41657956  0.58341944  0.45954188
   0.74899118  0.25100782  0.45958035
   0.91651368  0.08348532  0.45971905
   0.74847125  0.74892776  0.45962699
   0.91726809  0.58223684  0.45947904
Direct configuration=    20
   0.66973203 -0.00001104  0.10929430
   0.33032426  0.00001196  0.10931798
   0.00001104  0.33026697  0.10929430
  -0.00001196  0.66967474  0.10931798
   0.33033441  0.33032928  0.10932205
   0.66966972  0.66966459  0.10932205
   0.66665713  0.33334187  0.10875274
   0.33332504  0.66667396  0.11171040
   0.25107219  0.25152857  0.45959828
   0.41776263  0.08273073  0.45944992
   0.24996119  0.75003781  0.45935009
   0.41657924  0.58341976  0.45951293
   0.74899074  0.25100826  0.45955151
   0.91651330  0.08348570  0.45969059
   0.74847043  0.74892681  0.45959828
   0.91726827  0.58223637  0.45944992
Direct configuration=    21
   0.66973214 -0.00001116  0.10935065
   0.33032435  0.00001193  0.10937447
   0.00001116  0.33026686  0.10935065
  -0.00001193  0.66967465  0.10937447
   0.33033455  0.33032943  0.10937857
   0.66966957  0.66966445  0.10937857
   0.66665712  0.33334188  0.10881042
   0.33332500  0.66667400  0.11177655
   0.25107409  0.25153020  0.45954086
   0.41776357  0.08273038  0.45939170
   0.24996163  0.75003737  0.45929133
   0.41657858  0.58342042  0.45945505
   0.74898987  0.25100913  0.45949384
   0.91651255  0.08348645  0.45963367
   0.74846880  0.74892491  0.45954086
   0.91726862  0.58223543  0.45939170
Direct configuration=    22
   0.66973235 -0.00001139  0.10946335
   0.33032453  0.00001188  0.10948745
   0.00001139  0.33026665  0.10946335
  -0.00001188  0.66967447  0.10948745
   0.33033482  0.33032972  0.10949159
   0.66966928  0.66966418  0.10949159
   0.66665709  0.33334191  0.10892577
   0.33332491  0.66667409  0.11190885
   0.25107789  0.25153346  0.45942602
   0.41776546  0.08272968  0.45927525
   0.24996252  0.75003648  0.45917380
   0.41657727  0.58342173  0.45933927
   0.74898814  0.25101086  0.45937849
   0.91651104  0.08348796  0.45951983
   0.74846554  0.74892111  0.45942602
   0.91726932  0.58223354  0.45927525
Direct configuration=    23
   0.66973278 -0.00001186  0.10968874
   0.33032489  0.00001178  0.10971341
   0.00001186  0.33026622  0.10968874
  -0.00001178  0.66967411  0.10971341
   0.33033536  0.33033032  0.10971765
   0.66966868  0.66966364  0.10971765
   0.66665704  0.33334196  0.10915648
   0.33332473  0.66667427  0.11217345
   0.25108549  0.25153999  0.45919635
   0.41776923  0.08272827  0.45904235
   0.24996430  0.75003470  0.45893875
   0.41657465  0.58342435  0.45910772
   0.74898466  0.25101434  0.45914779
   0.91650802  0.08349098  0.45929216
   0.74845901  0.74891351  0.45919635
   0.91727073  0.58222977  0.45904235
Direct configuration=    24
   0.66973364 -0.00001280  0.11013953
   0.33032561  0.00001157  0.11016532
   0.00001280  0.33026536  0.11013953
  -0.00001157  0.66967339  0.11016532
   0.33033645  0.33033150  0.11016975
   0.66966750  0.66966255  0.11016975
   0.66665694  0.33334206  0.10961790
   0.33332438  0.66667462  0.11270265
   0.25110069  0.25155304  0.45873700
   0.41777678  0.08272545  0.45857656
   0.24996786  0.75003114  0.45846864
   0.41656940  0.58342960  0.45864461
   0.74897771  0.25102129  0.45868640
   0.91650198  0.08349702  0.45883681
   0.74844596  0.74889831  0.45873700
   0.91727355  0.58222222  0.45857656
Direct configuration=    25
   0.66973535 -0.00001466  0.11104111
   0.33032706  0.00001115  0.11106916
   0.00001466  0.33026365  0.11104111
  -0.00001115  0.66967194  0.11106916
   0.33033863  0.33033388  0.11107396
   0.66966512  0.66966037  0.11107396
   0.66665673  0.33334227  0.11054073
   0.33332368  0.66667532  0.11376105
   0.25113108  0.25157914  0.45781830
   0.41779187  0.08271981  0.45764497
   0.24997497  0.75002403  0.45752843
   0.41655891  0.58344009  0.45771840
   0.74896380  0.25103520  0.45776362
   0.91648990  0.08350910  0.45792611
   0.74841986  0.74886792  0.45781830
   0.91727919  0.58220713  0.45764497
Direct configuration=    26
   0.66973878 -0.00001840  0.11284427
   0.33032995  0.00001031  0.11287682
   0.00001840  0.33026022  0.11284427
  -0.00001031  0.66966905  0.11287682
   0.33034298  0.33033863  0.11288238
   0.66966037  0.66965602  0.11288238
   0.66665631  0.33334269  0.11238639
   0.33332227  0.66667673  0.11587785
   0.25119187  0.25163134  0.45598090
   0.41782206  0.08270853  0.45578180
   0.24998920  0.75000980  0.45564801
   0.41653794  0.58346106  0.45586597
   0.74893598  0.25106302  0.45591807
   0.91646575  0.08353325  0.45610470
   0.74836766  0.74880713  0.45598090
   0.91729047  0.58217694  0.45578180
Direct configuration=    27
   0.66974563 -0.00002588  0.11645058
   0.33033572  0.00000863  0.11649216
   0.00002588  0.33025337  0.11645058
  -0.00000863  0.66966328  0.11649216
   0.33035168  0.33034813  0.11649923
   0.66965087  0.66964732  0.11649923
   0.66665548  0.33334352  0.11607771
   0.33331944  0.66667956  0.12011145
   0.25131345  0.25173575  0.45230611
   0.41788243  0.08268598  0.45205544
   0.25001765  0.74998135  0.45188717
   0.41649598  0.58350302  0.45216112
   0.74888035  0.25111865  0.45222695
   0.91641744  0.08358156  0.45246190
   0.74826325  0.74868555  0.45230611
   0.91731302  0.58211657  0.45205544
Direct configuration=    28
   0.66975935 -0.00004084  0.12366321
   0.33034728  0.00000527  0.12372282
   0.00004084  0.33023965  0.12366321
  -0.00000527  0.66965172  0.12372282
   0.33036908  0.33036712  0.12373291
   0.66963188  0.66962992  0.12373291
   0.66665381  0.33334519  0.12346035
   0.33331380  0.66668520  0.12857864
   0.25155662  0.25194457  0.44495653
   0.41800317  0.08264087  0.44460274
   0.25007457  0.74992443  0.44436548
   0.41641207  0.58358693  0.44475141
   0.74876909  0.25122991  0.44484472
   0.91632083  0.08367817  0.44517630
   0.74805443  0.74844238  0.44495653
   0.91735813  0.58199583  0.44460274
Direct configuration=    29
   0.66978677 -0.00007075  0.13808848
   0.33037039 -0.00000145  0.13818415
   0.00007075  0.33021223  0.13808848
   0.00000145  0.66962861  0.13818415
   0.33040389  0.33040511  0.13820028
   0.66959389  0.66959511  0.13820028
   0.66665047  0.33334853  0.13822564
   0.33330251  0.66669649  0.14551303
   0.25204294  0.25236220  0.43025736
   0.41824465  0.08255066  0.42969733
   0.25018839  0.74981061  0.42932211
   0.41624424  0.58375476  0.42993200
   0.74854657  0.25145243  0.43008025
   0.91612761  0.08387139  0.43060509
   0.74763680  0.74795606  0.43025736
   0.91744834  0.58175435  0.42969733
Direct configuration=    30
   0.66984162 -0.00013057  0.16693900
   0.33041662 -0.00001488  0.16710682
   0.00013057  0.33015738  0.16693900
   0.00001488  0.66958238  0.16710682
   0.33047351  0.33048110  0.16713502
   0.66951790  0.66952549  0.16713502
   0.66664381  0.33335519  0.16775621
   0.33327994  0.66671906  0.17938180
   0.25301559  0.25319746  0.40085903
   0.41872762  0.08237024  0.39988652
   0.25041604  0.74958296  0.39923537
   0.41590859  0.58409041  0.40029318
   0.74810153  0.25189747  0.40055132
   0.91574116  0.08425784  0.40146266
   0.74680154  0.74698341  0.40085903
   0.91762876  0.58127138  0.39988652
Direct configuration=    31
   0.66981666 -0.00010334  0.15380702
   0.33039558 -0.00000877  0.15394200
   0.00010334  0.33018234  0.15380702
   0.00000877  0.66960342  0.15394200
   0.33044182  0.33044651  0.15396471
   0.66955249  0.66955718  0.15396471
   0.66664684  0.33335216  0.15431469
   0.33329021  0.66670879  0.16396565
   0.25257286  0.25281727  0.41424035
   0.41850779  0.08245237  0.41345560
   0.25031242  0.74968658  0.41293005
   0.41606137  0.58393763  0.41378397
   0.74830410  0.25169490  0.41399209
   0.91591706  0.08408194  0.41472751
   0.74718173  0.74742614  0.41424035
   0.91754663  0.58149121  0.41345560
Direct configuration=    32
   0.66983003 -0.00011792  0.16084033
   0.33040685 -0.00001204  0.16099290
   0.00011792  0.33016897  0.16084033
   0.00001204  0.66959215  0.16099290
   0.33045879  0.33046503  0.16101855
   0.66953397  0.66954021  0.16101855
   0.66664522  0.33335378  0.16151378
   0.33328471  0.66671429  0.17222233
   0.25280998  0.25302089  0.40707350
   0.41862553  0.08240838  0.40618819
   0.25036792  0.74963108  0.40559537
   0.41597954  0.58401946  0.40655849
   0.74819561  0.25180339  0.40679340
   0.91582285  0.08417615  0.40762304
   0.74697811  0.74718902  0.40707350
   0.91759062  0.58137347  0.40618819
Direct configuration=    33
   0.66983376 -0.00012199  0.16280226
   0.33040999 -0.00001295  0.16295973
   0.00012199  0.33016524  0.16280226
   0.00001295  0.66958901  0.16295973
   0.33046352  0.33047020  0.16298620
   0.66952880  0.66953548  0.16298620
   0.66664476  0.33335424  0.16352195
   0.33328317  0.66671583  0.17452551
   0.25287612  0.25307769  0.40507432
   0.41865837  0.08239611  0.40416096
   0.25038340  0.74961560  0.40354937
   0.41595672  0.58404228  0.40454295
   0.74816535  0.25183365  0.40478534
   0.91579657  0.08420243  0.40564126
   0.74692131  0.74712288  0.40507432
   0.91760289  0.58134063  0.40416096
Direct configuration=    34
   0.66974280 -0.00020825  0.16847312
   0.33043608 -0.00008747  0.16864379
   0.00020825  0.33025620  0.16847312
   0.00008747  0.66956292  0.16864379
   0.33048458  0.33054311  0.16867167
   0.66945589  0.66951442  0.16867167
   0.66664085  0.33335815  0.16928364
   0.33327376  0.66672524  0.18113104
   0.25237690  0.25245091  0.39929257
   0.41819999  0.08263315  0.39833094
   0.25035217  0.74964683  0.39768469
   0.41603414  0.58396486  0.39873415
   0.74856851  0.25143049  0.39898918
   0.91588433  0.08411467  0.39988645
   0.74754809  0.74762210  0.39929257
   0.91736585  0.58179901  0.39833094
Direct configuration=    35
   0.66977051 -0.00018197  0.16674524
   0.33042813 -0.00006476  0.16691189
   0.00018197  0.33022849  0.16674524
   0.00006476  0.66957087  0.16691189
   0.33047816  0.33052089  0.16693934
   0.66947811  0.66952084  0.16693934
   0.66664204  0.33335696  0.16752808
   0.33327663  0.66672237  0.17911837
   0.25252901  0.25264189  0.40105424
   0.41833966  0.08256093  0.40010732
   0.25036169  0.74963731  0.39947163
   0.41601055  0.58398845  0.40050406
   0.74844567  0.25155333  0.40075524
   0.91585759  0.08414141  0.40163991
   0.74735711  0.74746999  0.40105424
   0.91743807  0.58165934  0.40010732
Direct configuration=    36
   0.66967874 -0.00024758  0.16613315
   0.33044974 -0.00012283  0.16629714
   0.00024758  0.33032026  0.16613315
   0.00012283  0.66954926  0.16629714
   0.33048878  0.33056885  0.16632308
   0.66943015  0.66951022  0.16632308
   0.66663415  0.33336485  0.16686247
   0.33326978  0.66672922  0.17835398
   0.25201010  0.25207844  0.40167541
   0.41795618  0.08275186  0.40076641
   0.25029057  0.74970843  0.40015329
   0.41613300  0.58386600  0.40114966
   0.74878567  0.25121333  0.40138932
   0.91599469  0.08400431  0.40223425
   0.74792056  0.74798890  0.40167541
   0.91724714  0.58204282  0.40076641
Direct configuration=    37
   0.66940342 -0.00044441  0.16429689
   0.33051458 -0.00029703  0.16445290
   0.00044441  0.33059558  0.16429689
   0.00029703  0.66948442  0.16445290
   0.33052062  0.33071271  0.16447429
   0.66928629  0.66947838  0.16447429
   0.66661049  0.33338851  0.16486564
   0.33324922  0.66674978  0.17606082
   0.25045336  0.25038811  0.40353891
   0.41680576  0.08332466  0.40274369
   0.25007722  0.74992178  0.40219827
   0.41650034  0.58349866  0.40308645
   0.74980569  0.25019331  0.40329154
   0.91640599  0.08359301  0.40401726
   0.74961089  0.74954564  0.40353891
   0.91667434  0.58319324  0.40274369
Direct configuration=    38
   0.66934536 -0.00048592  0.16390964
   0.33052825 -0.00033377  0.16406397
   0.00048592  0.33065364  0.16390964
   0.00033377  0.66947075  0.16406397
   0.33052734  0.33074305  0.16408440
   0.66925595  0.66947166  0.16408440
   0.66660549  0.33339351  0.16444453
   0.33324489  0.66675411  0.17557722
   0.25012506  0.25003163  0.40393191
   0.41656315  0.08344546  0.40316067
   0.25003223  0.74996677  0.40262953
   0.41657781  0.58342119  0.40349490
   0.75002080  0.24997820  0.40369270
   0.91649272  0.08350628  0.40439328
   0.74996737  0.74987394  0.40393191
   0.91655354  0.58343585  0.40316067
Direct configuration=    39
   0.66929792 -0.00050067  0.16392036
   0.33055265 -0.00035534  0.16407337
   0.00050067  0.33070108  0.16392036
   0.00035534  0.66944635  0.16407337
   0.33054096  0.33076103  0.16409172
   0.66923797  0.66945804  0.16409172
   0.66660294  0.33339606  0.16438719
   0.33324537  0.66675363  0.17551359
   0.25003815  0.25003643  0.40391834
   0.41659286  0.08341658  0.40319221
   0.24998646  0.75001254  0.40269031
   0.41662150  0.58337750  0.40350927
   0.74998555  0.25001345  0.40369231
   0.91655635  0.08344265  0.40434868
   0.74996257  0.74996085  0.40391834
   0.91658242  0.58340614  0.40319221
Direct configuration=    40
   0.66915559 -0.00054491  0.16395252
   0.33062585 -0.00042006  0.16410156
   0.00054491  0.33084341  0.16395252
   0.00042006  0.66937315  0.16410156
   0.33058182  0.33081498  0.16411367
   0.66918402  0.66941718  0.16411367
   0.66659526  0.33340374  0.16421518
   0.33324680  0.66675220  0.17532272
   0.24977741  0.25005084  0.40387765
   0.41668200  0.08332995  0.40328682
   0.24984914  0.75014986  0.40287263
   0.41675258  0.58324642  0.40355239
   0.74987979  0.25011921  0.40369113
   0.91674722  0.08325178  0.40421486
   0.74994816  0.75022159  0.40387765
   0.91666905  0.58331700  0.40328682
Direct configuration=    41
   0.66887093 -0.00063338  0.16401684
   0.33077225 -0.00054950  0.16415794
   0.00063338  0.33112807  0.16401684
   0.00054950  0.66922675  0.16415794
   0.33066355  0.33092289  0.16415758
   0.66907611  0.66933545  0.16415758
   0.66657991  0.33341909  0.16387117
   0.33324966  0.66674934  0.17494096
   0.24925593  0.25007964  0.40379626
   0.41686028  0.08315670  0.40347604
   0.24957451  0.75042449  0.40323728
   0.41701475  0.58298425  0.40363862
   0.74966827  0.25033073  0.40368878
   0.91712896  0.08287004  0.40394722
   0.74991936  0.75074307  0.40379626
   0.91684230  0.58313872  0.40347604
Direct configuration=    42
   0.66907587 -0.00056969  0.16397053
   0.33066685 -0.00045631  0.16411735
   0.00056969  0.33092313  0.16397053
   0.00045631  0.66933215  0.16411735
   0.33060471  0.33084520  0.16412597
   0.66915380  0.66939429  0.16412597
   0.66659096  0.33340804  0.16411884
   0.33324760  0.66675140  0.17521581
   0.24963137  0.25005890  0.40385486
   0.41673193  0.08328143  0.40333981
   0.24977223  0.75022677  0.40297475
   0.41682600  0.58317300  0.40357653
   0.74982055  0.25017845  0.40369047
   0.91685413  0.08314487  0.40413991
   0.74994010  0.75036763  0.40385486
   0.91671757  0.58326707  0.40333981
Direct configuration=    43
   0.66905014 -0.00057134  0.16398796
   0.33068649 -0.00046393  0.16413327
   0.00057134  0.33094886  0.16398796
   0.00046393  0.66931251  0.16413327
   0.33061393  0.33084882  0.16413923
   0.66915018  0.66938507  0.16413923
   0.66658772  0.33341128  0.16405249
   0.33325078  0.66674822  0.17514401
   0.24964218  0.25004811  0.40383602
   0.41671986  0.08329471  0.40337128
   0.24978255  0.75021645  0.40303877
   0.41681168  0.58318732  0.40358890
   0.74983089  0.25016811  0.40368676
   0.91684282  0.08315618  0.40408688
   0.74995089  0.75035682  0.40383602
   0.91670429  0.58327914  0.40337128
Direct configuration=    44
   0.66897297 -0.00057630  0.16404024
   0.33074540 -0.00048677  0.16418106
   0.00057630  0.33102603  0.16404024
   0.00048677  0.66925360  0.16418106
   0.33064157  0.33085969  0.16417902
   0.66913931  0.66935743  0.16417902
   0.66657799  0.33342101  0.16385343
   0.33326034  0.66673866  0.17492862
   0.24967461  0.25001571  0.40377951
   0.41668366  0.08333455  0.40346569
   0.24981350  0.75018550  0.40323083
   0.41676872  0.58323028  0.40362598
   0.74986191  0.25013709  0.40367563
   0.91680888  0.08319012  0.40392781
   0.74998329  0.75032439  0.40377951
   0.91666445  0.58331534  0.40346569
Direct configuration=    45
   0.66881862 -0.00058622  0.16414481
   0.33086323 -0.00053245  0.16427662
   0.00058622  0.33118038  0.16414481
   0.00053245  0.66913577  0.16427662
   0.33069685  0.33088141  0.16425860
   0.66911759  0.66930215  0.16425860
   0.66655854  0.33344046  0.16345531
   0.33327945  0.66671955  0.17449785
   0.24973948  0.24995093  0.40366648
   0.41661124  0.08341421  0.40365452
   0.24987541  0.75012359  0.40361493
   0.41668279  0.58331621  0.40370016
   0.74992394  0.25007506  0.40365336
   0.91674100  0.08325800  0.40360966
   0.75004807  0.75025952  0.40366648
   0.91658479  0.58338776  0.40365452
Direct configuration=    46
   0.66850992 -0.00060606  0.16435395
   0.33109889 -0.00062381  0.16446776
   0.00060606  0.33148908  0.16435395
   0.00062381  0.66890011  0.16446776
   0.33080742  0.33092485  0.16441775
   0.66907415  0.66919158  0.16441775
   0.66651962  0.33347938  0.16265906
   0.33331766  0.66668134  0.17363631
   0.24986922  0.24982136  0.40344043
   0.41646642  0.08357355  0.40403218
   0.24999922  0.74999978  0.40438315
   0.41651093  0.58348807  0.40384850
   0.75004801  0.24995099  0.40360882
   0.91660524  0.08339376  0.40297337
   0.75017764  0.75012978  0.40344043
   0.91642545  0.58353258  0.40403218
Direct configuration=    47
   0.66863516 -0.00059801  0.16426910
   0.33100328 -0.00058674  0.16439022
   0.00059801  0.33136384  0.16426910
   0.00058674  0.66899572  0.16439022
   0.33076256  0.33090723  0.16435318
   0.66909177  0.66923644  0.16435318
   0.66653541  0.33346359  0.16298209
   0.33330216  0.66669684  0.17398583
   0.24981659  0.24987393  0.40353213
   0.41652517  0.08350891  0.40387896
   0.24994899  0.75005001  0.40407149
   0.41658065  0.58341835  0.40378832
   0.74999767  0.25000133  0.40362689