   8   8   1  16
  0.4338553E+02  0.5169000E-09  0.5169000E-09  0.1500000E-08  0.5000000E-15
  1.000000000000000E-004
  CAR 
 PDOS                                    
     12.55119835    -21.42934081 4000     -3.15692803      1.00000000
    -21.429  0.0000E+00  0.0000E+00
    -21.421  0.0000E+00  0.0000E+00
    -21.412  0.0000E+00  0.0000E+00
    -21.404  0.0000E+00  0.0000E+00
    -21.395  0.0000E+00  0.0000E+00
    -21.387  0.0000E+00  0.0000E+00
    -21.378  0.0000E+00  0.0000E+00
    -21.370  0.0000E+00  0.0000E+00
    -21.361  0.0000E+00  0.0000E+00
    -21.353  0.0000E+00  0.0000E+00
    -21.344  0.0000E+00  0.0000E+00
    -21.336  0.0000E+00  0.0000E+00
    -21.327  0.0000E+00  0.0000E+00
    -21.319  0.0000E+00  0.0000E+00
    -21.310  0.0000E+00  0.0000E+00
    -21.302  0.0000E+00  0.0000E+00
    -21.293  0.0000E+00  0.0000E+00
    -21.285  0.0000E+00  0.0000E+00
    -21.276  0.0000E+00  0.0000E+00
    -21.268  0.0000E+00  0.0000E+00
    -21.259  0.0000E+00  0.0000E+00
    -21.251  0.0000E+00  0.0000E+00
    -21.242  0.0000E+00  0.0000E+00
    -21.234  0.0000E+00  0.0000E+00
    -21.225  0.0000E+00  0.0000E+00
    -21.217  0.0000E+00  0.0000E+00
    -21.208  0.0000E+00  0.0000E+00
    -21.200  0.0000E+00  0.0000E+00
    -21.191  0.0000E+00  0.0000E+00
    -21.183  0.0000E+00  0.0000E+00
    -21.174  0.0000E+00  0.0000E+00
    -21.166  0.0000E+00  0.0000E+00
    -21.157  0.0000E+00  0.0000E+00
    -21.149  0.0000E+00  0.0000E+00
    -21.140  0.0000E+00  0.0000E+00
    -21.132  0.0000E+00  0.0000E+00
    -21.123  0.0000E+00  0.0000E+00
    -21.115  0.0000E+00  0.0000E+00
    -21.106  0.0000E+00  0.0000E+00
    -21.098  0.0000E+00  0.0000E+00
    -21.089  0.0000E+00  0.0000E+00
    -21.081  0.0000E+00  0.0000E+00
    -21.072  0.0000E+00  0.0000E+00
    -21.064  0.0000E+00  0.0000E+00
    -21.055  0.0000E+00  0.0000E+00
    -21.047  0.0000E+00  0.0000E+00
    -21.038  0.0000E+00  0.0000E+00
    -21.030  0.0000E+00  0.0000E+00
    -21.021  0.0000E+00  0.0000E+00
    -21.013  0.0000E+00  0.0000E+00
    -21.004  0.0000E+00  0.0000E+00
    -20.996  0.0000E+00  0.0000E+00
    -20.987  0.0000E+00  0.0000E+00
    -20.979  0.0000E+00  0.0000E+00
    -20.970  0.0000E+00  0.0000E+00
    -20.962  0.0000E+00  0.0000E+00
    -20.953  0.0000E+00  0.0000E+00
    -20.945  0.0000E+00  0.0000E+00
    -20.936  0.0000E+00  0.0000E+00
    -20.928  0.0000E+00  0.0000E+00
    -20.920  0.0000E+00  0.0000E+00
    -20.911  0.0000E+00  0.0000E+00
    -20.903  0.0000E+00  0.0000E+00
    -20.894  0.0000E+00  0.0000E+00
    -20.886  0.0000E+00  0.0000E+00
    -20.877  0.0000E+00  0.0000E+00
    -20.869  0.0000E+00  0.0000E+00
    -20.860  0.0000E+00  0.0000E+00
    -20.852  0.0000E+00  0.0000E+00
    -20.843  0.0000E+00  0.0000E+00
    -20.835  0.0000E+00  0.0000E+00
    -20.826  0.0000E+00  0.0000E+00
    -20.818  0.0000E+00  0.0000E+00
    -20.809  0.0000E+00  0.0000E+00
    -20.801  0.0000E+00  0.0000E+00
    -20.792  0.0000E+00  0.0000E+00
    -20.784  0.0000E+00  0.0000E+00
    -20.775  0.0000E+00  0.0000E+00
    -20.767  0.0000E+00  0.0000E+00
    -20.758  0.0000E+00  0.0000E+00
    -20.750  0.0000E+00  0.0000E+00
    -20.741  0.0000E+00  0.0000E+00
    -20.733  0.0000E+00  0.0000E+00
    -20.724  0.0000E+00  0.0000E+00
    -20.716  0.0000E+00  0.0000E+00
    -20.707  0.0000E+00  0.0000E+00
    -20.699  0.0000E+00  0.0000E+00
    -20.690  0.0000E+00  0.0000E+00
    -20.682  0.0000E+00  0.0000E+00
    -20.673  0.0000E+00  0.0000E+00
    -20.665  0.0000E+00  0.0000E+00
    -20.656  0.0000E+00  0.0000E+00
    -20.648  0.0000E+00  0.0000E+00
    -20.639  0.0000E+00  0.0000E+00
    -20.631  0.0000E+00  0.0000E+00
    -20.622  0.0000E+00  0.0000E+00
    -20.614  0.0000E+00  0.0000E+00
    -20.605  0.0000E+00  0.0000E+00
    -20.597  0.0000E+00  0.0000E+00
    -20.588  0.0000E+00  0.0000E+00
    -20.580  0.0000E+00  0.0000E+00
    -20.571  0.0000E+00  0.0000E+00
    -20.563  0.0000E+00  0.0000E+00
    -20.554  0.0000E+00  0.0000E+00
    -20.546  0.0000E+00  0.0000E+00
    -20.537  0.0000E+00  0.0000E+00
    -20.529  0.0000E+00  0.0000E+00
    -20.520  0.0000E+00  0.0000E+00
    -20.512  0.0000E+00  0.0000E+00
    -20.503  0.0000E+00  0.0000E+00
    -20.495  0.0000E+00  0.0000E+00
    -20.486  0.0000E+00  0.0000E+00
    -20.478  0.0000E+00  0.0000E+00
    -20.469  0.0000E+00  0.0000E+00
    -20.461  0.0000E+00  0.0000E+00
    -20.452  0.0000E+00  0.0000E+00
    -20.444  0.0000E+00  0.0000E+00
    -20.435  0.0000E+00  0.0000E+00
    -20.427  0.0000E+00  0.0000E+00
    -20.418  0.0000E+00  0.0000E+00
    -20.410  0.0000E+00  0.0000E+00
    -20.401  0.0000E+00  0.0000E+00
    -20.393  0.0000E+00  0.0000E+00
    -20.384  0.0000E+00  0.0000E+00
    -20.376  0.0000E+00  0.0000E+00
    -20.367  0.0000E+00  0.0000E+00
    -20.359  0.0000E+00  0.0000E+00
    -20.350  0.0000E+00  0.0000E+00
    -20.342  0.0000E+00  0.0000E+00
    -20.333  0.0000E+00  0.0000E+00
    -20.325  0.0000E+00  0.0000E+00
    -20.316  0.0000E+00  0.0000E+00
    -20.308  0.0000E+00  0.0000E+00
    -20.299  0.0000E+00  0.0000E+00
    -20.291  0.0000E+00  0.0000E+00
    -20.282  0.0000E+00  0.0000E+00
    -20.274  0.0000E+00  0.0000E+00
    -20.265  0.0000E+00  0.0000E+00
    -20.257  0.0000E+00  0.0000E+00
    -20.248  0.0000E+00  0.0000E+00
    -20.240  0.0000E+00  0.0000E+00
    -20.231  0.0000E+00  0.0000E+00
    -20.223  0.0000E+00  0.0000E+00
    -20.214  0.0000E+00  0.0000E+00
    -20.206  0.0000E+00  0.0000E+00
    -20.197  0.0000E+00  0.0000E+00
    -20.189  0.0000E+00  0.0000E+00
    -20.180  0.0000E+00  0.0000E+00
    -20.172  0.0000E+00  0.0000E+00
    -20.163  0.0000E+00  0.0000E+00
    -20.155  0.0000E+00  0.0000E+00
    -20.146  0.0000E+00  0.0000E+00
    -20.138  0.0000E+00  0.0000E+00
    -20.129  0.0000E+00  0.0000E+00
    -20.121  0.0000E+00  0.0000E+00
    -20.112  0.0000E+00  0.0000E+00
    -20.104  0.0000E+00  0.0000E+00
    -20.095  0.0000E+00  0.0000E+00
    -20.087  0.0000E+00  0.0000E+00
    -20.078  0.0000E+00  0.0000E+00
    -20.070  0.0000E+00  0.0000E+00
    -20.061  0.0000E+00  0.0000E+00
    -20.053  0.0000E+00  0.0000E+00
    -20.044  0.0000E+00  0.0000E+00
    -20.036  0.0000E+00  0.0000E+00
    -20.027  0.0000E+00  0.0000E+00
    -20.019  0.0000E+00  0.0000E+00
    -20.010  0.0000E+00  0.0000E+00
    -20.002  0.0000E+00  0.0000E+00
    -19.993  0.0000E+00  0.0000E+00
    -19.985  0.0000E+00  0.0000E+00
    -19.976  0.0000E+00  0.0000E+00
    -19.968  0.0000E+00  0.0000E+00
    -19.959  0.0000E+00  0.0000E+00
    -19.951  0.0000E+00  0.0000E+00
    -19.942  0.0000E+00  0.0000E+00
    -19.934  0.0000E+00  0.0000E+00
    -19.925  0.0000E+00  0.0000E+00
    -19.917  0.0000E+00  0.0000E+00
    -19.908  0.0000E+00  0.0000E+00
    -19.900  0.0000E+00  0.0000E+00
    -19.891  0.0000E+00  0.0000E+00
    -19.883  0.2510E+01  0.2424E-02
    -19.874  0.3023E+01  0.1815E-01
    -19.866  0.1821E+01  0.3397E-01
    -19.857  0.1932E+01  0.4973E-01
    -19.849  0.1853E+01  0.6553E-01
    -19.840  0.1888E+01  0.8162E-01
    -19.832  0.1875E+01  0.9749E-01
    -19.823  0.1931E+01  0.1136E+00
    -19.815  0.1889E+01  0.1298E+00
    -19.806  0.1922E+01  0.1459E+00
    -19.798  0.1924E+01  0.1624E+00
    -19.789  0.1924E+01  0.1787E+00
    -19.781  0.1953E+01  0.1952E+00
    -19.772  0.1950E+01  0.2118E+00
    -19.764  0.1956E+01  0.2284E+00
    -19.755  0.1977E+01  0.2451E+00
    -19.747  0.2009E+01  0.2621E+00
    -19.738  0.1992E+01  0.2790E+00
    -19.730  0.2009E+01  0.2960E+00
    -19.721  0.2031E+01  0.3131E+00
    -19.713  0.2036E+01  0.3305E+00
    -19.704  0.2044E+01  0.3478E+00
    -19.696  0.2063E+01  0.3652E+00
    -19.687  0.2086E+01  0.3829E+00
    -19.679  0.2091E+01  0.4006E+00
    -19.670  0.2105E+01  0.4185E+00
    -19.662  0.2124E+01  0.4364E+00
    -19.653  0.2147E+01  0.4546E+00
    -19.645  0.2160E+01  0.4729E+00
    -19.636  0.2175E+01  0.4913E+00
    -19.628  0.2196E+01  0.5099E+00
    -19.619  0.2218E+01  0.5286E+00
    -19.611  0.2243E+01  0.5476E+00
    -19.602  0.2258E+01  0.5667E+00
    -19.594  0.2281E+01  0.5859E+00
    -19.585  0.2305E+01  0.6054E+00
    -19.577  0.2331E+01  0.6251E+00
    -19.568  0.2357E+01  0.6450E+00
    -19.560  0.2384E+01  0.6652E+00
    -19.551  0.2413E+01  0.6856E+00
    -19.543  0.2442E+01  0.7062E+00
    -19.534  0.2473E+01  0.7271E+00
    -19.526  0.2511E+01  0.7482E+00
    -19.517  0.2548E+01  0.7697E+00
    -19.509  0.2584E+01  0.7915E+00
    -19.500  0.2622E+01  0.8137E+00
    -19.492  0.2665E+01  0.8361E+00
    -19.483  0.2720E+01  0.8590E+00
    -19.475  0.2769E+01  0.8823E+00
    -19.466  0.2819E+01  0.9061E+00
    -19.458  0.2869E+01  0.9302E+00
    -19.449  0.2943E+01  0.9549E+00
    -19.441  0.3017E+01  0.9802E+00
    -19.432  0.3089E+01  0.1006E+01
    -19.424  0.3160E+01  0.1033E+01
    -19.415  0.3234E+01  0.1060E+01
    -19.407  0.3367E+01  0.1088E+01
    -19.398  0.3483E+01  0.1117E+01
    -19.390  0.3598E+01  0.1147E+01
    -19.382  0.3721E+01  0.1178E+01
    -19.373  0.3918E+01  0.1211E+01
    -19.365  0.4133E+01  0.1245E+01
    -19.356  0.4356E+01  0.1281E+01
    -19.348  0.4616E+01  0.1319E+01
    -19.339  0.5029E+01  0.1360E+01
    -19.331  0.5591E+01  0.1405E+01
    -19.322  0.6420E+01  0.1456E+01
    -19.314  0.8666E+01  0.1517E+01
    -19.305  0.9049E+01  0.1596E+01
    -19.297  0.6290E+01  0.1655E+01
    -19.288  0.5314E+01  0.1703E+01
    -19.280  0.5169E+01  0.1747E+01
    -19.271  0.4593E+01  0.1788E+01
    -19.263  0.4265E+01  0.1825E+01
    -19.254  0.4075E+01  0.1861E+01
    -19.246  0.3708E+01  0.1894E+01
    -19.237  0.3721E+01  0.1926E+01
    -19.229  0.3474E+01  0.1956E+01
    -19.220  0.3841E+01  0.1985E+01
    -19.212  0.5601E+00  0.2000E+01
    -19.203  0.0000E+00  0.2000E+01
    -19.195  0.0000E+00  0.2000E+01
    -19.186  0.0000E+00  0.2000E+01
    -19.178  0.0000E+00  0.2000E+01
    -19.169  0.0000E+00  0.2000E+01
    -19.161  0.0000E+00  0.2000E+01
    -19.152  0.0000E+00  0.2000E+01
    -19.144  0.0000E+00  0.2000E+01
    -19.135  0.0000E+00  0.2000E+01
    -19.127  0.0000E+00  0.2000E+01
    -19.118  0.0000E+00  0.2000E+01
    -19.110  0.0000E+00  0.2000E+01
    -19.101  0.0000E+00  0.2000E+01
    -19.093  0.0000E+00  0.2000E+01
    -19.084  0.0000E+00  0.2000E+01
    -19.076  0.0000E+00  0.2000E+01
    -19.067  0.0000E+00  0.2000E+01
    -19.059  0.0000E+00  0.2000E+01
    -19.050  0.0000E+00  0.2000E+01
    -19.042  0.0000E+00  0.2000E+01
    -19.033  0.0000E+00  0.2000E+01
    -19.025  0.0000E+00  0.2000E+01
    -19.016  0.0000E+00  0.2000E+01
    -19.008  0.0000E+00  0.2000E+01
    -18.999  0.0000E+00  0.2000E+01
    -18.991  0.0000E+00  0.2000E+01
    -18.982  0.0000E+00  0.2000E+01
    -18.974  0.0000E+00  0.2000E+01
    -18.965  0.0000E+00  0.2000E+01
    -18.957  0.0000E+00  0.2000E+01
    -18.948  0.0000E+00  0.2000E+01
    -18.940  0.0000E+00  0.2000E+01
    -18.931  0.0000E+00  0.2000E+01
    -18.923  0.0000E+00  0.2000E+01
    -18.914  0.0000E+00  0.2000E+01
    -18.906  0.0000E+00  0.2000E+01
    -18.897  0.0000E+00  0.2000E+01
    -18.889  0.0000E+00  0.2000E+01
    -18.880  0.0000E+00  0.2000E+01
    -18.872  0.0000E+00  0.2000E+01
    -18.863  0.0000E+00  0.2000E+01
    -18.855  0.0000E+00  0.2000E+01
    -18.846  0.0000E+00  0.2000E+01
    -18.838  0.0000E+00  0.2000E+01
    -18.829  0.0000E+00  0.2000E+01
    -18.821  0.0000E+00  0.2000E+01
    -18.812  0.0000E+00  0.2000E+01
    -18.804  0.0000E+00  0.2000E+01
    -18.795  0.0000E+00  0.2000E+01
    -18.787  0.0000E+00  0.2000E+01
    -18.778  0.0000E+00  0.2000E+01
    -18.770  0.0000E+00  0.2000E+01
    -18.761  0.0000E+00  0.2000E+01
    -18.753  0.0000E+00  0.2000E+01
    -18.744  0.0000E+00  0.2000E+01
    -18.736  0.0000E+00  0.2000E+01
    -18.727  0.0000E+00  0.2000E+01
    -18.719  0.0000E+00  0.2000E+01
    -18.710  0.0000E+00  0.2000E+01
    -18.702  0.0000E+00  0.2000E+01
    -18.693  0.0000E+00  0.2000E+01
    -18.685  0.0000E+00  0.2000E+01
    -18.676  0.0000E+00  0.2000E+01
    -18.668  0.0000E+00  0.2000E+01
    -18.659  0.0000E+00  0.2000E+01
    -18.651  0.0000E+00  0.2000E+01
    -18.642  0.0000E+00  0.2000E+01
    -18.634  0.0000E+00  0.2000E+01
    -18.625  0.0000E+00  0.2000E+01
    -18.617  0.0000E+00  0.2000E+01
    -18.608  0.0000E+00  0.2000E+01
    -18.600  0.0000E+00  0.2000E+01
    -18.591  0.0000E+00  0.2000E+01
    -18.583  0.0000E+00  0.2000E+01
    -18.574  0.0000E+00  0.2000E+01
    -18.566  0.0000E+00  0.2000E+01
    -18.557  0.0000E+00  0.2000E+01
    -18.549  0.0000E+00  0.2000E+01
    -18.540  0.0000E+00  0.2000E+01
    -18.532  0.0000E+00  0.2000E+01
    -18.523  0.0000E+00  0.2000E+01
    -18.515  0.0000E+00  0.2000E+01
    -18.506  0.0000E+00  0.2000E+01
    -18.498  0.0000E+00  0.2000E+01
    -18.489  0.0000E+00  0.2000E+01
    -18.481  0.0000E+00  0.2000E+01
    -18.472  0.0000E+00  0.2000E+01
    -18.464  0.0000E+00  0.2000E+01
    -18.455  0.0000E+00  0.2000E+01
    -18.447  0.0000E+00  0.2000E+01
    -18.438  0.0000E+00  0.2000E+01
    -18.430  0.0000E+00  0.2000E+01
    -18.421  0.0000E+00  0.2000E+01
    -18.413  0.0000E+00  0.2000E+01
    -18.404  0.0000E+00  0.2000E+01
    -18.396  0.0000E+00  0.2000E+01
    -18.387  0.0000E+00  0.2000E+01
    -18.379  0.0000E+00  0.2000E+01
    -18.370  0.0000E+00  0.2000E+01
    -18.362  0.0000E+00  0.2000E+01
    -18.353  0.0000E+00  0.2000E+01
    -18.345  0.0000E+00  0.2000E+01
    -18.336  0.0000E+00  0.2000E+01
    -18.328  0.0000E+00  0.2000E+01
    -18.319  0.0000E+00  0.2000E+01
    -18.311  0.0000E+00  0.2000E+01
    -18.302  0.0000E+00  0.2000E+01
    -18.294  0.0000E+00  0.2000E+01
    -18.285  0.0000E+00  0.2000E+01
    -18.277  0.0000E+00  0.2000E+01
    -18.268  0.0000E+00  0.2000E+01
    -18.260  0.0000E+00  0.2000E+01
    -18.251  0.0000E+00  0.2000E+01
    -18.243  0.0000E+00  0.2000E+01
    -18.234  0.0000E+00  0.2000E+01
    -18.226  0.0000E+00  0.2000E+01
    -18.217  0.0000E+00  0.2000E+01
    -18.209  0.0000E+00  0.2000E+01
    -18.200  0.0000E+00  0.2000E+01
    -18.192  0.0000E+00  0.2000E+01
    -18.183  0.0000E+00  0.2000E+01
    -18.175  0.0000E+00  0.2000E+01
    -18.166  0.0000E+00  0.2000E+01
    -18.158  0.0000E+00  0.2000E+01
    -18.149  0.0000E+00  0.2000E+01
    -18.141  0.0000E+00  0.2000E+01
    -18.132  0.0000E+00  0.2000E+01
    -18.124  0.0000E+00  0.2000E+01
    -18.115  0.0000E+00  0.2000E+01
    -18.107  0.0000E+00  0.2000E+01
    -18.098  0.0000E+00  0.2000E+01
    -18.090  0.0000E+00  0.2000E+01
    -18.081  0.0000E+00  0.2000E+01
    -18.073  0.0000E+00  0.2000E+01
    -18.064  0.0000E+00  0.2000E+01
    -18.056  0.0000E+00  0.2000E+01
    -18.047  0.0000E+00  0.2000E+01
    -18.039  0.0000E+00  0.2000E+01
    -18.030  0.0000E+00  0.2000E+01
    -18.022  0.0000E+00  0.2000E+01
    -18.013  0.0000E+00  0.2000E+01
    -18.005  0.0000E+00  0.2000E+01
    -17.996  0.0000E+00  0.2000E+01
    -17.988  0.0000E+00  0.2000E+01
    -17.979  0.0000E+00  0.2000E+01
    -17.971  0.0000E+00  0.2000E+01
    -17.962  0.0000E+00  0.2000E+01
    -17.954  0.0000E+00  0.2000E+01
    -17.945  0.0000E+00  0.2000E+01
    -17.937  0.0000E+00  0.2000E+01
    -17.928  0.0000E+00  0.2000E+01
    -17.920  0.0000E+00  0.2000E+01
    -17.911  0.0000E+00  0.2000E+01
    -17.903  0.0000E+00  0.2000E+01
    -17.894  0.0000E+00  0.2000E+01
    -17.886  0.0000E+00  0.2000E+01
    -17.877  0.0000E+00  0.2000E+01
    -17.869  0.0000E+00  0.2000E+01
    -17.860  0.0000E+00  0.2000E+01
    -17.852  0.0000E+00  0.2000E+01
    -17.843  0.0000E+00  0.2000E+01
    -17.835  0.0000E+00  0.2000E+01
    -17.827  0.0000E+00  0.2000E+01
    -17.818  0.0000E+00  0.2000E+01
    -17.810  0.0000E+00  0.2000E+01
    -17.801  0.0000E+00  0.2000E+01
    -17.793  0.0000E+00  0.2000E+01
    -17.784  0.0000E+00  0.2000E+01
    -17.776  0.0000E+00  0.2000E+01
    -17.767  0.0000E+00  0.2000E+01
    -17.759  0.0000E+00  0.2000E+01
    -17.750  0.0000E+00  0.2000E+01
    -17.742  0.0000E+00  0.2000E+01
    -17.733  0.0000E+00  0.2000E+01
    -17.725  0.0000E+00  0.2000E+01
    -17.716  0.0000E+00  0.2000E+01
    -17.708  0.0000E+00  0.2000E+01
    -17.699  0.0000E+00  0.2000E+01
    -17.691  0.0000E+00  0.2000E+01
    -17.682  0.0000E+00  0.2000E+01
    -17.674  0.0000E+00  0.2000E+01
    -17.665  0.0000E+00  0.2000E+01
    -17.657  0.0000E+00  0.2000E+01
    -17.648  0.0000E+00  0.2000E+01
    -17.640  0.0000E+00  0.2000E+01
    -17.631  0.0000E+00  0.2000E+01
    -17.623  0.0000E+00  0.2000E+01
    -17.614  0.0000E+00  0.2000E+01
    -17.606  0.4046E+01  0.2023E+01
    -17.597  0.2579E+01  0.2045E+01
    -17.589  0.2861E+01  0.2069E+01
    -17.580  0.2647E+01  0.2092E+01
    -17.572  0.2759E+01  0.2114E+01
    -17.563  0.2803E+01  0.2139E+01
    -17.555  0.2733E+01  0.2162E+01
    -17.546  0.2790E+01  0.2185E+01
    -17.538  0.2902E+01  0.2209E+01
    -17.529  0.2829E+01  0.2234E+01
    -17.521  0.2853E+01  0.2258E+01
    -17.512  0.2907E+01  0.2282E+01
    -17.504  0.2975E+01  0.2307E+01
    -17.495  0.2987E+01  0.2333E+01
    -17.487  0.3004E+01  0.2358E+01
    -17.478  0.3049E+01  0.2384E+01
    -17.470  0.3108E+01  0.2410E+01
    -17.461  0.3173E+01  0.2437E+01
    -17.453  0.3224E+01  0.2464E+01
    -17.444  0.3291E+01  0.2492E+01
    -17.436  0.3374E+01  0.2520E+01
    -17.427  0.3456E+01  0.2549E+01
    -17.419  0.3576E+01  0.2579E+01
    -17.410  0.3814E+01  0.2610E+01
    -17.402  0.4074E+01  0.2644E+01
    -17.393  0.4435E+01  0.2680E+01
    -17.385  0.6406E+01  0.2725E+01
    -17.376  0.4174E+01  0.2768E+01
    -17.368  0.3537E+01  0.2802E+01
    -17.359  0.3331E+01  0.2831E+01
    -17.351  0.2920E+01  0.2857E+01
    -17.342  0.2723E+01  0.2881E+01
    -17.334  0.2531E+01  0.2903E+01
    -17.325  0.2341E+01  0.2924E+01
    -17.317  0.2278E+01  0.2943E+01
    -17.308  0.2060E+01  0.2962E+01
    -17.300  0.1862E+01  0.2978E+01
    -17.291  0.1806E+01  0.2993E+01
    -17.283  0.1717E+01  0.3008E+01
    -17.274  0.1693E+01  0.3023E+01
    -17.266  0.1663E+01  0.3037E+01
    -17.257  0.1634E+01  0.3051E+01
    -17.249  0.1975E+01  0.3066E+01
    -17.240  0.1797E+01  0.3082E+01
    -17.232  0.1766E+01  0.3097E+01
    -17.223  0.1766E+01  0.3112E+01
    -17.215  0.1776E+01  0.3127E+01
    -17.206  0.1796E+01  0.3142E+01
    -17.198  0.1811E+01  0.3157E+01
    -17.189  0.1818E+01  0.3173E+01
    -17.181  0.1805E+01  0.3188E+01
    -17.172  0.1783E+01  0.3203E+01
    -17.164  0.1787E+01  0.3219E+01
    -17.155  0.1822E+01  0.3234E+01
    -17.147  0.1831E+01  0.3249E+01
    -17.138  0.1838E+01  0.3265E+01
    -17.130  0.1844E+01  0.3281E+01
    -17.121  0.1841E+01  0.3296E+01
    -17.113  0.1820E+01  0.3312E+01
    -17.104  0.1835E+01  0.3327E+01
    -17.096  0.1853E+01  0.3343E+01
    -17.087  0.1863E+01  0.3359E+01
    -17.079  0.1869E+01  0.3375E+01
    -17.070  0.1876E+01  0.3391E+01
    -17.062  0.1881E+01  0.3407E+01
    -17.053  0.1879E+01  0.3423E+01
    -17.045  0.1895E+01  0.3439E+01
    -17.036  0.1888E+01  0.3455E+01
    -17.028  0.1898E+01  0.3471E+01
    -17.019  0.1908E+01  0.3487E+01
    -17.011  0.1915E+01  0.3503E+01
    -17.002  0.1921E+01  0.3520E+01
    -16.994  0.1932E+01  0.3536E+01
    -16.985  0.1949E+01  0.3552E+01
    -16.977  0.1959E+01  0.3569E+01
    -16.968  0.1957E+01  0.3586E+01
    -16.960  0.1953E+01  0.3602E+01
    -16.951  0.1961E+01  0.3619E+01
    -16.943  0.1970E+01  0.3636E+01
    -16.934  0.1977E+01  0.3652E+01
    -16.926  0.2000E+01  0.3669E+01
    -16.917  0.2011E+01  0.3686E+01
    -16.909  0.2022E+01  0.3703E+01
    -16.900  0.2030E+01  0.3721E+01
    -16.892  0.2037E+01  0.3738E+01
    -16.883  0.2040E+01  0.3755E+01
    -16.875  0.2041E+01  0.3773E+01
    -16.866  0.2062E+01  0.3790E+01
    -16.858  0.2079E+01  0.3808E+01
    -16.849  0.2090E+01  0.3825E+01
    -16.841  0.2101E+01  0.3843E+01
    -16.832  0.2111E+01  0.3861E+01
    -16.824  0.2120E+01  0.3879E+01
    -16.815  0.2134E+01  0.3897E+01
    -16.807  0.2158E+01  0.3915E+01
    -16.798  0.2167E+01  0.3934E+01
    -16.790  0.2177E+01  0.3952E+01
    -16.781  0.2193E+01  0.3971E+01
    -16.773  0.2206E+01  0.3989E+01
    -16.764  0.2218E+01  0.4008E+01
    -16.756  0.2229E+01  0.4027E+01
    -16.747  0.2241E+01  0.4046E+01
    -16.739  0.2275E+01  0.4065E+01
    -16.730  0.2305E+01  0.4085E+01
    -16.722  0.2323E+01  0.4104E+01
    -16.713  0.2339E+01  0.4124E+01
    -16.705  0.2348E+01  0.4144E+01
    -16.696  0.2365E+01  0.4164E+01
    -16.688  0.2380E+01  0.4184E+01
    -16.679  0.2406E+01  0.4205E+01
    -16.671  0.2426E+01  0.4225E+01
    -16.662  0.2472E+01  0.4246E+01
    -16.654  0.2512E+01  0.4267E+01
    -16.645  0.2540E+01  0.4289E+01
    -16.637  0.2565E+01  0.4310E+01
    -16.628  0.2588E+01  0.4332E+01
    -16.620  0.2606E+01  0.4354E+01
    -16.611  0.2636E+01  0.4376E+01
    -16.603  0.2665E+01  0.4399E+01
    -16.594  0.2731E+01  0.4422E+01
    -16.586  0.2799E+01  0.4445E+01
    -16.577  0.2849E+01  0.4469E+01
    -16.569  0.2891E+01  0.4494E+01
    -16.560  0.2927E+01  0.4518E+01
    -16.552  0.2974E+01  0.4544E+01
    -16.543  0.3015E+01  0.4569E+01
    -16.535  0.3156E+01  0.4595E+01
    -16.526  0.3268E+01  0.4622E+01
    -16.518  0.3352E+01  0.4650E+01
    -16.509  0.3424E+01  0.4679E+01
    -16.501  0.3493E+01  0.4709E+01
    -16.492  0.3713E+01  0.4739E+01
    -16.484  0.4047E+01  0.4772E+01
    -16.475  0.4250E+01  0.4807E+01
    -16.467  0.4423E+01  0.4844E+01
    -16.458  0.6366E+01  0.4891E+01
    -16.450  0.4890E+01  0.4940E+01
    -16.441  0.4250E+01  0.4979E+01
    -16.433  0.3995E+01  0.5014E+01
    -16.424  0.3720E+01  0.5046E+01
    -16.416  0.3565E+01  0.5077E+01
    -16.407  0.3386E+01  0.5106E+01
    -16.399  0.3275E+01  0.5135E+01
    -16.390  0.3128E+01  0.5162E+01
    -16.382  0.3045E+01  0.5188E+01
    -16.373  0.2959E+01  0.5214E+01
    -16.365  0.2873E+01  0.5238E+01
    -16.356  0.2814E+01  0.5263E+01
    -16.348  0.2752E+01  0.5286E+01
    -16.339  0.2679E+01  0.5309E+01
    -16.331  0.2613E+01  0.5332E+01
    -16.322  0.2556E+01  0.5354E+01
    -16.314  0.2498E+01  0.5375E+01
    -16.305  0.2467E+01  0.5396E+01
    -16.297  0.2425E+01  0.5417E+01
    -16.288  0.2380E+01  0.5438E+01
    -16.280  0.2332E+01  0.5458E+01
    -16.272  0.2287E+01  0.5477E+01
    -16.263  0.2237E+01  0.5496E+01
    -16.255  0.2219E+01  0.5515E+01
    -16.246  0.2188E+01  0.5534E+01
    -16.238  0.2156E+01  0.5552E+01
    -16.229  0.2119E+01  0.5571E+01
    -16.221  0.2069E+01  0.5588E+01
    -16.212  0.2019E+01  0.5606E+01
    -16.204  0.2027E+01  0.5623E+01
    -16.195  0.2023E+01  0.5640E+01
    -16.187  0.1979E+01  0.5657E+01
    -16.178  0.1928E+01  0.5674E+01
    -16.170  0.1880E+01  0.5690E+01
    -16.161  0.1895E+01  0.5706E+01
    -16.153  0.1888E+01  0.5722E+01
    -16.144  0.1838E+01  0.5738E+01
    -16.136  0.1789E+01  0.5753E+01
    -16.127  0.1753E+01  0.5768E+01
    -16.119  0.1821E+01  0.5784E+01
    -16.110  0.1766E+01  0.5799E+01
    -16.102  0.1710E+01  0.5814E+01
    -16.093  0.1669E+01  0.5828E+01
    -16.085  0.1728E+01  0.5842E+01
    -16.076  0.1672E+01  0.5857E+01
    -16.068  0.1622E+01  0.5871E+01
    -16.059  0.1607E+01  0.5884E+01
    -16.051  0.1645E+01  0.5898E+01
    -16.042  0.1565E+01  0.5912E+01
    -16.034  0.1526E+01  0.5925E+01
    -16.025  0.1589E+01  0.5939E+01
    -16.017  0.1517E+01  0.5952E+01
    -16.008  0.1581E+01  0.5965E+01
    -16.000  0.1396E+01  0.5977E+01
    -15.991  0.1497E+01  0.5991E+01
    -15.983  0.4201E+00  0.6000E+01
    -15.974  0.0000E+00  0.6000E+01
    -15.966  0.0000E+00  0.6000E+01
    -15.957  0.0000E+00  0.6000E+01
    -15.949  0.0000E+00  0.6000E+01
    -15.940  0.0000E+00  0.6000E+01
    -15.932  0.0000E+00  0.6000E+01
    -15.923  0.0000E+00  0.6000E+01
    -15.915  0.0000E+00  0.6000E+01
    -15.906  0.0000E+00  0.6000E+01
    -15.898  0.0000E+00  0.6000E+01
    -15.889  0.0000E+00  0.6000E+01
    -15.881  0.0000E+00  0.6000E+01
    -15.872  0.0000E+00  0.6000E+01
    -15.864  0.0000E+00  0.6000E+01
    -15.855  0.0000E+00  0.6000E+01
    -15.847  0.0000E+00  0.6000E+01
    -15.838  0.0000E+00  0.6000E+01
    -15.830  0.0000E+00  0.6000E+01
    -15.821  0.0000E+00  0.6000E+01
    -15.813  0.0000E+00  0.6000E+01
    -15.804  0.0000E+00  0.6000E+01
    -15.796  0.0000E+00  0.6000E+01
    -15.787  0.0000E+00  0.6000E+01
    -15.779  0.0000E+00  0.6000E+01
    -15.770  0.0000E+00  0.6000E+01
    -15.762  0.0000E+00  0.6000E+01
    -15.753  0.0000E+00  0.6000E+01
    -15.745  0.0000E+00  0.6000E+01
    -15.736  0.0000E+00  0.6000E+01
    -15.728  0.0000E+00  0.6000E+01
    -15.719  0.0000E+00  0.6000E+01
    -15.711  0.0000E+00  0.6000E+01
    -15.702  0.0000E+00  0.6000E+01
    -15.694  0.0000E+00  0.6000E+01
    -15.685  0.0000E+00  0.6000E+01
    -15.677  0.0000E+00  0.6000E+01
    -15.668  0.0000E+00  0.6000E+01
    -15.660  0.0000E+00  0.6000E+01
    -15.651  0.0000E+00  0.6000E+01
    -15.643  0.0000E+00  0.6000E+01
    -15.634  0.0000E+00  0.6000E+01
    -15.626  0.0000E+00  0.6000E+01
    -15.617  0.0000E+00  0.6000E+01
    -15.609  0.0000E+00  0.6000E+01
    -15.600  0.0000E+00  0.6000E+01
    -15.592  0.0000E+00  0.6000E+01
    -15.583  0.0000E+00  0.6000E+01
    -15.575  0.0000E+00  0.6000E+01
    -15.566  0.0000E+00  0.6000E+01
    -15.558  0.0000E+00  0.6000E+01
    -15.549  0.0000E+00  0.6000E+01
    -15.541  0.0000E+00  0.6000E+01
    -15.532  0.0000E+00  0.6000E+01
    -15.524  0.0000E+00  0.6000E+01
    -15.515  0.0000E+00  0.6000E+01
    -15.507  0.0000E+00  0.6000E+01
    -15.498  0.0000E+00  0.6000E+01
    -15.490  0.0000E+00  0.6000E+01
    -15.481  0.0000E+00  0.6000E+01
    -15.473  0.0000E+00  0.6000E+01
    -15.464  0.0000E+00  0.6000E+01
    -15.456  0.0000E+00  0.6000E+01
    -15.447  0.0000E+00  0.6000E+01
    -15.439  0.0000E+00  0.6000E+01
    -15.430  0.0000E+00  0.6000E+01
    -15.422  0.0000E+00  0.6000E+01
    -15.413  0.0000E+00  0.6000E+01
    -15.405  0.0000E+00  0.6000E+01
    -15.396  0.0000E+00  0.6000E+01
    -15.388  0.0000E+00  0.6000E+01
    -15.379  0.0000E+00  0.6000E+01
    -15.371  0.0000E+00  0.6000E+01
    -15.362  0.0000E+00  0.6000E+01
    -15.354  0.0000E+00  0.6000E+01
    -15.345  0.0000E+00  0.6000E+01
    -15.337  0.0000E+00  0.6000E+01
    -15.328  0.0000E+00  0.6000E+01
    -15.320  0.0000E+00  0.6000E+01
    -15.311  0.0000E+00  0.6000E+01
    -15.303  0.0000E+00  0.6000E+01
    -15.294  0.0000E+00  0.6000E+01
    -15.286  0.0000E+00  0.6000E+01
    -15.277  0.0000E+00  0.6000E+01
    -15.269  0.0000E+00  0.6000E+01
    -15.260  0.0000E+00  0.6000E+01
    -15.252  0.0000E+00  0.6000E+01
    -15.243  0.0000E+00  0.6000E+01
    -15.235  0.0000E+00  0.6000E+01
    -15.226  0.0000E+00  0.6000E+01
    -15.218  0.0000E+00  0.6000E+01
    -15.209  0.0000E+00  0.6000E+01
    -15.201  0.0000E+00  0.6000E+01
    -15.192  0.0000E+00  0.6000E+01
    -15.184  0.0000E+00  0.6000E+01
    -15.175  0.0000E+00  0.6000E+01
    -15.167  0.0000E+00  0.6000E+01
    -15.158  0.0000E+00  0.6000E+01
    -15.150  0.0000E+00  0.6000E+01
    -15.141  0.0000E+00  0.6000E+01
    -15.133  0.0000E+00  0.6000E+01
    -15.124  0.0000E+00  0.6000E+01
    -15.116  0.0000E+00  0.6000E+01
    -15.107  0.0000E+00  0.6000E+01
    -15.099  0.0000E+00  0.6000E+01
    -15.090  0.0000E+00  0.6000E+01
    -15.082  0.0000E+00  0.6000E+01
    -15.073  0.0000E+00  0.6000E+01
    -15.065  0.0000E+00  0.6000E+01
    -15.056  0.0000E+00  0.6000E+01
    -15.048  0.0000E+00  0.6000E+01
    -15.039  0.0000E+00  0.6000E+01
    -15.031  0.0000E+00  0.6000E+01
    -15.022  0.0000E+00  0.6000E+01
    -15.014  0.0000E+00  0.6000E+01
    -15.005  0.0000E+00  0.6000E+01
    -14.997  0.0000E+00  0.6000E+01
    -14.988  0.0000E+00  0.6000E+01
    -14.980  0.0000E+00  0.6000E+01
    -14.971  0.0000E+00  0.6000E+01
    -14.963  0.0000E+00  0.6000E+01
    -14.954  0.0000E+00  0.6000E+01
    -14.946  0.0000E+00  0.6000E+01
    -14.937  0.0000E+00  0.6000E+01
    -14.929  0.0000E+00  0.6000E+01
    -14.920  0.0000E+00  0.6000E+01
    -14.912  0.0000E+00  0.6000E+01
    -14.903  0.0000E+00  0.6000E+01
    -14.895  0.0000E+00  0.6000E+01
    -14.886  0.0000E+00  0.6000E+01
    -14.878  0.0000E+00  0.6000E+01
    -14.869  0.0000E+00  0.6000E+01
    -14.861  0.0000E+00  0.6000E+01
    -14.852  0.0000E+00  0.6000E+01
    -14.844  0.0000E+00  0.6000E+01
    -14.835  0.0000E+00  0.6000E+01
    -14.827  0.0000E+00  0.6000E+01
    -14.818  0.0000E+00  0.6000E+01
    -14.810  0.0000E+00  0.6000E+01
    -14.801  0.0000E+00  0.6000E+01
    -14.793  0.0000E+00  0.6000E+01
    -14.784  0.0000E+00  0.6000E+01
    -14.776  0.0000E+00  0.6000E+01
    -14.767  0.0000E+00  0.6000E+01
    -14.759  0.0000E+00  0.6000E+01
    -14.750  0.0000E+00  0.6000E+01
    -14.742  0.0000E+00  0.6000E+01
    -14.734  0.0000E+00  0.6000E+01
    -14.725  0.0000E+00  0.6000E+01
    -14.717  0.0000E+00  0.6000E+01
    -14.708  0.0000E+00  0.6000E+01
    -14.700  0.0000E+00  0.6000E+01
    -14.691  0.0000E+00  0.6000E+01
    -14.683  0.0000E+00  0.6000E+01
    -14.674  0.0000E+00  0.6000E+01
    -14.666  0.0000E+00  0.6000E+01
    -14.657  0.0000E+00  0.6000E+01
    -14.649  0.0000E+00  0.6000E+01
    -14.640  0.0000E+00  0.6000E+01
    -14.632  0.0000E+00  0.6000E+01
    -14.623  0.0000E+00  0.6000E+01
    -14.615  0.0000E+00  0.6000E+01
    -14.606  0.0000E+00  0.6000E+01
    -14.598  0.0000E+00  0.6000E+01
    -14.589  0.0000E+00  0.6000E+01
    -14.581  0.0000E+00  0.6000E+01
    -14.572  0.0000E+00  0.6000E+01
    -14.564  0.0000E+00  0.6000E+01
    -14.555  0.0000E+00  0.6000E+01
    -14.547  0.0000E+00  0.6000E+01
    -14.538  0.0000E+00  0.6000E+01
    -14.530  0.0000E+00  0.6000E+01
    -14.521  0.0000E+00  0.6000E+01
    -14.513  0.0000E+00  0.6000E+01
    -14.504  0.0000E+00  0.6000E+01
    -14.496  0.0000E+00  0.6000E+01
    -14.487  0.0000E+00  0.6000E+01
    -14.479  0.0000E+00  0.6000E+01
    -14.470  0.0000E+00  0.6000E+01
    -14.462  0.0000E+00  0.6000E+01
    -14.453  0.0000E+00  0.6000E+01
    -14.445  0.0000E+00  0.6000E+01
    -14.436  0.0000E+00  0.6000E+01
    -14.428  0.0000E+00  0.6000E+01
    -14.419  0.0000E+00  0.6000E+01