       N       E                     dE             d eps       ncg     rms          rms(c)
DAV:   1     0.786769360460E+02    0.78677E+02   -0.11259E+04 80736   0.412E+02
DAV:   2    -0.627763279667E+02   -0.14145E+03   -0.14047E+03120432   0.706E+01
DAV:   3    -0.672093495150E+02   -0.44330E+01   -0.44327E+01115872   0.184E+01
DAV:   4    -0.672296825169E+02   -0.20333E-01   -0.20333E-01122688   0.119E+00
DAV:   5    -0.672296909713E+02   -0.84544E-05   -0.84544E-05117024   0.256E-02
DAV:   6    -0.672296910047E+02   -0.33399E-07   -0.33399E-07124128   0.101E-03
   1 F= -.67229691E+02 E0= -.67229691E+02  d E =0.000000E+00
