  16  16   0   4
  0.2015968E+02  0.4983000E-09  0.4983000E-09  0.1500000E-08  0.5000000E-15
  1.000000000000000E-004
  CAR 
 Lattice                                 
      9.74875147    -21.11766440  301     -0.31827602      1.00000000
    -21.118  0.0000E+00  0.0000E+00  0.0000E+00  0.0000E+00
    -21.015  0.0000E+00  0.0000E+00  0.0000E+00  0.0000E+00
    -20.912  0.0000E+00  0.0000E+00  0.0000E+00  0.0000E+00
    -20.809  0.0000E+00  0.0000E+00  0.0000E+00  0.0000E+00
    -20.706  0.0000E+00  0.0000E+00  0.0000E+00  0.0000E+00
    -20.603  0.0000E+00  0.0000E+00  0.0000E+00  0.0000E+00
    -20.500  0.0000E+00  0.0000E+00  0.0000E+00  0.0000E+00
    -20.397  0.0000E+00  0.0000E+00  0.0000E+00  0.0000E+00
    -20.295  0.5854E-19  0.5854E-19  0.6023E-20  0.6023E-20
    -20.192  0.4406E-14  0.4406E-14  0.4533E-15  0.4533E-15
    -20.089  0.3933E-10  0.3933E-10  0.4047E-11  0.4047E-11
    -19.986  0.4962E-07  0.4962E-07  0.5110E-08  0.5110E-08
    -19.883  0.9586E-05  0.9586E-05  0.9914E-06  0.9914E-06
    -19.780  0.3123E-03  0.3123E-03  0.3312E-04  0.3312E-04
    -19.677  0.2083E-02  0.2083E-02  0.2474E-03  0.2474E-03
    -19.574  0.4309E-02  0.4309E-02  0.6908E-03  0.6908E-03
    -19.471  0.4772E-02  0.4772E-02  0.1182E-02  0.1182E-02
    -19.369  0.5112E-02  0.5112E-02  0.1708E-02  0.1708E-02
    -19.266  0.4457E-02  0.4457E-02  0.2166E-02  0.2166E-02
    -19.163  0.5584E-02  0.5584E-02  0.2741E-02  0.2741E-02
    -19.060  0.4358E-02  0.4358E-02  0.3189E-02  0.3189E-02
    -18.957  0.4698E-02  0.4698E-02  0.3673E-02  0.3673E-02
    -18.854  0.6128E-02  0.6128E-02  0.4303E-02  0.4303E-02
    -18.751  0.3852E-02  0.3852E-02  0.4699E-02  0.4699E-02
    -18.648  0.4443E-02  0.4443E-02  0.5157E-02  0.5157E-02
    -18.545  0.6377E-02  0.6377E-02  0.5813E-02  0.5813E-02
    -18.443  0.5142E-02  0.5142E-02  0.6342E-02  0.6342E-02
    -18.340  0.3038E-02  0.3038E-02  0.6654E-02  0.6654E-02
    -18.237  0.5319E-02  0.5319E-02  0.7201E-02  0.7201E-02
    -18.134  0.6904E-02  0.6904E-02  0.7912E-02  0.7912E-02
    -18.031  0.4530E-02  0.4530E-02  0.8378E-02  0.8378E-02
    -17.928  0.3728E-02  0.3728E-02  0.8762E-02  0.8762E-02
    -17.825  0.3767E-02  0.3767E-02  0.9149E-02  0.9149E-02
    -17.722  0.7468E-02  0.7468E-02  0.9918E-02  0.9918E-02
    -17.619  0.6118E-02  0.6118E-02  0.1055E-01  0.1055E-01
    -17.517  0.3298E-02  0.3298E-02  0.1089E-01  0.1089E-01
    -17.414  0.3827E-02  0.3827E-02  0.1128E-01  0.1128E-01
    -17.311  0.4735E-02  0.4735E-02  0.1177E-01  0.1177E-01
    -17.208  0.7168E-02  0.7168E-02  0.1250E-01  0.1250E-01
    -17.105  0.6370E-02  0.6370E-02  0.1316E-01  0.1316E-01
    -17.002  0.4246E-02  0.4246E-02  0.1360E-01  0.1360E-01
    -16.899  0.2306E-02  0.2306E-02  0.1383E-01  0.1383E-01
    -16.796  0.4939E-02  0.4939E-02  0.1434E-01  0.1434E-01
    -16.693  0.7259E-02  0.7259E-02  0.1509E-01  0.1509E-01
    -16.591  0.6371E-02  0.6371E-02  0.1574E-01  0.1574E-01
    -16.488  0.5216E-02  0.5216E-02  0.1628E-01  0.1628E-01
    -16.385  0.4424E-02  0.4424E-02  0.1674E-01  0.1674E-01
    -16.282  0.2500E-02  0.2500E-02  0.1699E-01  0.1699E-01
    -16.179  0.4277E-02  0.4277E-02  0.1743E-01  0.1743E-01
    -16.076  0.9253E-02  0.9253E-02  0.1839E-01  0.1839E-01
    -15.973  0.6961E-02  0.6961E-02  0.1910E-01  0.1910E-01
    -15.870  0.8147E-02  0.8147E-02  0.1994E-01  0.1994E-01
    -15.767  0.9896E-02  0.9896E-02  0.2096E-01  0.2096E-01
    -15.665  0.1055E-01  0.1055E-01  0.2204E-01  0.2204E-01
    -15.562  0.9792E-02  0.9792E-02  0.2305E-01  0.2305E-01
    -15.459  0.1389E-01  0.1389E-01  0.2448E-01  0.2448E-01
    -15.356  0.1615E-01  0.1615E-01  0.2614E-01  0.2614E-01
    -15.253  0.1302E-01  0.1302E-01  0.2748E-01  0.2748E-01
    -15.150  0.1251E-01  0.1251E-01  0.2877E-01  0.2877E-01
    -15.047  0.1431E-01  0.1431E-01  0.3024E-01  0.3024E-01
    -14.944  0.1103E-01  0.1103E-01  0.3138E-01  0.3138E-01
    -14.841  0.1020E-01  0.1020E-01  0.3243E-01  0.3243E-01
    -14.739  0.1129E-01  0.1129E-01  0.3359E-01  0.3359E-01
    -14.636  0.1059E-01  0.1059E-01  0.3468E-01  0.3468E-01
    -14.533  0.8372E-02  0.8372E-02  0.3554E-01  0.3554E-01
    -14.430  0.8278E-02  0.8278E-02  0.3639E-01  0.3639E-01
    -14.327  0.7303E-02  0.7303E-02  0.3714E-01  0.3714E-01
    -14.224  0.9948E-02  0.9948E-02  0.3816E-01  0.3816E-01
    -14.121  0.1665E-01  0.1665E-01  0.3988E-01  0.3988E-01
    -14.018  0.1199E-01  0.1199E-01  0.4111E-01  0.4111E-01
    -13.916  0.5755E-02  0.5755E-02  0.4170E-01  0.4170E-01
    -13.813  0.5364E-02  0.5364E-02  0.4226E-01  0.4226E-01
    -13.710  0.4677E-02  0.4677E-02  0.4274E-01  0.4274E-01
    -13.607  0.4375E-02  0.4375E-02  0.4319E-01  0.4319E-01
    -13.504  0.7624E-02  0.7624E-02  0.4397E-01  0.4397E-01
    -13.401  0.8951E-02  0.8951E-02  0.4489E-01  0.4489E-01
    -13.298  0.6579E-02  0.6579E-02  0.4557E-01  0.4557E-01
    -13.195  0.6058E-02  0.6058E-02  0.4619E-01  0.4619E-01
    -13.092  0.7515E-02  0.7515E-02  0.4697E-01  0.4697E-01
    -12.990  0.8671E-02  0.8671E-02  0.4786E-01  0.4786E-01
    -12.887  0.6526E-02  0.6526E-02  0.4853E-01  0.4853E-01
    -12.784  0.8179E-02  0.8179E-02  0.4937E-01  0.4937E-01
    -12.681  0.8852E-02  0.8852E-02  0.5028E-01  0.5028E-01
    -12.578  0.1067E-01  0.1067E-01  0.5138E-01  0.5138E-01
    -12.475  0.1413E-01  0.1413E-01  0.5283E-01  0.5283E-01
    -12.372  0.1083E-01  0.1083E-01  0.5395E-01  0.5395E-01
    -12.269  0.1396E-01  0.1396E-01  0.5538E-01  0.5538E-01
    -12.166  0.1237E-01  0.1237E-01  0.5665E-01  0.5665E-01
    -12.064  0.1311E-01  0.1311E-01  0.5800E-01  0.5800E-01
    -11.961  0.2029E-01  0.2029E-01  0.6009E-01  0.6009E-01
    -11.858  0.1635E-01  0.1635E-01  0.6177E-01  0.6177E-01
    -11.755  0.1188E-01  0.1188E-01  0.6300E-01  0.6300E-01
    -11.652  0.1117E-01  0.1117E-01  0.6414E-01  0.6414E-01
    -11.549  0.1048E-01  0.1048E-01  0.6522E-01  0.6522E-01
    -11.446  0.7970E-02  0.7970E-02  0.6604E-01  0.6604E-01
    -11.343  0.4602E-02  0.4602E-02  0.6652E-01  0.6652E-01
    -11.240  0.3226E-02  0.3226E-02  0.6685E-01  0.6685E-01
    -11.138  0.5050E-02  0.5050E-02  0.6737E-01  0.6737E-01
    -11.035  0.5496E-02  0.5496E-02  0.6793E-01  0.6793E-01
    -10.932  0.6191E-02  0.6191E-02  0.6857E-01  0.6857E-01
    -10.829  0.7061E-02  0.7061E-02  0.6930E-01  0.6930E-01
    -10.726  0.9013E-02  0.9013E-02  0.7022E-01  0.7022E-01
    -10.623  0.8491E-02  0.8491E-02  0.7110E-01  0.7110E-01
    -10.520  0.1334E-01  0.1334E-01  0.7247E-01  0.7247E-01
    -10.417  0.2141E-01  0.2141E-01  0.7467E-01  0.7467E-01
    -10.314  0.1636E-01  0.1636E-01  0.7636E-01  0.7636E-01
    -10.212  0.6313E-02  0.6313E-02  0.7701E-01  0.7701E-01
    -10.109  0.3878E-02  0.3878E-02  0.7740E-01  0.7740E-01
    -10.006  0.1066E-01  0.1066E-01  0.7850E-01  0.7850E-01
     -9.903  0.1879E-01  0.1879E-01  0.8044E-01  0.8044E-01
     -9.800  0.1031E-01  0.1031E-01  0.8150E-01  0.8150E-01
     -9.697  0.4556E-02  0.4556E-02  0.8197E-01  0.8197E-01
     -9.594  0.6853E-02  0.6853E-02  0.8267E-01  0.8267E-01
     -9.491  0.1350E-01  0.1350E-01  0.8406E-01  0.8406E-01
     -9.388  0.1959E-01  0.1959E-01  0.8608E-01  0.8608E-01
     -9.286  0.1538E-01  0.1538E-01  0.8766E-01  0.8766E-01
     -9.183  0.1797E-01  0.1797E-01  0.8951E-01  0.8951E-01
     -9.080  0.1512E-01  0.1512E-01  0.9106E-01  0.9106E-01
     -8.977  0.1119E-01  0.1119E-01  0.9221E-01  0.9221E-01
     -8.874  0.1499E-01  0.1499E-01  0.9376E-01  0.9376E-01
     -8.771  0.1766E-01  0.1766E-01  0.9557E-01  0.9557E-01
     -8.668  0.1382E-01  0.1382E-01  0.9699E-01  0.9699E-01
     -8.565  0.9170E-02  0.9170E-02  0.9794E-01  0.9794E-01
     -8.462  0.1407E-01  0.1407E-01  0.9939E-01  0.9939E-01
     -8.360  0.2141E-01  0.2141E-01  0.1016E+00  0.1016E+00
     -8.257  0.1598E-01  0.1598E-01  0.1032E+00  0.1032E+00
     -8.154  0.8109E-02  0.8109E-02  0.1041E+00  0.1041E+00
     -8.051  0.1346E-01  0.1346E-01  0.1055E+00  0.1055E+00
     -7.948  0.1390E-01  0.1390E-01  0.1069E+00  0.1069E+00
     -7.845  0.1736E-01  0.1736E-01  0.1087E+00  0.1087E+00
     -7.742  0.2583E-01  0.2583E-01  0.1113E+00  0.1113E+00
     -7.639  0.1855E-01  0.1855E-01  0.1132E+00  0.1132E+00
     -7.536  0.1403E-01  0.1403E-01  0.1147E+00  0.1147E+00
     -7.434  0.1467E-01  0.1467E-01  0.1162E+00  0.1162E+00
     -7.331  0.2006E-01  0.2006E-01  0.1182E+00  0.1182E+00
     -7.228  0.1971E-01  0.1971E-01  0.1203E+00  0.1203E+00
     -7.125  0.1473E-01  0.1473E-01  0.1218E+00  0.1218E+00
     -7.022  0.1485E-01  0.1485E-01  0.1233E+00  0.1233E+00
     -6.919  0.1824E-01  0.1824E-01  0.1252E+00  0.1252E+00
     -6.816  0.2438E-01  0.2438E-01  0.1277E+00  0.1277E+00
     -6.713  0.2519E-01  0.2519E-01  0.1303E+00  0.1303E+00
     -6.610  0.2773E-01  0.2773E-01  0.1331E+00  0.1331E+00
     -6.508  0.2514E-01  0.2514E-01  0.1357E+00  0.1357E+00
     -6.405  0.2643E-01  0.2643E-01  0.1385E+00  0.1385E+00
     -6.302  0.2735E-01  0.2735E-01  0.1413E+00  0.1413E+00
     -6.199  0.2264E-01  0.2264E-01  0.1436E+00  0.1436E+00
     -6.096  0.1717E-01  0.1717E-01  0.1454E+00  0.1454E+00
     -5.993  0.1538E-01  0.1538E-01  0.1469E+00  0.1469E+00
     -5.890  0.1608E-01  0.1608E-01  0.1486E+00  0.1486E+00
     -5.787  0.1591E-01  0.1591E-01  0.1502E+00  0.1502E+00
     -5.684  0.1904E-01  0.1904E-01  0.1522E+00  0.1522E+00
     -5.582  0.1435E-01  0.1435E-01  0.1537E+00  0.1537E+00
     -5.479  0.8512E-02  0.8512E-02  0.1546E+00  0.1546E+00
     -5.376  0.1363E-01  0.1363E-01  0.1560E+00  0.1560E+00
     -5.273  0.1883E-01  0.1883E-01  0.1579E+00  0.1579E+00
     -5.170  0.1699E-01  0.1699E-01  0.1596E+00  0.1596E+00
     -5.067  0.1225E-01  0.1225E-01  0.1609E+00  0.1609E+00
     -4.964  0.1524E-01  0.1524E-01  0.1625E+00  0.1625E+00
     -4.861  0.1880E-01  0.1880E-01  0.1644E+00  0.1644E+00
     -4.758  0.1218E-01  0.1218E-01  0.1657E+00  0.1657E+00
     -4.656  0.9674E-02  0.9674E-02  0.1666E+00  0.1666E+00
     -4.553  0.1398E-01  0.1398E-01  0.1681E+00  0.1681E+00
     -4.450  0.1941E-01  0.1941E-01  0.1701E+00  0.1701E+00
     -4.347  0.1792E-01  0.1792E-01  0.1719E+00  0.1719E+00
     -4.244  0.1711E-01  0.1711E-01  0.1737E+00  0.1737E+00
     -4.141  0.1983E-01  0.1983E-01  0.1757E+00  0.1757E+00
     -4.038  0.2003E-01  0.2003E-01  0.1778E+00  0.1778E+00
     -3.935  0.2176E-01  0.2176E-01  0.1800E+00  0.1800E+00
     -3.832  0.2469E-01  0.2469E-01  0.1826E+00  0.1826E+00
     -3.730  0.2813E-01  0.2813E-01  0.1855E+00  0.1855E+00
     -3.627  0.2872E-01  0.2872E-01  0.1884E+00  0.1884E+00
     -3.524  0.2274E-01  0.2274E-01  0.1908E+00  0.1908E+00
     -3.421  0.1473E-01  0.1473E-01  0.1923E+00  0.1923E+00
     -3.318  0.1250E-01  0.1250E-01  0.1936E+00  0.1936E+00
     -3.215  0.1360E-01  0.1360E-01  0.1950E+00  0.1950E+00
     -3.112  0.1130E-01  0.1130E-01  0.1961E+00  0.1961E+00
     -3.009  0.1337E-01  0.1337E-01  0.1975E+00  0.1975E+00
     -2.906  0.1559E-01  0.1559E-01  0.1991E+00  0.1991E+00
     -2.804  0.1152E-01  0.1152E-01  0.2003E+00  0.2003E+00
     -2.701  0.8414E-02  0.8414E-02  0.2012E+00  0.2012E+00
     -2.598  0.9407E-02  0.9407E-02  0.2021E+00  0.2021E+00
     -2.495  0.1745E-01  0.1745E-01  0.2039E+00  0.2039E+00
     -2.392  0.1727E-01  0.1727E-01  0.2057E+00  0.2057E+00
     -2.289  0.7065E-02  0.7065E-02  0.2064E+00  0.2064E+00
     -2.186  0.6879E-02  0.6879E-02  0.2071E+00  0.2071E+00
     -2.083  0.9525E-02  0.9525E-02  0.2081E+00  0.2081E+00
     -1.980  0.8971E-02  0.8971E-02  0.2090E+00  0.2090E+00
     -1.878  0.9362E-02  0.9362E-02  0.2100E+00  0.2100E+00
     -1.775  0.9194E-02  0.9194E-02  0.2109E+00  0.2109E+00
     -1.672  0.6707E-02  0.6707E-02  0.2116E+00  0.2116E+00
     -1.569  0.6684E-02  0.6684E-02  0.2123E+00  0.2123E+00
     -1.466  0.1029E-01  0.1029E-01  0.2134E+00  0.2134E+00
     -1.363  0.7077E-02  0.7077E-02  0.2141E+00  0.2141E+00
     -1.260  0.4654E-02  0.4654E-02  0.2146E+00  0.2146E+00
     -1.157  0.7441E-02  0.7441E-02  0.2153E+00  0.2153E+00
     -1.054  0.6495E-02  0.6495E-02  0.2160E+00  0.2160E+00
     -0.952  0.6354E-02  0.6354E-02  0.2167E+00  0.2167E+00
     -0.849  0.5454E-02  0.5454E-02  0.2172E+00  0.2172E+00
     -0.746  0.2487E-02  0.2487E-02  0.2175E+00  0.2175E+00
     -0.643  0.1238E-02  0.1238E-02  0.2176E+00  0.2176E+00
     -0.540  0.3337E-02  0.3337E-02  0.2180E+00  0.2180E+00
     -0.437  0.4255E-02  0.4255E-02  0.2184E+00  0.2184E+00
     -0.334  0.3040E-02  0.3040E-02  0.2187E+00  0.2187E+00
     -0.231  0.2057E-02  0.2057E-02  0.2189E+00  0.2189E+00
     -0.129  0.2497E-02  0.2497E-02  0.2192E+00  0.2192E+00
     -0.026  0.3338E-02  0.3338E-02  0.2195E+00  0.2195E+00
      0.077  0.3297E-02  0.3297E-02  0.2199E+00  0.2199E+00
      0.180  0.6098E-02  0.6098E-02  0.2205E+00  0.2205E+00
      0.283  0.7738E-02  0.7738E-02  0.2213E+00  0.2213E+00
      0.386  0.9966E-02  0.9966E-02  0.2223E+00  0.2223E+00
      0.489  0.9929E-02  0.9929E-02  0.2233E+00  0.2233E+00
      0.592  0.8216E-02  0.8216E-02  0.2242E+00  0.2242E+00
      0.695  0.5904E-02  0.5904E-02  0.2248E+00  0.2248E+00
      0.797  0.9710E-02  0.9710E-02  0.2258E+00  0.2258E+00
      0.900  0.1051E-01  0.1051E-01  0.2269E+00  0.2269E+00
      1.003  0.7401E-02  0.7401E-02  0.2276E+00  0.2276E+00
      1.106  0.9708E-02  0.9708E-02  0.2286E+00  0.2286E+00
      1.209  0.1593E-01  0.1593E-01  0.2303E+00  0.2303E+00
      1.312  0.1773E-01  0.1773E-01  0.2321E+00  0.2321E+00
      1.415  0.1395E-01  0.1395E-01  0.2335E+00  0.2335E+00
      1.518  0.9108E-02  0.9108E-02  0.2345E+00  0.2345E+00
      1.621  0.6100E-02  0.6100E-02  0.2351E+00  0.2351E+00
      1.723  0.7652E-02  0.7652E-02  0.2359E+00  0.2359E+00
      1.826  0.1052E-01  0.1052E-01  0.2370E+00  0.2370E+00
      1.929  0.1052E-01  0.1052E-01  0.2380E+00  0.2380E+00
      2.032  0.1326E-01  0.1326E-01  0.2394E+00  0.2394E+00
      2.135  0.1231E-01  0.1231E-01  0.2407E+00  0.2407E+00
      2.238  0.1136E-01  0.1136E-01  0.2418E+00  0.2418E+00
      2.341  0.7910E-02  0.7910E-02  0.2427E+00  0.2427E+00
      2.444  0.4723E-02  0.4723E-02  0.2431E+00  0.2431E+00
      2.547  0.1107E-01  0.1107E-01  0.2443E+00  0.2443E+00
      2.649  0.1498E-01  0.1498E-01  0.2458E+00  0.2458E+00
      2.752  0.1326E-01  0.1326E-01  0.2472E+00  0.2472E+00
      2.855  0.1292E-01  0.1292E-01  0.2485E+00  0.2485E+00
      2.958  0.8583E-02  0.8584E-02  0.2494E+00  0.2494E+00
      3.061  0.1044E-01  0.1044E-01  0.2505E+00  0.2505E+00
      3.164  0.1590E-01  0.1590E-01  0.2521E+00  0.2521E+00
      3.267  0.1889E-01  0.1889E-01  0.2540E+00  0.2540E+00
      3.370  0.1887E-01  0.1887E-01  0.2560E+00  0.2560E+00
      3.473  0.1435E-01  0.1435E-01  0.2575E+00  0.2575E+00
      3.575  0.1975E-01  0.1975E-01  0.2595E+00  0.2595E+00
      3.678  0.2196E-01  0.2195E-01  0.2618E+00  0.2618E+00
      3.781  0.1954E-01  0.1954E-01  0.2638E+00  0.2638E+00
      3.884  0.1923E-01  0.1923E-01  0.2657E+00  0.2657E+00
      3.987  0.1812E-01  0.1812E-01  0.2676E+00  0.2676E+00
      4.090  0.1780E-01  0.1780E-01  0.2694E+00  0.2694E+00
      4.193  0.2319E-01  0.2319E-01  0.2718E+00  0.2718E+00
      4.296  0.2650E-01  0.2650E-01  0.2746E+00  0.2746E+00
      4.399  0.2261E-01  0.2261E-01  0.2769E+00  0.2769E+00
      4.501  0.1633E-01  0.1633E-01  0.2786E+00  0.2786E+00
      4.604  0.2413E-01  0.2413E-01  0.2810E+00  0.2810E+00
      4.707  0.2891E-01  0.2891E-01  0.2840E+00  0.2840E+00
      4.810  0.1894E-01  0.1895E-01  0.2860E+00  0.2860E+00
      4.913  0.2119E-01  0.2120E-01  0.2881E+00  0.2881E+00
      5.016  0.2786E-01  0.2786E-01  0.2910E+00  0.2910E+00
      5.119  0.3132E-01  0.3133E-01  0.2942E+00  0.2942E+00
      5.222  0.2989E-01  0.2989E-01  0.2973E+00  0.2973E+00
      5.325  0.2699E-01  0.2698E-01  0.3001E+00  0.3001E+00
      5.427  0.2046E-01  0.2046E-01  0.3022E+00  0.3022E+00
      5.530  0.2472E-01  0.2473E-01  0.3047E+00  0.3047E+00
      5.633  0.3020E-01  0.3018E-01  0.3078E+00  0.3078E+00
      5.736  0.2621E-01  0.2620E-01  0.3105E+00  0.3105E+00
      5.839  0.2252E-01  0.2252E-01  0.3129E+00  0.3129E+00
      5.942  0.1781E-01  0.1781E-01  0.3147E+00  0.3147E+00
      6.045  0.2227E-01  0.2228E-01  0.3170E+00  0.3170E+00
      6.148  0.2489E-01  0.2488E-01  0.3195E+00  0.3195E+00
      6.251  0.1812E-01  0.1812E-01  0.3214E+00  0.3214E+00
      6.353  0.2011E-01  0.2011E-01  0.3235E+00  0.3235E+00
      6.456  0.2146E-01  0.2146E-01  0.3257E+00  0.3257E+00
      6.559  0.2470E-01  0.2471E-01  0.3282E+00  0.3282E+00
      6.662  0.2890E-01  0.2891E-01  0.3312E+00  0.3312E+00
      6.765  0.3096E-01  0.3097E-01  0.3344E+00  0.3344E+00
      6.868  0.3033E-01  0.3032E-01  0.3375E+00  0.3375E+00
      6.971  0.2651E-01  0.2650E-01  0.3402E+00  0.3402E+00
      7.074  0.2365E-01  0.2365E-01  0.3427E+00  0.3427E+00
      7.177  0.2902E-01  0.2902E-01  0.3456E+00  0.3457E+00
      7.279  0.3353E-01  0.3353E-01  0.3491E+00  0.3491E+00
      7.382  0.4365E-01  0.4366E-01  0.3536E+00  0.3536E+00
      7.485  0.4073E-01  0.4072E-01  0.3578E+00  0.3578E+00
      7.588  0.2782E-01  0.2781E-01  0.3606E+00  0.3606E+00
      7.691  0.3115E-01  0.3115E-01  0.3638E+00  0.3638E+00
      7.794  0.3602E-01  0.3601E-01  0.3676E+00  0.3676E+00
      7.897  0.2811E-01  0.2810E-01  0.3704E+00  0.3704E+00
      8.000  0.2009E-01  0.2009E-01  0.3725E+00  0.3725E+00
      8.103  0.1606E-01  0.1605E-01  0.3742E+00  0.3742E+00
      8.205  0.6843E-02  0.6848E-02  0.3749E+00  0.3749E+00
      8.308  0.8799E-03  0.8819E-03  0.3750E+00  0.3750E+00
      8.411  0.2906E-03  0.2907E-03  0.3750E+00  0.3750E+00
      8.514  0.8895E-04  0.8894E-04  0.3750E+00  0.3750E+00
      8.617  0.4519E-05  0.4519E-05  0.3750E+00  0.3750E+00
      8.720  0.3293E-07  0.3293E-07  0.3750E+00  0.3750E+00
      8.823  0.3205E-10  0.3204E-10  0.3750E+00  0.3750E+00
      8.926  0.4002E-14  0.4001E-14  0.3750E+00  0.3750E+00
      9.029  0.5854E-19  0.5854E-19  0.3750E+00  0.3750E+00
      9.131  0.0000E+00  0.0000E+00  0.3750E+00  0.3750E+00
      9.234  0.0000E+00  0.0000E+00  0.3750E+00  0.3750E+00
      9.337  0.0000E+00  0.0000E+00  0.3750E+00  0.3750E+00
      9.440  0.0000E+00  0.0000E+00  0.3750E+00  0.3750E+00
      9.543  0.0000E+00  0.0000E+00  0.3750E+00  0.3750E+00
      9.646  0.0000E+00  0.0000E+00  0.3750E+00  0.3750E+00
      9.749  0.0000E+00  0.0000E+00  0.3750E+00  0.3750E+00
