Lattice                                 
           1
     4.315405    2.491500    0.000000
    -4.315405    2.491500    0.000000
     0.000000    0.000000   15.000000
   B    C 
     8     8
Direct configuration=     1
   0.66888689  0.00000000  0.10000000
   0.33111211  0.00000000  0.10000000
   0.00000000  0.33111211  0.10000000
   0.00000000  0.66888689  0.10000000
   0.33111211  0.33111211  0.10000000
   0.66888689  0.66888689  0.10000000
   0.66666600  0.33333300  0.09922189
   0.33333300  0.66666600  0.10077811
   0.16666600  0.33333300  0.46773333
   0.33333300  0.16666600  0.46773333
   0.16666600  0.83333300  0.46773333
   0.33333300  0.66666600  0.46773333
   0.66666600  0.33333300  0.46773333
   0.83333300  0.16666600  0.46773333
   0.66666600  0.83333300  0.46773333
   0.83333300  0.66666600  0.46773333
Direct configuration=     2
   0.67048025  0.00000002  0.10002693
   0.32951877  0.00000002  0.10002693
  -0.00000002  0.32951875  0.10002693
  -0.00000002  0.67048023  0.10002693
   0.32951877  0.32951875  0.10002693
   0.67048025  0.67048023  0.10002693
   0.66666600  0.33333300  0.09924625
   0.33333300  0.66666600  0.10081386
   0.16666368  0.33332836  0.46770561
   0.33332848  0.16666374  0.46770563
   0.16666368  0.83333532  0.46770561
   0.33333300  0.66666600  0.46770560
   0.66666600  0.33333300  0.46770568
   0.83333526  0.16666374  0.46770563
   0.66667064  0.83333532  0.46770561
   0.83333526  0.66667052  0.46770563
Direct configuration=     3
   0.66971329  0.00000001  0.10001397
   0.33028572  0.00000001  0.10001397
  -0.00000001  0.33028571  0.10001397
  -0.00000001  0.66971328  0.10001397
   0.33028572  0.33028571  0.10001397
   0.66971329  0.66971328  0.10001397
   0.66666600  0.33333300  0.09923452
   0.33333300  0.66666600  0.10079665
   0.16666480  0.33333059  0.46771895
   0.33333066  0.16666483  0.46771896
   0.16666480  0.83333420  0.46771895
   0.33333300  0.66666600  0.46771895
   0.66666600  0.33333300  0.46771899
   0.83333417  0.16666483  0.46771896
   0.66666841  0.83333420  0.46771895
   0.83333417  0.66666834  0.46771896
Direct configuration=     4
   0.66971674  0.00000001  0.10001403
   0.33028227  0.00000001  0.10001403
  -0.00000001  0.33028226  0.10001403
  -0.00000001  0.66971673  0.10001403
   0.33028227  0.33028226  0.10001403
   0.66971674  0.66971673  0.10001403
   0.66666600  0.33333300  0.09923458
   0.33333300  0.66666600  0.10079673
   0.16666479  0.33333058  0.46771889
   0.33333065  0.16666482  0.46771890
   0.16666479  0.83333421  0.46771889
   0.33333300  0.66666600  0.46771889
   0.66666600  0.33333300  0.46771893
   0.83333418  0.16666482  0.46771890
   0.66666842  0.83333421  0.46771889
   0.83333418  0.66666835  0.46771890
Direct configuration=     5
   0.66971523  0.00000001  0.10001400
   0.33028378  0.00000001  0.10001400
  -0.00000001  0.33028377  0.10001400
  -0.00000001  0.66971522  0.10001400
   0.33028378  0.33028377  0.10001400
   0.66971523  0.66971522  0.10001400
   0.66666600  0.33333300  0.09923455
   0.33333300  0.66666600  0.10079670
   0.16666479  0.33333059  0.46771892
   0.33333065  0.16666483  0.46771893
   0.16666479  0.83333421  0.46771892
   0.33333300  0.66666600  0.46771891
   0.66666600  0.33333300  0.46771896
   0.83333417  0.16666483  0.46771893
   0.66666841  0.83333421  0.46771892
   0.83333417  0.66666835  0.46771893
Direct configuration=     6
   0.66971426  0.00000001  0.10001398
   0.33028475  0.00000001  0.10001398
  -0.00000001  0.33028474  0.10001398
  -0.00000001  0.66971425  0.10001398
   0.33028475  0.33028474  0.10001398
   0.66971426  0.66971425  0.10001398
   0.66666600  0.33333300  0.09923454
   0.33333300  0.66666600  0.10079667
   0.16666480  0.33333059  0.46771894
   0.33333066  0.16666483  0.46771895
   0.16666480  0.83333420  0.46771894
   0.33333300  0.66666600  0.46771893
   0.66666600  0.33333300  0.46771897
   0.83333417  0.16666483  0.46771895
   0.66666841  0.83333420  0.46771894
   0.83333417  0.66666834  0.46771895
Direct configuration=     7
   0.66971378  0.00000001  0.10001398
   0.33028523  0.00000001  0.10001398
  -0.00000001  0.33028522  0.10001398
  -0.00000001  0.66971377  0.10001398
   0.33028523  0.33028522  0.10001398
   0.66971378  0.66971377  0.10001398
   0.66666600  0.33333300  0.09923453
   0.33333300  0.66666600  0.10079666
   0.16666480  0.33333059  0.46771894
   0.33333066  0.16666483  0.46771896
   0.16666480  0.83333420  0.46771894
   0.33333300  0.66666600  0.46771894
   0.66666600  0.33333300  0.46771898
   0.83333417  0.16666483  0.46771896
   0.66666841  0.83333420  0.46771894
   0.83333417  0.66666834  0.46771896
Direct configuration=     8
   0.66971377 -0.00000002  0.10003862
   0.33028521 -0.00000002  0.10003862
   0.00000002  0.33028523  0.10003862
   0.00000002  0.66971379  0.10003862
   0.33028521  0.33028523  0.10003862
   0.66971377  0.66971379  0.10003862
   0.66666600  0.33333300  0.09925939
   0.33333300  0.66666600  0.10082590
   0.16666653  0.33333406  0.46769369
   0.33333403  0.16666651  0.46769372
   0.16666653  0.83333247  0.46769369
   0.33333300  0.66666600  0.46769368
   0.66666600  0.33333300  0.46769378
   0.83333249  0.16666651  0.46769372
   0.66666494  0.83333247  0.46769369
   0.83333249  0.66666497  0.46769372
Direct configuration=     9
   0.66971375 -0.00000011  0.10011255
   0.33028515 -0.00000011  0.10011255
   0.00000011  0.33028525  0.10011255
   0.00000011  0.66971385  0.10011255
   0.33028515  0.33028525  0.10011255
   0.66971375  0.66971385  0.10011255
   0.66666600  0.33333300  0.09933396
   0.33333300  0.66666600  0.10091362
   0.16667174  0.33334448  0.46761791
   0.33334414  0.16667157  0.46761799
   0.16667174  0.83332726  0.46761791
   0.33333300  0.66666600  0.46761792
   0.66666600  0.33333300  0.46761818
   0.83332743  0.16667157  0.46761799
   0.66665452  0.83332726  0.46761791
   0.83332743  0.66665486  0.46761799
Direct configuration=    10
   0.66971369 -0.00000029  0.10026040
   0.33028502 -0.00000029  0.10026040
   0.00000029  0.33028531  0.10026040
   0.00000029  0.66971398  0.10026040
   0.33028502  0.33028531  0.10026040
   0.66971369  0.66971398  0.10026040
   0.66666600  0.33333300  0.09948312
   0.33333300  0.66666600  0.10108905
   0.16668215  0.33336531  0.46746636
   0.33336438  0.16668169  0.46746655
   0.16668215  0.83331685  0.46746636
   0.33333300  0.66666600  0.46746638
   0.66666600  0.33333300  0.46746699
   0.83331731  0.16668169  0.46746655
   0.66663369  0.83331685  0.46746636
   0.83331731  0.66663462  0.46746655
Direct configuration=    11
   0.66971359 -0.00000065  0.10055611
   0.33028476 -0.00000065  0.10055611
   0.00000065  0.33028541  0.10055611
   0.00000065  0.66971424  0.10055611
   0.33028476  0.33028541  0.10055611
   0.66971359  0.66971424  0.10055611
   0.66666600  0.33333300  0.09978142
   0.33333300  0.66666600  0.10143991
   0.16670298  0.33340697  0.46716326
   0.33340484  0.16670192  0.46716366
   0.16670298  0.83329602  0.46716326
   0.33333300  0.66666600  0.46716331
   0.66666600  0.33333300  0.46716459
   0.83329708  0.16670192  0.46716366
   0.66659203  0.83329602  0.46716326
   0.83329708  0.66659416  0.46716366
Direct configuration=    12
   0.66971339 -0.00000137  0.10114753
   0.33028424 -0.00000137  0.10114753
   0.00000137  0.33028561  0.10114753
   0.00000137  0.66971476  0.10114753
   0.33028424  0.33028561  0.10114753
   0.66971339  0.66971476  0.10114753
   0.66666600  0.33333300  0.10037803
   0.33333300  0.66666600  0.10214163
   0.16674464  0.33349028  0.46655707
   0.33348576  0.16674238  0.46655789
   0.16674464  0.83325436  0.46655707
   0.33333300  0.66666600  0.46655717
   0.66666600  0.33333300  0.46655979
   0.83325662  0.16674238  0.46655789
   0.66650872  0.83325436  0.46655707
   0.83325662  0.66651324  0.46655789
Direct configuration=    13
   0.66971298 -0.00000281  0.10233037
   0.33028321 -0.00000281  0.10233037
   0.00000281  0.33028602  0.10233037
   0.00000281  0.66971579  0.10233037
   0.33028321  0.33028602  0.10233037
   0.66971298  0.66971579  0.10233037
   0.66666600  0.33333300  0.10157125
   0.33333300  0.66666600  0.10354508
   0.16682796  0.33365692  0.46534467
   0.33364761  0.16682331  0.46534634
   0.16682796  0.83317104  0.46534467
   0.33333300  0.66666600  0.46534488
   0.66666600  0.33333300  0.46535020
   0.83317569  0.16682331  0.46534634
   0.66634208  0.83317104  0.46534467
   0.83317569  0.66635139  0.46534634
Direct configuration=    14
   0.66971217 -0.00000568  0.10469605
   0.33028114 -0.00000568  0.10469605
   0.00000568  0.33028683  0.10469605
   0.00000568  0.66971786  0.10469605
   0.33028114  0.33028683  0.10469605
   0.66971217  0.66971786  0.10469605
   0.66666600  0.33333300  0.10395768
   0.33333300  0.66666600  0.10635197
   0.16699459  0.33399019  0.46291988
   0.33397131  0.16698516  0.46292325
   0.16699459  0.83300441  0.46291988
   0.33333300  0.66666600  0.46292032
   0.66666600  0.33333300  0.46293102
   0.83301384  0.16698516  0.46292325
   0.66600881  0.83300441  0.46291988
   0.83301384  0.66602769  0.46292325
Direct configuration=    15
   0.66971055 -0.00001144  0.10942741
   0.33027702 -0.00001144  0.10942741
   0.00001144  0.33028845  0.10942741
   0.00001144  0.66972198  0.10942741
   0.33027702  0.33028845  0.10942741
   0.66971055  0.66972198  0.10942741
   0.66666600  0.33333300  0.10873054
   0.33333300  0.66666600  0.11196575
   0.16732786  0.33465672  0.45807029
   0.33461872  0.16730886  0.45807706
   0.16732786  0.83267114  0.45807029
   0.33333300  0.66666600  0.45807118
   0.66666600  0.33333300  0.45809266
   0.83269014  0.16730886  0.45807706
   0.66534228  0.83267114  0.45807029
   0.83269014  0.66538028  0.45807706
Direct configuration=    16
   0.66970730 -0.00002295  0.11889013
   0.33026876 -0.00002295  0.11889013
   0.00002295  0.33029170  0.11889013
   0.00002295  0.66973024  0.11889013
   0.33026876  0.33029170  0.11889013
   0.66970730  0.66973024  0.11889013
   0.66666600  0.33333300  0.11827628
   0.33333300  0.66666600  0.12319332
   0.16799440  0.33598979  0.44837113
   0.33591352  0.16795626  0.44838467
   0.16799440  0.83200460  0.44837113
   0.33333300  0.66666600  0.44837292
   0.66666600  0.33333300  0.44841594
   0.83204274  0.16795626  0.44838467
   0.66400921  0.83200460  0.44837113
   0.83204274  0.66408548  0.44838467
Direct configuration=    17
   0.66970080 -0.00004596  0.13781558
   0.33025224 -0.00004596  0.13781558
   0.00004596  0.33029820  0.13781558
   0.00004596  0.66974676  0.13781558
   0.33025224  0.33029820  0.13781558
   0.66970080  0.66974676  0.13781558
   0.66666600  0.33333300  0.13736774
   0.33333300  0.66666600  0.14564845
   0.16932747  0.33865593  0.42897279
   0.33850312  0.16925106  0.42899991
   0.16932747  0.83067153  0.42897279
   0.33333300  0.66666600  0.42897639
   0.66666600  0.33333300  0.42906249
   0.83074794  0.16925106  0.42899991
   0.66134307  0.83067153  0.42897279
   0.83074794  0.66149588  0.42899991
Direct configuration=    18
   0.66970441 -0.00003317  0.12730093
   0.33026141 -0.00003317  0.12730093
   0.00003317  0.33029459  0.12730093
   0.00003317  0.66973759  0.12730093
   0.33026141  0.33029459  0.12730093
   0.66970441  0.66973759  0.12730093
   0.66666600  0.33333300  0.12676086
   0.33333300  0.66666600  0.13317277
   0.16858684  0.33717467  0.43975017
   0.33706439  0.16853169  0.43976975
   0.16858684  0.83141216  0.43975017
   0.33333300  0.66666600  0.43975276
   0.66666600  0.33333300  0.43981493
   0.83146731  0.16853169  0.43976975
   0.66282433  0.83141216  0.43975017
   0.83146731  0.66293461  0.43976975
Direct configuration=    19
   0.66970441 -0.00003318  0.12730168
   0.33026141 -0.00003318  0.12730168
   0.00003318  0.33029459  0.12730168
   0.00003318  0.66973759  0.12730168
   0.33026141  0.33029459  0.12730168
   0.66970441  0.66973759  0.12730168
   0.66666600  0.33333300  0.12676160
   0.33333300  0.66666600  0.13317365
   0.16858686  0.33717472  0.43974941
   0.33706444  0.16853172  0.43976899
   0.16858686  0.83141214  0.43974941
   0.33333300  0.66666600  0.43975200
   0.66666600  0.33333300  0.43981417
   0.83146728  0.16853172  0.43976899
   0.66282428  0.83141214  0.43974941
   0.83146728  0.66293456  0.43976899
Direct configuration=    20
   0.66970441 -0.00003318  0.12730390
   0.33026141 -0.00003318  0.12730390
   0.00003318  0.33029459  0.12730390
   0.00003318  0.66973759  0.12730390
   0.33026141  0.33029459  0.12730390
   0.66970441  0.66973759  0.12730390
   0.66666600  0.33333300  0.12676385
   0.33333300  0.66666600  0.13317630
   0.16858694  0.33717489  0.43974712
   0.33706459  0.16853180  0.43976670
   0.16858694  0.83141206  0.43974712
   0.33333300  0.66666600  0.43974972
   0.66666600  0.33333300  0.43981189
   0.83146720  0.16853180  0.43976670
   0.66282411  0.83141206  0.43974712
   0.83146720  0.66293441  0.43976670
Direct configuration=    21
   0.66970440 -0.00003319  0.12730836
   0.33026141 -0.00003319  0.12730836
   0.00003319  0.33029460  0.12730836
   0.00003319  0.66973759  0.12730836
   0.33026141  0.33029460  0.12730836
   0.66970440  0.66973759  0.12730836
   0.66666600  0.33333300  0.12676834
   0.33333300  0.66666600  0.13318158
   0.16858710  0.33717521  0.43974256
   0.33706491  0.16853195  0.43976214
   0.16858710  0.83141190  0.43974256
   0.33333300  0.66666600  0.43974515
   0.66666600  0.33333300  0.43980733
   0.83146705  0.16853195  0.43976214
   0.66282379  0.83141190  0.43974256
   0.83146705  0.66293409  0.43976214
Direct configuration=    22
   0.66970438 -0.00003321  0.12731727
   0.33026141 -0.00003321  0.12731727
   0.00003321  0.33029462  0.12731727
   0.00003321  0.66973759  0.12731727
   0.33026141  0.33029462  0.12731727
   0.66970438  0.66973759  0.12731727
   0.66666600  0.33333300  0.12677732
   0.33333300  0.66666600  0.13319214
   0.16858743  0.33717585  0.43973343
   0.33706553  0.16853227  0.43975301
   0.16858743  0.83141157  0.43973343
   0.33333300  0.66666600  0.43973602
   0.66666600  0.33333300  0.43979822
   0.83146673  0.16853227  0.43975301
   0.66282315  0.83141157  0.43973343
   0.83146673  0.66293347  0.43975301
Direct configuration=    23
   0.66970435 -0.00003325  0.12733510
   0.33026140 -0.00003325  0.12733510
   0.00003325  0.33029465  0.12733510
   0.00003325  0.66973760  0.12733510
   0.33026140  0.33029465  0.12733510
   0.66970435  0.66973760  0.12733510
   0.66666600  0.33333300  0.12679528
   0.33333300  0.66666600  0.13321327
   0.16858807  0.33717714  0.43971516
   0.33706679  0.16853289  0.43973476
   0.16858807  0.83141093  0.43971516
   0.33333300  0.66666600  0.43971775
   0.66666600  0.33333300  0.43977999
   0.83146611  0.16853289  0.43973476
   0.66282186  0.83141093  0.43971516
   0.83146611  0.66293221  0.43973476
Direct configuration=    24
   0.66970429 -0.00003332  0.12737076
   0.33026138 -0.00003332  0.12737076
   0.00003332  0.33029471  0.12737076
   0.00003332  0.66973762  0.12737076
   0.33026138  0.33029471  0.12737076
   0.66970429  0.66973762  0.12737076
   0.66666600  0.33333300  0.12683120
   0.33333300  0.66666600  0.13325553
   0.16858936  0.33717972  0.43967863
   0.33706930  0.16853415  0.43969825
   0.16858936  0.83140964  0.43967863
   0.33333300  0.66666600  0.43968122
   0.66666600  0.33333300  0.43974354
   0.83146485  0.16853415  0.43969825
   0.66281928  0.83140964  0.43967863
   0.83146485  0.66292970  0.43969825
Direct configuration=    25
   0.66970418 -0.00003347  0.12744206
   0.33026135 -0.00003347  0.12744206
   0.00003347  0.33029482  0.12744206
   0.00003347  0.66973765  0.12744206
   0.33026135  0.33029482  0.12744206
   0.66970418  0.66973765  0.12744206
   0.66666600  0.33333300  0.12690305
   0.33333300  0.66666600  0.13334004
   0.16859194  0.33718488  0.43960556
   0.33707432  0.16853666  0.43962524
   0.16859194  0.83140706  0.43960556
   0.33333300  0.66666600  0.43960816
   0.66666600  0.33333300  0.43967063
   0.83146234  0.16853666  0.43962524
   0.66281412  0.83140706  0.43960556
   0.83146234  0.66292468  0.43962524
Direct configuration=    26
   0.66970394 -0.00003377  0.12758468
   0.33026129 -0.00003377  0.12758468
   0.00003377  0.33029506  0.12758468
   0.00003377  0.66973771  0.12758468
   0.33026129  0.33029506  0.12758468
   0.66970394  0.66973771  0.12758468
   0.66666600  0.33333300  0.12704674
   0.33333300  0.66666600  0.13350906
   0.16859710  0.33719519  0.43945944
   0.33708435  0.16854168  0.43947921
   0.16859710  0.83140190  0.43945944
   0.33333300  0.66666600  0.43946204
   0.66666600  0.33333300  0.43952481
   0.83145732  0.16854168  0.43947921
   0.66280381  0.83140190  0.43945944
   0.83145732  0.66291465  0.43947921
Direct configuration=    27
   0.66970346 -0.00003437  0.12786991
   0.33026117 -0.00003437  0.12786991
   0.00003437  0.33029554  0.12786991
   0.00003437  0.66973783  0.12786991
   0.33026117  0.33029554  0.12786991
   0.66970346  0.66973783  0.12786991
   0.66666600  0.33333300  0.12733412
   0.33333300  0.66666600  0.13384711
   0.16860741  0.33721583  0.43916718
   0.33710442  0.16855171  0.43918714
   0.16860741  0.83139159  0.43916718
   0.33333300  0.66666600  0.43916980
   0.66666600  0.33333300  0.43923318
   0.83144729  0.16855171  0.43918714
   0.66278317  0.83139159  0.43916718
   0.83144729  0.66289458  0.43918714
Direct configuration=    28
   0.66970251 -0.00003556  0.12844038
   0.33026093 -0.00003556  0.12844038
   0.00003556  0.33029649  0.12844038
   0.00003556  0.66973807  0.12844038
   0.33026093  0.33029649  0.12844038
   0.66970251  0.66973807  0.12844038
   0.66666600  0.33333300  0.12790889
   0.33333300  0.66666600  0.13452321
   0.16862804  0.33725709  0.43858267
   0.33714457  0.16857178  0.43860302
   0.16862804  0.83137096  0.43858267
   0.33333300  0.66666600  0.43858532
   0.66666600  0.33333300  0.43864991
   0.83142722  0.16857178  0.43860302
   0.66274191  0.83137096  0.43858267
   0.83142722  0.66285443  0.43860302
Direct configuration=    29
   0.66970061 -0.00003795  0.12958131
   0.33026044 -0.00003795  0.12958131
   0.00003795  0.33029839  0.12958131
   0.00003795  0.66973856  0.12958131
   0.33026044  0.33029839  0.12958131
   0.66970061  0.66973856  0.12958131
   0.66666600  0.33333300  0.12905842
   0.33333300  0.66666600  0.13587540
   0.16866931  0.33733961  0.43741366
   0.33722485  0.16861193  0.43743476
   0.16866931  0.83132969  0.43741366
   0.33333300  0.66666600  0.43741636
   0.66666600  0.33333300  0.43748338
   0.83138707  0.16861193  0.43743476
   0.66265939  0.83132969  0.43741366
   0.83138707  0.66277415  0.43743476
Direct configuration=    30
   0.66969681 -0.00004273  0.13186317
   0.33025946 -0.00004273  0.13186317
   0.00004273  0.33030219  0.13186317
   0.00004273  0.66973954  0.13186317
   0.33025946  0.33030219  0.13186317
   0.66969681  0.66973954  0.13186317
   0.66666600  0.33333300  0.13135748
   0.33333300  0.66666600  0.13857978
   0.16875183  0.33750467  0.43507562
   0.33738542  0.16869221  0.43509826
   0.16875183  0.83124717  0.43507562
   0.33333300  0.66666600  0.43507844
   0.66666600  0.33333300  0.43515031
   0.83130679  0.16869221  0.43509826
   0.66249433  0.83124717  0.43507562
   0.83130679  0.66261358  0.43509826
Direct configuration=    31
   0.66968920 -0.00005230  0.13642689
   0.33025751 -0.00005230  0.13642689
   0.00005230  0.33030980  0.13642689
   0.00005230  0.66974149  0.13642689
   0.33025751  0.33030980  0.13642689
   0.66968920  0.66974149  0.13642689
   0.66666600  0.33333300  0.13595561
   0.33333300  0.66666600  0.14398856
   0.16891688  0.33783477  0.43039956
   0.33770656  0.16885278  0.43042525
   0.16891688  0.83108212  0.43039956
   0.33333300  0.66666600  0.43040259
   0.66666600  0.33333300  0.43048418
   0.83114622  0.16885278  0.43042525
   0.66216423  0.83108212  0.43039956
   0.83114622  0.66229244  0.43042525
Direct configuration=    32
   0.66967398 -0.00007142  0.14555432
   0.33025360 -0.00007142  0.14555432
   0.00007142  0.33032502  0.14555432
   0.00007142  0.66974540  0.14555432
   0.33025360  0.33032502  0.14555432
   0.66967398  0.66974540  0.14555432
   0.66666600  0.33333300  0.14515185
   0.33333300  0.66666600  0.15480610
   0.16924698  0.33849497  0.42104742
   0.33834884  0.16917392  0.42107923
   0.16924698  0.83075202  0.42104742
   0.33333300  0.66666600  0.42105089
   0.66666600  0.33333300  0.42115192
   0.83082508  0.16917392  0.42107923
   0.66150403  0.83075202  0.42104742
   0.83082508  0.66165016  0.42107923
Direct configuration=    33
   0.66964354 -0.00010967  0.16380920
   0.33024578 -0.00010967  0.16380920
   0.00010967  0.33035546  0.16380920
   0.00010967  0.66975322  0.16380920
   0.33024578  0.33035546  0.16380920
   0.66964354  0.66975322  0.16380920
   0.66666600  0.33333300  0.16354435
   0.33333300  0.66666600  0.17644118
   0.16990719  0.33981538  0.40234315
   0.33963339  0.16981620  0.40238719
   0.16990719  0.83009181  0.40234315
   0.33333300  0.66666600  0.40234750
   0.66666600  0.33333300  0.40248739
   0.83018280  0.16981620  0.40238719
   0.66018362  0.83009181  0.40234315
   0.83018280  0.66036561  0.40238719
Direct configuration=    34
   0.66965941 -0.00008973  0.15429142
   0.33024986 -0.00008973  0.15429142
   0.00008973  0.33033959  0.15429142
   0.00008973  0.66974914  0.15429142
   0.33024986  0.33033959  0.15429142
   0.66965941  0.66974914  0.15429142
   0.66666600  0.33333300  0.15395481
   0.33333300  0.66666600  0.16516102
   0.16956297  0.33912694  0.41209524
   0.33896365  0.16948132  0.41213290
   0.16956297  0.83043603  0.41209524
   0.33333300  0.66666600  0.41209913
   0.66666600  0.33333300  0.41221876
   0.83051768  0.16948132  0.41213290
   0.66087206  0.83043603  0.41209524
   0.83051768  0.66103535  0.41213290
Direct configuration=    35
   0.66965148 -0.00009970  0.15905031
   0.33024782 -0.00009970  0.15905031
   0.00009970  0.33034752  0.15905031
   0.00009970  0.66975118  0.15905031
   0.33024782  0.33034752  0.15905031
   0.66965148  0.66975118  0.15905031
   0.66666600  0.33333300  0.15874958
   0.33333300  0.66666600  0.17080110
   0.16973508  0.33947116  0.40721920
   0.33929852  0.16964876  0.40726005
   0.16973508  0.83026392  0.40721920
   0.33333300  0.66666600  0.40722332
   0.66666600  0.33333300  0.40735307
   0.83035024  0.16964876  0.40726005
   0.66052784  0.83026392  0.40721920
   0.83035024  0.66070048  0.40726005
Direct configuration=    36
   0.66960217 -0.00013813  0.16528986
   0.33025871 -0.00013813  0.16528986
   0.00013813  0.33039683  0.16528986
   0.00013813  0.66974029  0.16528986
   0.33025871  0.33039683  0.16528986
   0.66960217  0.66974029  0.16528986
   0.66666600  0.33333300  0.16501813
   0.33333300  0.66666600  0.17817430
   0.16961108  0.33922317  0.40083180
   0.33906078  0.16952989  0.40087559
   0.16961108  0.83038792  0.40083180
   0.33333300  0.66666600  0.40083612
   0.66666600  0.33333300  0.40097680
   0.83046911  0.16952989  0.40087559
   0.66077583  0.83038792  0.40083180
   0.83046911  0.66093822  0.40087559
Direct configuration=    37
   0.66959453 -0.00014408  0.16625626
   0.33026039 -0.00014408  0.16625626
   0.00014408  0.33040447  0.16625626
   0.00014408  0.66973861  0.16625626
   0.33026039  0.33040447  0.16625626
   0.66959453  0.66973861  0.16625626
   0.66666600  0.33333300  0.16598902
   0.33333300  0.66666600  0.17931628
   0.16959188  0.33918476  0.39984250
   0.33902396  0.16951148  0.39988675
   0.16959188  0.83040712  0.39984250
   0.33333300  0.66666600  0.39984685
   0.66666600  0.33333300  0.39998922
   0.83048752  0.16951148  0.39988675
   0.66081424  0.83040712  0.39984250
   0.83048752  0.66097504  0.39988675
Direct configuration=    38
   0.66954118 -0.00017341  0.16599428
   0.33028441 -0.00017341  0.16599428
   0.00017341  0.33045782  0.16599428
   0.00017341  0.66971459  0.16599428
   0.33028441  0.33045782  0.16599428
   0.66954118  0.66971459  0.16599428
   0.66666600  0.33333300  0.16570284
   0.33333300  0.66666600  0.17898179
   0.16925335  0.33850770  0.40011775
   0.33836957  0.16918429  0.40015973
   0.16925335  0.83074565  0.40011775
   0.33333300  0.66666600  0.40012261
   0.66666600  0.33333300  0.40026132
   0.83081471  0.16918429  0.40015973
   0.66149130  0.83074565  0.40011775
   0.83081471  0.66162943  0.40015973
Direct configuration=    39
   0.66938113 -0.00026140  0.16520833
   0.33035647 -0.00026140  0.16520833
   0.00026140  0.33061787  0.16520833
   0.00026140  0.66964253  0.16520833
   0.33035647  0.33061787  0.16520833
   0.66938113  0.66964253  0.16520833
   0.66666600  0.33333300  0.16484431
   0.33333300  0.66666600  0.17797833
   0.16823776  0.33647653  0.40094350
   0.33640643  0.16820271  0.40097868
   0.16823776  0.83176124  0.40094350
   0.33333300  0.66666600  0.40094988
   0.66666600  0.33333300  0.40107763
   0.83179629  0.16820271  0.40097868
   0.66352247  0.83176124  0.40094350
   0.83179629  0.66359257  0.40097868
Direct configuration=    40
   0.66906102 -0.00043738  0.16363642
   0.33050060 -0.00043738  0.16363642
   0.00043738  0.33093798  0.16363642
   0.00043738  0.66949840  0.16363642
   0.33050060  0.33093798  0.16363642
   0.66906102  0.66949840  0.16363642
   0.66666600  0.33333300  0.16312725
   0.33333300  0.66666600  0.17597140
   0.16620659  0.33241418  0.40259502
   0.33248014  0.16623957  0.40261657
   0.16620659  0.83379241  0.40259502
   0.33333300  0.66666600  0.40260444
   0.66666600  0.33333300  0.40271026
   0.83375943  0.16623957  0.40261657
   0.66758482  0.83379241  0.40259502
   0.83375943  0.66751886  0.40261657
Direct configuration=    41
   0.66913041 -0.00039923  0.16397716
   0.33046936 -0.00039923  0.16397716
   0.00039923  0.33086859  0.16397716
   0.00039923  0.66952964  0.16397716
   0.33046936  0.33086859  0.16397716
   0.66913041  0.66952964  0.16397716
   0.66666600  0.33333300  0.16349945
   0.33333300  0.66666600  0.17640644
   0.16664688  0.33329476  0.40223703
   0.33333123  0.16666511  0.40226153
   0.16664688  0.83335212  0.40223703
   0.33333300  0.66666600  0.40224579
   0.66666600  0.33333300  0.40235636
   0.83333389  0.16666511  0.40226153
   0.66670424  0.83335212  0.40223703
   0.83333389  0.66666777  0.40226153
Direct configuration=    42
   0.66909311 -0.00040908  0.16399242
   0.33049680 -0.00040908  0.16399242
   0.00040908  0.33090589  0.16399242
   0.00040908  0.66950220  0.16399242
   0.33049680  0.33090589  0.16399242
   0.66909311  0.66950220  0.16399242
   0.66666600  0.33333300  0.16346353
   0.33333300  0.66666600  0.17637272
   0.16664949  0.33329998  0.40223633
   0.33333152  0.16666526  0.40225789
   0.16664949  0.83334951  0.40223633
   0.33333300  0.66666600  0.40224461
   0.66666600  0.33333300  0.40234859
   0.83333374  0.16666526  0.40225789
   0.66669902  0.83334951  0.40223633
   0.83333374  0.66666748  0.40225789
Direct configuration=    43
   0.66898122 -0.00043864  0.16403822
   0.33057914 -0.00043864  0.16403822
   0.00043864  0.33101778  0.16403822
   0.00043864  0.66941986  0.16403822
   0.33057914  0.33101778  0.16403822
   0.66898122  0.66941986  0.16403822
   0.66666600  0.33333300  0.16335576
   0.33333300  0.66666600  0.17627156
   0.16665732  0.33331563  0.40223425
   0.33333242  0.16666571  0.40224698
   0.16665732  0.83334168  0.40223425
   0.33333300  0.66666600  0.40224106
   0.66666600  0.33333300  0.40232527
   0.83333329  0.16666571  0.40224698
   0.66668337  0.83334168  0.40223425
   0.83333329  0.66666658  0.40224698
Direct configuration=    44
   0.66875743 -0.00049774  0.16412980
   0.33074382 -0.00049774  0.16412980
   0.00049774  0.33124157  0.16412980
   0.00049774  0.66925518  0.16412980
   0.33074382  0.33124157  0.16412980
   0.66875743  0.66925518  0.16412980
   0.66666600  0.33333300  0.16314021
   0.33333300  0.66666600  0.17606926
   0.16667297  0.33334694  0.40223009
   0.33333421  0.16666660  0.40222516
   0.16667297  0.83332603  0.40223009
   0.33333300  0.66666600  0.40223398
   0.66666600  0.33333300  0.40227864
   0.83333240  0.16666660  0.40222516
   0.66665206  0.83332603  0.40223009
   0.83333240  0.66666479  0.40222516
Direct configuration=    45
   0.66830986 -0.00061596  0.16431297
   0.33107318 -0.00061596  0.16431297
   0.00061596  0.33168914  0.16431297
   0.00061596  0.66892582  0.16431297
   0.33107318  0.33168914  0.16431297
   0.66830986  0.66892582  0.16431297
   0.66666600  0.33333300  0.16270913
   0.33333300  0.66666600  0.17566464
   0.16670428  0.33340956  0.40222177
   0.33333778  0.16666839  0.40218152
   0.16670428  0.83329472  0.40222177
   0.33333300  0.66666600  0.40221981
   0.66666600  0.33333300  0.40218537
   0.83333061  0.16666839  0.40218152
   0.66658944  0.83329472  0.40222177
   0.83333061  0.66666122  0.40218152
Direct configuration=    46
   0.66836239 -0.00057336  0.16435047
   0.33106325 -0.00057336  0.16435047
   0.00057336  0.33163661  0.16435047
   0.00057336  0.66893575  0.16435047
   0.33106325  0.33163661  0.16435047
   0.66836239  0.66893575  0.16435047
   0.66666600  0.33333300  0.16261168
   0.33333300  0.66666600  0.17558512
   0.16669212  0.33338523  0.40221843
   0.33333423  0.16666662  0.40217399
   0.16669212  0.83330688  0.40221843
   0.33333300  0.66666600  0.40221890
   0.66666600  0.33333300  0.40217090
   0.83333238  0.16666662  0.40217399
   0.66661377  0.83330688  0.40221843
   0.83333238  0.66666477  0.40217399
Direct configuration=    47
   0.66851999 -0.00044557  0.16446296
   0.33103344 -0.00044557  0.16446296
   0.00044557  0.33147901  0.16446296
   0.00044557  0.66896556  0.16446296
   0.33103344  0.33147901  0.16446296
   0.66851999  0.66896556  0.16446296
   0.66666600  0.33333300  0.16231934
   0.33333300  0.66666600  0.17534655
   0.16665563  0.33331226  0.40220840
   0.33332359  0.16666130  0.40215140
   0.16665563  0.83334337  0.40220840
   0.33333300  0.66666600  0.40221617
   0.66666600  0.33333300  0.40212747