   8   8   0   0
  0.4338553E+02  0.5169000E-09  0.5169000E-09  0.1500000E-08  0.5000000E-15
  1.000000000000000E-004
  CAR 
 BC3                                     
      9.53372209    -21.28575502  301     -3.47890030      1.00000000
    -21.286  0.0000E+00  0.0000E+00
    -21.183  0.0000E+00  0.0000E+00
    -21.080  0.0000E+00  0.0000E+00
    -20.978  0.0000E+00  0.0000E+00
    -20.875  0.0000E+00  0.0000E+00
    -20.772  0.0000E+00  0.0000E+00
    -20.669  0.0000E+00  0.0000E+00
    -20.567  0.0000E+00  0.0000E+00
    -20.464  0.2395E-18  0.2460E-19
    -20.361  0.1477E-13  0.1518E-14
    -20.258  0.1437E-09  0.1477E-10
    -20.156  0.1908E-06  0.1962E-07
    -20.053  0.3707E-04  0.3828E-05
    -19.950  0.1198E-02  0.1269E-03
    -19.848  0.8107E-02  0.9598E-03
    -19.745  0.1714E-01  0.2720E-02
    -19.642  0.2080E-01  0.4857E-02
    -19.539  0.2343E-01  0.7264E-02
    -19.437  0.2880E-01  0.1022E-01
    -19.334  0.3995E-01  0.1433E-01
    -19.231  0.3923E-01  0.1836E-01
    -19.128  0.1453E-01  0.1985E-01
    -19.026  0.1431E-02  0.2000E-01
    -18.923  0.2887E-04  0.2000E-01
    -18.820  0.9696E-07  0.2000E-01
    -18.717  0.4761E-10  0.2000E-01
    -18.615  0.3184E-14  0.2000E-01
    -18.512  0.0000E+00  0.2000E-01
    -18.409  0.0000E+00  0.2000E-01
    -18.307  0.0000E+00  0.2000E-01
    -18.204  0.0000E+00  0.2000E-01
    -18.101  0.8451E-14  0.2000E-01
    -17.998  0.9998E-10  0.2000E-01
    -17.896  0.1587E-06  0.2000E-01
    -17.793  0.3640E-04  0.2000E-01
    -17.690  0.1372E-02  0.2014E-01
    -17.587  0.1063E-01  0.2124E-01
    -17.485  0.2532E-01  0.2384E-01
    -17.382  0.3226E-01  0.2715E-01
    -17.279  0.2726E-01  0.2995E-01
    -17.176  0.1967E-01  0.3197E-01
    -17.074  0.1855E-01  0.3388E-01
    -16.971  0.1894E-01  0.3582E-01
    -16.868  0.2036E-01  0.3792E-01
    -16.766  0.2122E-01  0.4010E-01
    -16.663  0.2388E-01  0.4255E-01
    -16.560  0.2755E-01  0.4538E-01
    -16.457  0.3468E-01  0.4894E-01
    -16.355  0.3375E-01  0.5241E-01
    -16.252  0.2606E-01  0.5509E-01
    -16.149  0.2045E-01  0.5719E-01
    -16.046  0.1643E-01  0.5888E-01
    -15.944  0.9029E-02  0.5980E-01
    -15.841  0.1833E-02  0.5999E-01
    -15.738  0.8530E-04  0.6000E-01
    -15.636  0.7101E-06  0.6000E-01
    -15.533  0.9108E-09  0.6000E-01
    -15.430  0.1642E-12  0.6000E-01
    -15.327  0.3892E-17  0.6000E-01
    -15.225  0.0000E+00  0.6000E-01
    -15.122  0.0000E+00  0.6000E-01
    -15.019  0.0000E+00  0.6000E-01
    -14.916  0.0000E+00  0.6000E-01
    -14.814  0.0000E+00  0.6000E-01
    -14.711  0.1600E-15  0.6000E-01
    -14.608  0.3630E-11  0.6000E-01
    -14.505  0.1086E-07  0.6000E-01
    -14.403  0.4580E-05  0.6000E-01
    -14.300  0.3101E-03  0.6003E-01
    -14.197  0.4177E-02  0.6046E-01
    -14.095  0.1449E-01  0.6195E-01
    -13.992  0.2064E-01  0.6407E-01
    -13.889  0.2530E-01  0.6667E-01
    -13.786  0.2862E-01  0.6961E-01
    -13.684  0.3659E-01  0.7337E-01
    -13.581  0.2721E-01  0.7616E-01
    -13.478  0.1709E-01  0.7792E-01
    -13.375  0.1763E-01  0.7973E-01
    -13.273  0.1277E-01  0.8104E-01
    -13.170  0.1465E-01  0.8255E-01
    -13.067  0.1291E-01  0.8387E-01
    -12.964  0.1312E-01  0.8522E-01
    -12.862  0.1271E-01  0.8653E-01
    -12.759  0.1338E-01  0.8790E-01
    -12.656  0.2081E-01  0.9004E-01
    -12.554  0.1764E-01  0.9185E-01
    -12.451  0.1999E-01  0.9390E-01
    -12.348  0.1791E-01  0.9574E-01
    -12.245  0.1440E-01  0.9722E-01
    -12.143  0.1711E-01  0.9898E-01
    -12.040  0.1282E-01  0.1003E+00
    -11.937  0.1317E-01  0.1017E+00
    -11.834  0.1132E-01  0.1028E+00
    -11.732  0.4777E-02  0.1033E+00
    -11.629  0.3482E-02  0.1037E+00
    -11.526  0.6819E-02  0.1044E+00
    -11.424  0.4564E-02  0.1048E+00
    -11.321  0.2654E-02  0.1051E+00
    -11.218  0.6896E-02  0.1058E+00
    -11.115  0.1064E-01  0.1069E+00
    -11.013  0.7333E-02  0.1077E+00
    -10.910  0.6760E-02  0.1084E+00
    -10.807  0.1514E-01  0.1099E+00
    -10.704  0.1876E-01  0.1118E+00
    -10.602  0.1316E-01  0.1132E+00
    -10.499  0.1541E-01  0.1148E+00
    -10.396  0.2345E-01  0.1172E+00
    -10.293  0.2191E-01  0.1194E+00
    -10.191  0.2154E-01  0.1216E+00
    -10.088  0.1723E-01  0.1234E+00
     -9.985  0.1190E-01  0.1246E+00
     -9.883  0.1699E-01  0.1264E+00
     -9.780  0.2878E-01  0.1293E+00
     -9.677  0.2688E-01  0.1321E+00
     -9.574  0.1718E-01  0.1339E+00
     -9.472  0.2314E-01  0.1362E+00
     -9.369  0.2290E-01  0.1386E+00
     -9.266  0.1499E-01  0.1401E+00
     -9.163  0.1822E-01  0.1420E+00
     -9.061  0.2335E-01  0.1444E+00
     -8.958  0.2622E-01  0.1471E+00
     -8.855  0.2507E-01  0.1497E+00
     -8.753  0.2323E-01  0.1521E+00
     -8.650  0.2845E-01  0.1550E+00
     -8.547  0.2912E-01  0.1580E+00
     -8.444  0.2872E-01  0.1609E+00
     -8.342  0.2300E-01  0.1633E+00
     -8.239  0.2015E-01  0.1654E+00
     -8.136  0.2054E-01  0.1675E+00
     -8.033  0.2460E-01  0.1700E+00
     -7.931  0.3134E-01  0.1732E+00
     -7.828  0.4146E-01  0.1775E+00
     -7.725  0.4228E-01  0.1818E+00
     -7.622  0.4443E-01  0.1864E+00
     -7.520  0.3876E-01  0.1904E+00
     -7.417  0.2523E-01  0.1930E+00
     -7.314  0.1765E-01  0.1948E+00
     -7.212  0.1967E-01  0.1968E+00
     -7.109  0.2169E-01  0.1990E+00
     -7.006  0.1617E-01  0.2007E+00
     -6.903  0.1735E-01  0.2025E+00
     -6.801  0.1623E-01  0.2041E+00
     -6.698  0.1704E-01  0.2059E+00
     -6.595  0.2953E-01  0.2089E+00
     -6.492  0.4074E-01  0.2131E+00
     -6.390  0.6900E-01  0.2202E+00
     -6.287  0.7978E-01  0.2284E+00
     -6.184  0.5672E-01  0.2342E+00
     -6.081  0.3990E-01  0.2383E+00
     -5.979  0.2668E-01  0.2411E+00
     -5.876  0.2192E-01  0.2433E+00
     -5.773  0.2652E-01  0.2460E+00
     -5.671  0.2164E-01  0.2482E+00
     -5.568  0.2615E-01  0.2509E+00
     -5.465  0.2750E-01  0.2538E+00
     -5.362  0.2621E-01  0.2565E+00
     -5.260  0.3131E-01  0.2597E+00
     -5.157  0.3141E-01  0.2629E+00
     -5.054  0.3762E-01  0.2668E+00
     -4.951  0.4283E-01  0.2712E+00
     -4.849  0.4179E-01  0.2755E+00
     -4.746  0.4833E-01  0.2804E+00
     -4.643  0.4690E-01  0.2852E+00
     -4.541  0.3744E-01  0.2891E+00
     -4.438  0.2933E-01  0.2921E+00
     -4.335  0.1521E-01  0.2937E+00
     -4.232  0.1261E-01  0.2950E+00
     -4.130  0.1237E-01  0.2962E+00
     -4.027  0.1136E-01  0.2974E+00
     -3.924  0.1130E-01  0.2986E+00
     -3.821  0.9299E-02  0.2995E+00
     -3.719  0.4201E-02  0.2999E+00
     -3.616  0.5576E-03  0.3000E+00
     -3.513  0.1523E-04  0.3000E+00
     -3.410  0.6140E-06  0.3000E+00
     -3.308  0.6440E-04  0.3000E+00
     -3.205  0.1329E-02  0.3001E+00
     -3.102  0.7039E-02  0.3009E+00
     -3.000  0.1418E-01  0.3023E+00
     -2.897  0.1461E-01  0.3038E+00
     -2.794  0.1964E-01  0.3058E+00
     -2.691  0.2417E-01  0.3083E+00
     -2.589  0.2395E-01  0.3108E+00
     -2.486  0.2506E-01  0.3134E+00
     -2.383  0.1601E-01  0.3150E+00
     -2.280  0.1030E-01  0.3161E+00
     -2.178  0.1129E-01  0.3172E+00
     -2.075  0.9225E-02  0.3182E+00
     -1.972  0.4846E-02  0.3187E+00
     -1.869  0.4570E-02  0.3191E+00
     -1.767  0.3973E-02  0.3195E+00
     -1.664  0.1415E-02  0.3197E+00
     -1.561  0.1568E-02  0.3199E+00
     -1.459  0.1258E-02  0.3200E+00
     -1.356  0.1916E-03  0.3200E+00
     -1.253  0.4033E-03  0.3200E+00
     -1.150  0.1611E-02  0.3202E+00
     -1.048  0.1300E-02  0.3203E+00
     -0.945  0.2090E-02  0.3206E+00
     -0.842  0.4603E-02  0.3210E+00
     -0.739  0.3309E-02  0.3214E+00
     -0.637  0.3804E-02  0.3218E+00
     -0.534  0.8032E-02  0.3226E+00
     -0.431  0.8070E-02  0.3234E+00
     -0.329  0.6371E-02  0.3241E+00
     -0.226  0.1775E-01  0.3259E+00
     -0.123  0.3014E-01  0.3290E+00
     -0.020  0.2610E-01  0.3317E+00
      0.082  0.2076E-01  0.3338E+00
      0.185  0.2026E-01  0.3359E+00
      0.288  0.1416E-01  0.3373E+00
      0.391  0.1038E-01  0.3384E+00
      0.493  0.1637E-01  0.3401E+00
      0.596  0.1709E-01  0.3418E+00
      0.699  0.1092E-01  0.3430E+00
      0.802  0.1198E-01  0.3442E+00
      0.904  0.1384E-01  0.3456E+00
      1.007  0.1849E-01  0.3475E+00
      1.110  0.1828E-01  0.3494E+00
      1.212  0.1891E-01  0.3513E+00
      1.315  0.2172E-01  0.3536E+00
      1.418  0.1890E-01  0.3555E+00
      1.521  0.2470E-01  0.3580E+00
      1.623  0.2349E-01  0.3605E+00
      1.726  0.2360E-01  0.3629E+00
      1.829  0.2490E-01  0.3654E+00
      1.932  0.2671E-01  0.3682E+00
      2.034  0.2956E-01  0.3712E+00
      2.137  0.3179E-01  0.3745E+00
      2.240  0.3190E-01  0.3778E+00
      2.343  0.3445E-01  0.3813E+00
      2.445  0.4025E-01  0.3854E+00
      2.548  0.3892E-01  0.3894E+00
      2.651  0.3655E-01  0.3932E+00
      2.753  0.4143E-01  0.3975E+00
      2.856  0.3851E-01  0.4014E+00
      2.959  0.3358E-01  0.4049E+00
      3.062  0.4081E-01  0.4091E+00
      3.164  0.4127E-01  0.4133E+00
      3.267  0.3510E-01  0.4169E+00
      3.370  0.3602E-01  0.4206E+00
      3.473  0.3946E-01  0.4247E+00
      3.575  0.4116E-01  0.4289E+00
      3.678  0.3419E-01  0.4324E+00
      3.781  0.3687E-01  0.4362E+00
      3.883  0.4319E-01  0.4406E+00
      3.986  0.3792E-01  0.4445E+00
      4.089  0.3896E-01  0.4485E+00
      4.192  0.3272E-01  0.4519E+00
      4.294  0.3211E-01  0.4552E+00
      4.397  0.4375E-01  0.4597E+00
      4.500  0.4922E-01  0.4647E+00
      4.603  0.4924E-01  0.4698E+00
      4.705  0.4468E-01  0.4744E+00
      4.808  0.5030E-01  0.4795E+00
      4.911  0.5800E-01  0.4855E+00
      5.014  0.5943E-01  0.4916E+00
      5.116  0.5916E-01  0.4977E+00
      5.219  0.6448E-01  0.5043E+00
      5.322  0.7246E-01  0.5118E+00
      5.424  0.7726E-01  0.5197E+00
      5.527  0.8477E-01  0.5284E+00
      5.630  0.6841E-01  0.5354E+00
      5.733  0.5668E-01  0.5412E+00
      5.835  0.7124E-01  0.5486E+00
      5.938  0.8515E-01  0.5573E+00
      6.041  0.7365E-01  0.5649E+00
      6.144  0.6965E-01  0.5720E+00
      6.246  0.6504E-01  0.5787E+00
      6.349  0.7778E-01  0.5867E+00
      6.452  0.7705E-01  0.5946E+00
      6.555  0.6864E-01  0.6017E+00
      6.657  0.6343E-01  0.6082E+00
      6.760  0.6159E-01  0.6145E+00
      6.863  0.6918E-01  0.6216E+00
      6.965  0.5818E-01  0.6276E+00
      7.068  0.4154E-01  0.6319E+00
      7.171  0.2945E-01  0.6349E+00
      7.274  0.1755E-01  0.6367E+00
      7.376  0.1013E-01  0.6377E+00
      7.479  0.5422E-02  0.6383E+00
      7.582  0.4038E-02  0.6387E+00
      7.685  0.1914E-02  0.6389E+00
      7.787  0.4054E-02  0.6393E+00
      7.890  0.4381E-02  0.6398E+00
      7.993  0.1192E-02  0.6399E+00
      8.095  0.4948E-03  0.6399E+00
      8.198  0.4131E-03  0.6400E+00
      8.301  0.1006E-03  0.6400E+00
      8.404  0.4770E-05  0.6400E+00
      8.506  0.3464E-07  0.6400E+00
      8.609  0.3428E-10  0.6400E+00
      8.712  0.4393E-14  0.6400E+00
      8.815  0.5987E-19  0.6400E+00
      8.917  0.0000E+00  0.6400E+00
      9.020  0.0000E+00  0.6400E+00
      9.123  0.0000E+00  0.6400E+00
      9.226  0.0000E+00  0.6400E+00
      9.328  0.0000E+00  0.6400E+00
      9.431  0.0000E+00  0.6400E+00
      9.534  0.0000E+00  0.6400E+00
