<?xml version="1.0" encoding="ISO-8859-1"?>
<modeling>
 <generator>
  <i name="program" type="string">vasp </i>
  <i name="version" type="string">5.4.4.18Apr17-6-g9f103f2a35  </i>
  <i name="subversion" type="string">(build Mar 30 2023 15:39:25) complex            parallel </i>
  <i name="platform" type="string">LinuxIFC </i>
  <i name="date" type="string">2023 07 19 </i>
  <i name="time" type="string">12:42:01 </i>
 </generator>
 <incar>
  <i type="string" name="SYSTEM"> BC3</i>
  <i type="int" name="ISTART">     0</i>
  <i type="string" name="PREC">accurate</i>
  <i type="string" name="ALGO"> Normal</i>
  <i type="int" name="ISPIN">     1</i>
  <i type="int" name="ICHARG">     2</i>
  <i type="int" name="IBRION">     2</i>
  <i name="EDIFF">      0.00000100</i>
  <i name="EDIFFG">     -0.01000000</i>
  <i type="int" name="NSW">   100</i>
  <i type="int" name="ISIF">     2</i>
  <i name="ENCUT">    450.00000000</i>
  <i type="int" name="ISMEAR">     0</i>
  <i name="SIGMA">      0.10000000</i>
  <i type="logical" name="LWAVE"> F  </i>
  <i type="logical" name="LCHARG"> F  </i>
  <v type="int" name="KPOINT_BSE">    -1     0     0     0</v>
  <i type="string" name="GGA"> PE</i>
 </incar>
 <structure name="primitive_cell" >
  <crystal>
   <varray name="basis" >
    <v>       4.47648500       2.58450000       0.00000000 </v>
    <v>      -4.47648500       2.58450000       0.00000000 </v>
    <v>       0.00000000       0.00000000      15.00000000 </v>
   </varray>
   <i name="volume">    347.08426447 </i>
   <varray name="rec_basis" >
    <v>       0.11169478       0.19346102       0.00000000 </v>
    <v>      -0.11169478       0.19346102       0.00000000 </v>
    <v>       0.00000000       0.00000000       0.06666667 </v>
   </varray>
  </crystal>
  <varray name="positions" >
   <v>       0.33833034      -0.33083568       0.25000000 </v>
   <v>       0.16373946       0.31999962       0.25000000 </v>
   <v>       0.16376430      -0.15623616       0.25000000 </v>
   <v>      -0.31250150      -0.15627000       0.25000000 </v>
   <v>      -0.15373264      -0.31500406       0.25000000 </v>
   <v>       0.32250218       0.16126397       0.25000000 </v>
   <v>      -0.15376137       0.16123684       0.25000000 </v>
   <v>      -0.32834478       0.33584146       0.25000000 </v>
  </varray>
 </structure>
 <varray name="primitive_index" >
  <v type="int" >        1 </v>
  <v type="int" >        3 </v>
  <v type="int" >        5 </v>
  <v type="int" >        7 </v>
  <v type="int" >        8 </v>
  <v type="int" >        4 </v>
  <v type="int" >        6 </v>
  <v type="int" >        2 </v>
 </varray>
 <kpoints>
  <generation param="Gamma">
   <v type="int" name="divisions">      19       19        1 </v>
   <v name="usershift">      0.00000000       0.00000000       0.00000000 </v>
   <v name="genvec1">      0.05263158       0.00000000       0.00000000 </v>
   <v name="genvec2">      0.00000000       0.05263158       0.00000000 </v>
   <v name="genvec3">      0.00000000       0.00000000       1.00000000 </v>
   <v name="shift">      0.00000000       0.00000000       0.00000000 </v>
  </generation>
  <varray name="kpointlist" >
   <v>       0.00000000       0.00000000       0.00000000 </v>
   <v>       0.05263158       0.00000000       0.00000000 </v>
   <v>       0.10526316       0.00000000       0.00000000 </v>
   <v>       0.15789474       0.00000000       0.00000000 </v>
   <v>       0.21052632       0.00000000       0.00000000 </v>
   <v>       0.26315789       0.00000000       0.00000000 </v>
   <v>       0.31578947       0.00000000       0.00000000 </v>
   <v>       0.36842105       0.00000000       0.00000000 </v>
   <v>       0.42105263       0.00000000       0.00000000 </v>
   <v>       0.47368421       0.00000000       0.00000000 </v>
   <v>       0.00000000       0.05263158       0.00000000 </v>
   <v>       0.05263158       0.05263158       0.00000000 </v>
   <v>       0.10526316       0.05263158       0.00000000 </v>
   <v>       0.15789474       0.05263158       0.00000000 </v>
   <v>       0.21052632       0.05263158       0.00000000 </v>
   <v>       0.26315789       0.05263158       0.00000000 </v>
   <v>       0.31578947       0.05263158       0.00000000 </v>
   <v>       0.36842105       0.05263158       0.00000000 </v>
   <v>       0.42105263       0.05263158       0.00000000 </v>
   <v>       0.47368421       0.05263158       0.00000000 </v>
   <v>      -0.47368421       0.05263158       0.00000000 </v>
   <v>      -0.42105263       0.05263158       0.00000000 </v>
   <v>      -0.36842105       0.05263158       0.00000000 </v>
   <v>      -0.31578947       0.05263158       0.00000000 </v>
   <v>      -0.26315789       0.05263158       0.00000000 </v>
   <v>      -0.21052632       0.05263158       0.00000000 </v>
   <v>      -0.15789474       0.05263158       0.00000000 </v>
   <v>      -0.10526316       0.05263158       0.00000000 </v>
   <v>      -0.05263158       0.05263158       0.00000000 </v>
   <v>       0.00000000       0.10526316       0.00000000 </v>
   <v>       0.05263158       0.10526316       0.00000000 </v>
   <v>       0.10526316       0.10526316       0.00000000 </v>
   <v>       0.15789474       0.10526316       0.00000000 </v>
   <v>       0.21052632       0.10526316       0.00000000 </v>
   <v>       0.26315789       0.10526316       0.00000000 </v>
   <v>       0.31578947       0.10526316       0.00000000 </v>
   <v>       0.36842105       0.10526316       0.00000000 </v>
   <v>       0.42105263       0.10526316       0.00000000 </v>
   <v>       0.47368421       0.10526316       0.00000000 </v>
   <v>      -0.47368421       0.10526316       0.00000000 </v>
   <v>      -0.42105263       0.10526316       0.00000000 </v>
   <v>      -0.36842105       0.10526316       0.00000000 </v>
   <v>      -0.31578947       0.10526316       0.00000000 </v>
   <v>      -0.26315789       0.10526316       0.00000000 </v>
   <v>      -0.21052632       0.10526316       0.00000000 </v>
   <v>      -0.15789474       0.10526316       0.00000000 </v>
   <v>      -0.10526316       0.10526316       0.00000000 </v>
   <v>      -0.05263158       0.10526316       0.00000000 </v>
   <v>       0.00000000       0.15789474       0.00000000 </v>
   <v>       0.05263158       0.15789474       0.00000000 </v>
   <v>       0.10526316       0.15789474       0.00000000 </v>
   <v>       0.15789474       0.15789474       0.00000000 </v>
   <v>       0.21052632       0.15789474       0.00000000 </v>
   <v>       0.26315789       0.15789474       0.00000000 </v>
   <v>       0.31578947       0.15789474       0.00000000 </v>
   <v>       0.36842105       0.15789474       0.00000000 </v>
   <v>       0.42105263       0.15789474       0.00000000 </v>
   <v>       0.47368421       0.15789474       0.00000000 </v>
   <v>      -0.47368421       0.15789474       0.00000000 </v>
   <v>      -0.42105263       0.15789474       0.00000000 </v>
   <v>      -0.36842105       0.15789474       0.00000000 </v>
   <v>      -0.31578947       0.15789474       0.00000000 </v>
   <v>      -0.26315789       0.15789474       0.00000000 </v>
   <v>      -0.21052632       0.15789474       0.00000000 </v>
   <v>      -0.15789474       0.15789474       0.00000000 </v>
   <v>      -0.10526316       0.15789474       0.00000000 </v>
   <v>      -0.05263158       0.15789474       0.00000000 </v>
   <v>       0.00000000       0.21052632       0.00000000 </v>
   <v>       0.05263158       0.21052632       0.00000000 </v>
   <v>       0.10526316       0.21052632       0.00000000 </v>
   <v>       0.15789474       0.21052632       0.00000000 </v>
   <v>       0.21052632       0.21052632       0.00000000 </v>
   <v>       0.26315789       0.21052632       0.00000000 </v>
   <v>       0.31578947       0.21052632       0.00000000 </v>
   <v>       0.36842105       0.21052632       0.00000000 </v>
   <v>       0.42105263       0.21052632       0.00000000 </v>
   <v>       0.47368421       0.21052632       0.00000000 </v>
   <v>      -0.47368421       0.21052632       0.00000000 </v>
   <v>      -0.42105263       0.21052632       0.00000000 </v>
   <v>      -0.36842105       0.21052632       0.00000000 </v>
   <v>      -0.31578947       0.21052632       0.00000000 </v>
   <v>      -0.26315789       0.21052632       0.00000000 </v>
   <v>      -0.21052632       0.21052632       0.00000000 </v>
   <v>      -0.15789474       0.21052632       0.00000000 </v>
   <v>      -0.10526316       0.21052632       0.00000000 </v>
   <v>      -0.05263158       0.21052632       0.00000000 </v>
   <v>       0.00000000       0.26315789       0.00000000 </v>
   <v>       0.05263158       0.26315789       0.00000000 </v>
   <v>       0.10526316       0.26315789       0.00000000 </v>
   <v>       0.15789474       0.26315789       0.00000000 </v>
   <v>       0.21052632       0.26315789       0.00000000 </v>
   <v>       0.26315789       0.26315789       0.00000000 </v>
   <v>       0.31578947       0.26315789       0.00000000 </v>
   <v>       0.36842105       0.26315789       0.00000000 </v>
   <v>       0.42105263       0.26315789       0.00000000 </v>
   <v>       0.47368421       0.26315789       0.00000000 </v>
   <v>      -0.47368421       0.26315789       0.00000000 </v>
   <v>      -0.42105263       0.26315789       0.00000000 </v>
   <v>      -0.36842105       0.26315789       0.00000000 </v>
   <v>      -0.31578947       0.26315789       0.00000000 </v>
   <v>      -0.26315789       0.26315789       0.00000000 </v>
   <v>      -0.21052632       0.26315789       0.00000000 </v>
   <v>      -0.15789474       0.26315789       0.00000000 </v>
   <v>      -0.10526316       0.26315789       0.00000000 </v>
   <v>      -0.05263158       0.26315789       0.00000000 </v>
   <v>       0.00000000       0.31578947       0.00000000 </v>
   <v>       0.05263158       0.31578947       0.00000000 </v>
   <v>       0.10526316       0.31578947       0.00000000 </v>
   <v>       0.15789474       0.31578947       0.00000000 </v>
   <v>       0.21052632       0.31578947       0.00000000 </v>
   <v>       0.26315789       0.31578947       0.00000000 </v>
   <v>       0.31578947       0.31578947       0.00000000 </v>
   <v>       0.36842105       0.31578947       0.00000000 </v>
   <v>       0.42105263       0.31578947       0.00000000 </v>
   <v>       0.47368421       0.31578947       0.00000000 </v>
   <v>      -0.47368421       0.31578947       0.00000000 </v>
   <v>      -0.42105263       0.31578947       0.00000000 </v>
   <v>      -0.36842105       0.31578947       0.00000000 </v>
   <v>      -0.31578947       0.31578947       0.00000000 </v>
   <v>      -0.26315789       0.31578947       0.00000000 </v>
   <v>      -0.21052632       0.31578947       0.00000000 </v>
   <v>      -0.15789474       0.31578947       0.00000000 </v>
   <v>      -0.10526316       0.31578947       0.00000000 </v>
   <v>      -0.05263158       0.31578947       0.00000000 </v>
   <v>       0.00000000       0.36842105       0.00000000 </v>
   <v>       0.05263158       0.36842105       0.00000000 </v>
   <v>       0.10526316       0.36842105       0.00000000 </v>
   <v>       0.15789474       0.36842105       0.00000000 </v>
   <v>       0.21052632       0.36842105       0.00000000 </v>
   <v>       0.26315789       0.36842105       0.00000000 </v>
   <v>       0.31578947       0.36842105       0.00000000 </v>
   <v>       0.36842105       0.36842105       0.00000000 </v>
   <v>       0.42105263       0.36842105       0.00000000 </v>
   <v>       0.47368421       0.36842105       0.00000000 </v>
   <v>      -0.47368421       0.36842105       0.00000000 </v>
   <v>      -0.42105263       0.36842105       0.00000000 </v>
   <v>      -0.36842105       0.36842105       0.00000000 </v>
   <v>      -0.31578947       0.36842105       0.00000000 </v>
   <v>      -0.26315789       0.36842105       0.00000000 </v>
   <v>      -0.21052632       0.36842105       0.00000000 </v>
   <v>      -0.15789474       0.36842105       0.00000000 </v>
   <v>      -0.10526316       0.36842105       0.00000000 </v>
   <v>      -0.05263158       0.36842105       0.00000000 </v>
   <v>       0.00000000       0.42105263       0.00000000 </v>
   <v>       0.05263158       0.42105263       0.00000000 </v>
   <v>       0.10526316       0.42105263       0.00000000 </v>
   <v>       0.15789474       0.42105263       0.00000000 </v>
   <v>       0.21052632       0.42105263       0.00000000 </v>
   <v>       0.26315789       0.42105263       0.00000000 </v>
   <v>       0.31578947       0.42105263       0.00000000 </v>
   <v>       0.36842105       0.42105263       0.00000000 </v>
   <v>       0.42105263       0.42105263       0.00000000 </v>
   <v>       0.47368421       0.42105263       0.00000000 </v>
   <v>      -0.47368421       0.42105263       0.00000000 </v>
   <v>      -0.42105263       0.42105263       0.00000000 </v>
   <v>      -0.36842105       0.42105263       0.00000000 </v>
   <v>      -0.31578947       0.42105263       0.00000000 </v>
   <v>      -0.26315789       0.42105263       0.00000000 </v>
   <v>      -0.21052632       0.42105263       0.00000000 </v>
   <v>      -0.15789474       0.42105263       0.00000000 </v>
   <v>      -0.10526316       0.42105263       0.00000000 </v>
   <v>      -0.05263158       0.42105263       0.00000000 </v>
   <v>       0.00000000       0.47368421       0.00000000 </v>
   <v>       0.05263158       0.47368421       0.00000000 </v>
   <v>       0.10526316       0.47368421       0.00000000 </v>
   <v>       0.15789474       0.47368421       0.00000000 </v>
   <v>       0.21052632       0.47368421       0.00000000 </v>
   <v>       0.26315789       0.47368421       0.00000000 </v>
   <v>       0.31578947       0.47368421       0.00000000 </v>
   <v>       0.36842105       0.47368421       0.00000000 </v>
   <v>       0.42105263       0.47368421       0.00000000 </v>
   <v>       0.47368421       0.47368421       0.00000000 </v>
   <v>      -0.47368421       0.47368421       0.00000000 </v>
   <v>      -0.42105263       0.47368421       0.00000000 </v>
   <v>      -0.36842105       0.47368421       0.00000000 </v>
   <v>      -0.31578947       0.47368421       0.00000000 </v>
   <v>      -0.26315789       0.47368421       0.00000000 </v>
   <v>      -0.21052632       0.47368421       0.00000000 </v>
   <v>      -0.15789474       0.47368421       0.00000000 </v>
   <v>      -0.10526316       0.47368421       0.00000000 </v>
   <v>      -0.05263158       0.47368421       0.00000000 </v>
  </varray>
  <varray name="weights" >
   <v>       0.00277008 </v>
   <v>       0.00554017 </v>
   <v>       0.00554017 </v>
   <v>       0.00554017 </v>
   <v>       0.00554017 </v>
   <v>       0.00554017 </v>
   <v>       0.00554017 </v>
   <v>       0.00554017 </v>
   <v>       0.00554017 </v>
   <v>       0.00554017 </v>
   <v>       0.00554017 </v>
   <v>       0.00554017 </v>
   <v>       0.00554017 </v>
   <v>       0.00554017 </v>
   <v>       0.00554017 </v>
   <v>       0.00554017 </v>
   <v>       0.00554017 </v>
   <v>       0.00554017 </v>
   <v>       0.00554017 </v>
   <v>       0.00554017 </v>
   <v>       0.00554017 </v>
   <v>       0.00554017 </v>
   <v>       0.00554017 </v>
   <v>       0.00554017 </v>
   <v>       0.00554017 </v>
   <v>       0.00554017 </v>
   <v>       0.00554017 </v>
   <v>       0.00554017 </v>
   <v>       0.00554017 </v>
   <v>       0.00554017 </v>
   <v>       0.00554017 </v>
   <v>       0.00554017 </v>
   <v>       0.00554017 </v>
   <v>       0.00554017 </v>
   <v>       0.00554017 </v>
   <v>       0.00554017 </v>
   <v>       0.00554017 </v>
   <v>       0.00554017 </v>
   <v>       0.00554017 </v>
   <v>       0.00554017 </v>
   <v>       0.00554017 </v>
   <v>       0.00554017 </v>
   <v>       0.00554017 </v>
   <v>       0.00554017 </v>
   <v>       0.00554017 </v>
   <v>       0.00554017 </v>
   <v>       0.00554017 </v>
   <v>       0.00554017 </v>
   <v>       0.00554017 </v>
   <v>       0.00554017 </v>
   <v>       0.00554017 </v>
   <v>       0.00554017 </v>
   <v>       0.00554017 </v>
   <v>       0.00554017 </v>
   <v>       0.00554017 </v>
   <v>       0.00554017 </v>
   <v>       0.00554017 </v>
   <v>       0.00554017 </v>
   <v>       0.00554017 </v>
   <v>       0.00554017 </v>
   <v>       0.00554017 </v>
   <v>       0.00554017 </v>
   <v>       0.00554017 </v>
   <v>       0.00554017 </v>
   <v>       0.00554017 </v>
   <v>       0.00554017 </v>
   <v>       0.00554017 </v>
   <v>       0.00554017 </v>
   <v>       0.00554017 </v>
   <v>       0.00554017 </v>
   <v>       0.00554017 </v>
   <v>       0.00554017 </v>
   <v>       0.00554017 </v>
   <v>       0.00554017 </v>
   <v>       0.00554017 </v>
   <v>       0.00554017 </v>
   <v>       0.00554017 </v>
   <v>       0.00554017 </v>
   <v>       0.00554017 </v>
   <v>       0.00554017 </v>
   <v>       0.00554017 </v>
   <v>       0.00554017 </v>
   <v>       0.00554017 </v>
   <v>       0.00554017 </v>
   <v>       0.00554017 </v>
   <v>       0.00554017 </v>
   <v>       0.00554017 </v>
   <v>       0.00554017 </v>
   <v>       0.00554017 </v>
   <v>       0.00554017 </v>
   <v>       0.00554017 </v>
   <v>       0.00554017 </v>
   <v>       0.00554017 </v>
   <v>       0.00554017 </v>
   <v>       0.00554017 </v>
   <v>       0.00554017 </v>
   <v>       0.00554017 </v>
   <v>       0.00554017 </v>
   <v>       0.00554017 </v>
   <v>       0.00554017 </v>
   <v>       0.00554017 </v>
   <v>       0.00554017 </v>
   <v>       0.00554017 </v>
   <v>       0.00554017 </v>
   <v>       0.00554017 </v>
   <v>       0.00554017 </v>
   <v>       0.00554017 </v>
   <v>       0.00554017 </v>
   <v>       0.00554017 </v>
   <v>       0.00554017 </v>
   <v>       0.00554017 </v>
   <v>       0.00554017 </v>
   <v>       0.00554017 </v>
   <v>       0.00554017 </v>
   <v>       0.00554017 </v>
   <v>       0.00554017 </v>
   <v>       0.00554017 </v>
   <v>       0.00554017 </v>
   <v>       0.00554017 </v>
   <v>       0.00554017 </v>
   <v>       0.00554017 </v>
   <v>       0.00554017 </v>
   <v>       0.00554017 </v>
   <v>       0.00554017 </v>
   <v>       0.00554017 </v>
   <v>       0.00554017 </v>
   <v>       0.00554017 </v>
   <v>       0.00554017 </v>
   <v>       0.00554017 </v>
   <v>       0.00554017 </v>
   <v>       0.00554017 </v>
   <v>       0.00554017 </v>
   <v>       0.00554017 </v>
   <v>       0.00554017 </v>
   <v>       0.00554017 </v>
   <v>       0.00554017 </v>
   <v>       0.00554017 </v>
   <v>       0.00554017 </v>
   <v>       0.00554017 </v>
   <v>       0.00554017 </v>
   <v>       0.00554017 </v>
   <v>       0.00554017 </v>
   <v>       0.00554017 </v>
   <v>       0.00554017 </v>
   <v>       0.00554017 </v>
   <v>       0.00554017 </v>
   <v>       0.00554017 </v>
   <v>       0.00554017 </v>
   <v>       0.00554017 </v>
   <v>       0.00554017 </v>
   <v>       0.00554017 </v>
   <v>       0.00554017 </v>
   <v>       0.00554017 </v>
   <v>       0.00554017 </v>
   <v>       0.00554017 </v>
   <v>       0.00554017 </v>
   <v>       0.00554017 </v>
   <v>       0.00554017 </v>
   <v>       0.00554017 </v>
   <v>       0.00554017 </v>
   <v>       0.00554017 </v>
   <v>       0.00554017 </v>
   <v>       0.00554017 </v>
   <v>       0.00554017 </v>
   <v>       0.00554017 </v>
   <v>       0.00554017 </v>
   <v>       0.00554017 </v>
   <v>       0.00554017 </v>
   <v>       0.00554017 </v>
   <v>       0.00554017 </v>
   <v>       0.00554017 </v>
   <v>       0.00554017 </v>
   <v>       0.00554017 </v>
   <v>       0.00554017 </v>
   <v>       0.00554017 </v>
   <v>       0.00554017 </v>
   <v>       0.00554017 </v>
   <v>       0.00554017 </v>
   <v>       0.00554017 </v>
   <v>       0.00554017 </v>
   <v>       0.00554017 </v>
  </varray>
 </kpoints>
 <parameters>
  <separator name="general" >
   <i type="string" name="SYSTEM">BC3</i>
   <i type="logical" name="LCOMPAT"> F  </i>
  </separator>
  <separator name="electronic" >
   <i type="string" name="PREC">accura</i>
   <i name="ENMAX">    450.00000000</i>
   <i name="ENAUG">    644.87300000</i>
   <i name="EDIFF">      0.00000100</i>
   <i type="int" name="IALGO">    38</i>
   <i type="int" name="IWAVPR">    11</i>
   <i type="int" name="NBANDS">    32</i>
   <i name="NELECT">     30.00000000</i>
   <i type="int" name="TURBO">     0</i>
   <i type="int" name="IRESTART">     0</i>
   <i type="int" name="NREBOOT">     0</i>
   <i type="int" name="NMIN">     0</i>
   <i name="EREF">      0.00000000</i>
   <separator name="electronic smearing" >
    <i type="int" name="ISMEAR">     0</i>
    <i name="SIGMA">      0.10000000</i>
    <i name="KSPACING">      0.50000000</i>
    <i type="logical" name="KGAMMA"> T  </i>
   </separator>
   <separator name="electronic projectors" >
    <i type="logical" name="LREAL"> F  </i>
    <v name="ROPT">      0.00000000      0.00000000</v>
    <i type="int" name="LMAXPAW">  -100</i>
    <i type="int" name="LMAXMIX">     2</i>
    <i type="logical" name="NLSPLINE"> F  </i>
   </separator>
   <separator name="electronic startup" >
    <i type="int" name="ISTART">     0</i>
    <i type="int" name="ICHARG">     2</i>
    <i type="int" name="INIWAV">     1</i>
   </separator>
   <separator name="electronic spin" >
    <i type="int" name="ISPIN">     1</i>
    <i type="logical" name="LNONCOLLINEAR"> F  </i>
    <v name="MAGMOM">      1.00000000      1.00000000      1.00000000      1.00000000      1.00000000      1.00000000      1.00000000      1.00000000</v>
    <i name="NUPDOWN">     -1.00000000</i>
    <i type="logical" name="LSORBIT"> F  </i>
    <v name="SAXIS">      0.00000000      0.00000000      1.00000000</v>
    <i type="logical" name="LSPIRAL"> F  </i>
    <v name="QSPIRAL">      0.00000000      0.00000000      0.00000000</v>
    <i type="logical" name="LZEROZ"> F  </i>
   </separator>
   <separator name="electronic exchange-correlation" >
    <i type="logical" name="LASPH"> F  </i>
    <i type="logical" name="LMETAGGA"> F  </i>
   </separator>
   <separator name="electronic convergence" >
    <i type="int" name="NELM">    60</i>
    <i type="int" name="NELMDL">    -5</i>
    <i type="int" name="NELMIN">     2</i>
    <i name="ENINI">    450.00000000</i>
    <separator name="electronic convergence detail" >
     <i type="logical" name="LDIAG"> T  </i>
     <i type="logical" name="LSUBROT"> F  </i>
     <i name="WEIMIN">      0.00100000</i>
     <i name="EBREAK">      0.00000001</i>
     <i name="DEPER">      0.30000000</i>
     <i type="int" name="NRMM">     4</i>
     <i name="TIME">      0.40000000</i>
    </separator>
   </separator>
   <separator name="electronic mixer" >
    <i name="AMIX">      0.40000000</i>
    <i name="BMIX">      1.00000000</i>
    <i name="AMIN">      0.10000000</i>
    <i name="AMIX_MAG">      1.60000000</i>
    <i name="BMIX_MAG">      1.00000000</i>
    <separator name="electronic mixer details" >
     <i type="int" name="IMIX">     4</i>
     <i type="logical" name="MIXFIRST"> F  </i>
     <i type="int" name="MAXMIX">   -45</i>
     <i name="WC">    100.00000000</i>
     <i type="int" name="INIMIX">     1</i>
     <i type="int" name="MIXPRE">     1</i>
     <i type="int" name="MREMOVE">     5</i>
    </separator>
   </separator>
   <separator name="electronic dipolcorrection" >
    <i type="logical" name="LDIPOL"> F  </i>
    <i type="logical" name="LMONO"> F  </i>
    <i type="int" name="IDIPOL">     0</i>
    <i name="EPSILON">      1.00000000</i>
    <v name="DIPOL">   -100.00000000   -100.00000000   -100.00000000</v>
    <i name="EFIELD">      0.00000000</i>
   </separator>
  </separator>
  <separator name="grids" >
   <i type="int" name="NGX">    36</i>
   <i type="int" name="NGY">    36</i>
   <i type="int" name="NGZ">   108</i>
   <i type="int" name="NGXF">    72</i>
   <i type="int" name="NGYF">    72</i>
   <i type="int" name="NGZF">   216</i>
   <i type="logical" name="ADDGRID"> F  </i>
  </separator>
  <separator name="ionic" >
   <i type="int" name="NSW">   100</i>
   <i type="int" name="IBRION">     2</i>
   <i type="int" name="MDALGO">     0</i>
   <i type="int" name="ISIF">     2</i>
   <i name="PSTRESS">      0.00000000</i>
   <i name="EDIFFG">     -0.01000000</i>
   <i type="int" name="NFREE">     1</i>
   <i name="POTIM">      0.50000000</i>
   <i name="SMASS">     -3.00000000</i>
   <i name="SCALEE">      1.00000000</i>
  </separator>
  <separator name="ionic md" >
   <i name="TEBEG">      0.00010000</i>
   <i name="TEEND">      0.00010000</i>
   <i type="int" name="NBLOCK">     1</i>
   <i type="int" name="KBLOCK">   100</i>
   <i type="int" name="NPACO">   256</i>
   <i name="APACO">     16.00000000</i>
  </separator>
  <separator name="symmetry" >
   <i type="int" name="ISYM">     2</i>
   <i name="SYMPREC">      0.00001000</i>
  </separator>
  <separator name="dos" >
   <i type="int" name="LORBIT">     0</i>
   <v name="RWIGS">     -1.00000000     -1.00000000</v>
   <i type="int" name="NEDOS">   301</i>
   <i name="EMIN">     10.00000000</i>
   <i name="EMAX">    -10.00000000</i>
   <i name="EFERMI">      0.00000000</i>
  </separator>
  <separator name="writing" >
   <i type="int" name="NWRITE">     2</i>
   <i type="logical" name="LWAVE"> F  </i>
   <i type="logical" name="LDOWNSAMPLE"> F  </i>
   <i type="logical" name="LCHARG"> F  </i>
   <i type="logical" name="LPARD"> F  </i>
   <i type="logical" name="LVTOT"> F  </i>
   <i type="logical" name="LVHAR"> F  </i>
   <i type="logical" name="LELF"> F  </i>
   <i type="logical" name="LOPTICS"> F  </i>
   <v name="STM">      0.00000000      0.00000000      0.00000000      0.00000000      0.00000000      0.00000000      0.00000000</v>
  </separator>
  <separator name="performance" >
   <i type="int" name="NPAR">    16</i>
   <i type="int" name="NSIM">     4</i>
   <i type="int" name="NBLK">    -1</i>
   <i type="logical" name="LPLANE"> T  </i>
   <i type="logical" name="LSCALAPACK"> T  </i>
   <i type="logical" name="LSCAAWARE"> F  </i>
   <i type="logical" name="LSCALU"> F  </i>
   <i type="logical" name="LASYNC"> F  </i>
   <i type="logical" name="LORBITALREAL"> F  </i>
  </separator>
  <separator name="miscellaneous" >
   <i type="int" name="IDIOT">     3</i>
   <i type="int" name="ISPECIAL">     0</i>
   <i type="logical" name="LMUSIC"> F  </i>
   <v name="POMASS">     10.81100000     12.01100000</v>
   <v name="DARWINR">      0.00000000      0.00000000</v>
   <v name="DARWINV">      1.00000000      1.00000000</v>
   <i type="logical" name="LCORR"> T  </i>
  </separator>
  <i type="logical" name="GGA_COMPAT"> T  </i>
  <i type="logical" name="LBERRY"> F  </i>
  <i type="int" name="ICORELEVEL">     0</i>
  <i type="logical" name="LDAU"> F  </i>
  <i type="int" name="I_CONSTRAINED_M">     0</i>
  <separator name="electronic exchange-correlation" >
   <i type="string" name="GGA">PE</i>
   <i type="int" name="VOSKOWN">     0</i>
   <i type="logical" name="LHFCALC"> F  </i>
   <i type="string" name="PRECFOCK"></i>
   <i type="logical" name="LSYMGRAD"> F  </i>
   <i type="logical" name="LHFONE"> F  </i>
   <i type="logical" name="LRHFCALC"> F  </i>
   <i type="logical" name="LTHOMAS"> F  </i>
   <i type="logical" name="LMODELHF"> F  </i>
   <i name="ENCUT4O">     -1.00000000</i>
   <i type="int" name="EXXOEP">     0</i>
   <i type="int" name="FOURORBIT">     0</i>
   <i name="AEXX">      0.00000000</i>
   <i name="HFALPHA">      0.00000000</i>
   <i name="MCALPHA">      0.00000000</i>
   <i name="ALDAX">      1.00000000</i>
   <i name="AGGAX">      1.00000000</i>
   <i name="ALDAC">      1.00000000</i>
   <i name="AGGAC">      1.00000000</i>
   <i type="int" name="NKREDX">     1</i>
   <i type="int" name="NKREDY">     1</i>
   <i type="int" name="NKREDZ">     1</i>
   <i type="logical" name="SHIFTRED"> F  </i>
   <i type="logical" name="ODDONLY"> F  </i>
   <i type="logical" name="EVENONLY"> F  </i>
   <i type="int" name="LMAXFOCK">     0</i>
   <i type="int" name="NMAXFOCKAE">     0</i>
   <i type="logical" name="LFOCKAEDFT"> F  </i>
   <i name="HFSCREEN">      0.00000000</i>
   <i name="HFSCREENC">      0.00000000</i>
   <i type="int" name="NBANDSGWLOW">     0</i>
  </separator>
  <separator name="vdW DFT" >
   <i type="logical" name="LUSE_VDW"> F  </i>
   <i name="Zab_VDW">     -0.84910000</i>
   <i name="PARAM1">      0.12340000</i>
   <i name="PARAM2">      1.00000000</i>
   <i name="PARAM3">      0.00000000</i>
  </separator>
  <separator name="model GW" >
   <i type="int" name="MODEL_GW">     0</i>
   <i name="MODEL_EPS0">     26.03131984</i>
   <i name="MODEL_ALPHA">      1.00000000</i>
  </separator>
  <separator name="linear response parameters" >
   <i type="logical" name="LEPSILON"> F  </i>
   <i type="logical" name="LRPA"> F  </i>
   <i type="logical" name="LNABLA"> F  </i>
   <i type="logical" name="LVEL"> F  </i>
   <i type="int" name="KINTER">     0</i>
   <i name="CSHIFT">      0.10000000</i>
   <i name="OMEGAMAX">     -1.00000000</i>
   <i name="DEG_THRESHOLD">      0.00200000</i>
   <i name="RTIME">     -0.10000000</i>
   <i name="WPLASMAI">      0.00000000</i>
   <v name="DFIELD">      0.00000000      0.00000000      0.00000000</v>
   <v name="WPLASMA">      0.00000000      0.00000000      0.00000000      0.00000000      0.00000000      0.00000000      0.00000000      0.00000000      0.00000000</v>
  </separator>
  <separator name="orbital magnetization" >
   <i type="logical" name="NUCIND"> F  </i>
   <v name="MAGPOS">      0.00000000      0.00000000      0.00000000</v>
   <i type="logical" name="LNICSALL"> T  </i>
   <i type="logical" name="ORBITALMAG"> F  </i>
   <i type="logical" name="LMAGBLOCH"> F  </i>
   <i type="logical" name="LCHIMAG"> F  </i>
   <i type="logical" name="LGAUGE"> T  </i>
   <i type="int" name="MAGATOM">     0</i>
   <v name="MAGDIPOL">      0.00000000      0.00000000      0.00000000</v>
   <v name="AVECCONST">      0.00000000      0.00000000      0.00000000</v>
  </separator>
  <separator name="response functions" >
   <i type="logical" name="LADDER"> F  </i>
   <i type="logical" name="LRPAFORCE"> F  </i>
   <i type="logical" name="LFXC"> F  </i>
   <i type="logical" name="LHARTREE"> T  </i>
   <i type="int" name="IBSE">     0</i>
   <v type="int" name="KPOINT">    -1     0     0     0</v>
   <i type="logical" name="LTCTE"> F  </i>
   <i type="logical" name="LTETE"> F  </i>
   <i type="logical" name="LTRIPLET"> F  </i>
   <i type="logical" name="LFXCEPS"> F  </i>
   <i type="logical" name="LFXHEG"> F  </i>
   <i type="int" name="NATURALO">     2</i>
   <i type="logical" name="L2ORDER"> F  </i>
   <i type="logical" name="LMP2LT"> F  </i>
   <i type="logical" name="LUSEW"> F  </i>
   <i name="ENCUTGW">     -2.00000000</i>
   <i name="ENCUTGWSOFT">     -2.00000000</i>
   <i name="ENCUTLF">     -1.00000000</i>
   <i type="int" name="LMAXMP2">    -1</i>
   <i name="SCISSOR">      0.00000000</i>
   <i type="int" name="NOMEGA">     0</i>
   <i type="int" name="NOMEGAR">     0</i>
   <i type="int" name="NBANDSGW">    -1</i>
   <i type="int" name="NBANDSO">    -1</i>
   <i type="int" name="NBANDSV">    -1</i>
   <i type="int" name="NELM">     1</i>
   <i type="int" name="NELMHF">     1</i>
   <i type="int" name="DIM">     3</i>
   <i type="int" name="ANTIRES">     0</i>
   <i name="OMEGAMAX">    -30.00000000</i>
   <i name="OMEGAMIN">    -30.00000000</i>
   <i name="OMEGATL">   -200.00000000</i>
   <i type="int" name="OMEGAGRID">   140</i>
   <i name="CSHIFT">     -0.10000000</i>
   <i type="logical" name="SELFENERGY"> F  </i>
   <i type="logical" name="LSPECTRAL"> F  </i>
   <i type="logical" name="LSPECTRALGW"> F  </i>
   <i type="logical" name="LSINGLES"> F  </i>
   <i type="logical" name="LFERMIGW"> F  </i>
   <i type="logical" name="ODDONLYGW"> F  </i>
   <i type="logical" name="EVENONLYGW"> F  </i>
   <i type="int" name="NKREDLFX">     1</i>
   <i type="int" name="NKREDLFY">     1</i>
   <i type="int" name="NKREDLFZ">     1</i>
   <i type="int" name="MAXMEM">  2800</i>
   <i type="int" name="TELESCOPE">     0</i>
   <i type="int" name="TAUPAR">     1</i>
   <i type="int" name="OMEGAPAR">    -1</i>
   <i name="LAMBDA">      1.00000000</i>
  </separator>
  <separator name="External order field" >
   <i name="OFIELD_KAPPA">      0.00000000</i>
   <v name="OFIELD_K">      0.00000000      0.00000000      0.00000000</v>
   <i name="OFIELD_Q6_NEAR">      0.00000000</i>
   <i name="OFIELD_Q6_FAR">      0.00000000</i>
   <i name="OFIELD_A">      0.00000000</i>
  </separator>
 </parameters>
 <atominfo>
  <atoms>       8 </atoms>
  <types>       2 </types>
  <array name="atoms" >
   <dimension dim="1">ion</dimension>
   <field type="string">element</field>
   <field type="int">atomtype</field>
   <set>
    <rc><c>B </c><c>   1</c></rc>
    <rc><c>B </c><c>   1</c></rc>
    <rc><c>C </c><c>   2</c></rc>
    <rc><c>C </c><c>   2</c></rc>
    <rc><c>C </c><c>   2</c></rc>
    <rc><c>C </c><c>   2</c></rc>
    <rc><c>C </c><c>   2</c></rc>
    <rc><c>C </c><c>   2</c></rc>
   </set>
  </array>
  <array name="atomtypes" >
   <dimension dim="1">type</dimension>
   <field type="int">atomspertype</field>
   <field type="string">element</field>
   <field>mass</field>
   <field>valence</field>
   <field type="string">pseudopotential</field>
   <set>
    <rc><c>   2</c><c>B </c><c>     10.81100000</c><c>      3.00000000</c><c>  PAW_PBE B 06Sep2000                   </c></rc>
    <rc><c>   6</c><c>C </c><c>     12.01100000</c><c>      4.00000000</c><c>  PAW_PBE C 08Apr2002                   </c></rc>
   </set>
  </array>
 </atominfo>
 <structure name="initialpos" >
  <crystal>
   <varray name="basis" >
    <v>       4.47648500       2.58450000       0.00000000 </v>
    <v>      -4.47648500       2.58450000       0.00000000 </v>
    <v>       0.00000000       0.00000000      15.00000000 </v>
   </varray>
   <i name="volume">    347.08426447 </i>
   <varray name="rec_basis" >
    <v>       0.11169478       0.19346102       0.00000000 </v>
    <v>      -0.11169478       0.19346102       0.00000000 </v>
    <v>       0.00000000       0.00000000       0.06666667 </v>
   </varray>
  </crystal>
  <varray name="positions" >
   <v>       0.33833034       0.66916432       0.25000000 </v>
   <v>       0.67165522       0.33584146       0.25000000 </v>
   <v>       0.16373946       0.31999962       0.25000000 </v>
   <v>       0.32250218       0.16126397       0.25000000 </v>
   <v>       0.16376430       0.84376384       0.25000000 </v>
   <v>       0.84623863       0.16123684       0.25000000 </v>
   <v>       0.68749850       0.84373000       0.25000000 </v>
   <v>       0.84626736       0.68499594       0.25000000 </v>
  </varray>
 </structure>
 <calculation>
  <scstep>
   <time name="dav">   13.67   13.68</time>
   <time name="total">   13.74   13.74</time>
   <energy>
    <i name="alphaZ">     14.61461864 </i>
    <i name="ewald">   2603.47533640 </i>
    <i name="hartreedc">  -3361.43975615 </i>
    <i name="XCdc">     91.18491800 </i>
    <i name="pawpsdc">    738.13200929 </i>
    <i name="pawaedc">   -739.83780425 </i>
    <i name="eentropy">     -0.01578484 </i>
    <i name="bandstr">   -190.26923698 </i>
    <i name="atom">   1025.20389953 </i>
    <i name="e_fr_energy">    181.04819963 </i>
    <i name="e_wo_entrp">    181.06398447 </i>
    <i name="e_0_energy">    181.05609205 </i>
   </energy>
  </scstep>
  <scstep>
   <time name="dav">   20.44   20.46</time>
   <time name="total">   20.44   20.46</time>
   <energy>
    <i name="e_fr_energy">    -50.49121440 </i>
    <i name="e_wo_entrp">    -50.49013980 </i>
    <i name="e_0_energy">    -50.49067710 </i>
   </energy>
  </scstep>
  <scstep>
   <time name="dav">   17.53   17.53</time>
   <time name="total">   17.53   17.53</time>
   <energy>
    <i name="e_fr_energy">    -72.93607183 </i>
    <i name="e_wo_entrp">    -72.93607183 </i>
    <i name="e_0_energy">    -72.93607183 </i>
   </energy>
  </scstep>
  <scstep>
   <time name="dav">   17.70   17.71</time>
   <time name="total">   17.70   17.71</time>
   <energy>
    <i name="e_fr_energy">    -73.46942266 </i>
    <i name="e_wo_entrp">    -73.46942266 </i>
    <i name="e_0_energy">    -73.46942266 </i>
   </energy>
  </scstep>
  <scstep>
   <time name="dav">   16.42   16.42</time>
   <time name="total">   16.97   16.98</time>
   <energy>
    <i name="e_fr_energy">    -73.48147532 </i>
    <i name="e_wo_entrp">    -73.48147532 </i>
    <i name="e_0_energy">    -73.48147532 </i>
   </energy>
  </scstep>
  <scstep>
   <time name="dav">   18.06   18.06</time>
   <time name="total">   18.67   18.67</time>
   <energy>
    <i name="e_fr_energy">    -68.97559346 </i>
    <i name="e_wo_entrp">    -68.97559346 </i>
    <i name="e_0_energy">    -68.97559346 </i>
   </energy>
  </scstep>
  <scstep>
   <time name="dav">   18.02   18.02</time>
   <time name="total">   18.63   18.63</time>
   <energy>
    <i name="e_fr_energy">    -67.33157043 </i>
    <i name="e_wo_entrp">    -67.33157043 </i>
    <i name="e_0_energy">    -67.33157043 </i>
   </energy>
  </scstep>
  <scstep>
   <time name="dav">   17.20   17.20</time>
   <time name="total">   17.82   17.82</time>
   <energy>
    <i name="e_fr_energy">    -67.25188883 </i>
    <i name="e_wo_entrp">    -67.25188882 </i>
    <i name="e_0_energy">    -67.25188882 </i>
   </energy>
  </scstep>
  <scstep>
   <time name="dav">   16.43   16.44</time>
   <time name="total">   17.04   17.05</time>
   <energy>
    <i name="e_fr_energy">    -67.23691689 </i>
    <i name="e_wo_entrp">    -67.23691687 </i>
    <i name="e_0_energy">    -67.23691688 </i>
   </energy>
  </scstep>
  <scstep>
   <time name="dav">   16.65   16.65</time>
   <time name="total">   17.26   17.26</time>
   <energy>
    <i name="e_fr_energy">    -67.22587356 </i>
    <i name="e_wo_entrp">    -67.22587353 </i>
    <i name="e_0_energy">    -67.22587354 </i>
   </energy>
  </scstep>
  <scstep>
   <time name="dav">   17.45   17.45</time>
   <time name="total">   18.06   18.06</time>
   <energy>
    <i name="e_fr_energy">    -67.22520859 </i>
    <i name="e_wo_entrp">    -67.22520855 </i>
    <i name="e_0_energy">    -67.22520857 </i>
   </energy>
  </scstep>
  <scstep>
   <time name="dav">   14.73   14.73</time>
   <time name="total">   15.34   15.34</time>
   <energy>
    <i name="e_fr_energy">    -67.22316819 </i>
    <i name="e_wo_entrp">    -67.22316814 </i>
    <i name="e_0_energy">    -67.22316817 </i>
   </energy>
  </scstep>
  <scstep>
   <time name="dav">   16.19   16.20</time>
   <time name="total">   16.80   16.81</time>
   <energy>
    <i name="e_fr_energy">    -67.22591560 </i>
    <i name="e_wo_entrp">    -67.22591554 </i>
    <i name="e_0_energy">    -67.22591557 </i>
   </energy>
  </scstep>
  <scstep>
   <time name="dav">   16.80   16.82</time>
   <time name="total">   17.41   17.43</time>
   <energy>
    <i name="e_fr_energy">    -67.22881354 </i>
    <i name="e_wo_entrp">    -67.22881349 </i>
    <i name="e_0_energy">    -67.22881352 </i>
   </energy>
  </scstep>
  <scstep>
   <time name="dav">   16.94   16.94</time>
   <time name="total">   17.54   17.55</time>
   <energy>
    <i name="e_fr_energy">    -67.22904010 </i>
    <i name="e_wo_entrp">    -67.22904005 </i>
    <i name="e_0_energy">    -67.22904008 </i>
   </energy>
  </scstep>
  <scstep>
   <time name="dav">   15.82   15.84</time>
   <time name="total">   16.42   16.45</time>
   <energy>
    <i name="e_fr_energy">    -67.22961174 </i>
    <i name="e_wo_entrp">    -67.22961169 </i>
    <i name="e_0_energy">    -67.22961172 </i>
   </energy>
  </scstep>
  <scstep>
   <time name="dav">   15.95   15.95</time>
   <time name="total">   16.55   16.56</time>
   <energy>
    <i name="e_fr_energy">    -67.22966184 </i>
    <i name="e_wo_entrp">    -67.22966179 </i>
    <i name="e_0_energy">    -67.22966182 </i>
   </energy>
  </scstep>
  <scstep>
   <time name="dav">   14.12   14.12</time>
   <time name="total">   14.72   14.73</time>
   <energy>
    <i name="e_fr_energy">    -67.22969072 </i>
    <i name="e_wo_entrp">    -67.22969067 </i>
    <i name="e_0_energy">    -67.22969069 </i>
   </energy>
  </scstep>
  <scstep>
   <time name="dav">   13.80   13.80</time>
   <time name="total">   14.41   14.41</time>
   <energy>
    <i name="e_fr_energy">    -67.22969251 </i>
    <i name="e_wo_entrp">    -67.22969245 </i>
    <i name="e_0_energy">    -67.22969248 </i>
   </energy>
  </scstep>
  <scstep>
   <time name="dav">   11.73   11.74</time>
   <time name="total">   11.79   11.80</time>
   <energy>
    <i name="alphaZ">     14.61461864 </i>
    <i name="ewald">   2603.47533640 </i>
    <i name="hartreedc">  -3498.85853428 </i>
    <i name="XCdc">     96.07904769 </i>
    <i name="pawpsdc">   2906.45481186 </i>
    <i name="pawaedc">  -2908.98731219 </i>
    <i name="eentropy">     -0.00000005 </i>
    <i name="bandstr">   -305.21156109 </i>
    <i name="atom">   1025.20389953 </i>
    <i name="e_fr_energy">    -67.22969350 </i>
    <i name="e_wo_entrp">    -67.22969345 </i>
    <i name="e_0_energy">    -67.22969347 </i>
   </energy>
  </scstep>
  <structure>
   <crystal>
    <varray name="basis" >
     <v>       4.47648500       2.58450000       0.00000000 </v>
     <v>      -4.47648500       2.58450000       0.00000000 </v>
     <v>       0.00000000       0.00000000      15.00000000 </v>
    </varray>
    <i name="volume">    347.08426447 </i>
    <varray name="rec_basis" >
     <v>       0.11169478       0.19346102       0.00000000 </v>
     <v>      -0.11169478       0.19346102       0.00000000 </v>
     <v>       0.00000000       0.00000000       0.06666667 </v>
    </varray>
   </crystal>
   <varray name="positions" >
    <v>       0.33833034       0.66916432       0.25000000 </v>
    <v>       0.67165522       0.33584146       0.25000000 </v>
    <v>       0.16373946       0.31999962       0.25000000 </v>
    <v>       0.32250218       0.16126397       0.25000000 </v>
    <v>       0.16376430       0.84376384       0.25000000 </v>
    <v>       0.84623863       0.16123684       0.25000000 </v>
    <v>       0.68749850       0.84373000       0.25000000 </v>
    <v>       0.84626736       0.68499594       0.25000000 </v>
   </varray>
  </structure>
  <varray name="forces" >
   <v>       0.00031549       0.00043641       0.00000000 </v>
   <v>       0.00425133       0.00025253       0.00000000 </v>
   <v>      -0.00013648       0.00011474       0.00000000 </v>
   <v>      -0.00003182      -0.00083452       0.00000000 </v>
   <v>       0.00114463      -0.00037620       0.00000000 </v>
   <v>      -0.00183920      -0.00022552       0.00000000 </v>
   <v>      -0.00141452       0.00140159       0.00000000 </v>
   <v>      -0.00228941      -0.00076903       0.00000000 </v>
  </varray>
  <varray name="stress" >
   <v>      -0.78640551       0.00227267       0.00000000 </v>
   <v>       0.00227268      -0.78177468       0.00000000 </v>
   <v>       0.00000000       0.00000000      -0.86879176 </v>
  </varray>
  <energy>
   <i name="e_fr_energy">    -67.90773029 </i>
   <i name="e_wo_entrp">    -67.90773026 </i>
   <i name="e_0_energy">     -0.00000005 </i>
  </energy>
  <time name="totalsc">  347.98  348.12</time>
  <eigenvalues>
   <array>
    <dimension dim="1">band</dimension>
    <dimension dim="2">kpoint</dimension>
    <dimension dim="3">spin</dimension>
    <field>eigene</field>
    <field>occ</field>
    <set>
     <set comment="spin 1">
      <set comment="kpoint 1">
       <r>  -19.8849    1.0000 </r>
       <r>  -15.9833    1.0000 </r>
       <r>  -15.9831    1.0000 </r>
       <r>  -13.6419    1.0000 </r>
       <r>  -13.6418    1.0000 </r>
       <r>  -12.5734    1.0000 </r>
       <r>  -11.2501    1.0000 </r>
       <r>   -8.6888    1.0000 </r>
       <r>   -8.4567    1.0000 </r>
       <r>   -6.3045    1.0000 </r>
       <r>   -6.3041    1.0000 </r>
       <r>   -4.4808    1.0000 </r>
       <r>   -4.4807    1.0000 </r>
       <r>   -3.7922    1.0000 </r>
       <r>   -3.7917    1.0000 </r>
       <r>   -1.9639    0.0000 </r>
       <r>   -0.2278    0.0000 </r>
       <r>   -0.2277    0.0000 </r>
       <r>    0.4317    0.0000 </r>
       <r>    0.8404    0.0000 </r>
       <r>    1.8450    0.0000 </r>
       <r>    2.2443    0.0000 </r>
       <r>    4.2358    0.0000 </r>
       <r>    4.8402    0.0000 </r>
       <r>    5.0087    0.0000 </r>
       <r>    5.0092    0.0000 </r>
       <r>    6.2957    0.0000 </r>
       <r>    6.7700    0.0000 </r>
       <r>    6.7707    0.0000 </r>
       <r>    7.8740    0.0000 </r>
       <r>    8.0497    0.0000 </r>
       <r>    8.1328    0.0000 </r>
      </set>
      <set comment="kpoint 2">
       <r>  -19.8740    1.0000 </r>
       <r>  -16.0382    1.0000 </r>
       <r>  -16.0008    1.0000 </r>
       <r>  -13.6569    1.0000 </r>
       <r>  -13.6017    1.0000 </r>
       <r>  -12.5194    1.0000 </r>
       <r>  -11.1847    1.0000 </r>
       <r>   -8.6723    1.0000 </r>
       <r>   -8.4795    1.0000 </r>
       <r>   -6.3542    1.0000 </r>
       <r>   -6.3139    1.0000 </r>
       <r>   -4.5313    1.0000 </r>
       <r>   -4.4893    1.0000 </r>
       <r>   -3.8496    1.0000 </r>
       <r>   -3.8196    1.0000 </r>
       <r>   -2.0562    0.0000 </r>
       <r>   -0.2037    0.0000 </r>
       <r>   -0.0899    0.0000 </r>
       <r>    0.4779    0.0000 </r>
       <r>    0.8611    0.0000 </r>
       <r>    1.8674    0.0000 </r>
       <r>    2.2650    0.0000 </r>
       <r>    4.2562    0.0000 </r>
       <r>    4.8623    0.0000 </r>
       <r>    5.0387    0.0000 </r>
       <r>    5.0746    0.0000 </r>
       <r>    6.3157    0.0000 </r>
       <r>    6.7751    0.0000 </r>
       <r>    6.8342    0.0000 </r>
       <r>    7.4109    0.0000 </r>
       <r>    7.7726    0.0000 </r>
       <r>    7.7745    0.0000 </r>
      </set>
      <set comment="kpoint 3">
       <r>  -19.8416    1.0000 </r>
       <r>  -16.1889    1.0000 </r>
       <r>  -16.0494    1.0000 </r>
       <r>  -13.7047    1.0000 </r>
       <r>  -13.4861    1.0000 </r>
       <r>  -12.3587    1.0000 </r>
       <r>  -10.9988    1.0000 </r>
       <r>   -8.6229    1.0000 </r>
       <r>   -8.5496    1.0000 </r>
       <r>   -6.4994    1.0000 </r>
       <r>   -6.3373    1.0000 </r>
       <r>   -4.6779    1.0000 </r>
       <r>   -4.5133    1.0000 </r>
       <r>   -4.0185    1.0000 </r>
       <r>   -3.9008    1.0000 </r>
       <r>   -2.2609    0.0000 </r>
       <r>   -0.1338    0.0000 </r>
       <r>    0.2208    0.0000 </r>
       <r>    0.6401    0.0000 </r>
       <r>    0.9231    0.0000 </r>
       <r>    1.9353    0.0000 </r>
       <r>    2.3274    0.0000 </r>
       <r>    4.3174    0.0000 </r>
       <r>    4.9249    0.0000 </r>
       <r>    5.1212    0.0000 </r>
       <r>    5.2680    0.0000 </r>
       <r>    6.3231    0.0000 </r>
       <r>    6.7076    0.0000 </r>
       <r>    6.9237    0.0000 </r>
       <r>    7.0167    0.0000 </r>
       <r>    7.5226    0.0000 </r>
       <r>    7.5228    0.0000 </r>
      </set>
      <set comment="kpoint 4">
       <r>  -19.7889    1.0000 </r>
       <r>  -16.4037    1.0000 </r>
       <r>  -16.1185    1.0000 </r>
       <r>  -13.7820    1.0000 </r>
       <r>  -13.3071    1.0000 </r>
       <r>  -12.1049    1.0000 </r>
       <r>  -10.7149    1.0000 </r>
       <r>   -8.6716    1.0000 </r>
       <r>   -8.5413    1.0000 </r>
       <r>   -6.7286    1.0000 </r>
       <r>   -6.3601    1.0000 </r>
       <r>   -4.9052    1.0000 </r>
       <r>   -4.5493    1.0000 </r>
       <r>   -4.2889    1.0000 </r>
       <r>   -4.0285    1.0000 </r>
       <r>   -2.4828    0.0000 </r>
       <r>   -0.0251    0.0000 </r>
       <r>    0.5099    0.0000 </r>
       <r>    0.9952    0.0000 </r>
       <r>    1.0261    0.0000 </r>
       <r>    2.0513    0.0000 </r>
       <r>    2.4311    0.0000 </r>
       <r>    4.4193    0.0000 </r>
       <r>    5.0220    0.0000 </r>
       <r>    5.2363    0.0000 </r>
       <r>    5.5786    0.0000 </r>
       <r>    5.9467    0.0000 </r>
       <r>    6.6402    0.0000 </r>
       <r>    6.8812    0.0000 </r>
       <r>    6.8814    0.0000 </r>
       <r>    7.1291    0.0000 </r>
       <r>    7.3270    0.0000 </r>
      </set>
      <set comment="kpoint 5">
       <r>  -19.7179    1.0000 </r>
       <r>  -16.6509    1.0000 </r>
       <r>  -16.1964    1.0000 </r>
       <r>  -13.8743    1.0000 </r>
       <r>  -13.0793    1.0000 </r>
       <r>  -11.7828    1.0000 </r>
       <r>  -10.3557    1.0000 </r>
       <r>   -8.8476    1.0000 </r>
       <r>   -8.4285    1.0000 </r>
       <r>   -7.0256    1.0000 </r>
       <r>   -6.3662    1.0000 </r>
       <r>   -5.1909    1.0000 </r>
       <r>   -4.6462    1.0000 </r>
       <r>   -4.5927    1.0000 </r>
       <r>   -4.1919    1.0000 </r>
       <r>   -2.6801    0.0000 </r>
       <r>    0.1122    0.0000 </r>
       <r>    0.7381    0.0000 </r>
       <r>    1.1699    0.0000 </r>
       <r>    1.5001    0.0000 </r>
       <r>    2.2258    0.0000 </r>
       <r>    2.5761    0.0000 </r>
       <r>    4.5614    0.0000 </r>
       <r>    5.1470    0.0000 </r>
       <r>    5.3241    0.0000 </r>
       <r>    5.4112    0.0000 </r>
       <r>    5.9878    0.0000 </r>
       <r>    6.2712    0.0000 </r>
       <r>    6.6939    0.0000 </r>
       <r>    6.7914    0.0000 </r>
       <r>    6.9315    0.0000 </r>
       <r>    6.9677    0.0000 </r>
      </set>
      <set comment="kpoint 6">
       <r>  -19.6321    1.0000 </r>
       <r>  -16.9052    1.0000 </r>
       <r>  -16.2731    1.0000 </r>
       <r>  -13.9668    1.0000 </r>
       <r>  -12.8179    1.0000 </r>
       <r>  -11.4159    1.0000 </r>
       <r>   -9.9412    1.0000 </r>
       <r>   -9.0724    1.0000 </r>
       <r>   -8.2866    1.0000 </r>
       <r>   -7.3709    1.0000 </r>
       <r>   -6.3450    1.0000 </r>
       <r>   -5.5102    1.0000 </r>
       <r>   -5.0738    1.0000 </r>
       <r>   -4.6379    1.0000 </r>
       <r>   -4.3782    1.0000 </r>
       <r>   -2.8422    0.0000 </r>
       <r>    0.2645    0.0000 </r>
       <r>    0.9543    0.0000 </r>
       <r>    1.3542    0.0000 </r>
       <r>    2.0151    0.0000 </r>
       <r>    2.5017    0.0000 </r>
       <r>    2.7622    0.0000 </r>
       <r>    4.7423    0.0000 </r>
       <r>    4.7975    0.0000 </r>
       <r>    5.2870    0.0000 </r>
       <r>    5.5065    0.0000 </r>
       <r>    5.6998    0.0000 </r>
       <r>    6.2645    0.0000 </r>
       <r>    6.4396    0.0000 </r>
       <r>    6.6594    0.0000 </r>
       <r>    6.7880    0.0000 </r>
       <r>    6.8859    0.0000 </r>
      </set>
      <set comment="kpoint 7">
       <r>  -19.5375    1.0000 </r>
       <r>  -17.1467    1.0000 </r>
       <r>  -16.3414    1.0000 </r>
       <r>  -14.0492    1.0000 </r>
       <r>  -12.5388    1.0000 </r>
       <r>  -11.0212    1.0000 </r>
       <r>   -9.4940    1.0000 </r>
       <r>   -9.3314    1.0000 </r>
       <r>   -8.1193    1.0000 </r>
       <r>   -7.7391    1.0000 </r>
       <r>   -6.2952    1.0000 </r>
       <r>   -5.8397    1.0000 </r>
       <r>   -5.5547    1.0000 </r>
       <r>   -4.6803    1.0000 </r>
       <r>   -4.5726    1.0000 </r>
       <r>   -2.9689    0.0000 </r>
       <r>    0.4162    0.0000 </r>
       <r>    1.1620    0.0000 </r>
       <r>    1.5788    0.0000 </r>
       <r>    2.4094    0.0000 </r>
       <r>    2.9670    0.0000 </r>
       <r>    2.9893    0.0000 </r>
       <r>    4.2626    0.0000 </r>
       <r>    4.9426    0.0000 </r>
       <r>    5.1899    0.0000 </r>
       <r>    5.4095    0.0000 </r>
       <r>    5.6686    0.0000 </r>
       <r>    5.7252    0.0000 </r>
       <r>    6.5196    0.0000 </r>
       <r>    6.5745    0.0000 </r>
       <r>    6.8572    0.0000 </r>
       <r>    7.0985    0.0000 </r>
      </set>
      <set comment="kpoint 8">
       <r>  -19.4432    1.0000 </r>
       <r>  -17.3571    1.0000 </r>
       <r>  -16.3962    1.0000 </r>
       <r>  -14.1151    1.0000 </r>
       <r>  -12.2632    1.0000 </r>
       <r>  -10.6123    1.0000 </r>
       <r>   -9.5994    1.0000 </r>
       <r>   -9.0680    1.0000 </r>
       <r>   -8.0719    1.0000 </r>
       <r>   -7.9345    1.0000 </r>
       <r>   -6.2244    1.0000 </r>
       <r>   -6.1569    1.0000 </r>
       <r>   -6.0723    1.0000 </r>
       <r>   -4.7574    1.0000 </r>
       <r>   -4.7159    1.0000 </r>
       <r>   -3.0621    0.0000 </r>
       <r>    0.5510    0.0000 </r>
       <r>    1.3462    0.0000 </r>
       <r>    1.8435    0.0000 </r>
       <r>    2.7206    0.0000 </r>
       <r>    3.2575    0.0000 </r>
       <r>    3.5551    0.0000 </r>
       <r>    3.7628    0.0000 </r>
       <r>    4.6634    0.0000 </r>
       <r>    5.2090    0.0000 </r>
       <r>    5.2486    0.0000 </r>
       <r>    5.4920    0.0000 </r>
       <r>    5.8937    0.0000 </r>
       <r>    6.4197    0.0000 </r>
       <r>    6.5052    0.0000 </r>
       <r>    6.6325    0.0000 </r>
       <r>    6.8227    0.0000 </r>
      </set>
      <set comment="kpoint 9">
       <r>  -19.3636    1.0000 </r>
       <r>  -17.5167    1.0000 </r>
       <r>  -16.4343    1.0000 </r>
       <r>  -14.1607    1.0000 </r>
       <r>  -12.0241    1.0000 </r>
       <r>  -10.2063    1.0000 </r>
       <r>   -9.8375    1.0000 </r>
       <r>   -8.9149    1.0000 </r>
       <r>   -8.1094    1.0000 </r>
       <r>   -7.7508    1.0000 </r>
       <r>   -6.6095    1.0000 </r>
       <r>   -6.4335    1.0000 </r>
       <r>   -6.1502    1.0000 </r>
       <r>   -4.9098    1.0000 </r>
       <r>   -4.7412    1.0000 </r>
       <r>   -3.1235    0.0000 </r>
       <r>    0.6524    0.0000 </r>
       <r>    1.4864    0.0000 </r>
       <r>    2.1483    0.0000 </r>
       <r>    3.0324    0.0000 </r>
       <r>    3.3006    0.0000 </r>
       <r>    3.5665    0.0000 </r>
       <r>    4.0192    0.0000 </r>
       <r>    4.3849    0.0000 </r>
       <r>    4.7380    0.0000 </r>
       <r>    5.5394    0.0000 </r>
       <r>    5.5394    0.0000 </r>
       <r>    6.1058    0.0000 </r>
       <r>    6.1479    0.0000 </r>
       <r>    6.3448    0.0000 </r>
       <r>    6.4640    0.0000 </r>
       <r>    6.7652    0.0000 </r>
      </set>
      <set comment="kpoint 10">
       <r>  -19.3166    1.0000 </r>
       <r>  -17.6044    1.0000 </r>
       <r>  -16.4538    1.0000 </r>
       <r>  -14.1840    1.0000 </r>
       <r>  -11.8757    1.0000 </r>
       <r>   -9.9867    1.0000 </r>
       <r>   -9.8618    1.0000 </r>
       <r>   -9.1307    1.0000 </r>
       <r>   -7.7200    1.0000 </r>
       <r>   -7.6171    1.0000 </r>
       <r>   -7.1370    1.0000 </r>
       <r>   -6.6150    1.0000 </r>
       <r>   -6.0999    1.0000 </r>
       <r>   -4.9997    1.0000 </r>
       <r>   -4.7544    1.0000 </r>
       <r>   -3.1539    0.0000 </r>
       <r>    0.7070    0.0000 </r>
       <r>    1.5629    0.0000 </r>
       <r>    2.4929    0.0000 </r>
       <r>    2.8771    0.0000 </r>
       <r>    3.3680    0.0000 </r>
       <r>    3.7365    0.0000 </r>
       <r>    3.9164    0.0000 </r>
       <r>    4.3070    0.0000 </r>
       <r>    4.8772    0.0000 </r>
       <r>    5.5146    0.0000 </r>
       <r>    5.5608    0.0000 </r>
       <r>    5.8881    0.0000 </r>
       <r>    6.3064    0.0000 </r>
       <r>    6.3619    0.0000 </r>
       <r>    6.3779    0.0000 </r>
       <r>    6.4466    0.0000 </r>
      </set>
      <set comment="kpoint 11">
       <r>  -19.8740    1.0000 </r>
       <r>  -16.0383    1.0000 </r>
       <r>  -16.0007    1.0000 </r>
       <r>  -13.6568    1.0000 </r>
       <r>  -13.6018    1.0000 </r>
       <r>  -12.5194    1.0000 </r>
       <r>  -11.1847    1.0000 </r>
       <r>   -8.6723    1.0000 </r>
       <r>   -8.4795    1.0000 </r>
       <r>   -6.3542    1.0000 </r>
       <r>   -6.3139    1.0000 </r>
       <r>   -4.5313    1.0000 </r>
       <r>   -4.4892    1.0000 </r>
       <r>   -3.8495    1.0000 </r>
       <r>   -3.8197    1.0000 </r>
       <r>   -2.0562    0.0000 </r>
       <r>   -0.2039    0.0000 </r>
       <r>   -0.0898    0.0000 </r>
       <r>    0.4779    0.0000 </r>
       <r>    0.8611    0.0000 </r>
       <r>    1.8674    0.0000 </r>
       <r>    2.2650    0.0000 </r>
       <r>    4.2562    0.0000 </r>
       <r>    4.8623    0.0000 </r>
       <r>    5.0388    0.0000 </r>
       <r>    5.0745    0.0000 </r>
       <r>    6.3157    0.0000 </r>
       <r>    6.7749    0.0000 </r>
       <r>    6.8343    0.0000 </r>
       <r>    7.4109    0.0000 </r>
       <r>    7.7726    0.0000 </r>
       <r>    7.7745    0.0000 </r>
      </set>
      <set comment="kpoint 12">
       <r>  -19.8523    1.0000 </r>
       <r>  -16.1382    1.0000 </r>
       <r>  -16.0369    1.0000 </r>
       <r>  -13.6775    1.0000 </r>
       <r>  -13.5357    1.0000 </r>
       <r>  -12.4105    1.0000 </r>
       <r>  -11.0593    1.0000 </r>
       <r>   -8.6393    1.0000 </r>
       <r>   -8.5260    1.0000 </r>
       <r>   -6.4477    1.0000 </r>
       <r>   -6.3343    1.0000 </r>
       <r>   -4.6259    1.0000 </r>
       <r>   -4.5099    1.0000 </r>
       <r>   -3.9613    1.0000 </r>
       <r>   -3.8757    1.0000 </r>
       <r>   -2.1997    0.0000 </r>
       <r>   -0.1731    0.0000 </r>
       <r>    0.1537    0.0000 </r>
       <r>    0.5747    0.0000 </r>
       <r>    0.9024    0.0000 </r>
       <r>    1.9125    0.0000 </r>
       <r>    2.3066    0.0000 </r>
       <r>    4.2970    0.0000 </r>
       <r>    4.9055    0.0000 </r>
       <r>    5.0997    0.0000 </r>
       <r>    5.1978    0.0000 </r>
       <r>    6.3406    0.0000 </r>
       <r>    6.7797    0.0000 </r>
       <r>    6.9165    0.0000 </r>
       <r>    7.0814    0.0000 </r>
       <r>    7.2322    0.0000 </r>
       <r>    7.8259    0.0000 </r>
      </set>
      <set comment="kpoint 13">
       <r>  -19.8098    1.0000 </r>
       <r>  -16.3144    1.0000 </r>
       <r>  -16.1029    1.0000 </r>
       <r>  -13.7208    1.0000 </r>
       <r>  -13.4116    1.0000 </r>
       <r>  -12.1970    1.0000 </r>
       <r>  -10.8261    1.0000 </r>
       <r>   -8.6234    1.0000 </r>
       <r>   -8.5738    1.0000 </r>
       <r>   -6.6240    1.0000 </r>
       <r>   -6.3672    1.0000 </r>
       <r>   -4.8042    1.0000 </r>
       <r>   -4.5518    1.0000 </r>
       <r>   -4.1768    1.0000 </r>
       <r>   -3.9841    1.0000 </r>
       <r>   -2.3956    0.0000 </r>
       <r>   -0.1197    0.0000 </r>
       <r>    0.5071    0.0000 </r>
       <r>    0.8024    0.0000 </r>
       <r>    0.9849    0.0000 </r>
       <r>    2.0040    0.0000 </r>
       <r>    2.3896    0.0000 </r>
       <r>    4.3786    0.0000 </r>
       <r>    4.9884    0.0000 </r>
       <r>    5.2107    0.0000 </r>
       <r>    5.4304    0.0000 </r>
       <r>    6.2077    0.0000 </r>
       <r>    6.5722    0.0000 </r>
       <r>    6.7978    0.0000 </r>
       <r>    7.0400    0.0000 </r>
       <r>    7.2077    0.0000 </r>
       <r>    7.2274    0.0000 </r>
      </set>
      <set comment="kpoint 14">
       <r>  -19.7479    1.0000 </r>
       <r>  -16.5389    1.0000 </r>
       <r>  -16.1841    1.0000 </r>
       <r>  -13.7916    1.0000 </r>
       <r>  -13.2264    1.0000 </r>
       <r>  -11.9004    1.0000 </r>
       <r>  -10.5077    1.0000 </r>
       <r>   -8.7758    1.0000 </r>
       <r>   -8.4766    1.0000 </r>
       <r>   -6.8733    1.0000 </r>
       <r>   -6.3924    1.0000 </r>
       <r>   -5.0528    1.0000 </r>
       <r>   -4.6068    1.0000 </r>
       <r>   -4.4852    1.0000 </r>
       <r>   -4.1350    1.0000 </r>
       <r>   -2.5807    0.0000 </r>
       <r>   -0.0359    0.0000 </r>
       <r>    0.7847    0.0000 </r>
       <r>    1.1083    0.0000 </r>
       <r>    1.2384    0.0000 </r>
       <r>    2.1465    0.0000 </r>
       <r>    2.5140    0.0000 </r>
       <r>    4.5006    0.0000 </r>
       <r>    5.1048    0.0000 </r>
       <r>    5.3381    0.0000 </r>
       <r>    5.6749    0.0000 </r>
       <r>    5.7721    0.0000 </r>
       <r>    6.4111    0.0000 </r>
       <r>    6.5833    0.0000 </r>
       <r>    6.8426    0.0000 </r>
       <r>    7.0324    0.0000 </r>
       <r>    7.3092    0.0000 </r>
      </set>
      <set comment="kpoint 15">
       <r>  -19.6693    1.0000 </r>
       <r>  -16.7847    1.0000 </r>
       <r>  -16.2681    1.0000 </r>
       <r>  -13.8754    1.0000 </r>
       <r>  -12.9923    1.0000 </r>
       <r>  -11.5483    1.0000 </r>
       <r>  -10.1244    1.0000 </r>
       <r>   -8.9825    1.0000 </r>
       <r>   -8.3491    1.0000 </r>
       <r>   -7.1804    1.0000 </r>
       <r>   -6.3937    1.0000 </r>
       <r>   -5.3500    1.0000 </r>
       <r>   -4.8718    1.0000 </r>
       <r>   -4.6667    1.0000 </r>
       <r>   -4.3156    1.0000 </r>
       <r>   -2.7343    0.0000 </r>
       <r>    0.0741    0.0000 </r>
       <r>    1.0186    0.0000 </r>
       <r>    1.2724    0.0000 </r>
       <r>    1.7688    0.0000 </r>
       <r>    2.3590    0.0000 </r>
       <r>    2.6796    0.0000 </r>
       <r>    4.6624    0.0000 </r>
       <r>    5.0897    0.0000 </r>
       <r>    5.2482    0.0000 </r>
       <r>    5.4787    0.0000 </r>
       <r>    5.9926    0.0000 </r>
       <r>    6.1674    0.0000 </r>
       <r>    6.2709    0.0000 </r>
       <r>    6.5659    0.0000 </r>
       <r>    6.9111    0.0000 </r>
       <r>    7.0567    0.0000 </r>
      </set>
      <set comment="kpoint 16">
       <r>  -19.5787    1.0000 </r>
       <r>  -17.0293    1.0000 </r>
       <r>  -16.3458    1.0000 </r>
       <r>  -13.9573    1.0000 </r>
       <r>  -12.7264    1.0000 </r>
       <r>  -11.1627    1.0000 </r>
       <r>   -9.6960    1.0000 </r>
       <r>   -9.2325    1.0000 </r>
       <r>   -8.1942    1.0000 </r>
       <r>   -7.5260    1.0000 </r>
       <r>   -6.3644    1.0000 </r>
       <r>   -5.6715    1.0000 </r>
       <r>   -5.3196    1.0000 </r>
       <r>   -4.7247    1.0000 </r>
       <r>   -4.5116    1.0000 </r>
       <r>   -2.8548    0.0000 </r>
       <r>    0.1989    0.0000 </r>
       <r>    1.2436    0.0000 </r>
       <r>    1.4769    0.0000 </r>
       <r>    2.2425    0.0000 </r>
       <r>    2.7131    0.0000 </r>
       <r>    2.8862    0.0000 </r>
       <r>    4.5413    0.0000 </r>
       <r>    4.8598    0.0000 </r>
       <r>    5.3934    0.0000 </r>
       <r>    5.4448    0.0000 </r>
       <r>    5.6079    0.0000 </r>
       <r>    6.0031    0.0000 </r>
       <r>    6.1029    0.0000 </r>
       <r>    6.6613    0.0000 </r>
       <r>    6.8448    0.0000 </r>
       <r>    6.9548    0.0000 </r>
      </set>
      <set comment="kpoint 17">
       <r>  -19.4834    1.0000 </r>
       <r>  -17.2536    1.0000 </r>
       <r>  -16.4111    1.0000 </r>
       <r>  -14.0279    1.0000 </r>
       <r>  -12.4484    1.0000 </r>
       <r>  -10.7594    1.0000 </r>
       <r>   -9.5097    1.0000 </r>
       <r>   -9.2467    1.0000 </r>
       <r>   -8.0172    1.0000 </r>
       <r>   -7.8776    1.0000 </r>
       <r>   -6.3106    1.0000 </r>
       <r>   -5.9941    1.0000 </r>
       <r>   -5.8092    1.0000 </r>
       <r>   -4.7751    1.0000 </r>
       <r>   -4.7067    1.0000 </r>
       <r>   -2.9453    0.0000 </r>
       <r>    0.3226    0.0000 </r>
       <r>    1.4511    0.0000 </r>
       <r>    1.7216    0.0000 </r>
       <r>    2.5858    0.0000 </r>
       <r>    3.1339    0.0000 </r>
       <r>    3.2512    0.0000 </r>
       <r>    4.0235    0.0000 </r>
       <r>    4.8927    0.0000 </r>
       <r>    5.1445    0.0000 </r>
       <r>    5.4729    0.0000 </r>
       <r>    5.4961    0.0000 </r>
       <r>    5.7830    0.0000 </r>
       <r>    6.0109    0.0000 </r>
       <r>    6.6413    0.0000 </r>
       <r>    6.8478    0.0000 </r>
       <r>    7.0119    0.0000 </r>
      </set>
      <set comment="kpoint 18">
       <r>  -19.3951    1.0000 </r>
       <r>  -17.4384    1.0000 </r>
       <r>  -16.4600    1.0000 </r>
       <r>  -14.0815    1.0000 </r>
       <r>  -12.1852    1.0000 </r>
       <r>  -10.3556    1.0000 </r>
       <r>   -9.7703    1.0000 </r>
       <r>   -8.8940    1.0000 </r>
       <r>   -8.1214    1.0000 </r>
       <r>   -7.8300    1.0000 </r>
       <r>   -6.3756    1.0000 </r>
       <r>   -6.2930    1.0000 </r>
       <r>   -6.1941    1.0000 </r>
       <r>   -4.8810    1.0000 </r>
       <r>   -4.8139    1.0000 </r>
       <r>   -3.0086    0.0000 </r>
       <r>    0.4281    0.0000 </r>
       <r>    1.6228    0.0000 </r>
       <r>    2.0064    0.0000 </r>
       <r>    2.8922    0.0000 </r>
       <r>    3.4224    0.0000 </r>
       <r>    3.5424    0.0000 </r>
       <r>    3.8397    0.0000 </r>
       <r>    4.4722    0.0000 </r>
       <r>    4.9843    0.0000 </r>
       <r>    5.4030    0.0000 </r>
       <r>    5.5348    0.0000 </r>
       <r>    5.9162    0.0000 </r>
       <r>    6.0651    0.0000 </r>
       <r>    6.3124    0.0000 </r>
       <r>    6.6824    0.0000 </r>
       <r>    6.8449    0.0000 </r>
      </set>
      <set comment="kpoint 19">
       <r>  -19.3301    1.0000 </r>
       <r>  -17.5629    1.0000 </r>
       <r>  -16.4903    1.0000 </r>
       <r>  -14.1147    1.0000 </r>
       <r>  -11.9812    1.0000 </r>
       <r>  -10.0494    1.0000 </r>
       <r>   -9.9023    1.0000 </r>
       <r>   -8.9457    1.0000 </r>
       <r>   -7.9259    1.0000 </r>
       <r>   -7.6631    1.0000 </r>
       <r>   -6.8828    1.0000 </r>
       <r>   -6.5298    1.0000 </r>
       <r>   -6.1539    1.0000 </r>
       <r>   -5.0081    1.0000 </r>
       <r>   -4.8382    1.0000 </r>
       <r>   -3.0461    0.0000 </r>
       <r>    0.4991    0.0000 </r>
       <r>    1.7376    0.0000 </r>
       <r>    2.3311    0.0000 </r>
       <r>    3.0994    0.0000 </r>
       <r>    3.2139    0.0000 </r>
       <r>    3.7520    0.0000 </r>
       <r>    3.9304    0.0000 </r>
       <r>    4.5331    0.0000 </r>
       <r>    4.5816    0.0000 </r>
       <r>    5.5418    0.0000 </r>
       <r>    5.6712    0.0000 </r>
       <r>    5.8400    0.0000 </r>
       <r>    5.9158    0.0000 </r>
       <r>    6.3134    0.0000 </r>
       <r>    6.5158    0.0000 </r>
       <r>    6.6324    0.0000 </r>
      </set>
      <set comment="kpoint 20">
       <r>  -19.3058    1.0000 </r>
       <r>  -17.6073    1.0000 </r>
       <r>  -16.5005    1.0000 </r>
       <r>  -14.1259    1.0000 </r>
       <r>  -11.9006    1.0000 </r>
       <r>  -10.0872    1.0000 </r>
       <r>   -9.7335    1.0000 </r>
       <r>   -9.1086    1.0000 </r>
       <r>   -7.5875    1.0000 </r>
       <r>   -7.5569    1.0000 </r>
       <r>   -7.3033    1.0000 </r>
       <r>   -6.6291    1.0000 </r>
       <r>   -6.1285    1.0000 </r>
       <r>   -5.0560    1.0000 </r>
       <r>   -4.8465    1.0000 </r>
       <r>   -3.0586    0.0000 </r>
       <r>    0.5241    0.0000 </r>
       <r>    1.7781    0.0000 </r>
       <r>    2.6934    0.0000 </r>
       <r>    2.6976    0.0000 </r>
       <r>    3.5352    0.0000 </r>
       <r>    3.5963    0.0000 </r>
       <r>    4.1202    0.0000 </r>
       <r>    4.1243    0.0000 </r>
       <r>    5.0767    0.0000 </r>
       <r>    5.2874    0.0000 </r>
       <r>    5.5410    0.0000 </r>
       <r>    5.9148    0.0000 </r>
       <r>    5.9889    0.0000 </r>
       <r>    6.2635    0.0000 </r>
       <r>    6.4821    0.0000 </r>
       <r>    6.5539    0.0000 </r>
      </set>
      <set comment="kpoint 21">
       <r>  -19.3301    1.0000 </r>
       <r>  -17.5629    1.0000 </r>
       <r>  -16.4903    1.0000 </r>
       <r>  -14.1147    1.0000 </r>
       <r>  -11.9813    1.0000 </r>
       <r>  -10.0497    1.0000 </r>
       <r>   -9.9019    1.0000 </r>
       <r>   -8.9459    1.0000 </r>
       <r>   -7.9258    1.0000 </r>
       <r>   -7.6631    1.0000 </r>
       <r>   -6.8829    1.0000 </r>
       <r>   -6.5298    1.0000 </r>
       <r>   -6.1539    1.0000 </r>
       <r>   -5.0081    1.0000 </r>
       <r>   -4.8382    1.0000 </r>
       <r>   -3.0461    0.0000 </r>
       <r>    0.4991    0.0000 </r>
       <r>    1.7376    0.0000 </r>
       <r>    2.3311    0.0000 </r>
       <r>    3.0994    0.0000 </r>
       <r>    3.2139    0.0000 </r>
       <r>    3.7520    0.0000 </r>
       <r>    3.9304    0.0000 </r>
       <r>    4.5331    0.0000 </r>
       <r>    4.5816    0.0000 </r>
       <r>    5.5418    0.0000 </r>
       <r>    5.6712    0.0000 </r>
       <r>    5.8400    0.0000 </r>
       <r>    5.9158    0.0000 </r>
       <r>    6.3134    0.0000 </r>
       <r>    6.5158    0.0000 </r>
       <r>    6.6326    0.0000 </r>
      </set>
      <set comment="kpoint 22">
       <r>  -19.3951    1.0000 </r>
       <r>  -17.4384    1.0000 </r>
       <r>  -16.4600    1.0000 </r>
       <r>  -14.0815    1.0000 </r>
       <r>  -12.1852    1.0000 </r>
       <r>  -10.3556    1.0000 </r>
       <r>   -9.7701    1.0000 </r>
       <r>   -8.8942    1.0000 </r>
       <r>   -8.1213    1.0000 </r>
       <r>   -7.8300    1.0000 </r>
       <r>   -6.3757    1.0000 </r>
       <r>   -6.2929    1.0000 </r>
       <r>   -6.1940    1.0000 </r>
       <r>   -4.8811    1.0000 </r>
       <r>   -4.8139    1.0000 </r>
       <r>   -3.0085    0.0000 </r>
       <r>    0.4280    0.0000 </r>
       <r>    1.6229    0.0000 </r>
       <r>    2.0064    0.0000 </r>
       <r>    2.8922    0.0000 </r>
       <r>    3.4224    0.0000 </r>
       <r>    3.5424    0.0000 </r>
       <r>    3.8397    0.0000 </r>
       <r>    4.4722    0.0000 </r>
       <r>    4.9843    0.0000 </r>
       <r>    5.4030    0.0000 </r>
       <r>    5.5349    0.0000 </r>
       <r>    5.9161    0.0000 </r>
       <r>    6.0651    0.0000 </r>
       <r>    6.3123    0.0000 </r>
       <r>    6.6825    0.0000 </r>
       <r>    6.8450    0.0000 </r>
      </set>
      <set comment="kpoint 23">
       <r>  -19.4834    1.0000 </r>
       <r>  -17.2536    1.0000 </r>
       <r>  -16.4111    1.0000 </r>
       <r>  -14.0279    1.0000 </r>
       <r>  -12.4484    1.0000 </r>
       <r>  -10.7593    1.0000 </r>
       <r>   -9.5095    1.0000 </r>
       <r>   -9.2470    1.0000 </r>
       <r>   -8.0172    1.0000 </r>
       <r>   -7.8776    1.0000 </r>
       <r>   -6.3107    1.0000 </r>
       <r>   -5.9941    1.0000 </r>
       <r>   -5.8091    1.0000 </r>
       <r>   -4.7751    1.0000 </r>
       <r>   -4.7067    1.0000 </r>
       <r>   -2.9452    0.0000 </r>
       <r>    0.3225    0.0000 </r>
       <r>    1.4512    0.0000 </r>
       <r>    1.7216    0.0000 </r>
       <r>    2.5858    0.0000 </r>
       <r>    3.1339    0.0000 </r>
       <r>    3.2512    0.0000 </r>
       <r>    4.0235    0.0000 </r>
       <r>    4.8927    0.0000 </r>
       <r>    5.1445    0.0000 </r>
       <r>    5.4729    0.0000 </r>
       <r>    5.4961    0.0000 </r>
       <r>    5.7830    0.0000 </r>
       <r>    6.0108    0.0000 </r>
       <r>    6.6411    0.0000 </r>
       <r>    6.8479    0.0000 </r>
       <r>    7.0120    0.0000 </r>
      </set>
      <set comment="kpoint 24">
       <r>  -19.5787    1.0000 </r>
       <r>  -17.0293    1.0000 </r>
       <r>  -16.3458    1.0000 </r>
       <r>  -13.9573    1.0000 </r>
       <r>  -12.7265    1.0000 </r>
       <r>  -11.1626    1.0000 </r>
       <r>   -9.6960    1.0000 </r>
       <r>   -9.2326    1.0000 </r>
       <r>   -8.1942    1.0000 </r>
       <r>   -7.5259    1.0000 </r>
       <r>   -6.3644    1.0000 </r>
       <r>   -5.6715    1.0000 </r>
       <r>   -5.3195    1.0000 </r>
       <r>   -4.7247    1.0000 </r>
       <r>   -4.5117    1.0000 </r>
       <r>   -2.8547    0.0000 </r>
       <r>    0.1987    0.0000 </r>
       <r>    1.2437    0.0000 </r>
       <r>    1.4769    0.0000 </r>
       <r>    2.2424    0.0000 </r>
       <r>    2.7131    0.0000 </r>
       <r>    2.8862    0.0000 </r>
       <r>    4.5413    0.0000 </r>
       <r>    4.8598    0.0000 </r>
       <r>    5.3934    0.0000 </r>
       <r>    5.4448    0.0000 </r>
       <r>    5.6079    0.0000 </r>
       <r>    6.0031    0.0000 </r>
       <r>    6.1029    0.0000 </r>
       <r>    6.6613    0.0000 </r>
       <r>    6.8447    0.0000 </r>
       <r>    6.9547    0.0000 </r>
      </set>
      <set comment="kpoint 25">
       <r>  -19.6693    1.0000 </r>
       <r>  -16.7846    1.0000 </r>
       <r>  -16.2681    1.0000 </r>
       <r>  -13.8754    1.0000 </r>
       <r>  -12.9924    1.0000 </r>
       <r>  -11.5482    1.0000 </r>
       <r>  -10.1245    1.0000 </r>
       <r>   -8.9824    1.0000 </r>
       <r>   -8.3491    1.0000 </r>
       <r>   -7.1804    1.0000 </r>
       <r>   -6.3938    1.0000 </r>
       <r>   -5.3499    1.0000 </r>
       <r>   -4.8717    1.0000 </r>
       <r>   -4.6668    1.0000 </r>
       <r>   -4.3157    1.0000 </r>
       <r>   -2.7342    0.0000 </r>
       <r>    0.0740    0.0000 </r>
       <r>    1.0187    0.0000 </r>
       <r>    1.2724    0.0000 </r>
       <r>    1.7688    0.0000 </r>
       <r>    2.3590    0.0000 </r>
       <r>    2.6796    0.0000 </r>
       <r>    4.6624    0.0000 </r>
       <r>    5.0897    0.0000 </r>
       <r>    5.2483    0.0000 </r>
       <r>    5.4787    0.0000 </r>
       <r>    5.9926    0.0000 </r>
       <r>    6.1674    0.0000 </r>
       <r>    6.2708    0.0000 </r>
       <r>    6.5659    0.0000 </r>
       <r>    6.9111    0.0000 </r>
       <r>    7.0567    0.0000 </r>
      </set>
      <set comment="kpoint 26">
       <r>  -19.7479    1.0000 </r>
       <r>  -16.5388    1.0000 </r>
       <r>  -16.1842    1.0000 </r>
       <r>  -13.7916    1.0000 </r>
       <r>  -13.2264    1.0000 </r>
       <r>  -11.9003    1.0000 </r>
       <r>  -10.5077    1.0000 </r>
       <r>   -8.7758    1.0000 </r>
       <r>   -8.4766    1.0000 </r>
       <r>   -6.8732    1.0000 </r>
       <r>   -6.3925    1.0000 </r>
       <r>   -5.0527    1.0000 </r>
       <r>   -4.6068    1.0000 </r>
       <r>   -4.4851    1.0000 </r>
       <r>   -4.1351    1.0000 </r>
       <r>   -2.5806    0.0000 </r>
       <r>   -0.0361    0.0000 </r>
       <r>    0.7848    0.0000 </r>
       <r>    1.1083    0.0000 </r>
       <r>    1.2384    0.0000 </r>
       <r>    2.1465    0.0000 </r>
       <r>    2.5140    0.0000 </r>
       <r>    4.5006    0.0000 </r>
       <r>    5.1048    0.0000 </r>
       <r>    5.3379    0.0000 </r>
       <r>    5.6750    0.0000 </r>
       <r>    5.7722    0.0000 </r>
       <r>    6.4111    0.0000 </r>
       <r>    6.5833    0.0000 </r>
       <r>    6.8425    0.0000 </r>
       <r>    7.0323    0.0000 </r>
       <r>    7.3091    0.0000 </r>
      </set>
      <set comment="kpoint 27">
       <r>  -19.8098    1.0000 </r>
       <r>  -16.3143    1.0000 </r>
       <r>  -16.1030    1.0000 </r>
       <r>  -13.7208    1.0000 </r>
       <r>  -13.4117    1.0000 </r>
       <r>  -12.1969    1.0000 </r>
       <r>  -10.8261    1.0000 </r>
       <r>   -8.6233    1.0000 </r>
       <r>   -8.5738    1.0000 </r>
       <r>   -6.6238    1.0000 </r>
       <r>   -6.3674    1.0000 </r>
       <r>   -4.8041    1.0000 </r>
       <r>   -4.5519    1.0000 </r>
       <r>   -4.1766    1.0000 </r>
       <r>   -3.9844    1.0000 </r>
       <r>   -2.3956    0.0000 </r>
       <r>   -0.1198    0.0000 </r>
       <r>    0.5071    0.0000 </r>
       <r>    0.8025    0.0000 </r>
       <r>    0.9849    0.0000 </r>
       <r>    2.0040    0.0000 </r>
       <r>    2.3896    0.0000 </r>
       <r>    4.3786    0.0000 </r>
       <r>    4.9884    0.0000 </r>
       <r>    5.2105    0.0000 </r>
       <r>    5.4307    0.0000 </r>
       <r>    6.2077    0.0000 </r>
       <r>    6.5721    0.0000 </r>
       <r>    6.7976    0.0000 </r>
       <r>    7.0399    0.0000 </r>
       <r>    7.2077    0.0000 </r>
       <r>    7.2278    0.0000 </r>
      </set>
      <set comment="kpoint 28">
       <r>  -19.8523    1.0000 </r>
       <r>  -16.1380    1.0000 </r>
       <r>  -16.0371    1.0000 </r>
       <r>  -13.6775    1.0000 </r>
       <r>  -13.5357    1.0000 </r>
       <r>  -12.4105    1.0000 </r>
       <r>  -11.0594    1.0000 </r>
       <r>   -8.6393    1.0000 </r>
       <r>   -8.5260    1.0000 </r>
       <r>   -6.4473    1.0000 </r>
       <r>   -6.3346    1.0000 </r>
       <r>   -4.6258    1.0000 </r>
       <r>   -4.5100    1.0000 </r>
       <r>   -3.9610    1.0000 </r>
       <r>   -3.8760    1.0000 </r>
       <r>   -2.1997    0.0000 </r>
       <r>   -0.1731    0.0000 </r>
       <r>    0.1536    0.0000 </r>
       <r>    0.5748    0.0000 </r>
       <r>    0.9024    0.0000 </r>
       <r>    1.9125    0.0000 </r>
       <r>    2.3066    0.0000 </r>
       <r>    4.2970    0.0000 </r>
       <r>    4.9055    0.0000 </r>
       <r>    5.0993    0.0000 </r>
       <r>    5.1982    0.0000 </r>
       <r>    6.3406    0.0000 </r>
       <r>    6.7792    0.0000 </r>
       <r>    6.9169    0.0000 </r>
       <r>    7.0815    0.0000 </r>
       <r>    7.2321    0.0000 </r>
       <r>    7.8259    0.0000 </r>
      </set>
      <set comment="kpoint 29">
       <r>  -19.8740    1.0000 </r>
       <r>  -16.0381    1.0000 </r>
       <r>  -16.0009    1.0000 </r>
       <r>  -13.6569    1.0000 </r>
       <r>  -13.6017    1.0000 </r>
       <r>  -12.5193    1.0000 </r>
       <r>  -11.1847    1.0000 </r>
       <r>   -8.6723    1.0000 </r>
       <r>   -8.4795    1.0000 </r>
       <r>   -6.3539    1.0000 </r>
       <r>   -6.3142    1.0000 </r>
       <r>   -4.5312    1.0000 </r>
       <r>   -4.4893    1.0000 </r>
       <r>   -3.8491    1.0000 </r>
       <r>   -3.8201    1.0000 </r>
       <r>   -2.0562    0.0000 </r>
       <r>   -0.2038    0.0000 </r>
       <r>   -0.0899    0.0000 </r>
       <r>    0.4779    0.0000 </r>
       <r>    0.8611    0.0000 </r>
       <r>    1.8674    0.0000 </r>
       <r>    2.2650    0.0000 </r>
       <r>    4.2562    0.0000 </r>
       <r>    4.8623    0.0000 </r>
       <r>    5.0384    0.0000 </r>
       <r>    5.0749    0.0000 </r>
       <r>    6.3157    0.0000 </r>
       <r>    6.7745    0.0000 </r>
       <r>    6.8348    0.0000 </r>
       <r>    7.4108    0.0000 </r>
       <r>    7.7726    0.0000 </r>
       <r>    7.7746    0.0000 </r>
      </set>
      <set comment="kpoint 30">
       <r>  -19.8416    1.0000 </r>
       <r>  -16.1890    1.0000 </r>
       <r>  -16.0493    1.0000 </r>
       <r>  -13.7047    1.0000 </r>
       <r>  -13.4862    1.0000 </r>
       <r>  -12.3587    1.0000 </r>
       <r>  -10.9988    1.0000 </r>
       <r>   -8.6229    1.0000 </r>
       <r>   -8.5496    1.0000 </r>
       <r>   -6.4994    1.0000 </r>
       <r>   -6.3373    1.0000 </r>
       <r>   -4.6779    1.0000 </r>
       <r>   -4.5132    1.0000 </r>
       <r>   -4.0184    1.0000 </r>
       <r>   -3.9010    1.0000 </r>
       <r>   -2.2609    0.0000 </r>
       <r>   -0.1339    0.0000 </r>
       <r>    0.2209    0.0000 </r>
       <r>    0.6402    0.0000 </r>
       <r>    0.9231    0.0000 </r>
       <r>    1.9353    0.0000 </r>
       <r>    2.3274    0.0000 </r>
       <r>    4.3174    0.0000 </r>
       <r>    4.9249    0.0000 </r>
       <r>    5.1212    0.0000 </r>
       <r>    5.2679    0.0000 </r>
       <r>    6.3231    0.0000 </r>
       <r>    6.7076    0.0000 </r>
       <r>    6.9237    0.0000 </r>
       <r>    7.0169    0.0000 </r>
       <r>    7.5224    0.0000 </r>
       <r>    7.5228    0.0000 </r>
      </set>
      <set comment="kpoint 31">
       <r>  -19.8098    1.0000 </r>
       <r>  -16.3144    1.0000 </r>
       <r>  -16.1029    1.0000 </r>
       <r>  -13.7208    1.0000 </r>
       <r>  -13.4117    1.0000 </r>
       <r>  -12.1970    1.0000 </r>
       <r>  -10.8261    1.0000 </r>
       <r>   -8.6234    1.0000 </r>
       <r>   -8.5738    1.0000 </r>
       <r>   -6.6241    1.0000 </r>
       <r>   -6.3672    1.0000 </r>
       <r>   -4.8042    1.0000 </r>
       <r>   -4.5518    1.0000 </r>
       <r>   -4.1768    1.0000 </r>
       <r>   -3.9842    1.0000 </r>
[...]
       <r>  -19.3548    1.0000 </r>
       <r>  -17.3951    1.0000 </r>
       <r>  -16.7216    1.0000 </r>
       <r>  -13.6937    1.0000 </r>
       <r>  -12.4756    1.0000 </r>
       <r>  -10.2327    1.0000 </r>
       <r>   -9.8125    1.0000 </r>
       <r>   -8.7076    1.0000 </r>
       <r>   -7.8883    1.0000 </r>
       <r>   -7.7489    1.0000 </r>
       <r>   -6.6706    1.0000 </r>
       <r>   -6.2229    1.0000 </r>
       <r>   -6.2164    1.0000 </r>
       <r>   -5.2767    1.0000 </r>
       <r>   -5.1813    1.0000 </r>
       <r>   -2.5217    0.0000 </r>
       <r>   -0.2257    0.0000 </r>
       <r>    2.1294    0.0000 </r>
       <r>    2.4325    0.0000 </r>
       <r>    3.0569    0.0000 </r>
       <r>    3.5469    0.0000 </r>
       <r>    3.6653    0.0000 </r>
       <r>    3.7890    0.0000 </r>
       <r>    4.5610    0.0000 </r>
       <r>    4.8017    0.0000 </r>
       <r>    5.1099    0.0000 </r>
       <r>    5.4711    0.0000 </r>
       <r>    5.6642    0.0000 </r>
       <r>    6.0699    0.0000 </r>
       <r>    6.2202    0.0000 </r>
       <r>    6.3249    0.0000 </r>
       <r>    6.3309    0.0000 </r>
      </set>
      <set comment="kpoint 180">
       <r>  -19.3437    1.0000 </r>
       <r>  -17.4886    1.0000 </r>
       <r>  -16.5925    1.0000 </r>
       <r>  -13.9365    1.0000 </r>
       <r>  -12.1982    1.0000 </r>
       <r>  -10.1614    1.0000 </r>
       <r>   -9.8644    1.0000 </r>
       <r>   -8.7460    1.0000 </r>
       <r>   -8.0178    1.0000 </r>
       <r>   -7.7110    1.0000 </r>
       <r>   -6.6687    1.0000 </r>
       <r>   -6.3912    1.0000 </r>
       <r>   -6.2499    1.0000 </r>
       <r>   -5.0758    1.0000 </r>
       <r>   -5.0409    1.0000 </r>
       <r>   -2.8000    0.0000 </r>
       <r>    0.1288    0.0000 </r>
       <r>    2.0826    0.0000 </r>
       <r>    2.2100    0.0000 </r>
       <r>    3.1046    0.0000 </r>
       <r>    3.3623    0.0000 </r>
       <r>    3.6289    0.0000 </r>
       <r>    4.0407    0.0000 </r>
       <r>    4.3788    0.0000 </r>
       <r>    4.8007    0.0000 </r>
       <r>    5.2354    0.0000 </r>
       <r>    5.5811    0.0000 </r>
       <r>    5.8934    0.0000 </r>
       <r>    5.9166    0.0000 </r>
       <r>    6.2429    0.0000 </r>
       <r>    6.2763    0.0000 </r>
       <r>    6.7640    0.0000 </r>
      </set>
      <set comment="kpoint 181">
       <r>  -19.3301    1.0000 </r>
       <r>  -17.5630    1.0000 </r>
       <r>  -16.4902    1.0000 </r>
       <r>  -14.1146    1.0000 </r>
       <r>  -11.9814    1.0000 </r>
       <r>  -10.0495    1.0000 </r>
       <r>   -9.9022    1.0000 </r>
       <r>   -8.9457    1.0000 </r>
       <r>   -7.9259    1.0000 </r>
       <r>   -7.6631    1.0000 </r>
       <r>   -6.8827    1.0000 </r>
       <r>   -6.5299    1.0000 </r>
       <r>   -6.1540    1.0000 </r>
       <r>   -5.0082    1.0000 </r>
       <r>   -4.8382    1.0000 </r>
       <r>   -3.0461    0.0000 </r>
       <r>    0.4990    0.0000 </r>
       <r>    1.7376    0.0000 </r>
       <r>    2.3311    0.0000 </r>
       <r>    3.0994    0.0000 </r>
       <r>    3.2139    0.0000 </r>
       <r>    3.7520    0.0000 </r>
       <r>    3.9303    0.0000 </r>
       <r>    4.5331    0.0000 </r>
       <r>    4.5816    0.0000 </r>
       <r>    5.5418    0.0000 </r>
       <r>    5.6712    0.0000 </r>
       <r>    5.8400    0.0000 </r>
       <r>    5.9158    0.0000 </r>
       <r>    6.3134    0.0000 </r>
       <r>    6.5158    0.0000 </r>
       <r>    6.6325    0.0000 </r>
      </set>
     </set>
    </set>
   </array>
  </eigenvalues>
  <separator name="orbital magnetization" >
   <v name="MAGDIPOLOUT">      0.00000000      0.00000000      0.00000000</v>
  </separator>
  <dos>
   <i name="efermi">     -3.47890030 </i>
   <total>
    <array>
     <dimension dim="1">gridpoints</dimension>
     <dimension dim="2">spin</dimension>
     <field>energy</field>
     <field>total</field>
     <field>integrated</field>
     <set>
      <set comment="spin 1">
       <r>   -21.2858     0.0000     0.0000 </r>
       <r>   -21.1830     0.0000     0.0000 </r>
       <r>   -21.0803     0.0000     0.0000 </r>
       <r>   -20.9776     0.0000     0.0000 </r>
       <r>   -20.8748     0.0000     0.0000 </r>
       <r>   -20.7721     0.0000     0.0000 </r>
       <r>   -20.6694     0.0000     0.0000 </r>
       <r>   -20.5666     0.0000     0.0000 </r>
       <r>   -20.4639     0.0000     0.0000 </r>
       <r>   -20.3612     0.0000     0.0000 </r>
       <r>   -20.2584     0.0000     0.0000 </r>
       <r>   -20.1557     0.0000     0.0000 </r>
       <r>   -20.0530     0.0037     0.0004 </r>
       <r>   -19.9502     0.1198     0.0127 </r>
       <r>   -19.8475     0.8107     0.0960 </r>
       <r>   -19.7448     1.7139     0.2720 </r>
       <r>   -19.6420     2.0797     0.4857 </r>
       <r>   -19.5393     2.3430     0.7264 </r>
       <r>   -19.4366     2.8796     1.0222 </r>
       <r>   -19.3339     3.9953     1.4327 </r>
       <r>   -19.2311     3.9230     1.8357 </r>
       <r>   -19.1284     1.4535     1.9850 </r>
       <r>   -19.0257     0.1431     1.9997 </r>
       <r>   -18.9229     0.0029     2.0000 </r>
       <r>   -18.8202     0.0000     2.0000 </r>
       <r>   -18.7175     0.0000     2.0000 </r>
       <r>   -18.6147     0.0000     2.0000 </r>
       <r>   -18.5120     0.0000     2.0000 </r>
       <r>   -18.4093     0.0000     2.0000 </r>
       <r>   -18.3065     0.0000     2.0000 </r>
       <r>   -18.2038     0.0000     2.0000 </r>
       <r>   -18.1011     0.0000     2.0000 </r>
       <r>   -17.9983     0.0000     2.0000 </r>
       <r>   -17.8956     0.0000     2.0000 </r>
       <r>   -17.7929     0.0036     2.0004 </r>
       <r>   -17.6901     0.1372     2.0145 </r>
       <r>   -17.5874     1.0633     2.1237 </r>
       <r>   -17.4847     2.5321     2.3838 </r>
       <r>   -17.3820     3.2265     2.7153 </r>
       <r>   -17.2792     2.7259     2.9953 </r>
       <r>   -17.1765     1.9665     3.1974 </r>
       <r>   -17.0738     1.8549     3.3879 </r>
       <r>   -16.9710     1.8937     3.5825 </r>
       <r>   -16.8683     2.0361     3.7916 </r>
       <r>   -16.7656     2.1217     4.0096 </r>
       <r>   -16.6628     2.3877     4.2549 </r>
       <r>   -16.5601     2.7550     4.5379 </r>
       <r>   -16.4574     3.4677     4.8942 </r>
       <r>   -16.3546     3.3752     5.2409 </r>
       <r>   -16.2519     2.6059     5.5086 </r>
       <r>   -16.1492     2.0452     5.7187 </r>
       <r>   -16.0464     1.6434     5.8875 </r>
       <r>   -15.9437     0.9029     5.9803 </r>
       <r>   -15.8410     0.1833     5.9991 </r>
       <r>   -15.7382     0.0085     6.0000 </r>
       <r>   -15.6355     0.0001     6.0000 </r>
       <r>   -15.5328     0.0000     6.0000 </r>
       <r>   -15.4301     0.0000     6.0000 </r>
       <r>   -15.3273     0.0000     6.0000 </r>
       <r>   -15.2246     0.0000     6.0000 </r>
       <r>   -15.1219     0.0000     6.0000 </r>
       <r>   -15.0191     0.0000     6.0000 </r>
       <r>   -14.9164     0.0000     6.0000 </r>
       <r>   -14.8137     0.0000     6.0000 </r>
       <r>   -14.7109     0.0000     6.0000 </r>
       <r>   -14.6082     0.0000     6.0000 </r>
       <r>   -14.5055     0.0000     6.0000 </r>
       <r>   -14.4027     0.0005     6.0000 </r>
       <r>   -14.3000     0.0310     6.0032 </r>
       <r>   -14.1973     0.4177     6.0461 </r>
       <r>   -14.0945     1.4486     6.1950 </r>
       <r>   -13.9918     2.0635     6.4069 </r>
       <r>   -13.8891     2.5298     6.6668 </r>
       <r>   -13.7863     2.8616     6.9608 </r>
       <r>   -13.6836     3.6587     7.3367 </r>
       <r>   -13.5809     2.7207     7.6162 </r>
       <r>   -13.4782     1.7092     7.7918 </r>
       <r>   -13.3754     1.7631     7.9729 </r>
       <r>   -13.2727     1.2773     8.1041 </r>
       <r>   -13.1700     1.4650     8.2546 </r>
       <r>   -13.0672     1.2909     8.3872 </r>
       <r>   -12.9645     1.3125     8.5221 </r>
       <r>   -12.8618     1.2712     8.6527 </r>
       <r>   -12.7590     1.3376     8.7901 </r>
       <r>   -12.6563     2.0814     9.0039 </r>
       <r>   -12.5536     1.7637     9.1851 </r>
       <r>   -12.4508     1.9989     9.3904 </r>
       <r>   -12.3481     1.7914     9.5745 </r>
       <r>   -12.2454     1.4400     9.7224 </r>
       <r>   -12.1426     1.7109     9.8982 </r>
       <r>   -12.0399     1.2818    10.0298 </r>
       <r>   -11.9372     1.3169    10.1651 </r>
       <r>   -11.8344     1.1317    10.2814 </r>
       <r>   -11.7317     0.4777    10.3305 </r>
       <r>   -11.6290     0.3482    10.3663 </r>
       <r>   -11.5263     0.6819    10.4363 </r>
       <r>   -11.4235     0.4564    10.4832 </r>
       <r>   -11.3208     0.2654    10.5105 </r>
       <r>   -11.2181     0.6896    10.5813 </r>
       <r>   -11.1153     1.0643    10.6906 </r>
       <r>   -11.0126     0.7333    10.7660 </r>
       <r>   -10.9099     0.6760    10.8354 </r>
       <r>   -10.8071     1.5145    10.9910 </r>
       <r>   -10.7044     1.8760    11.1837 </r>
       <r>   -10.6017     1.3158    11.3189 </r>
       <r>   -10.4989     1.5406    11.4772 </r>
       <r>   -10.3962     2.3448    11.7181 </r>
       <r>   -10.2935     2.1907    11.9431 </r>
       <r>   -10.1907     2.1539    12.1644 </r>
       <r>   -10.0880     1.7229    12.3414 </r>
       <r>    -9.9853     1.1896    12.4636 </r>
       <r>    -9.8825     1.6987    12.6381 </r>
       <r>    -9.7798     2.8783    12.9338 </r>
       <r>    -9.6771     2.6883    13.2100 </r>
       <r>    -9.5744     1.7183    13.3865 </r>
       <r>    -9.4716     2.3143    13.6242 </r>
       <r>    -9.3689     2.2898    13.8595 </r>
       <r>    -9.2662     1.4991    14.0135 </r>
       <r>    -9.1634     1.8216    14.2006 </r>
       <r>    -9.0607     2.3353    14.4405 </r>
       <r>    -8.9580     2.6218    14.7099 </r>
       <r>    -8.8552     2.5072    14.9674 </r>
       <r>    -8.7525     2.3230    15.2061 </r>
       <r>    -8.6498     2.8449    15.4983 </r>
       <r>    -8.5470     2.9119    15.7975 </r>
       <r>    -8.4443     2.8723    16.0926 </r>
       <r>    -8.3416     2.3001    16.3289 </r>
       <r>    -8.2388     2.0152    16.5359 </r>
       <r>    -8.1361     2.0539    16.7469 </r>
       <r>    -8.0334     2.4599    16.9996 </r>
       <r>    -7.9306     3.1340    17.3216 </r>
       <r>    -7.8279     4.1463    17.7475 </r>
       <r>    -7.7252     4.2281    18.1819 </r>
       <r>    -7.6225     4.4434    18.6383 </r>
       <r>    -7.5197     3.8763    19.0366 </r>
       <r>    -7.4170     2.5232    19.2958 </r>
       <r>    -7.3143     1.7653    19.4771 </r>
       <r>    -7.2115     1.9669    19.6792 </r>
       <r>    -7.1088     2.1694    19.9020 </r>
       <r>    -7.0061     1.6170    20.0682 </r>
       <r>    -6.9033     1.7346    20.2464 </r>
       <r>    -6.8006     1.6232    20.4131 </r>
       <r>    -6.6979     1.7035    20.5881 </r>
       <r>    -6.5951     2.9526    20.8915 </r>
       <r>    -6.4924     4.0736    21.3099 </r>
       <r>    -6.3897     6.8997    22.0188 </r>
       <r>    -6.2869     7.9784    22.8384 </r>
       <r>    -6.1842     5.6718    23.4211 </r>
       <r>    -6.0815     3.9896    23.8309 </r>
       <r>    -5.9787     2.6680    24.1050 </r>
       <r>    -5.8760     2.1919    24.3302 </r>
       <r>    -5.7733     2.6522    24.6027 </r>
       <r>    -5.6706     2.1642    24.8250 </r>
       <r>    -5.5678     2.6146    25.0936 </r>
       <r>    -5.4651     2.7499    25.3761 </r>
       <r>    -5.3624     2.6209    25.6453 </r>
       <r>    -5.2596     3.1311    25.9670 </r>
       <r>    -5.1569     3.1413    26.2897 </r>
       <r>    -5.0542     3.7618    26.6762 </r>
       <r>    -4.9514     4.2828    27.1161 </r>
       <r>    -4.8487     4.1790    27.5455 </r>
       <r>    -4.7460     4.8334    28.0420 </r>
       <r>    -4.6432     4.6898    28.5238 </r>
       <r>    -4.5405     3.7442    28.9084 </r>
       <r>    -4.4378     2.9332    29.2098 </r>
       <r>    -4.3350     1.5213    29.3661 </r>
       <r>    -4.2323     1.2612    29.4956 </r>
       <r>    -4.1296     1.2370    29.6227 </r>
       <r>    -4.0268     1.1357    29.7394 </r>
       <r>    -3.9241     1.1297    29.8554 </r>
       <r>    -3.8214     0.9299    29.9510 </r>
       <r>    -3.7187     0.4201    29.9941 </r>
       <r>    -3.6159     0.0558    29.9998 </r>
       <r>    -3.5132     0.0015    30.0000 </r>
       <r>    -3.4105     0.0001    30.0000 </r>
       <r>    -3.3077     0.0064    30.0007 </r>
       <r>    -3.2050     0.1329    30.0143 </r>
       <r>    -3.1023     0.7039    30.0866 </r>
       <r>    -2.9995     1.4181    30.2323 </r>
       <r>    -2.8968     1.4610    30.3824 </r>
       <r>    -2.7941     1.9640    30.5842 </r>
       <r>    -2.6913     2.4169    30.8325 </r>
       <r>    -2.5886     2.3948    31.0785 </r>
       <r>    -2.4859     2.5064    31.3360 </r>
       <r>    -2.3831     1.6008    31.5004 </r>
       <r>    -2.2804     1.0298    31.6062 </r>
       <r>    -2.1777     1.1295    31.7223 </r>
       <r>    -2.0749     0.9225    31.8170 </r>
       <r>    -1.9722     0.4846    31.8668 </r>
       <r>    -1.8695     0.4570    31.9138 </r>
       <r>    -1.7668     0.3973    31.9546 </r>
       <r>    -1.6640     0.1415    31.9691 </r>
       <r>    -1.5613     0.1568    31.9852 </r>
       <r>    -1.4586     0.1258    31.9982 </r>
       <r>    -1.3558     0.0192    32.0001 </r>
       <r>    -1.2531     0.0403    32.0043 </r>
       <r>    -1.1504     0.1611    32.0208 </r>
       <r>    -1.0476     0.1300    32.0342 </r>
       <r>    -0.9449     0.2090    32.0556 </r>
       <r>    -0.8422     0.4603    32.1029 </r>
       <r>    -0.7394     0.3309    32.1369 </r>
       <r>    -0.6367     0.3804    32.1760 </r>
       <r>    -0.5340     0.8032    32.2585 </r>
       <r>    -0.4312     0.8070    32.3414 </r>
       <r>    -0.3285     0.6371    32.4069 </r>
       <r>    -0.2258     1.7749    32.5892 </r>
       <r>    -0.1230     3.0144    32.8989 </r>
       <r>    -0.0203     2.6104    33.1671 </r>
       <r>     0.0824     2.0763    33.3804 </r>
       <r>     0.1851     2.0256    33.5885 </r>
       <r>     0.2879     1.4162    33.7340 </r>
       <r>     0.3906     1.0384    33.8406 </r>
       <r>     0.4933     1.6373    34.0088 </r>
       <r>     0.5961     1.7086    34.1844 </r>
       <r>     0.6988     1.0923    34.2966 </r>
       <r>     0.8015     1.1977    34.4196 </r>
       <r>     0.9043     1.3835    34.5618 </r>
       <r>     1.0070     1.8486    34.7517 </r>
       <r>     1.1097     1.8280    34.9395 </r>
       <r>     1.2125     1.8905    35.1337 </r>
       <r>     1.3152     2.1724    35.3568 </r>
       <r>     1.4179     1.8901    35.5510 </r>
       <r>     1.5207     2.4704    35.8048 </r>
       <r>     1.6234     2.3491    36.0461 </r>
       <r>     1.7261     2.3601    36.2886 </r>
       <r>     1.8289     2.4903    36.5444 </r>
       <r>     1.9316     2.6714    36.8189 </r>
       <r>     2.0343     2.9558    37.1225 </r>
       <r>     2.1370     3.1791    37.4491 </r>
       <r>     2.2398     3.1904    37.7769 </r>
       <r>     2.3425     3.4447    38.1307 </r>
       <r>     2.4452     4.0254    38.5443 </r>
       <r>     2.5480     3.8917    38.9441 </r>
       <r>     2.6507     3.6555    39.3196 </r>
       <r>     2.7534     4.1434    39.7453 </r>
       <r>     2.8562     3.8514    40.1409 </r>
       <r>     2.9589     3.3580    40.4859 </r>
       <r>     3.0616     4.0807    40.9051 </r>
       <r>     3.1644     4.1269    41.3291 </r>
       <r>     3.2671     3.5103    41.6897 </r>
       <r>     3.3698     3.6023    42.0598 </r>
       <r>     3.4726     3.9461    42.4652 </r>
       <r>     3.5753     4.1160    42.8880 </r>
       <r>     3.6780     3.4187    43.2392 </r>
       <r>     3.7808     3.6868    43.6180 </r>
       <r>     3.8835     4.3194    44.0617 </r>
       <r>     3.9862     3.7921    44.4513 </r>
       <r>     4.0889     3.8960    44.8515 </r>
       <r>     4.1917     3.2723    45.1877 </r>
       <r>     4.2944     3.2107    45.5175 </r>
       <r>     4.3971     4.3750    45.9670 </r>
       <r>     4.4999     4.9216    46.4726 </r>
       <r>     4.6026     4.9237    46.9784 </r>
       <r>     4.7053     4.4678    47.4374 </r>
       <r>     4.8081     5.0296    47.9541 </r>
       <r>     4.9108     5.7999    48.5499 </r>
       <r>     5.0135     5.9430    49.1604 </r>
       <r>     5.1163     5.9163    49.7682 </r>
       <r>     5.2190     6.4483    50.4307 </r>
       <r>     5.3217     7.2460    51.1751 </r>
       <r>     5.4245     7.7263    51.9688 </r>
       <r>     5.5272     8.4773    52.8397 </r>
       <r>     5.6299     6.8405    53.5424 </r>
       <r>     5.7327     5.6682    54.1247 </r>
       <r>     5.8354     7.1244    54.8566 </r>
       <r>     5.9381     8.5148    55.7313 </r>
       <r>     6.0408     7.3655    56.4880 </r>
       <r>     6.1436     6.9649    57.2035 </r>
       <r>     6.2463     6.5037    57.8717 </r>
       <r>     6.3490     7.7778    58.6707 </r>
       <r>     6.4518     7.7054    59.4623 </r>
       <r>     6.5545     6.8635    60.1674 </r>
       <r>     6.6572     6.3433    60.8190 </r>
       <r>     6.7600     6.1593    61.4518 </r>
       <r>     6.8627     6.9176    62.1624 </r>
       <r>     6.9654     5.8179    62.7601 </r>
       <r>     7.0682     4.1543    63.1869 </r>
       <r>     7.1709     2.9453    63.4895 </r>
       <r>     7.2736     1.7547    63.6697 </r>
       <r>     7.3764     1.0133    63.7738 </r>
       <r>     7.4791     0.5422    63.8295 </r>
       <r>     7.5818     0.4038    63.8710 </r>
       <r>     7.6846     0.1914    63.8907 </r>
       <r>     7.7873     0.4054    63.9323 </r>
       <r>     7.8900     0.4381    63.9773 </r>
       <r>     7.9927     0.1192    63.9896 </r>
       <r>     8.0955     0.0495    63.9947 </r>
       <r>     8.1982     0.0413    63.9989 </r>
       <r>     8.3009     0.0101    64.0000 </r>
       <r>     8.4037     0.0005    64.0000 </r>
       <r>     8.5064     0.0000    64.0000 </r>
       <r>     8.6091     0.0000    64.0000 </r>
       <r>     8.7119     0.0000    64.0000 </r>
       <r>     8.8146     0.0000    64.0000 </r>
       <r>     8.9173     0.0000    64.0000 </r>
       <r>     9.0201     0.0000    64.0000 </r>
       <r>     9.1228     0.0000    64.0000 </r>
       <r>     9.2255     0.0000    64.0000 </r>
       <r>     9.3283     0.0000    64.0000 </r>
       <r>     9.4310     0.0000    64.0000 </r>
       <r>     9.5337     0.0000    64.0000 </r>
      </set>
     </set>
    </array>
   </total>
  </dos>
 </calculation>
 <structure name="finalpos" >
  <crystal>
   <varray name="basis" >
    <v>       4.47648500       2.58450000       0.00000000 </v>
    <v>      -4.47648500       2.58450000       0.00000000 </v>
    <v>       0.00000000       0.00000000      15.00000000 </v>
   </varray>
   <i name="volume">    347.08426447 </i>
   <varray name="rec_basis" >
    <v>       0.11169478       0.19346102       0.00000000 </v>
    <v>      -0.11169478       0.19346102       0.00000000 </v>
    <v>       0.00000000       0.00000000       0.06666667 </v>
   </varray>
  </crystal>
  <varray name="positions" >
   <v>       0.33833034       0.66916432       0.25000000 </v>
   <v>       0.67165522       0.33584146       0.25000000 </v>
   <v>       0.16373946       0.31999962       0.25000000 </v>
   <v>       0.32250218       0.16126397       0.25000000 </v>
   <v>       0.16376430       0.84376384       0.25000000 </v>
   <v>       0.84623863       0.16123684       0.25000000 </v>
   <v>       0.68749850       0.84373000       0.25000000 </v>
   <v>       0.84626736       0.68499594       0.25000000 </v>
  </varray>
 </structure>
</modeling>
