   16   16    1    1
  0.2012733E+02  0.4979000E-09  0.4979000E-09  0.1500000E-08  0.5000000E-15
  1.000000000000000E-004
  CAR 
 BS                                      
     56    192     48
 
  0.3330000E+00  0.3330000E+00  0.0000000E+00  0.5208333E-02
      1        -17.809400   1.000000
      2        -17.803132   1.000000
      3        -17.799817   1.000000
      4        -14.673876   1.000000
      5        -14.669225   1.000000
      6        -12.939174   1.000000
      7        -12.932296   1.000000
      8        -12.596891   1.000000
      9        -10.767982   1.000000
     10         -9.025322   1.000000
     11         -9.021043   1.000000
     12         -8.153806   1.000000
     13         -8.150624   1.000000
     14         -8.143283   1.000000
     15         -7.639974   1.000000
     16         -7.479516   1.000000
     17         -6.756010   1.000000
     18         -6.754385   1.000000
     19         -6.747034   1.000000
     20         -5.866564   1.000000
     21         -5.780475   1.000000
     22         -5.673695   1.000000
     23         -4.636880   1.000000
     24         -4.539485   1.000000
     25         -3.935160   1.000000
     26         -3.923021   1.000000
     27         -2.688413   1.000000
     28         -0.474399   0.985338
     29         -0.466435   0.980608
     30          2.773371   0.000000
     31          2.802526   0.000000
     32          3.715504   0.000000
     33          3.721308   0.000000
     34          4.304683   0.000000
     35          4.513427   0.000000
     36          5.287906   0.000000
     37          5.297129   0.000000
     38          5.652796   0.000000
     39          5.755117   0.000000
     40          5.758236   0.000000
     41          5.777699   0.000000
     42          6.147147   0.000000
     43          6.161195   0.000000
     44          6.333040   0.000000
     45          6.905337   0.000000
     46          6.984758   0.000000
     47          7.415366   0.000000
     48          7.916127   0.000000
 
  0.3277143E+00  0.3277143E+00  0.0000000E+00  0.5208333E-02
      1        -17.867336   1.000000
      2        -17.774086   1.000000
      3        -17.769376   1.000000
      4        -14.700788   1.000000
      5        -14.642251   1.000000
      6        -12.991248   1.000000
      7        -12.882649   1.000000
      8        -12.595894   1.000000
      9        -10.764425   1.000000
     10         -9.060679   1.000000
     11         -8.989645   1.000000
     12         -8.203925   1.000000
     13         -8.200773   1.000000
     14         -8.048164   1.000000
     15         -7.635593   1.000000
     16         -7.480415   1.000000
     17         -6.794280   1.000000
     18         -6.792772   1.000000
     19         -6.666260   1.000000
     20         -5.890206   1.000000
     21         -5.769934   1.000000
     22         -5.659101   1.000000
     23         -4.651828   1.000000
     24         -4.524726   1.000000
     25         -3.945525   1.000000
     26         -3.913566   1.000000
     27         -2.686312   1.000000
     28         -0.539707   0.999041
     29         -0.401692   0.875105
     30          2.705343   0.000000
     31          2.865662   0.000000
     32          3.691310   0.000000
     33          3.747505   0.000000
     34          4.310534   0.000000
     35          4.515581   0.000000
     36          5.246062   0.000000
     37          5.332491   0.000000
     38          5.654848   0.000000
     39          5.700855   0.000000
     40          5.705689   0.000000
     41          5.888631   0.000000
     42          6.103997   0.000000
     43          6.191410   0.000000
     44          6.347106   0.000000
     45          6.883598   0.000000
     46          7.003330   0.000000
     47          7.417731   0.000000
     48          7.898399   0.000000
 
  0.3224286E+00  0.3224286E+00  0.0000000E+00  0.5208333E-02
      1        -17.925765   1.000000
      2        -17.742734   1.000000
      3        -17.737993   1.000000
      4        -14.728391   1.000000
      5        -14.614427   1.000000
      6        -13.042518   1.000000
      7        -12.838427   1.000000
      8        -12.593033   1.000000
      9        -10.754325   1.000000
     10         -9.096176   1.000000
     11         -8.965215   1.000000
     12         -8.258826   1.000000
     13         -8.255646   1.000000
     14         -7.952656   1.000000
     15         -7.623352   1.000000
     16         -7.483100   1.000000
     17         -6.828867   1.000000
     18         -6.827380   1.000000
     19         -6.585519   1.000000
     20         -5.940334   1.000000
     21         -5.742413   1.000000
     22         -5.632330   1.000000
     23         -4.682303   1.000000
     24         -4.494464   1.000000
     25         -3.958091   1.000000
     26         -3.903809   1.000000
     27         -2.680309   1.000000
     28         -0.609744   0.999979
     29         -0.332762   0.569870
     30          2.637132   0.000000
     31          2.918617   0.000000
     32          3.667528   0.000000
     33          3.776664   0.000000
     34          4.327487   0.000000
     35          4.521118   0.000000
     36          5.193050   0.000000
     37          5.370356   0.000000
     38          5.630732   0.000000
     39          5.643489   0.000000
     40          5.685771   0.000000
     41          6.000867   0.000000
     42          6.042910   0.000000
     43          6.232198   0.000000
     44          6.374975   0.000000
     45          6.845606   0.000000
     46          7.032392   0.000000
     47          7.423700   0.000000
     48          7.864241   0.000000
 
  0.3171429E+00  0.3171429E+00  0.0000000E+00  0.5208333E-02
      1        -17.983325   1.000000
      2        -17.710426   1.000000
      3        -17.705677   1.000000
      4        -14.756597   1.000000
      5        -14.585795   1.000000
      6        -13.092982   1.000000
      7        -12.799884   1.000000
      8        -12.588378   1.000000
      9        -10.737441   1.000000
     10         -9.131721   1.000000
     11         -8.947947   1.000000
     12         -8.318388   1.000000
     13         -8.315182   1.000000
     14         -7.856814   1.000000
     15         -7.603196   1.000000
     16         -7.487622   1.000000
     17         -6.859659   1.000000
     18         -6.858188   1.000000
     19         -6.504960   1.000000
     20         -5.998745   1.000000
     21         -5.708518   1.000000
     22         -5.601056   1.000000
     23         -4.718558   1.000000
     24         -4.458290   1.000000
     25         -3.970003   1.000000
     26         -3.896288   1.000000
     27         -2.670606   1.000000
     28         -0.678781   1.000000
     29         -0.265447   0.218895
     30          2.569765   0.000000
     31          2.959565   0.000000
     32          3.644365   0.000000
     33          3.808460   0.000000
     34          4.356166   0.000000
     35          4.530085   0.000000
     36          5.134164   0.000000
     37          5.407002   0.000000
     38          5.573751   0.000000
     39          5.586914   0.000000
     40          5.700119   0.000000
     41          5.979446   0.000000
     42          6.115511   0.000000
     43          6.274742   0.000000
     44          6.408259   0.000000
     45          6.800882   0.000000
     46          7.065407   0.000000
     47          7.430221   0.000000
     48          7.832444   0.000000
 
  0.3118571E+00  0.3118571E+00  0.0000000E+00  0.5208333E-02
      1        -18.039996   1.000000
      2        -17.677181   1.000000
      3        -17.672432   1.000000
      4        -14.785335   1.000000
      5        -14.556360   1.000000
      6        -13.142639   1.000000
      7        -12.767190   1.000000
      8        -12.581997   1.000000
      9        -10.713658   1.000000
     10         -9.167311   1.000000
     11         -8.937697   1.000000
     12         -8.382430   1.000000
     13         -8.379200   1.000000
     14         -7.760751   1.000000
     15         -7.575406   1.000000
     16         -7.493976   1.000000
     17         -6.886750   1.000000
     18         -6.885292   1.000000
     19         -6.424658   1.000000
     20         -6.059630   1.000000
     21         -5.671844   1.000000
     22         -5.567606   1.000000
     23         -4.757282   1.000000
     24         -4.419344   1.000000
     25         -3.980824   1.000000
     26         -3.891087   1.000000
     27         -2.657409   1.000000
     28         -0.746753   1.000000
     29         -0.199879   0.044265
     30          2.503331   0.000000
     31          2.988187   0.000000
     32          3.621719   0.000000
     33          3.842976   0.000000
     34          4.396370   0.000000
     35          4.542575   0.000000
     36          5.071955   0.000000
     37          5.431825   0.000000
     38          5.511233   0.000000
     39          5.542732   0.000000
     40          5.713839   0.000000
     41          5.924884   0.000000
     42          6.227466   0.000000
     43          6.318767   0.000000
     44          6.443379   0.000000
     45          6.754156   0.000000
     46          7.100169   0.000000
     47          7.433270   0.000000
     48          7.810299   0.000000
 
  0.3065714E+00  0.3065714E+00  0.0000000E+00  0.5208333E-02
      1        -18.095770   1.000000
      2        -17.643008   1.000000
      3        -17.638261   1.000000
      4        -14.814526   1.000000
      5        -14.526125   1.000000
      6        -13.191479   1.000000
      7        -12.740367   1.000000
      8        -12.573956   1.000000
      9        -10.682943   1.000000
     10         -9.202925   1.000000
     11         -8.934067   1.000000
     12         -8.450757   1.000000
     13         -8.447502   1.000000
     14         -7.664533   1.000000
     15         -7.540864   1.000000
     16         -7.501753   1.000000
     17         -6.910266   1.000000
     18         -6.908818   1.000000
     19         -6.344632   1.000000
     20         -6.121127   1.000000
     21         -5.633491   1.000000
     22         -5.532909   1.000000
     23         -4.797177   1.000000
     24         -4.378748   1.000000
     25         -3.990273   1.000000
     26         -3.888067   1.000000
     27         -2.640924   1.000000
     28         -0.813620   1.000000
     29         -0.136072   0.004586
     30          2.437882   0.000000
     31          3.004817   0.000000
     32          3.599447   0.000000
     33          3.880405   0.000000
     34          4.446974   0.000000
     35          4.558786   0.000000
     36          5.007999   0.000000
     37          5.412413   0.000000
     38          5.445948   0.000000
     39          5.543200   0.000000
     40          5.711452   0.000000
     41          5.890022   0.000000
     42          6.337249   0.000000
     43          6.364153   0.000000
     44          6.477921   0.000000
     45          6.710204   0.000000
     46          7.135922   0.000000
     47          7.428297   0.000000
     48          7.790842   0.000000
 
  0.3012857E+00  0.3012857E+00  0.0000000E+00  0.5208333E-02
      1        -18.150643   1.000000
      2        -17.607908   1.000000
      3        -17.603164   1.000000
      4        -14.844120   1.000000
      5        -14.495095   1.000000
      6        -13.239504   1.000000
      7        -12.719331   1.000000
      8        -12.564331   1.000000
      9        -10.645407   1.000000
     10         -9.238547   1.000000
     11         -8.936461   1.000000
     12         -8.523090   1.000000
     13         -8.519807   1.000000
     14         -7.568846   1.000000
     15         -7.515656   1.000000
     16         -7.494954   1.000000
     17         -6.930482   1.000000
     18         -6.929041   1.000000
     19         -6.264954   1.000000
     20         -6.182462   1.000000
     21         -5.593908   1.000000
     22         -5.497461   1.000000
     23         -4.837477   1.000000
     24         -4.337063   1.000000
     25         -3.998113   1.000000
     26         -3.886973   1.000000
     27         -2.621352   1.000000
     28         -0.879333   1.000000
     29         -0.074046   0.000248
     30          2.373458   0.000000
     31          3.010360   0.000000
     32          3.577336   0.000000
     33          3.920938   0.000000
     34          4.505785   0.000000
     35          4.579262   0.000000
     36          4.943311   0.000000
     37          5.356989   0.000000
     38          5.378423   0.000000
     39          5.579597   0.000000
     40          5.681497   0.000000
     41          5.885887   0.000000
     42          6.410801   0.000000
     43          6.434757   0.000000
     44          6.514096   0.000000
     45          6.677287   0.000000
     46          7.171989   0.000000
     47          7.410669   0.000000
     48          7.764755   0.000000
 
  0.2960000E+00  0.2960000E+00  0.0000000E+00  0.5208333E-02
      1        -18.204612   1.000000
      2        -17.571882   1.000000
      3        -17.567143   1.000000
      4        -14.874040   1.000000
      5        -14.463271   1.000000
      6        -13.286714   1.000000
      7        -12.703877   1.000000
      8        -12.553195   1.000000
      9        -10.601300   1.000000
     10         -9.274166   1.000000
     11         -8.944166   1.000000
     12         -8.599128   1.000000
     13         -8.595811   1.000000
     14         -7.529199   1.000000
     15         -7.469496   1.000000
     16         -7.449254   1.000000
     17         -6.947555   1.000000
     18         -6.946118   1.000000
     19         -6.243599   1.000000
     20         -6.185360   1.000000
     21         -5.553375   1.000000
     22         -5.461661   1.000000
     23         -4.877525   1.000000
     24         -4.294719   1.000000
     25         -4.004133   1.000000
     26         -3.887424   1.000000
     27         -2.598887   1.000000
     28         -0.944029   1.000000
     29         -0.013959   0.000007
     30          2.310094   0.000000
     31          3.006087   0.000000
     32          3.555253   0.000000
     33          3.964679   0.000000
     34          4.567628   0.000000
     35          4.606999   0.000000
     36          4.878732   0.000000
     37          5.291485   0.000000
     38          5.309342   0.000000
     39          5.613603   0.000000
     40          5.644571   0.000000
     41          5.904025   0.000000
     42          6.458281   0.000000
     43          6.472084   0.000000
     44          6.588202   0.000000
     45          6.668561   0.000000
     46          7.208017   0.000000
     47          7.379278   0.000000
     48          7.589931   0.000000
 
  0.2907143E+00  0.2907143E+00  0.0000000E+00  0.5208333E-02
      1        -18.257671   1.000000
      2        -17.534933   1.000000
      3        -17.530199   1.000000
      4        -14.904208   1.000000
      5        -14.430658   1.000000
      6        -13.333106   1.000000
      7        -12.693696   1.000000
      8        -12.540628   1.000000
      9        -10.550942   1.000000
     10         -9.309771   1.000000
     11         -8.956428   1.000000
     12         -8.678501   1.000000
     13         -8.675135   1.000000
     14         -7.543196   1.000000
     15         -7.397669   1.000000
     16         -7.372729   1.000000
     17         -6.961731   1.000000
     18         -6.960296   1.000000
     19         -6.303756   1.000000
     20         -6.106440   1.000000
     21         -5.512228   1.000000
     22         -5.425986   1.000000
     23         -4.916534   1.000000
     24         -4.252205   1.000000
     25         -4.008153   1.000000
     26         -3.888861   1.000000
     27         -2.573712   1.000000
     28         -1.007628   1.000000
     29          0.044189   0.000000
     30          2.247827   0.000000
     31          2.993437   0.000000
     32          3.532936   0.000000
     33          4.011601   0.000000
     34          4.614654   0.000000
     35          4.656650   0.000000
     36          4.815593   0.000000
     37          5.221856   0.000000
     38          5.238763   0.000000
     39          5.565018   0.000000
     40          5.687012   0.000000
     41          5.931315   0.000000
     42          6.452487   0.000000
     43          6.508165   0.000000
     44          6.684823   0.000000
     45          6.694864   0.000000
     46          7.242754   0.000000
     47          7.334819   0.000000
     48          7.470652   0.000000
 
  0.2854286E+00  0.2854286E+00  0.0000000E+00  0.5208333E-02
      1        -18.309816   1.000000
      2        -17.497066   1.000000
      3        -17.492338   1.000000
      4        -14.934583   1.000000
      5        -14.397268   1.000000
      6        -13.378679   1.000000
      7        -12.688398   1.000000
      8        -12.526713   1.000000
      9        -10.494717   1.000000
     10         -9.345352   1.000000
     11         -8.972513   1.000000
     12         -8.760954   1.000000
     13         -8.757509   1.000000
     14         -7.560273   1.000000
     15         -7.341213   1.000000
     16         -7.275833   1.000000
     17         -6.973349   1.000000
     18         -6.971914   1.000000
     19         -6.363170   1.000000
     20         -6.027845   1.000000
     21         -5.470938   1.000000
     22         -5.390956   1.000000
     23         -4.953429   1.000000
     24         -4.210183   1.000000
     25         -4.010054   1.000000
     26         -3.890426   1.000000
     27         -2.545999   1.000000
     28         -1.070120   1.000000
     29          0.100391   0.000000
     30          2.186694   0.000000
     31          2.973838   0.000000
     32          3.510206   0.000000
     33          4.061566   0.000000
     34          4.646321   0.000000
     35          4.715464   0.000000
     36          4.764951   0.000000
     37          5.150094   0.000000
     38          5.167641   0.000000
     39          5.502535   0.000000
     40          5.744535   0.000000
     41          5.960459   0.000000
     42          6.416847   0.000000
     43          6.558252   0.000000
     44          6.721296   0.000000
     45          6.802057   0.000000
     46          7.268509   0.000000
     47          7.278783   0.000000
     48          7.371667   0.000000
 
  0.2801429E+00  0.2801429E+00  0.0000000E+00  0.5208333E-02
      1        -18.361050   1.000000
      2        -17.458280   1.000000
      3        -17.453557   1.000000
      4        -14.965074   1.000000
      5        -14.363091   1.000000
      6        -13.423432   1.000000
      7        -12.687561   1.000000
      8        -12.511517   1.000000
      9        -10.433132   1.000000
     10         -9.380893   1.000000
     11         -8.991767   1.000000
     12         -8.846111   1.000000
     13         -8.842508   1.000000
     14         -7.579751   1.000000
     15         -7.281712   1.000000
     16         -7.178589   1.000000
     17         -6.982550   1.000000
     18         -6.981113   1.000000
     19         -6.421726   1.000000
     20         -5.949689   1.000000
     21         -5.430523   1.000000
     22         -5.357147   1.000000
     23         -4.986578   1.000000
     24         -4.169673   1.000000
     25         -4.009823   1.000000
     26         -3.890760   1.000000
     27         -2.515911   1.000000
     28         -1.131496   1.000000
     29          0.154515   0.000000
     30          2.126727   0.000000
     31          2.948574   0.000000
     32          3.486823   0.000000
     33          4.114320   0.000000
     34          4.658944   0.000000
     35          4.701394   0.000000
     36          4.809403   0.000000
     37          5.076739   0.000000
     38          5.097212   0.000000
     39          5.438620   0.000000
     40          5.806601   0.000000
     41          5.986468   0.000000
     42          6.379749   0.000000
     43          6.609298   0.000000
     44          6.762693   0.000000
     45          6.910599   0.000000
     46          7.200111   0.000000
     47          7.232354   0.000000
     48          7.339866   0.000000
 
  0.2748571E+00  0.2748571E+00  0.0000000E+00  0.5208333E-02
      1        -18.411363   1.000000
      2        -17.418579   1.000000
      3        -17.413862   1.000000
      4        -14.995655   1.000000
      5        -14.328138   1.000000
      6        -13.467363   1.000000
      7        -12.690726   1.000000
      8        -12.495126   1.000000
      9        -10.366648   1.000000
     10         -9.416403   1.000000
     11         -9.013762   1.000000
     12         -8.933715   1.000000
     13         -8.929688   1.000000
     14         -7.601535   1.000000
     15         -7.219938   1.000000
     16         -7.081159   1.000000
     17         -6.989666   1.000000
     18         -6.988224   1.000000
     19         -6.479252   1.000000
     20         -5.872032   1.000000
     21         -5.393424   1.000000
     22         -5.324617   1.000000
     23         -5.013409   1.000000
     24         -4.132238   1.000000
     25         -4.007677   1.000000
     26         -3.887731   1.000000
     27         -2.483597   1.000000
     28         -1.191746   1.000000
     29          0.206558   0.000000
     30          2.067963   0.000000
     31          2.918757   0.000000
     32          3.462554   0.000000
     33          4.169486   0.000000
     34          4.609724   0.000000
     35          4.723093   0.000000
     36          4.876180   0.000000
     37          5.002286   0.000000
     38          5.032679   0.000000
     39          5.374922   0.000000
     40          5.872373   0.000000
     41          6.004089   0.000000
     42          6.350296   0.000000
     43          6.660774   0.000000
     44          6.805921   0.000000
     45          7.014243   0.000000
     46          7.088056   0.000000
     47          7.171098   0.000000
     48          7.368209   0.000000
 
  0.2695714E+00  0.2695714E+00  0.0000000E+00  0.5208333E-02
      1        -18.460751   1.000000
      2        -17.377971   1.000000
      3        -17.373260   1.000000
      4        -15.026256   1.000000
      5        -14.292413   1.000000
      6        -13.510472   1.000000
      7        -12.697438   1.000000
      8        -12.477603   1.000000
      9        -10.295757   1.000000
     10         -9.451868   1.000000
     11         -9.040460   1.000000
     12         -9.023520   1.000000
     13         -9.016303   1.000000
     14         -7.625590   1.000000
     15         -7.156696   1.000000
     16         -6.994919   1.000000
     17         -6.993528   1.000000
     18         -6.983608   1.000000
     19         -6.535659   1.000000
     20         -5.794820   1.000000
     21         -5.365174   1.000000
     22         -5.291434   1.000000
     23         -5.030354   1.000000
     24         -4.100026   1.000000
     25         -4.004095   1.000000
     26         -3.878322   1.000000
     27         -2.449204   1.000000
     28         -1.250857   1.000000
     29          0.256475   0.000000
     30          2.010440   0.000000
     31          2.885309   0.000000
     32          3.437241   0.000000
     33          4.226483   0.000000
     34          4.548919   0.000000
     35          4.751521   0.000000
     36          4.911167   0.000000
     37          4.927584   0.000000
     38          5.004708   0.000000
     39          5.312471   0.000000
     40          5.939529   0.000000
     41          6.009300   0.000000
     42          6.335929   0.000000
     43          6.710963   0.000000
     44          6.845237   0.000000
     45          6.969586   0.000000
     46          7.059713   0.000000
     47          7.168902   0.000000
     48          7.403030   0.000000
 
  0.2642857E+00  0.2642857E+00  0.0000000E+00  0.5208333E-02
      1        -18.509218   1.000000
      2        -17.336449   1.000000
      3        -17.331745   1.000000
      4        -15.056822   1.000000
      5        -14.255926   1.000000
      6        -13.552757   1.000000
      7        -12.707255   1.000000
      8        -12.459021   1.000000
      9        -10.220945   1.000000
     10         -9.487287   1.000000
     11         -9.115285   1.000000
     12         -9.113831   1.000000
     13         -9.059476   1.000000
     14         -7.651860   1.000000
     15         -7.092830   1.000000
     16         -6.998420   1.000000
     17         -6.996984   1.000000
     18         -6.886136   1.000000
     19         -6.590786   1.000000
     20         -5.718225   1.000000
     21         -5.352958   1.000000
     22         -5.253863   1.000000
     23         -5.033766   1.000000
     24         -4.075347   1.000000
     25         -3.999390   1.000000
     26         -3.859475   1.000000
     27         -2.412858   1.000000
     28         -1.308814   1.000000
     29          0.304220   0.000000
     30          1.954197   0.000000
     31          2.848980   0.000000
     32          3.410688   0.000000
     33          4.284311   0.000000
     34          4.487335   0.000000
     35          4.758344   0.000000
     36          4.851125   0.000000
     37          4.897311   0.000000
     38          5.047359   0.000000
     39          5.253070   0.000000
     40          5.974542   0.000000
     41          6.031952   0.000000
     42          6.340512   0.000000
     43          6.747013   0.000000
     44          6.847257   0.000000
     45          6.883729   0.000000
     46          7.028250   0.000000
     47          7.265254   0.000000
     48          7.438537   0.000000
 
  0.2590000E+00  0.2590000E+00  0.0000000E+00  0.5208333E-02
      1        -18.556759   1.000000
      2        -17.294021   1.000000
      3        -17.289323   1.000000
      4        -15.087304   1.000000
      5        -14.218682   1.000000
      6        -13.594217   1.000000
      7        -12.719760   1.000000
      8        -12.439452   1.000000
      9        -10.142672   1.000000
     10         -9.522667   1.000000
     11         -9.208618   1.000000
     12         -9.206371   1.000000
     13         -9.086293   1.000000
     14         -7.680311   1.000000
     15         -7.029331   1.000000
     16         -7.000440   1.000000
     17         -6.999017   1.000000
     18         -6.788626   1.000000
     19         -6.644278   1.000000
     20         -5.642231   1.000000
     21         -5.358699   1.000000
     22         -5.211140   1.000000
     23         -5.022480   1.000000
     24         -4.059879   1.000000
     25         -3.992666   1.000000
     26         -3.830008   1.000000
     27         -2.374683   1.000000
     28         -1.365597   1.000000
     29          0.349751   0.000000
     30          1.899279   0.000000
     31          2.810378   0.000000
     32          3.382721   0.000000
     33          4.340790   0.000000
     34          4.426218   0.000000
     35          4.718300   0.000000
     36          4.777454   0.000000
     37          4.912452   0.000000
     38          5.095445   0.000000
     39          5.204879   0.000000
     40          5.947128   0.000000
     41          6.104175   0.000000
     42          6.361630   0.000000
     43          6.685884   0.000000
     44          6.831442   0.000000
     45          6.867623   0.000000
     46          7.028363   0.000000
     47          7.367555   0.000000
     48          7.474350   0.000000
 
  0.2537143E+00  0.2537143E+00  0.0000000E+00  0.5208333E-02
      1        -18.603372   1.000000
      2        -17.250689   1.000000
      3        -17.245998   1.000000
      4        -15.117653   1.000000
      5        -14.180682   1.000000
      6        -13.634850   1.000000
      7        -12.734564   1.000000
      8        -12.418956   1.000000
      9        -10.061346   1.000000
     10         -9.557998   1.000000
     11         -9.303441   1.000000
     12         -9.301006   1.000000
     13         -9.113150   1.000000
     14         -7.710878   1.000000
     15         -7.001199   1.000000
     16         -6.999716   1.000000
     17         -6.967577   1.000000
     18         -6.695340   1.000000
     19         -6.691079   1.000000
     20         -5.566887   1.000000
     21         -5.378466   1.000000
     22         -5.164910   1.000000
     23         -4.998767   1.000000
     24         -4.053662   1.000000
     25         -3.982084   1.000000
     26         -3.791270   1.000000
     27         -2.334817   1.000000
     28         -1.421181   1.000000
     29          0.393155   0.000000
     30          1.845740   0.000000
     31          2.769985   0.000000
     32          3.353176   0.000000
     33          4.363492   0.000000
     34          4.393142   0.000000
     35          4.651184   0.000000
     36          4.710533   0.000000
     37          4.954446   0.000000
     38          5.093475   0.000000
     39          5.205354   0.000000
     40          5.902792   0.000000
     41          6.184632   0.000000
     42          6.393133   0.000000
     43          6.569481   0.000000
     44          6.784696   0.000000
     45          6.903318   0.000000
     46          7.065085   0.000000
     47          7.475076   0.000000
     48          7.509625   0.000000
 
  0.2484286E+00  0.2484286E+00  0.0000000E+00  0.5208333E-02
      1        -18.649055   1.000000
      2        -17.206461   1.000000
      3        -17.201776   1.000000
      4        -15.147824   1.000000
      5        -14.141926   1.000000
      6        -13.674657   1.000000
      7        -12.751321   1.000000
      8        -12.397603   1.000000