   16   16    1    1
  0.2012733E+02  0.4979000E-09  0.4979000E-09  0.1500000E-08  0.5000000E-15
  1.000000000000000E-004
  CAR 
 BS                                      
     56    384     48
 
  0.0000000E+00  0.0000000E+00  0.0000000E+00  0.2604167E-02
      1        -19.760765   1.000000
      2        -15.904685   1.000000
      3        -14.648001   1.000000
      4        -14.645388   1.000000
      5        -14.642924   1.000000
      6        -13.521244   1.000000
      7        -13.519904   1.000000
      8        -13.518875   1.000000
      9        -11.714270   1.000000
     10        -11.529253   1.000000
     11        -11.529119   1.000000
     12         -9.329424   1.000000
     13         -9.327732   1.000000
     14         -8.074608   1.000000
     15         -7.332549   1.000000
     16         -6.799166   1.000000
     17         -6.798906   1.000000
     18         -6.796432   1.000000
     19         -6.558143   1.000000
     20         -3.509699   1.000000
     21         -3.508992   1.000000
     22         -2.843923   1.000000
     23         -2.815746   1.000000
     24         -2.810699   1.000000
     25         -1.540561   1.000000
     26         -1.539268   1.000000
     27         -0.412315   0.945858
     28         -0.343013   0.734299
     29         -0.209354   0.103051
     30          0.794481   0.000000
     31          0.884540   0.000000
     32          1.137430   0.000000
     33          1.157815   0.000000
     34          1.324518   0.000000
     35          1.699073   0.000000
     36          1.780122   0.000000
     37          2.989439   0.000000
     38          3.596570   0.000000
     39          4.481110   0.000000
     40          4.800360   0.000000
     41          6.621421   0.000000
     42          6.622371   0.000000
     43          6.626682   0.000000
     44          7.054074   0.000000
     45          7.669513   0.000000
     46          7.670597   0.000000
     47          7.682307   0.000000
     48          8.397135   0.000000
 
  0.2622047E-02  0.2622047E-02  0.0000000E+00  0.2604167E-02
      1        -19.760645   1.000000
      2        -15.904589   1.000000
      3        -14.649506   1.000000
      4        -14.645309   1.000000
      5        -14.644443   1.000000
      6        -13.519830   1.000000
      7        -13.519508   1.000000
      8        -13.517161   1.000000
      9        -11.718793   1.000000
     10        -11.530312   1.000000
     11        -11.523704   1.000000
     12         -9.329645   1.000000
     13         -9.327474   1.000000
     14         -8.074453   1.000000
     15         -7.332050   1.000000
     16         -6.799575   1.000000
     17         -6.798947   1.000000
     18         -6.796610   1.000000
     19         -6.557996   1.000000
     20         -3.510204   1.000000
     21         -3.509254   1.000000
     22         -2.844401   1.000000
     23         -2.816330   1.000000
     24         -2.810610   1.000000
     25         -1.543155   1.000000
     26         -1.539529   1.000000
     27         -0.414948   0.949827
     28         -0.345453   0.745491
     29         -0.203597   0.089189
     30          0.794398   0.000000
     31          0.884345   0.000000
     32          1.138022   0.000000
     33          1.158585   0.000000
     34          1.324550   0.000000
     35          1.700304   0.000000
     36          1.781695   0.000000
     37          2.989634   0.000000
     38          3.596771   0.000000
     39          4.481560   0.000000
     40          4.800548   0.000000
     41          6.621902   0.000000
     42          6.622617   0.000000
     43          6.627181   0.000000
     44          7.054207   0.000000
     45          7.669853   0.000000
     46          7.670579   0.000000
     47          7.682730   0.000000
     48          8.397464   0.000000
 
  0.5244094E-02  0.5244094E-02  0.0000000E+00  0.2604167E-02
      1        -19.760289   1.000000
      2        -15.904301   1.000000
      3        -14.654039   1.000000
      4        -14.649011   1.000000
      5        -14.645001   1.000000
      6        -13.519510   1.000000
      7        -13.514433   1.000000
      8        -13.512051   1.000000
      9        -11.731265   1.000000
     10        -11.530766   1.000000
     11        -11.511292   1.000000
     12         -9.330306   1.000000
     13         -9.326705   1.000000
     14         -8.074007   1.000000
     15         -7.330559   1.000000
     16         -6.800989   1.000000
     17         -6.799104   1.000000
     18         -6.797018   1.000000
     19         -6.557562   1.000000
     20         -3.511741   1.000000
     21         -3.510047   1.000000
     22         -2.845901   1.000000
     23         -2.818106   1.000000
     24         -2.810337   1.000000
     25         -1.549056   1.000000
     26         -1.542166   1.000000
     27         -0.423400   0.961025
     28         -0.350366   0.767261
     29         -0.188233   0.059020
     30          0.794151   0.000000
     31          0.883774   0.000000
     32          1.139802   0.000000
     33          1.160868   0.000000
     34          1.324640   0.000000
     35          1.703982   0.000000
     36          1.786383   0.000000
     37          2.990215   0.000000
     38          3.597368   0.000000
     39          4.482899   0.000000
     40          4.801111   0.000000
     41          6.623171   0.000000
     42          6.623278   0.000000
     43          6.628820   0.000000
     44          7.054585   0.000000
     45          7.670071   0.000000
     46          7.672228   0.000000
     47          7.683950   0.000000
     48          8.393973   0.000000
 
  0.7866142E-02  0.7866142E-02  0.0000000E+00  0.2604167E-02
      1        -19.759694   1.000000
      2        -15.903821   1.000000
      3        -14.661519   1.000000
      4        -14.656507   1.000000
      5        -14.644490   1.000000
      6        -13.519011   1.000000
      7        -13.506030   1.000000
      8        -13.503624   1.000000
      9        -11.749413   1.000000
     10        -11.531314   1.000000
     11        -11.493441   1.000000
     12         -9.331393   1.000000
     13         -9.325428   1.000000
     14         -8.073257   1.000000
     15         -7.328076   1.000000
     16         -6.803540   1.000000
     17         -6.799363   1.000000
     18         -6.797457   1.000000
     19         -6.556833   1.000000
     20         -3.514265   1.000000
     21         -3.511357   1.000000
     22         -2.848479   1.000000
     23         -2.821013   1.000000
     24         -2.809940   1.000000
     25         -1.557783   1.000000
     26         -1.547566   1.000000
     27         -0.438200   0.975696
     28         -0.353882   0.782182
     29         -0.166704   0.030914
     30          0.793750   0.000000
     31          0.882891   0.000000
     32          1.142819   0.000000
     33          1.164660   0.000000
     34          1.324795   0.000000
     35          1.710086   0.000000
     36          1.794122   0.000000
     37          2.991185   0.000000
     38          3.598366   0.000000
     39          4.485130   0.000000
     40          4.802050   0.000000
     41          6.624439   0.000000
     42          6.624929   0.000000
     43          6.631900   0.000000
     44          7.055219   0.000000
     45          7.668693   0.000000
     46          7.674296   0.000000
     47          7.685628   0.000000
     48          8.390903   0.000000
 
  0.1048819E-01  0.1048819E-01  0.0000000E+00  0.2604167E-02
      1        -19.758855   1.000000
      2        -15.903147   1.000000
      3        -14.671815   1.000000
      4        -14.666821   1.000000
      5        -14.643767   1.000000
      6        -13.518314   1.000000
      7        -13.494445   1.000000
      8        -13.492008   1.000000
      9        -11.771213   1.000000
     10        -11.532037   1.000000
     11        -11.472094   1.000000
     12         -9.332902   1.000000
     13         -9.323640   1.000000
     14         -8.072175   1.000000
     15         -7.324607   1.000000
     16         -6.807256   1.000000
     17         -6.799698   1.000000
     18         -6.797892   1.000000
     19         -6.555807   1.000000
     20         -3.517797   1.000000
     21         -3.513189   1.000000
     22         -2.852177   1.000000
     23         -2.825017   1.000000
     24         -2.809331   1.000000
     25         -1.569236   1.000000
     26         -1.555684   1.000000
     27         -0.458419   0.988026
     28         -0.354536   0.784895
     29         -0.141572   0.013110
     30          0.793223   0.000000
     31          0.881795   0.000000
     32          1.147137   0.000000
     33          1.169943   0.000000
     34          1.325020   0.000000
     35          1.718574   0.000000
     36          1.804803   0.000000
     37          2.992545   0.000000
     38          3.599769   0.000000
     39          4.488253   0.000000
     40          4.803369   0.000000
     41          6.626068   0.000000
     42          6.626978   0.000000
     43          6.636633   0.000000
     44          7.056154   0.000000
     45          7.667844   0.000000
     46          7.677700   0.000000
     47          7.687820   0.000000
     48          8.383321   0.000000
 
  0.1311024E-01  0.1311024E-01  0.0000000E+00  0.2604167E-02
      1        -19.757775   1.000000
      2        -15.902281   1.000000
      3        -14.684759   1.000000
      4        -14.679784   1.000000
      5        -14.642835   1.000000
      6        -13.517419   1.000000
      7        -13.479838   1.000000
      8        -13.477365   1.000000
      9        -11.795318   1.000000
     10        -11.532956   1.000000
     11        -11.448584   1.000000
     12         -9.334825   1.000000
     13         -9.321341   1.000000
     14         -8.070785   1.000000
     15         -7.320163   1.000000
     16         -6.812102   1.000000
     17         -6.800127   1.000000
     18         -6.798377   1.000000
     19         -6.554488   1.000000
     20         -3.522332   1.000000
     21         -3.515544   1.000000
     22         -2.856985   1.000000
     23         -2.830053   1.000000
     24         -2.808445   1.000000
     25         -1.583318   1.000000
     26         -1.566424   1.000000
     27         -0.482375   0.995294
     28         -0.352757   0.777469
     29         -0.114315   0.004548
     30          0.792601   0.000000
     31          0.880635   0.000000
     32          1.152845   0.000000
     33          1.176729   0.000000
     34          1.325324   0.000000
     35          1.729388   0.000000
     36          1.818309   0.000000
     37          2.994297   0.000000
     38          3.601573   0.000000
     39          4.492266   0.000000
     40          4.805067   0.000000
     41          6.628189   0.000000
     42          6.629350   0.000000
     43          6.642999   0.000000
     44          7.057355   0.000000
     45          7.667191   0.000000
     46          7.682330   0.000000
     47          7.690384   0.000000
     48          8.373904   0.000000
 
  0.1573228E-01  0.1573228E-01  0.0000000E+00  0.2604167E-02
      1        -19.756466   1.000000
      2        -15.901223   1.000000
      3        -14.700165   1.000000
      4        -14.695211   1.000000
      5        -14.641695   1.000000
      6        -13.516324   1.000000
      7        -13.462410   1.000000
      8        -13.459896   1.000000
      9        -11.820908   1.000000
     10        -11.534077   1.000000
     11        -11.423728   1.000000
     12         -9.337151   1.000000
     13         -9.318532   1.000000
     14         -8.069133   1.000000
     15         -7.314756   1.000000
     16         -6.818053   1.000000
     17         -6.800651   1.000000
     18         -6.798935   1.000000
     19         -6.552888   1.000000
     20         -3.527871   1.000000
     21         -3.518421   1.000000
     22         -2.863043   1.000000
     23         -2.836241   1.000000
     24         -2.807251   1.000000
     25         -1.599917   1.000000
     26         -1.579663   1.000000
     27         -0.508751   0.998510
     28         -0.349316   0.762699
     29         -0.085775   0.001298
     30          0.791906   0.000000
     31          0.879584   0.000000
     32          1.159931   0.000000
     33          1.184903   0.000000
     34          1.325719   0.000000
     35          1.742429   0.000000
     36          1.834450   0.000000
     37          2.996440   0.000000
     38          3.603763   0.000000
     39          4.497148   0.000000
     40          4.807144   0.000000
     41          6.630747   0.000000
     42          6.632063   0.000000
     43          6.650926   0.000000
     44          7.058757   0.000000
     45          7.666924   0.000000
     46          7.688099   0.000000
     47          7.693318   0.000000
     48          8.363418   0.000000
 
  0.1835433E-01  0.1835433E-01  0.0000000E+00  0.2604167E-02
      1        -19.754906   1.000000
      2        -15.899973   1.000000
      3        -14.717824   1.000000
      4        -14.712892   1.000000
      5        -14.640347   1.000000
      6        -13.515031   1.000000
      7        -13.442360   1.000000
      8        -13.439803   1.000000
      9        -11.847489   1.000000
     10        -11.535403   1.000000
     11        -11.398025   1.000000
     12         -9.339868   1.000000
     13         -9.315213   1.000000
     14         -8.067130   1.000000
     15         -7.308400   1.000000
     16         -6.825093   1.000000
     17         -6.801269   1.000000
     18         -6.799575   1.000000
     19         -6.550984   1.000000
     20         -3.534573   1.000000
     21         -3.521828   1.000000
     22         -2.870292   1.000000
     23         -2.843507   1.000000
     24         -2.805723   1.000000
     25         -1.618914   1.000000
     26         -1.595256   1.000000
     27         -0.536749   0.999618
     28         -0.344818   0.742605
     29         -0.056460   0.000306
     30          0.791177   0.000000
     31          0.878875   0.000000
     32          1.168466   0.000000
     33          1.194483   0.000000
     34          1.326229   0.000000
     35          1.757595   0.000000
     36          1.853087   0.000000
     37          2.998980   0.000000
     38          3.606360   0.000000
     39          4.502908   0.000000
     40          4.809607   0.000000
     41          6.633779   0.000000
     42          6.635192   0.000000
     43          6.660373   0.000000
     44          7.060486   0.000000
     45          7.666642   0.000000
     46          7.695873   0.000000
     47          7.696650   0.000000
     48          8.351959   0.000000
 
  0.2097638E-01  0.2097638E-01  0.0000000E+00  0.2604167E-02
      1        -19.753107   1.000000
      2        -15.898530   1.000000
      3        -14.737522   1.000000
      4        -14.732614   1.000000
      5        -14.638792   1.000000
      6        -13.513539   1.000000
      7        -13.419892   1.000000
      8        -13.417292   1.000000
      9        -11.874753   1.000000
     10        -11.536932   1.000000
     11        -11.371771   1.000000
     12         -9.342954   1.000000
     13         -9.311380   1.000000
     14         -8.064823   1.000000
     15         -7.301109   1.000000
     16         -6.833212   1.000000
     17         -6.801979   1.000000
     18         -6.800300   1.000000
     19         -6.548785   1.000000
     20         -3.542101   1.000000
     21         -3.525748   1.000000
     22         -2.878659   1.000000
     23         -2.851778   1.000000
     24         -2.803855   1.000000
     25         -1.640180   1.000000
     26         -1.613043   1.000000
     27         -0.565925   0.999921
     28         -0.339710   0.718758
     29         -0.026709   0.000060
     30          0.790461   0.000000
     31          0.878766   0.000000
     32          1.178539   0.000000
     33          1.205532   0.000000
     34          1.326885   0.000000
     35          1.774766   0.000000
     36          1.874085   0.000000
     37          3.001919   0.000000
     38          3.609353   0.000000
     39          4.509536   0.000000
     40          4.812456   0.000000
     41          6.637290   0.000000
     42          6.638768   0.000000
     43          6.671296   0.000000
     44          7.062480   0.000000
     45          7.666035   0.000000
     46          7.699688   0.000000
     47          7.703757   0.000000
     48          8.340343   0.000000
 
  0.2359843E-01  0.2359843E-01  0.0000000E+00  0.2604167E-02
      1        -19.751068   1.000000
      2        -15.896896   1.000000
      3        -14.759056   1.000000
      4        -14.754172   1.000000
      5        -14.637029   1.000000
      6        -13.511849   1.000000
      7        -13.395229   1.000000
      8        -13.392584   1.000000
      9        -11.902504   1.000000
     10        -11.538670   1.000000
     11        -11.345169   1.000000
     12         -9.346395   1.000000
     13         -9.307036   1.000000
     14         -8.062213   1.000000
     15         -7.292904   1.000000
     16         -6.842402   1.000000
     17         -6.802785   1.000000
     18         -6.801116   1.000000
     19         -6.546295   1.000000
     20         -3.550617   1.000000
     21         -3.530187   1.000000
     22         -2.888235   1.000000
     23         -2.861156   1.000000
     24         -2.801652   1.000000
     25         -1.663585   1.000000
     26         -1.632859   1.000000
     27         -0.596043   0.999987
     28         -0.334353   0.692656
     29          0.003208   0.000010
     30          0.789808   0.000000
     31          0.879497   0.000000
     32          1.190019   0.000000
     33          1.217828   0.000000
     34          1.327717   0.000000
     35          1.793801   0.000000
     36          1.897244   0.000000
     37          3.005260   0.000000
     38          3.612739   0.000000
     39          4.517016   0.000000
     40          4.815696   0.000000
     41          6.641252   0.000000
     42          6.642778   0.000000
     43          6.683693   0.000000
     44          7.064735   0.000000
     45          7.666655   0.000000
     46          7.703704   0.000000
     47          7.712429   0.000000
     48          8.321766   0.000000
 
  0.2622047E-01  0.2622047E-01  0.0000000E+00  0.2604167E-02
      1        -19.748789   1.000000
      2        -15.895070   1.000000
      3        -14.782225   1.000000
      4        -14.777364   1.000000
      5        -14.635059   1.000000
      6        -13.509961   1.000000
      7        -13.368564   1.000000
      8        -13.365876   1.000000
      9        -11.930612   1.000000
     10        -11.540621   1.000000
     11        -11.318353   1.000000
     12         -9.350169   1.000000
     13         -9.302183   1.000000
     14         -8.059300   1.000000
     15         -7.283805   1.000000
     16         -6.852652   1.000000
     17         -6.803685   1.000000
     18         -6.802023   1.000000
     19         -6.543512   1.000000
     20         -3.560193   1.000000
     21         -3.535238   1.000000
     22         -2.898930   1.000000
     23         -2.871561   1.000000
     24         -2.799118   1.000000
     25         -1.688995   1.000000
     26         -1.654533   1.000000
     27         -0.626968   0.999998
     28         -0.329050   0.665818
     29          0.033076   0.000001
     30          0.789307   0.000000
     31          0.881328   0.000000
     32          1.202960   0.000000
     33          1.231417   0.000000
     34          1.328778   0.000000
     35          1.814567   0.000000
     36          1.922437   0.000000
     37          3.009007   0.000000
     38          3.616515   0.000000
     39          4.525339   0.000000
     40          4.819329   0.000000
     41          6.645659   0.000000
     42          6.647214   0.000000
     43          6.697524   0.000000
     44          7.067248   0.000000
     45          7.666150   0.000000
     46          7.707260   0.000000
     47          7.722303   0.000000
     48          8.304796   0.000000
 
  0.2884252E-01  0.2884252E-01  0.0000000E+00  0.2604167E-02
      1        -19.746272   1.000000
      2        -15.893051   1.000000
      3        -14.806840   1.000000
      4        -14.802002   1.000000
      5        -14.632882   1.000000
      6        -13.507875   1.000000
      7        -13.340082   1.000000
      8        -13.337352   1.000000
      9        -11.958976   1.000000
     10        -11.542776   1.000000
     11        -11.291414   1.000000
     12         -9.354253   1.000000
     13         -9.296813   1.000000
     14         -8.056089   1.000000
     15         -7.273832   1.000000
     16         -6.863956   1.000000
     17         -6.804676   1.000000
     18         -6.803020   1.000000
     19         -6.540437   1.000000
     20         -3.570497   1.000000
     21         -3.540711   1.000000
     22         -2.910713   1.000000
     23         -2.882971   1.000000
     24         -2.796261   1.000000
     25         -1.716282   1.000000
     26         -1.677897   1.000000
     27         -0.658623   1.000000
     28         -0.324072   0.639831
     29          0.062704   0.000000
     30          0.789080   0.000000
     31          0.884479   0.000000
     32          1.217368   0.000000
     33          1.246271   0.000000
     34          1.330143   0.000000
     35          1.836931   0.000000
     36          1.949534   0.000000
     37          3.013165   0.000000
     38          3.620681   0.000000
     39          4.534493   0.000000
     40          4.823363   0.000000
     41          6.650545   0.000000
     42          6.652122   0.000000
     43          6.712797   0.000000
     44          7.070017   0.000000
     45          7.666354   0.000000
     46          7.711172   0.000000
     47          7.732811   0.000000
     48          8.285444   0.000000
 
  0.3146457E-01  0.3146457E-01  0.0000000E+00  0.2604167E-02
      1        -19.743515   1.000000
      2        -15.890842   1.000000
      3        -14.832729   1.000000
      4        -14.827914   1.000000
      5        -14.630488   1.000000
      6        -13.505584   1.000000
      7        -13.309960   1.000000
      8        -13.307190   1.000000
      9        -11.987546   1.000000
     10        -11.545146   1.000000
     11        -11.264418   1.000000
     12         -9.358626   1.000000
     13         -9.290932   1.000000
     14         -8.052584   1.000000
     15         -7.263012   1.000000
     16         -6.876304   1.000000
     17         -6.805760   1.000000
     18         -6.804109   1.000000
     19         -6.537072   1.000000
     20         -3.581986   1.000000
     21         -3.546722   1.000000
     22         -2.923549   1.000000
     23         -2.895362   1.000000
     24         -2.792947   1.000000
     25         -1.745305   1.000000
     26         -1.702784   1.000000
     27         -0.690966   1.000000
     28         -0.319670   0.616287
     29          0.091907   0.000000
     30          0.789294   0.000000
     31          0.889126   0.000000
     32          1.233148   0.000000
     33          1.262215   0.000000
     34          1.331982   0.000000
     35          1.860764   0.000000
     36          1.978377   0.000000
     37          3.017741   0.000000
     38          3.625231   0.000000
     39          4.544462   0.000000
     40          4.827802   0.000000
     41          6.655881   0.000000
     42          6.657484   0.000000
     43          6.729543   0.000000
     44          7.073033   0.000000
     45          7.666944   0.000000
     46          7.715489   0.000000
     47          7.743702   0.000000
     48          8.263983   0.000000
 
  0.3408661E-01  0.3408661E-01  0.0000000E+00  0.2604167E-02
      1        -19.740517   1.000000
      2        -15.888441   1.000000
      3        -14.859735   1.000000
      4        -14.854941   1.000000
      5        -14.627896   1.000000
      6        -13.503103   1.000000
      7        -13.278354   1.000000
      8        -13.275546   1.000000
      9        -12.016267   1.000000
     10        -11.547730   1.000000
     11        -11.237417   1.000000
     12         -9.363264   1.000000
     13         -9.284537   1.000000
     14         -8.048775   1.000000
     15         -7.251368   1.000000
     16         -6.889688   1.000000
     17         -6.806936   1.000000
     18         -6.805289   1.000000
     19         -6.533412   1.000000
     20         -3.594384   1.000000
     21         -3.553233   1.000000
     22         -2.937407   1.000000
     23         -2.908708   1.000000
     24         -2.789461   1.000000
     25         -1.775939   1.000000
     26         -1.729043   1.000000
     27         -0.723967   1.000000
     28         -0.316074   0.596732
     29          0.120509   0.000000
     30          0.790112   0.000000
     31          0.895403   0.000000
     32          1.250284   0.000000
     33          1.279066   0.000000
     34          1.334376   0.000000
     35          1.885944   0.000000
     36          2.008848   0.000000
     37          3.022740   0.000000
     38          3.630168   0.000000
     39          4.555230   0.000000
     40          4.832654   0.000000
     41          6.661680   0.000000
     42          6.663296   0.000000
     43          6.747661   0.000000
     44          7.076312   0.000000
     45          7.667227   0.000000
     46          7.719650   0.000000
     47          7.757571   0.000000
     48          8.241671   0.000000
 
  0.3670866E-01  0.3670866E-01  0.0000000E+00  0.2604167E-02
      1        -19.737278   1.000000
      2        -15.885848   1.000000
      3        -14.887716   1.000000
      4        -14.882941   1.000000
      5        -14.625096   1.000000
      6        -13.500426   1.000000
      7        -13.245404   1.000000
      8        -13.242560   1.000000
      9        -12.045101   1.000000
     10        -11.550525   1.000000
     11        -11.210445   1.000000
     12         -9.368140   1.000000
     13         -9.277626   1.000000
     14         -8.044670   1.000000
     15         -7.238926   1.000000
     16         -6.904097   1.000000
     17         -6.808198   1.000000
     18         -6.806553   1.000000
     19         -6.529460   1.000000
     20         -3.607642   1.000000
     21         -3.560161   1.000000
     22         -2.952239   1.000000
     23         -2.922973   1.000000
     24         -2.785668   1.000000
     25         -1.808062   1.000000
     26         -1.756525   1.000000
     27         -0.757606   1.000000
     28         -0.313489   0.582518
     29          0.148347   0.000000
     30          0.791749   0.000000
     31          0.903410   0.000000
     32          1.268740   0.000000
     33          1.296359   0.000000
     34          1.337896   0.000000
     35          1.912371   0.000000
     36          2.040825   0.000000
     37          3.028172   0.000000
     38          3.635488   0.000000
     39          4.566780   0.000000
     40          4.837926   0.000000
     41          6.667949   0.000000
     42          6.669579   0.000000
     43          6.767180   0.000000
     44          7.079842   0.000000
     45          7.668083   0.000000
     46          7.724167   0.000000
     47          7.770554   0.000000
     48          8.216171   0.000000
 
  0.3933071E-01  0.3933071E-01  0.0000000E+00  0.2604167E-02
      1        -19.733799   1.000000
      2        -15.883065   1.000000
      3        -14.916545   1.000000
      4        -14.911789   1.000000
      5        -14.622089   1.000000
      6        -13.497551   1.000000
      7        -13.211242   1.000000
      8        -13.208364   1.000000
      9        -12.074021   1.000000
     10        -11.553544   1.000000
     11        -11.183538   1.000000
     12         -9.373227   1.000000
     13         -9.270205   1.000000
     14         -8.040269   1.000000
     15         -7.225717   1.000000
     16         -6.919521   1.000000
     17         -6.809555   1.000000
     18         -6.807913   1.000000
     19         -6.525216   1.000000
     20         -3.621931   1.000000
     21         -3.567698   1.000000
     22         -2.968034   1.000000
     23         -2.938149   1.000000
     24         -2.781571   1.000000
     25         -1.841549   1.000000
     26         -1.785098   1.000000
     27         -0.791865   1.000000
     28         -0.312099   0.574826
     29          0.175262   0.000000
     30          0.794405   0.000000
     31          0.913206   0.000000
     32          1.288400   0.000000
     33          1.312739   0.000000
     34          1.343892   0.000000
     35          1.939946   0.000000
     36          2.074187   0.000000
     37          3.034045   0.000000
     38          3.641188   0.000000
     39          4.579086   0.000000
     40          4.843629   0.000000
     41          6.674675   0.000000
     42          6.676327   0.000000
     43          6.788091   0.000000
     44          7.083619   0.000000
     45          7.669504   0.000000
     46          7.728998   0.000000
     47          7.787145   0.000000
     48          8.190507   0.000000
 
  0.4195276E-01  0.4195276E-01  0.0000000E+00  0.2604167E-02
      1        -19.730081   1.000000
      2        -15.880091   1.000000
      3        -14.946110   1.000000
      4        -14.941372   1.000000
      5        -14.618873   1.000000
      6        -13.494478   1.000000
      7        -13.175978   1.000000
      8        -13.173068   1.000000