 vasp.6.3.2 27Jun22 (build Dec 22 2022 13:13:19) complex                        
  
 executed on             LinuxIFC date 2023.09.01  22:12:08
 running   48 mpi-ranks, with    1 threads/rank
 distrk:  each k-point on   48 cores,    1 groups
 distr:  one band on NCORE=   1 cores,   48 groups


--------------------------------------------------------------------------------------------------------


 INCAR:
   SYSTEM = BS
   ISTART = 0
   ICHARG = 11
   PREC = Accurate
   LORBIT = 11
   ENCUT = 450
   ALGO = Normal
   NELM = 64
   EDIFF = 1E-6
   EDIFFG = -1E-3
   SIGMA = 0.1
   ISMEAR = 0
   GGA = PE
   IVDW = 12
   ISYM = 0

 POTCAR:    PAW_PBE B 06Sep2000                   
 POTCAR:    PAW_PBE C 08Apr2002                   
 POTCAR:    PAW_PBE B 06Sep2000                   
   SHA256 =  a32ced30f5ae56fd4d10b4325ff17eb3e4e38ee0f4288bc219fb012fddfa6e97 B/POTCAR              
   COPYR  = (c) Copyright 06Sep2000 Georg Kresse                                                    
   COPYR  = This file is part of the software VASP. Any use, copying, and all other rights are regul
   COPYR  = If you do not have a valid VASP license, you may not use, copy or distribute this file. 
   VRHFIN =B: s2p1                                                                                  
   LEXCH  = PE                                                                                      
   EATOM  =    71.1703 eV,    5.2309 Ry                                                             
                                                                                                    
   TITEL  = PAW_PBE B 06Sep2000                                                                     
   LULTRA =        F    use ultrasoft PP ?                                                          
   IUNSCR =        1    unscreen: 0-lin 1-nonlin 2-no                                               
   RPACOR =    1.200    partial core radius                                                         
   POMASS =   10.811; ZVAL   =    3.000    mass and valenz                                          
   RCORE  =    1.700    outmost cutoff radius                                                       
   RWIGS  =    1.710; RWIGS  =    0.905    wigner-seitz radius (au A)                               
   ENMAX  =  318.614; ENMIN  =  238.960 eV                                                          
   ICORE  =        2    local potential                                                             
   LCOR   =        T    correct aug charges                                                         
   LPAW   =        T    paw PP                                                                      
   EAUG   =  535.514                                                                                
   DEXC   =    0.000                                                                                
   RMAX   =    1.732    core radius for proj-oper                                                   
   RAUG   =    1.300    factor for augmentation sphere                                              
   RDEP   =    1.757    radius for radial grids                                                     
   RDEPT  =    1.436    core radius for aug-charge                                                  
                                                                                                    
   Atomic configuration                                                                             
    4 entries                                                                                       
     n  l   j            E        occ.                                                              
     1  0  0.50      -180.5896   2.0000                                                             
     2  0  0.50        -9.4431   2.0000                                                             
     2  1  0.50        -3.6068   1.0000                                                             
     3  2  1.50        -4.0817   0.0000                                                             
   Description                                                                                      
     l       E           TYP  RCUT    TYP  RCUT                                                     
     0     -9.4430752     23  1.500                                                                 
     0      0.8675899     23  1.500                                                                 
     1     -3.6067955     23  1.700                                                                 
     1      6.1086146     23  1.700                                                                 
     2     -4.0817478      7  1.700                                                                 
  local pseudopotential read in
  partial core-charges read in
  partial kinetic energy density read in
  atomic valenz-charges read in
  non local Contribution for L=           0  read in
    real space projection operators read in
  non local Contribution for L=           0  read in
    real space projection operators read in
  non local Contribution for L=           1  read in
    real space projection operators read in
  non local Contribution for L=           1  read in
    real space projection operators read in
    PAW grid and wavefunctions read in
 
   number of l-projection  operators is LMAX  =           4
   number of lm-projection operators is LMMAX =           8
 
 POTCAR:    PAW_PBE C 08Apr2002                   
   SHA256 =  253f7b50bb8d59471dbedb8285d89021f4a42ed1a2c5d38a03a736e69125dd95 C/POTCAR              
   COPYR  = (c) Copyright 08Apr2002 Georg Kresse                                                    
   COPYR  = This file is part of the software VASP. Any use, copying, and all other rights are regul
   COPYR  = If you do not have a valid VASP license, you may not use, copy or distribute this file. 
   VRHFIN =C: s2p2                                                                                  
   LEXCH  = PE                                                                                      
   EATOM  =   147.1560 eV,   10.8157 Ry                                                             
                                                                                                    
   TITEL  = PAW_PBE C 08Apr2002                                                                     
   LULTRA =        F    use ultrasoft PP ?                                                          
   IUNSCR =        1    unscreen: 0-lin 1-nonlin 2-no                                               
   RPACOR =    1.200    partial core radius                                                         
   POMASS =   12.011; ZVAL   =    4.000    mass and valenz                                          
   RCORE  =    1.500    outmost cutoff radius                                                       
   RWIGS  =    1.630; RWIGS  =    0.863    wigner-seitz radius (au A)                               
   ENMAX  =  400.000; ENMIN  =  300.000 eV                                                          
   ICORE  =        2    local potential                                                             
   LCOR   =        T    correct aug charges                                                         
   LPAW   =        T    paw PP                                                                      
   EAUG   =  644.873                                                                                
   DEXC   =    0.000                                                                                
   RMAX   =    1.529    core radius for proj-oper                                                   
   RAUG   =    1.300    factor for augmentation sphere                                              
   RDEP   =    1.501    radius for radial grids                                                     
   RDEPT  =    1.300    core radius for aug-charge                                                  
                                                                                                    
   Atomic configuration                                                                             
    4 entries                                                                                       
     n  l   j            E        occ.                                                              
     1  0  0.50      -273.3789   2.0000                                                             
     2  0  0.50       -13.7508   2.0000                                                             
     2  1  0.50        -5.2854   2.0000                                                             
     3  2  1.50        -5.4423   0.0000                                                             
   Description                                                                                      
     l       E           TYP  RCUT    TYP  RCUT                                                     
     0    -13.7508458     23  1.200                                                                 
     0     -8.2022199     23  1.200                                                                 
     1     -5.2854383     23  1.500                                                                 
     1     34.0145650     23  1.500                                                                 
     2     -5.4423304      7  1.500                                                                 
  local pseudopotential read in
  partial core-charges read in
  partial kinetic energy density read in
  atomic valenz-charges read in
  non local Contribution for L=           0  read in
    real space projection operators read in
  non local Contribution for L=           0  read in
    real space projection operators read in
  non local Contribution for L=           1  read in
    real space projection operators read in
  non local Contribution for L=           1  read in
    real space projection operators read in
    PAW grid and wavefunctions read in
 
   number of l-projection  operators is LMAX  =           4
   number of lm-projection operators is LMMAX =           8
 
  PAW_PBE B 06Sep2000                   :
 energy of atom  1       EATOM=  -71.1703
 kinetic energy error for atom=    0.0015 (will be added to EATOM!!)
  PAW_PBE C 08Apr2002                   :
 energy of atom  2       EATOM= -147.1560
 kinetic energy error for atom=    0.0116 (will be added to EATOM!!)
 
 
 POSCAR: Graphene-Borophene Bridge with lattice p
  positions in direct lattice
  velocities in cartesian coordinates
 exchange correlation table for  LEXCH =        8
   RHO(1)=    0.500       N(1)  =     2000
   RHO(2)=  100.500       N(2)  =     4000

 VTST: version 4.2, (08/11/21)

 CHAIN: initializing optimizer
 
 OPT: Using VASP Dynamics algorithm
 CHAIN: Read ICHAIN            0
 
 POSCAR: Graphene-Borophene Bridge with lattice p
  positions in direct lattice
  velocities in cartesian coordinates
 


--------------------------------------------------------------------------------------------------------


 ion  position               nearest neighbor table
   1  0.683  0.986  0.101-   3 1.65   6 1.65   8 1.68   2 1.68   7 1.68
   2  0.346  0.986  0.101-   5 1.65   4 1.65   8 1.67   7 1.68   1 1.68
   3  0.014  0.317  0.101-   1 1.65   5 1.65   8 1.68   4 1.68   7 1.68
   4  0.014  0.654  0.101-   6 1.65   2 1.65   8 1.67   7 1.68   3 1.68
   5  0.346  0.317  0.100-   2 1.65   3 1.65   7 1.67   6 1.68   8 1.68
   6  0.683  0.654  0.100-   4 1.65   1 1.65   7 1.67   5 1.68   8 1.68
   7  0.681  0.319  0.088-   5 1.67   6 1.67   2 1.68   4 1.68   1 1.68   3 1.68
   8  0.347  0.653  0.114-   4 1.67   2 1.67   3 1.68   1 1.68   5 1.68   6 1.68
   9  0.236  0.264  0.334-  14 1.44  10 1.44  12 1.44
  10  0.402  0.098  0.334-  11 1.44   9 1.44  13 1.44
  11  0.236  0.764  0.335-  10 1.44  16 1.44  12 1.44
  12  0.402  0.598  0.335-  11 1.44  15 1.44   9 1.44
  13  0.736  0.264  0.334-  14 1.44  10 1.44  16 1.44
  14  0.902  0.098  0.334-   9 1.44  15 1.44  13 1.44
  15  0.736  0.764  0.334-  14 1.44  16 1.44  12 1.44
  16  0.902  0.598  0.334-  11 1.44  15 1.44  13 1.44
 

IMPORTANT INFORMATION: All symmetrisations will be switched off!
NOSYMM: (Re-)initialisation of all symmetry stuff for point group C_1.


----------------------------------------------------------------------------------------

                                     Primitive cell                                     

  volume of cell :     322.0373

  direct lattice vectors                    reciprocal lattice vectors
     4.311940485  2.489500000  0.000000000     0.115957074  0.200843543  0.000000000
    -4.311940485  2.489500000  0.000000000    -0.115957074  0.200843543  0.000000000
     0.000000000  0.000000000 15.000000000     0.000000000  0.000000000  0.066666667

  length of vectors
     4.979000000  4.979000000 15.000000000     0.231914147  0.231914147  0.066666667

  position of ions in fractional coordinates (direct lattice)
     0.682859547  0.985743207  0.101204961
     0.345822208  0.985712166  0.101208296
     0.014256793  0.317139453  0.101204961
     0.014287834  0.654176792  0.101208296
     0.345725259  0.317098649  0.100061983
     0.682900351  0.654273741  0.100061983
     0.680636306  0.319362694  0.087916089
     0.347392449  0.652606551  0.113793875
     0.235726678  0.264194445  0.334496607
     0.402415029  0.097545219  0.334496968
     0.235746116  0.764252884  0.334628165
     0.402421107  0.597577893  0.334575281
     0.735773476  0.264225524  0.334479221
     0.902438179  0.097560821  0.334336404
     0.735804555  0.764272322  0.334496607
     0.902453781  0.597583971  0.334496968

  ion indices of the primitive-cell ions
   primitive index   ion index
                 1           1
                 2           2
                 3           3
                 4           4
                 5           5
                 6           6
                 7           7
                 8           8
                 9           9
                10          10
                11          11
                12          12
                13          13
                14          14
                15          15
                16          16

----------------------------------------------------------------------------------------

 
 
 KPOINTS: K-points                                

Interpolating k-points between supplied coordinates.

 Line segments in fractional coordinates (reciprocal lattice):
    0.333000  0.333000  0.000000  ...  0.000000  0.000000  0.000000
    0.000000  0.000000  0.000000  ...  0.000000  0.500000  0.000000
    0.000000  0.500000  0.000000  ...  0.333000  0.333000  0.000000

 Generated    64 points on each line segment, for a total of    192 k-points:

 Following reciprocal coordinates:
            Coordinates               Weight
  0.333000  0.333000  0.000000      0.005208
  0.327714  0.327714  0.000000      0.005208
  0.322429  0.322429  0.000000      0.005208
  0.317143  0.317143  0.000000      0.005208
  0.311857  0.311857  0.000000      0.005208
  0.306571  0.306571  0.000000      0.005208
  0.301286  0.301286  0.000000      0.005208
  0.296000  0.296000  0.000000      0.005208
  0.290714  0.290714  0.000000      0.005208
  0.285429  0.285429  0.000000      0.005208
  0.280143  0.280143  0.000000      0.005208
  0.274857  0.274857  0.000000      0.005208
  0.269571  0.269571  0.000000      0.005208
  0.264286  0.264286  0.000000      0.005208
  0.259000  0.259000  0.000000      0.005208
  0.253714  0.253714  0.000000      0.005208
  0.248429  0.248429  0.000000      0.005208
  0.243143  0.243143  0.000000      0.005208
  0.237857  0.237857  0.000000      0.005208
  0.232571  0.232571  0.000000      0.005208
  0.227286  0.227286  0.000000      0.005208
  0.222000  0.222000  0.000000      0.005208
  0.216714  0.216714  0.000000      0.005208
  0.211429  0.211429  0.000000      0.005208
  0.206143  0.206143  0.000000      0.005208
  0.200857  0.200857  0.000000      0.005208
  0.195571  0.195571  0.000000      0.005208
  0.190286  0.190286  0.000000      0.005208
  0.185000  0.185000  0.000000      0.005208
  0.179714  0.179714  0.000000      0.005208
  0.174429  0.174429  0.000000      0.005208
  0.169143  0.169143  0.000000      0.005208
  0.163857  0.163857  0.000000      0.005208
  0.158571  0.158571  0.000000      0.005208
  0.153286  0.153286  0.000000      0.005208
  0.148000  0.148000  0.000000      0.005208
  0.142714  0.142714  0.000000      0.005208
  0.137429  0.137429  0.000000      0.005208
  0.132143  0.132143  0.000000      0.005208
  0.126857  0.126857  0.000000      0.005208
  0.121571  0.121571  0.000000      0.005208
  0.116286  0.116286  0.000000      0.005208
  0.111000  0.111000  0.000000      0.005208
  0.105714  0.105714  0.000000      0.005208
  0.100429  0.100429  0.000000      0.005208
  0.095143  0.095143  0.000000      0.005208
  0.089857  0.089857  0.000000      0.005208
  0.084571  0.084571  0.000000      0.005208
  0.079286  0.079286  0.000000      0.005208
  0.074000  0.074000  0.000000      0.005208
  0.068714  0.068714  0.000000      0.005208
  0.063429  0.063429  0.000000      0.005208
  0.058143  0.058143  0.000000      0.005208
  0.052857  0.052857  0.000000      0.005208
  0.047571  0.047571  0.000000      0.005208
  0.042286  0.042286  0.000000      0.005208
  0.037000  0.037000  0.000000      0.005208
  0.031714  0.031714  0.000000      0.005208
  0.026429  0.026429  0.000000      0.005208
  0.021143  0.021143  0.000000      0.005208
  0.015857  0.015857  0.000000      0.005208
  0.010571  0.010571  0.000000      0.005208
  0.005286  0.005286  0.000000      0.005208
  0.000000  0.000000  0.000000      0.005208
  0.000000  0.000000  0.000000      0.005208
  0.000000  0.007937  0.000000      0.005208
  0.000000  0.015873  0.000000      0.005208
  0.000000  0.023810  0.000000      0.005208
  0.000000  0.031746  0.000000      0.005208
  0.000000  0.039683  0.000000      0.005208
  0.000000  0.047619  0.000000      0.005208
  0.000000  0.055556  0.000000      0.005208
  0.000000  0.063492  0.000000      0.005208
  0.000000  0.071429  0.000000      0.005208
  0.000000  0.079365  0.000000      0.005208
  0.000000  0.087302  0.000000      0.005208
  0.000000  0.095238  0.000000      0.005208
  0.000000  0.103175  0.000000      0.005208
  0.000000  0.111111  0.000000      0.005208
  0.000000  0.119048  0.000000      0.005208
  0.000000  0.126984  0.000000      0.005208
  0.000000  0.134921  0.000000      0.005208
  0.000000  0.142857  0.000000      0.005208
  0.000000  0.150794  0.000000      0.005208
  0.000000  0.158730  0.000000      0.005208
  0.000000  0.166667  0.000000      0.005208
  0.000000  0.174603  0.000000      0.005208
  0.000000  0.182540  0.000000      0.005208
  0.000000  0.190476  0.000000      0.005208
  0.000000  0.198413  0.000000      0.005208
  0.000000  0.206349  0.000000      0.005208
  0.000000  0.214286  0.000000      0.005208
  0.000000  0.222222  0.000000      0.005208
  0.000000  0.230159  0.000000      0.005208
  0.000000  0.238095  0.000000      0.005208
  0.000000  0.246032  0.000000      0.005208
  0.000000  0.253968  0.000000      0.005208
  0.000000  0.261905  0.000000      0.005208
  0.000000  0.269841  0.000000      0.005208
  0.000000  0.277778  0.000000      0.005208
  0.000000  0.285714  0.000000      0.005208
  0.000000  0.293651  0.000000      0.005208
  0.000000  0.301587  0.000000      0.005208
  0.000000  0.309524  0.000000      0.005208
  0.000000  0.317460  0.000000      0.005208
  0.000000  0.325397  0.000000      0.005208
  0.000000  0.333333  0.000000      0.005208
  0.000000  0.341270  0.000000      0.005208
  0.000000  0.349206  0.000000      0.005208
  0.000000  0.357143  0.000000      0.005208
  0.000000  0.365079  0.000000      0.005208
  0.000000  0.373016  0.000000      0.005208
  0.000000  0.380952  0.000000      0.005208
  0.000000  0.388889  0.000000      0.005208
  0.000000  0.396825  0.000000      0.005208
  0.000000  0.404762  0.000000      0.005208
  0.000000  0.412698  0.000000      0.005208
  0.000000  0.420635  0.000000      0.005208
  0.000000  0.428571  0.000000      0.005208
  0.000000  0.436508  0.000000      0.005208
  0.000000  0.444444  0.000000      0.005208
  0.000000  0.452381  0.000000      0.005208
  0.000000  0.460317  0.000000      0.005208
  0.000000  0.468254  0.000000      0.005208
  0.000000  0.476190  0.000000      0.005208
  0.000000  0.484127  0.000000      0.005208
  0.000000  0.492063  0.000000      0.005208
  0.000000  0.500000  0.000000      0.005208
  0.000000  0.500000  0.000000      0.005208
  0.005286  0.497349  0.000000      0.005208
  0.010571  0.494698  0.000000      0.005208
  0.015857  0.492048  0.000000      0.005208
  0.021143  0.489397  0.000000      0.005208
  0.026429  0.486746  0.000000      0.005208
  0.031714  0.484095  0.000000      0.005208
  0.037000  0.481444  0.000000      0.005208
  0.042286  0.478794  0.000000      0.005208
  0.047571  0.476143  0.000000      0.005208
  0.052857  0.473492  0.000000      0.005208
  0.058143  0.470841  0.000000      0.005208
  0.063429  0.468190  0.000000      0.005208
  0.068714  0.465540  0.000000      0.005208
  0.074000  0.462889  0.000000      0.005208
  0.079286  0.460238  0.000000      0.005208
  0.084571  0.457587  0.000000      0.005208
  0.089857  0.454937  0.000000      0.005208
  0.095143  0.452286  0.000000      0.005208
  0.100429  0.449635  0.000000      0.005208
  0.105714  0.446984  0.000000      0.005208
  0.111000  0.444333  0.000000      0.005208
  0.116286  0.441683  0.000000      0.005208
  0.121571  0.439032  0.000000      0.005208
  0.126857  0.436381  0.000000      0.005208
  0.132143  0.433730  0.000000      0.005208
  0.137429  0.431079  0.000000      0.005208
  0.142714  0.428429  0.000000      0.005208
  0.148000  0.425778  0.000000      0.005208
  0.153286  0.423127  0.000000      0.005208
  0.158571  0.420476  0.000000      0.005208
  0.163857  0.417825  0.000000      0.005208
  0.169143  0.415175  0.000000      0.005208
  0.174429  0.412524  0.000000      0.005208
  0.179714  0.409873  0.000000      0.005208
  0.185000  0.407222  0.000000      0.005208
  0.190286  0.404571  0.000000      0.005208
  0.195571  0.401921  0.000000      0.005208
  0.200857  0.399270  0.000000      0.005208
  0.206143  0.396619  0.000000      0.005208
  0.211429  0.393968  0.000000      0.005208
  0.216714  0.391317  0.000000      0.005208
  0.222000  0.388667  0.000000      0.005208
  0.227286  0.386016  0.000000      0.005208
  0.232571  0.383365  0.000000      0.005208
  0.237857  0.380714  0.000000      0.005208
  0.243143  0.378063  0.000000      0.005208
  0.248429  0.375413  0.000000      0.005208
  0.253714  0.372762  0.000000      0.005208
  0.259000  0.370111  0.000000      0.005208
  0.264286  0.367460  0.000000      0.005208
  0.269571  0.364810  0.000000      0.005208
  0.274857  0.362159  0.000000      0.005208
  0.280143  0.359508  0.000000      0.005208
  0.285429  0.356857  0.000000      0.005208
  0.290714  0.354206  0.000000      0.005208
  0.296000  0.351556  0.000000      0.005208
  0.301286  0.348905  0.000000      0.005208
  0.306571  0.346254  0.000000      0.005208
  0.311857  0.343603  0.000000      0.005208
  0.317143  0.340952  0.000000      0.005208
  0.322429  0.338302  0.000000      0.005208
  0.327714  0.335651  0.000000      0.005208
  0.333000  0.333000  0.000000      0.005208

 Following cartesian coordinates:
            Coordinates               Weight
  0.000000  0.133762  0.000000      0.005208
 -0.000000  0.131639  0.000000      0.005208
 -0.000000  0.129515  0.000000      0.005208
  0.000000  0.127392  0.000000      0.005208
 -0.000000  0.125269  0.000000      0.005208
  0.000000  0.123146  0.000000      0.005208
  0.000000  0.121023  0.000000      0.005208
 -0.000000  0.118899  0.000000      0.005208
  0.000000  0.116776  0.000000      0.005208
  0.000000  0.114653  0.000000      0.005208
 -0.000000  0.112530  0.000000      0.005208
  0.000000  0.110407  0.000000      0.005208
  0.000000  0.108283  0.000000      0.005208
  0.000000  0.106160  0.000000      0.005208
 -0.000000  0.104037  0.000000      0.005208
 -0.000000  0.101914  0.000000      0.005208
  0.000000  0.099791  0.000000      0.005208
 -0.000000  0.097667  0.000000      0.005208
 -0.000000  0.095544  0.000000      0.005208
  0.000000  0.093421  0.000000      0.005208
  0.000000  0.091298  0.000000      0.005208
 -0.000000  0.089175  0.000000      0.005208
  0.000000  0.087051  0.000000      0.005208
  0.000000  0.084928  0.000000      0.005208
 -0.000000  0.082805  0.000000      0.005208
 -0.000000  0.080682  0.000000      0.005208
  0.000000  0.078559  0.000000      0.005208
  0.000000  0.076435  0.000000      0.005208
 -0.000000  0.074312  0.000000      0.005208
  0.000000  0.072189  0.000000      0.005208
  0.000000  0.070066  0.000000      0.005208
 -0.000000  0.067943  0.000000      0.005208
 -0.000000  0.065819  0.000000      0.005208
  0.000000  0.063696  0.000000      0.005208
  0.000000  0.061573  0.000000      0.005208
 -0.000000  0.059450  0.000000      0.005208
  0.000000  0.057326  0.000000      0.005208
  0.000000  0.055203  0.000000      0.005208
  0.000000  0.053080  0.000000      0.005208
 -0.000000  0.050957  0.000000      0.005208
 -0.000000  0.048834  0.000000      0.005208
  0.000000  0.046710  0.000000      0.005208
 -0.000000  0.044587  0.000000      0.005208
  0.000000  0.042464  0.000000      0.005208
 -0.000000  0.040341  0.000000      0.005208
  0.000000  0.038218  0.000000      0.005208
  0.000000  0.036094  0.000000      0.005208
 -0.000000  0.033971  0.000000      0.005208
  0.000000  0.031848  0.000000      0.005208
 -0.000000  0.029725  0.000000      0.005208
  0.000000  0.027602  0.000000      0.005208
 -0.000000  0.025478  0.000000      0.005208
  0.000000  0.023355  0.000000      0.005208
  0.000000  0.021232  0.000000      0.005208
  0.000000  0.019109  0.000000      0.005208
 -0.000000  0.016986  0.000000      0.005208
 -0.000000  0.014862  0.000000      0.005208
 -0.000000  0.012739  0.000000      0.005208
  0.000000  0.010616  0.000000      0.005208
 -0.000000  0.008493  0.000000      0.005208
 -0.000000  0.006370  0.000000      0.005208
  0.000000  0.004246  0.000000      0.005208
  0.000000  0.002123  0.000000      0.005208
  0.000000  0.000000  0.000000      0.005208
  0.000000  0.000000  0.000000      0.005208
 -0.000920  0.001594  0.000000      0.005208
 -0.001841  0.003188  0.000000      0.005208
 -0.002761  0.004782  0.000000      0.005208
 -0.003681  0.006376  0.000000      0.005208
 -0.004601  0.007970  0.000000      0.005208
 -0.005522  0.009564  0.000000      0.005208
 -0.006442  0.011158  0.000000      0.005208
 -0.007362  0.012752  0.000000      0.005208
 -0.008283  0.014346  0.000000      0.005208
 -0.009203  0.015940  0.000000      0.005208
 -0.010123  0.017534  0.000000      0.005208
 -0.011044  0.019128  0.000000      0.005208
 -0.011964  0.020722  0.000000      0.005208
 -0.012884  0.022316  0.000000      0.005208
 -0.013804  0.023910  0.000000      0.005208
 -0.014725  0.025504  0.000000      0.005208
 -0.015645  0.027098  0.000000      0.005208
 -0.016565  0.028692  0.000000      0.005208
 -0.017486  0.030286  0.000000      0.005208
 -0.018406  0.031880  0.000000      0.005208
 -0.019326  0.033474  0.000000      0.005208
 -0.020246  0.035068  0.000000      0.005208
 -0.021167  0.036662  0.000000      0.005208
 -0.022087  0.038256  0.000000      0.005208
 -0.023007  0.039850  0.000000      0.005208
 -0.023928  0.041444  0.000000      0.005208
 -0.024848  0.043038  0.000000      0.005208
 -0.025768  0.044632  0.000000      0.005208
 -0.026689  0.046226  0.000000      0.005208
 -0.027609  0.047820  0.000000      0.005208
 -0.028529  0.049414  0.000000      0.005208
 -0.029449  0.051008  0.000000      0.005208
 -0.030370  0.052602  0.000000      0.005208
 -0.031290  0.054196  0.000000      0.005208
 -0.032210  0.055790  0.000000      0.005208
 -0.033131  0.057384  0.000000      0.005208
 -0.034051  0.058978  0.000000      0.005208
 -0.034971  0.060572  0.000000      0.005208
 -0.035891  0.062166  0.000000      0.005208
 -0.036812  0.063760  0.000000      0.005208
 -0.037732  0.065354  0.000000      0.005208
 -0.038652  0.066948  0.000000      0.005208
 -0.039573  0.068542  0.000000      0.005208
 -0.040493  0.070136  0.000000      0.005208
 -0.041413  0.071730  0.000000      0.005208
 -0.042334  0.073324  0.000000      0.005208
 -0.043254  0.074918  0.000000      0.005208
 -0.044174  0.076512  0.000000      0.005208
 -0.045094  0.078106  0.000000      0.005208
 -0.046015  0.079700  0.000000      0.005208
 -0.046935  0.081294  0.000000      0.005208
 -0.047855  0.082888  0.000000      0.005208
 -0.048776  0.084482  0.000000      0.005208
 -0.049696  0.086076  0.000000      0.005208
 -0.050616  0.087670  0.000000      0.005208
 -0.051536  0.089264  0.000000      0.005208
 -0.052457  0.090858  0.000000      0.005208
 -0.053377  0.092452  0.000000      0.005208
 -0.054297  0.094046  0.000000      0.005208
 -0.055218  0.095640  0.000000      0.005208
 -0.056138  0.097234  0.000000      0.005208
 -0.057058  0.098828  0.000000      0.005208
 -0.057979  0.100422  0.000000      0.005208
 -0.057979  0.100422  0.000000      0.005208
 -0.057058  0.100951  0.000000      0.005208
 -0.056138  0.101480  0.000000      0.005208
 -0.055218  0.102009  0.000000      0.005208
 -0.054297  0.102539  0.000000      0.005208
 -0.053377  0.103068  0.000000      0.005208
 -0.052457  0.103597  0.000000      0.005208
 -0.051536  0.104126  0.000000      0.005208
 -0.050616  0.104655  0.000000      0.005208
 -0.049696  0.105185  0.000000      0.005208
 -0.048776  0.105714  0.000000      0.005208
 -0.047855  0.106243  0.000000      0.005208
 -0.046935  0.106772  0.000000      0.005208
 -0.046015  0.107301  0.000000      0.005208
 -0.045094  0.107831  0.000000      0.005208
 -0.044174  0.108360  0.000000      0.005208
 -0.043254  0.108889  0.000000      0.005208
 -0.042334  0.109418  0.000000      0.005208
 -0.041413  0.109947  0.000000      0.005208
 -0.040493  0.110477  0.000000      0.005208
 -0.039573  0.111006  0.000000      0.005208
 -0.038652  0.111535  0.000000      0.005208
 -0.037732  0.112064  0.000000      0.005208
 -0.036812  0.112594  0.000000      0.005208
 -0.035891  0.113123  0.000000      0.005208
 -0.034971  0.113652  0.000000      0.005208
 -0.034051  0.114181  0.000000      0.005208
 -0.033131  0.114710  0.000000      0.005208
 -0.032210  0.115240  0.000000      0.005208
 -0.031290  0.115769  0.000000      0.005208
 -0.030370  0.116298  0.000000      0.005208
 -0.029449  0.116827  0.000000      0.005208
 -0.028529  0.117356  0.000000      0.005208
 -0.027609  0.117886  0.000000      0.005208
 -0.026689  0.118415  0.000000      0.005208
 -0.025768  0.118944  0.000000      0.005208
 -0.024848  0.119473  0.000000      0.005208
 -0.023928  0.120002  0.000000      0.005208
 -0.023007  0.120532  0.000000      0.005208
 -0.022087  0.121061  0.000000      0.005208
 -0.021167  0.121590  0.000000      0.005208
 -0.020246  0.122119  0.000000      0.005208
 -0.019326  0.122648  0.000000      0.005208
 -0.018406  0.123178  0.000000      0.005208
 -0.017486  0.123707  0.000000      0.005208
 -0.016565  0.124236  0.000000      0.005208
 -0.015645  0.124765  0.000000      0.005208
 -0.014725  0.125294  0.000000      0.005208
 -0.013804  0.125824  0.000000      0.005208
 -0.012884  0.126353  0.000000      0.005208
 -0.011964  0.126882  0.000000      0.005208
 -0.011044  0.127411  0.000000      0.005208
 -0.010123  0.127941  0.000000      0.005208
 -0.009203  0.128470  0.000000      0.005208
 -0.008283  0.128999  0.000000      0.005208
 -0.007362  0.129528  0.000000      0.005208
 -0.006442  0.130057  0.000000      0.005208
 -0.005522  0.130587  0.000000      0.005208
 -0.004601  0.131116  0.000000      0.005208
 -0.003681  0.131645  0.000000      0.005208
 -0.002761  0.132174  0.000000      0.005208
 -0.001841  0.132703  0.000000      0.005208
 -0.000920  0.133233  0.000000      0.005208
  0.000000  0.133762  0.000000      0.005208
 


--------------------------------------------------------------------------------------------------------




 Dimension of arrays:
   k-points           NKPTS =    192   k-points in BZ     NKDIM =    192   number of bands    NBANDS=     48
   number of dos      NEDOS =    301   number of ions     NIONS =     16
   non local maximal  LDIM  =      4   non local SUM 2l+1 LMDIM =      8
   total plane-waves  NPLWV = 139968
   max r-space proj   IRMAX =      1   max aug-charges    IRDMAX=   6977
   dimension x,y,z NGX =    36 NGY =   36 NGZ =  108
   dimension x,y,z NGXF=    72 NGYF=   72 NGZF=  216
   support grid    NGXF=    72 NGYF=   72 NGZF=  216
   ions per type =               8   8
   NGX,Y,Z   is equivalent  to a cutoff of  12.02, 12.02, 11.97 a.u.
   NGXF,Y,Z  is equivalent  to a cutoff of  24.04, 24.04, 23.94 a.u.

 SYSTEM =  BS                                      
 POSCAR =  Graphene-Borophene Bridge with lattice p

 Startparameter for this run:
   NWRITE =      2    write-flag & timer
   PREC   = accura    normal or accurate (medium, high low for compatibility)
   ISTART =      0    job   : 0-new  1-cont  2-samecut
   ICHARG =     11    charge: 1-file 2-atom 10-const
   ISPIN  =      1    spin polarized calculation?
   LNONCOLLINEAR =      F non collinear calculations
   LSORBIT =      F    spin-orbit coupling
   INIWAV =      1    electr: 0-lowe 1-rand  2-diag
   LASPH  =      F    aspherical Exc in radial PAW
 Electronic Relaxation 1
   ENCUT  =  450.0 eV  33.07 Ry    5.75 a.u.   8.61  8.61 25.95*2*pi/ulx,y,z
   ENINI  =  450.0     initial cutoff
   ENAUG  =  644.9 eV  augmentation charge cutoff
   NELM   =     64;   NELMIN=  2; NELMDL= -5     # of ELM steps 
   EDIFF  = 0.1E-05   stopping-criterion for ELM
   LREAL  =      F    real-space projection
   NLSPLINE    = F    spline interpolate recip. space projectors
   LCOMPAT=      F    compatible to vasp.4.4
   GGA_COMPAT  = T    GGA compatible to vasp.4.4-vasp.4.6
   LMAXPAW     = -100 max onsite density
   LMAXMIX     =    2 max onsite mixed and CHGCAR
   VOSKOWN=      0    Vosko Wilk Nusair interpolation
   ROPT   =    0.00000   0.00000
 Ionic relaxation
   EDIFFG = -.1E-02   stopping-criterion for IOM
   NSW    =      0    number of steps for IOM
   NBLOCK =      1;   KBLOCK =      1    inner block; outer block 
   IBRION =     -1    ionic relax: 0-MD 1-quasi-New 2-CG
   NFREE  =      0    steps in history (QN), initial steepest desc. (CG)
   ISIF   =      2    stress and relaxation
   IWAVPR =     10    prediction:  0-non 1-charg 2-wave 3-comb
   ISYM   =      0    0-nonsym 1-usesym 2-fastsym
   LCORR  =      T    Harris-Foulkes like correction to forces

   POTIM  = 0.5000    time-step for ionic-motion
   TEIN   =    0.0    initial temperature
   TEBEG  =    0.0;   TEEND  =   0.0 temperature during run
   SMASS  =  -3.00    Nose mass-parameter (am)
   estimated Nose-frequenzy (Omega)   =  0.10E-29 period in steps = 0.13E+47 mass=  -0.567E-27a.u.
   SCALEE = 1.0000    scale energy and forces
   NPACO  =    256;   APACO  = 10.0  distance and # of slots for P.C.
   PSTRESS=    0.0 pullay stress

  Mass of Ions in am
   POMASS =  10.81 12.01
  Ionic Valenz
   ZVAL   =   3.00  4.00
  Atomic Wigner-Seitz radii
   RWIGS  =  -1.00 -1.00
  virtual crystal weights 
   VCA    =   1.00  1.00
   NELECT =      56.0000    total number of electrons
   NUPDOWN=      -1.0000    fix difference up-down

 DOS related values:
   EMIN   =  10.00;   EMAX   =-10.00  energy-range for DOS
   EFERMI =   0.00
   ISMEAR =     0;   SIGMA  =   0.10  broadening in eV -4-tet -1-fermi 0-gaus

 Electronic relaxation 2 (details)
   IALGO  =     38    algorithm
   LDIAG  =      T    sub-space diagonalisation (order eigenvalues)
   LSUBROT=      F    optimize rotation matrix (better conditioning)
   TURBO    =      0    0=normal 1=particle mesh
   IRESTART =      0    0=no restart 2=restart with 2 vectors
   NREBOOT  =      0    no. of reboots
   NMIN     =      0    reboot dimension
   EREF     =   0.00    reference energy to select bands
   IMIX   =      4    mixing-type and parameters
     AMIX     =   0.40;   BMIX     =  1.00
     AMIX_MAG =   1.60;   BMIX_MAG =  1.00
     AMIN     =   0.10
     WC   =   100.;   INIMIX=   1;  MIXPRE=   1;  MAXMIX= -45

 Intra band minimization:
   WEIMIN = 0.0000     energy-eigenvalue tresh-hold
   EBREAK =  0.52E-08  absolut break condition
   DEPER  =   0.30     relativ break condition  

   TIME   =   0.40     timestep for ELM

  volume/ion in A,a.u.               =      20.13       135.83
  Fermi-wavevector in a.u.,A,eV,Ry     =   0.913767  1.726769 11.360458  0.834970
  Thomas-Fermi vector in A             =   2.038317
 
 Write flags
   LWAVE        =      T    write WAVECAR
   LDOWNSAMPLE  =      F    k-point downsampling of WAVECAR
   LCHARG       =      T    write CHGCAR
   LVTOT        =      F    write LOCPOT, total local potential
   LVHAR        =      F    write LOCPOT, Hartree potential only
   LELF         =      F    write electronic localiz. function (ELF)
   LORBIT       =     11    0 simple, 1 ext, 2 COOP (PROOUT), +10 PAW based schemes


 Dipole corrections
   LMONO  =      F    monopole corrections only (constant potential shift)
   LDIPOL =      F    correct potential (dipole corrections)
   IDIPOL =      0    1-x, 2-y, 3-z, 4-all directions 
   EPSILON=  1.0000000 bulk dielectric constant

 Exchange correlation treatment:
   GGA     =    PE    GGA type
   LEXCH   =     8    internal setting for exchange type
   LIBXC   =     F    Libxc                    
   VOSKOWN =     0    Vosko Wilk Nusair interpolation
   LHFCALC =     F    Hartree Fock is set to
   LHFONE  =     F    Hartree Fock one center treatment
   AEXX    =    0.0000 exact exchange contribution

 Linear response parameters
   LEPSILON=     F    determine dielectric tensor
   LRPA    =     F    only Hartree local field effects (RPA)
   LNABLA  =     F    use nabla operator in PAW spheres
   LVEL    =     F    velocity operator in full k-point grid
   CSHIFT  =0.1000    complex shift for real part using Kramers Kronig
   OMEGAMAX=  -1.0    maximum frequency
   DEG_THRESHOLD= 0.2000000E-02 threshold for treating states as degnerate
   RTIME   =   -0.100 relaxation time in fs
  (WPLASMAI=    0.000 imaginary part of plasma frequency in eV, 0.658/RTIME)
   DFIELD  = 0.0000000 0.0000000 0.0000000 field for delta impulse in time
 
  Optional k-point grid parameters
   LKPOINTS_OPT  =     F    use optional k-point grid
   KPOINTS_OPT_MODE=     1    mode for optional k-point grid
 
 Orbital magnetization related:
   ORBITALMAG=     F  switch on orbital magnetization
   LCHIMAG   =     F  perturbation theory with respect to B field
   DQ        =  0.001000  dq finite difference perturbation B field
   LLRAUG    =     F  two centre corrections for induced B field



--------------------------------------------------------------------------------------------------------


 Static calculation
 charge density and potential remain constant during run
 non-spin polarized calculation
 Variant of blocked Davidson
 Davidson routine will perform the subspace rotation
 perform sub-space diagonalisation
    after iterative eigenvector-optimisation
 no mixing
 using additional bands           20
 reciprocal scheme for non local part
 use partial core corrections
 calculate Harris-corrections to forces 
   (improved forces if not selfconsistent)
 use gradient corrections 
 WARNING: stress and forces are not correct
  (second derivative of E(xc) not defined)
 use of overlap-Matrix (Vanderbilt PP)
 Gauss-broadening in eV      SIGMA  =   0.10


--------------------------------------------------------------------------------------------------------


  energy-cutoff  :      450.00
  volume of cell :      322.04
      direct lattice vectors                 reciprocal lattice vectors
     4.311940485  2.489500000  0.000000000     0.115957074  0.200843543  0.000000000
    -4.311940485  2.489500000  0.000000000    -0.115957074  0.200843543  0.000000000
     0.000000000  0.000000000 15.000000000     0.000000000  0.000000000  0.066666667

  length of vectors
     4.979000000  4.979000000 15.000000000     0.231914147  0.231914147  0.066666667


 
 k-points in units of 2pi/SCALE and weight: K-points                                
   0.00000000  0.13376180  0.00000000       0.005
  -0.00000000  0.13163860  0.00000000       0.005
  -0.00000000  0.12951539  0.00000000       0.005
   0.00000000  0.12739219  0.00000000       0.005
  -0.00000000  0.12526899  0.00000000       0.005
   0.00000000  0.12314578  0.00000000       0.005
   0.00000000  0.12102258  0.00000000       0.005
  -0.00000000  0.11889938  0.00000000       0.005
   0.00000000  0.11677617  0.00000000       0.005
   0.00000000  0.11465297  0.00000000       0.005
  -0.00000000  0.11252977  0.00000000       0.005
   0.00000000  0.11040656  0.00000000       0.005
   0.00000000  0.10828336  0.00000000       0.005
   0.00000000  0.10616016  0.00000000       0.005
  -0.00000000  0.10403696  0.00000000       0.005
  -0.00000000  0.10191375  0.00000000       0.005
   0.00000000  0.09979055  0.00000000       0.005
  -0.00000000  0.09766735  0.00000000       0.005
  -0.00000000  0.09554414  0.00000000       0.005
   0.00000000  0.09342094  0.00000000       0.005
   0.00000000  0.09129774  0.00000000       0.005
  -0.00000000  0.08917453  0.00000000       0.005
   0.00000000  0.08705133  0.00000000       0.005
   0.00000000  0.08492813  0.00000000       0.005
  -0.00000000  0.08280492  0.00000000       0.005
  -0.00000000  0.08068172  0.00000000       0.005
   0.00000000  0.07855852  0.00000000       0.005
   0.00000000  0.07643531  0.00000000       0.005
  -0.00000000  0.07431211  0.00000000       0.005
   0.00000000  0.07218891  0.00000000       0.005
   0.00000000  0.07006570  0.00000000       0.005
  -0.00000000  0.06794250  0.00000000       0.005
  -0.00000000  0.06581930  0.00000000       0.005
   0.00000000  0.06369610  0.00000000       0.005
   0.00000000  0.06157289  0.00000000       0.005
  -0.00000000  0.05944969  0.00000000       0.005
   0.00000000  0.05732649  0.00000000       0.005
   0.00000000  0.05520328  0.00000000       0.005
   0.00000000  0.05308008  0.00000000       0.005
  -0.00000000  0.05095688  0.00000000       0.005
  -0.00000000  0.04883367  0.00000000       0.005
   0.00000000  0.04671047  0.00000000       0.005
  -0.00000000  0.04458727  0.00000000       0.005
   0.00000000  0.04246406  0.00000000       0.005
  -0.00000000  0.04034086  0.00000000       0.005
   0.00000000  0.03821766  0.00000000       0.005
   0.00000000  0.03609445  0.00000000       0.005
  -0.00000000  0.03397125  0.00000000       0.005
   0.00000000  0.03184805  0.00000000       0.005
  -0.00000000  0.02972484  0.00000000       0.005
   0.00000000  0.02760164  0.00000000       0.005
  -0.00000000  0.02547844  0.00000000       0.005
   0.00000000  0.02335523  0.00000000       0.005
   0.00000000  0.02123203  0.00000000       0.005
   0.00000000  0.01910883  0.00000000       0.005
  -0.00000000  0.01698563  0.00000000       0.005
  -0.00000000  0.01486242  0.00000000       0.005
  -0.00000000  0.01273922  0.00000000       0.005
   0.00000000  0.01061602  0.00000000       0.005
  -0.00000000  0.00849281  0.00000000       0.005
  -0.00000000  0.00636961  0.00000000       0.005
   0.00000000  0.00424641  0.00000000       0.005
   0.00000000  0.00212320  0.00000000       0.005
   0.00000000  0.00000000  0.00000000       0.005
   0.00000000  0.00000000  0.00000000       0.005
  -0.00092029  0.00159400  0.00000000       0.005
  -0.00184059  0.00318799  0.00000000       0.005
  -0.00276088  0.00478199  0.00000000       0.005
  -0.00368118  0.00637599  0.00000000       0.005
  -0.00460147  0.00796998  0.00000000       0.005
  -0.00552177  0.00956398  0.00000000       0.005
  -0.00644206  0.01115797  0.00000000       0.005
  -0.00736235  0.01275197  0.00000000       0.005
  -0.00828265  0.01434597  0.00000000       0.005
  -0.00920294  0.01593996  0.00000000       0.005
  -0.01012324  0.01753396  0.00000000       0.005
  -0.01104353  0.01912796  0.00000000       0.005
  -0.01196383  0.02072195  0.00000000       0.005
  -0.01288412  0.02231595  0.00000000       0.005
  -0.01380441  0.02390995  0.00000000       0.005
  -0.01472471  0.02550394  0.00000000       0.005
  -0.01564500  0.02709794  0.00000000       0.005
  -0.01656530  0.02869193  0.00000000       0.005
  -0.01748559  0.03028593  0.00000000       0.005
  -0.01840588  0.03187993  0.00000000       0.005
  -0.01932618  0.03347392  0.00000000       0.005
  -0.02024647  0.03506792  0.00000000       0.005
  -0.02116677  0.03666192  0.00000000       0.005
  -0.02208706  0.03825591  0.00000000       0.005
  -0.02300736  0.03984991  0.00000000       0.005
  -0.02392765  0.04144391  0.00000000       0.005
  -0.02484794  0.04303790  0.00000000       0.005
  -0.02576824  0.04463190  0.00000000       0.005
  -0.02668853  0.04622589  0.00000000       0.005
  -0.02760883  0.04781989  0.00000000       0.005
  -0.02852912  0.04941389  0.00000000       0.005
  -0.02944942  0.05100788  0.00000000       0.005
  -0.03036971  0.05260188  0.00000000       0.005
  -0.03129000  0.05419588  0.00000000       0.005
  -0.03221030  0.05578987  0.00000000       0.005
  -0.03313059  0.05738387  0.00000000       0.005
  -0.03405089  0.05897787  0.00000000       0.005
  -0.03497118  0.06057186  0.00000000       0.005
  -0.03589148  0.06216586  0.00000000       0.005
  -0.03681177  0.06375985  0.00000000       0.005
  -0.03773206  0.06535385  0.00000000       0.005
  -0.03865236  0.06694785  0.00000000       0.005
  -0.03957265  0.06854184  0.00000000       0.005
  -0.04049295  0.07013584  0.00000000       0.005
  -0.04141324  0.07172984  0.00000000       0.005
  -0.04233353  0.07332383  0.00000000       0.005
  -0.04325383  0.07491783  0.00000000       0.005
  -0.04417412  0.07651183  0.00000000       0.005
  -0.04509442  0.07810582  0.00000000       0.005
  -0.04601471  0.07969982  0.00000000       0.005
  -0.04693501  0.08129381  0.00000000       0.005
  -0.04785530  0.08288781  0.00000000       0.005
  -0.04877559  0.08448181  0.00000000       0.005
  -0.04969589  0.08607580  0.00000000       0.005
  -0.05061618  0.08766980  0.00000000       0.005
  -0.05153648  0.08926380  0.00000000       0.005
  -0.05245677  0.09085779  0.00000000       0.005
  -0.05337707  0.09245179  0.00000000       0.005
  -0.05429736  0.09404579  0.00000000       0.005
  -0.05521765  0.09563978  0.00000000       0.005
  -0.05613795  0.09723378  0.00000000       0.005
  -0.05705824  0.09882778  0.00000000       0.005
  -0.05797854  0.10042177  0.00000000       0.005
  -0.05797854  0.10042177  0.00000000       0.005
  -0.05705824  0.10095098  0.00000000       0.005
  -0.05613795  0.10148019  0.00000000       0.005
  -0.05521765  0.10200939  0.00000000       0.005
  -0.05429736  0.10253860  0.00000000       0.005
  -0.05337707  0.10306781  0.00000000       0.005
  -0.05245677  0.10359701  0.00000000       0.005
  -0.05153648  0.10412622  0.00000000       0.005
  -0.05061618  0.10465543  0.00000000       0.005
  -0.04969589  0.10518463  0.00000000       0.005
  -0.04877559  0.10571384  0.00000000       0.005
  -0.04785530  0.10624305  0.00000000       0.005
  -0.04693501  0.10677225  0.00000000       0.005
  -0.04601471  0.10730146  0.00000000       0.005
  -0.04509442  0.10783067  0.00000000       0.005
  -0.04417412  0.10835987  0.00000000       0.005
  -0.04325383  0.10888908  0.00000000       0.005
  -0.04233353  0.10941829  0.00000000       0.005
  -0.04141324  0.10994749  0.00000000       0.005
  -0.04049295  0.11047670  0.00000000       0.005
  -0.03957265  0.11100591  0.00000000       0.005
  -0.03865236  0.11153511  0.00000000       0.005
  -0.03773206  0.11206432  0.00000000       0.005
  -0.03681177  0.11259353  0.00000000       0.005
  -0.03589148  0.11312273  0.00000000       0.005
  -0.03497118  0.11365194  0.00000000       0.005
  -0.03405089  0.11418115  0.00000000       0.005
  -0.03313059  0.11471035  0.00000000       0.005
  -0.03221030  0.11523956  0.00000000       0.005
  -0.03129000  0.11576877  0.00000000       0.005
  -0.03036971  0.11629798  0.00000000       0.005
  -0.02944942  0.11682718  0.00000000       0.005
  -0.02852912  0.11735639  0.00000000       0.005
  -0.02760883  0.11788560  0.00000000       0.005
  -0.02668853  0.11841480  0.00000000       0.005
  -0.02576824  0.11894401  0.00000000       0.005
  -0.02484794  0.11947322  0.00000000       0.005
  -0.02392765  0.12000242  0.00000000       0.005
  -0.02300736  0.12053163  0.00000000       0.005
  -0.02208706  0.12106084  0.00000000       0.005
  -0.02116677  0.12159004  0.00000000       0.005
  -0.02024647  0.12211925  0.00000000       0.005
  -0.01932618  0.12264846  0.00000000       0.005
  -0.01840588  0.12317766  0.00000000       0.005
  -0.01748559  0.12370687  0.00000000       0.005
  -0.01656530  0.12423608  0.00000000       0.005
  -0.01564500  0.12476528  0.00000000       0.005
  -0.01472471  0.12529449  0.00000000       0.005
  -0.01380441  0.12582370  0.00000000       0.005
  -0.01288412  0.12635290  0.00000000       0.005
  -0.01196383  0.12688211  0.00000000       0.005
  -0.01104353  0.12741132  0.00000000       0.005
  -0.01012324  0.12794052  0.00000000       0.005
  -0.00920294  0.12846973  0.00000000       0.005
  -0.00828265  0.12899894  0.00000000       0.005
  -0.00736235  0.12952815  0.00000000       0.005
  -0.00644206  0.13005735  0.00000000       0.005
  -0.00552177  0.13058656  0.00000000       0.005
  -0.00460147  0.13111577  0.00000000       0.005
  -0.00368118  0.13164497  0.00000000       0.005
  -0.00276088  0.13217418  0.00000000       0.005
  -0.00184059  0.13270339  0.00000000       0.005
  -0.00092029  0.13323259  0.00000000       0.005
   0.00000000  0.13376180  0.00000000       0.005
 
 k-points in reciprocal lattice and weights: K-points                                
   0.33300000  0.33300000  0.00000000       0.005
   0.32771429  0.32771429  0.00000000       0.005
   0.32242857  0.32242857  0.00000000       0.005
   0.31714286  0.31714286  0.00000000       0.005
   0.31185714  0.31185714  0.00000000       0.005
   0.30657143  0.30657143  0.00000000       0.005
   0.30128571  0.30128571  0.00000000       0.005
   0.29600000  0.29600000  0.00000000       0.005
   0.29071429  0.29071429  0.00000000       0.005
   0.28542857  0.28542857  0.00000000       0.005
   0.28014286  0.28014286  0.00000000       0.005
   0.27485714  0.27485714  0.00000000       0.005
   0.26957143  0.26957143  0.00000000       0.005
   0.26428571  0.26428571  0.00000000       0.005
   0.25900000  0.25900000  0.00000000       0.005
   0.25371429  0.25371429  0.00000000       0.005
   0.24842857  0.24842857  0.00000000       0.005
   0.24314286  0.24314286  0.00000000       0.005
   0.23785714  0.23785714  0.00000000       0.005
   0.23257143  0.23257143  0.00000000       0.005
   0.22728571  0.22728571  0.00000000       0.005
   0.22200000  0.22200000  0.00000000       0.005
   0.21671429  0.21671429  0.00000000       0.005
   0.21142857  0.21142857  0.00000000       0.005
   0.20614286  0.20614286  0.00000000       0.005
   0.20085714  0.20085714  0.00000000       0.005
   0.19557143  0.19557143  0.00000000       0.005
   0.19028571  0.19028571  0.00000000       0.005
   0.18500000  0.18500000  0.00000000       0.005
   0.17971429  0.17971429  0.00000000       0.005
   0.17442857  0.17442857  0.00000000       0.005
   0.16914286  0.16914286  0.00000000       0.005
   0.16385714  0.16385714  0.00000000       0.005
   0.15857143  0.15857143  0.00000000       0.005
   0.15328571  0.15328571  0.00000000       0.005
   0.14800000  0.14800000  0.00000000       0.005
   0.14271429  0.14271429  0.00000000       0.005
   0.13742857  0.13742857  0.00000000       0.005
   0.13214286  0.13214286  0.00000000       0.005
   0.12685714  0.12685714  0.00000000       0.005
   0.12157143  0.12157143  0.00000000       0.005
   0.11628571  0.11628571  0.00000000       0.005
   0.11100000  0.11100000  0.00000000       0.005
   0.10571429  0.10571429  0.00000000       0.005
   0.10042857  0.10042857  0.00000000       0.005
   0.09514286  0.09514286  0.00000000       0.005
   0.08985714  0.08985714  0.00000000       0.005
   0.08457143  0.08457143  0.00000000       0.005
   0.07928571  0.07928571  0.00000000       0.005
   0.07400000  0.07400000  0.00000000       0.005
   0.06871429  0.06871429  0.00000000       0.005
   0.06342857  0.06342857  0.00000000       0.005
   0.05814286  0.05814286  0.00000000       0.005
   0.05285714  0.05285714  0.00000000       0.005
   0.04757143  0.04757143  0.00000000       0.005
   0.04228571  0.04228571  0.00000000       0.005
   0.03700000  0.03700000  0.00000000       0.005
   0.03171429  0.03171429  0.00000000       0.005
   0.02642857  0.02642857  0.00000000       0.005
   0.02114286  0.02114286  0.00000000       0.005
   0.01585714  0.01585714  0.00000000       0.005
   0.01057143  0.01057143  0.00000000       0.005
   0.00528571  0.00528571  0.00000000       0.005
   0.00000000  0.00000000  0.00000000       0.005
   0.00000000  0.00000000  0.00000000       0.005
   0.00000000  0.00793651  0.00000000       0.005
   0.00000000  0.01587302  0.00000000       0.005
   0.00000000  0.02380952  0.00000000       0.005
   0.00000000  0.03174603  0.00000000       0.005
   0.00000000  0.03968254  0.00000000       0.005
   0.00000000  0.04761905  0.00000000       0.005
   0.00000000  0.05555556  0.00000000       0.005
   0.00000000  0.06349206  0.00000000       0.005
   0.00000000  0.07142857  0.00000000       0.005
   0.00000000  0.07936508  0.00000000       0.005
   0.00000000  0.08730159  0.00000000       0.005
   0.00000000  0.09523810  0.00000000       0.005
   0.00000000  0.10317460  0.00000000       0.005
   0.00000000  0.11111111  0.00000000       0.005
   0.00000000  0.11904762  0.00000000       0.005
   0.00000000  0.12698413  0.00000000       0.005
   0.00000000  0.13492063  0.00000000       0.005
   0.00000000  0.14285714  0.00000000       0.005
   0.00000000  0.15079365  0.00000000       0.005
   0.00000000  0.15873016  0.00000000       0.005
   0.00000000  0.16666667  0.00000000       0.005
   0.00000000  0.17460317  0.00000000       0.005
   0.00000000  0.18253968  0.00000000       0.005
   0.00000000  0.19047619  0.00000000       0.005
   0.00000000  0.19841270  0.00000000       0.005
   0.00000000  0.20634921  0.00000000       0.005
   0.00000000  0.21428571  0.00000000       0.005
   0.00000000  0.22222222  0.00000000       0.005
   0.00000000  0.23015873  0.00000000       0.005
   0.00000000  0.23809524  0.00000000       0.005
   0.00000000  0.24603175  0.00000000       0.005
   0.00000000  0.25396825  0.00000000       0.005
   0.00000000  0.26190476  0.00000000       0.005
   0.00000000  0.26984127  0.00000000       0.005
   0.00000000  0.27777778  0.00000000       0.005
   0.00000000  0.28571429  0.00000000       0.005
   0.00000000  0.29365079  0.00000000       0.005
   0.00000000  0.30158730  0.00000000       0.005
   0.00000000  0.30952381  0.00000000       0.005
   0.00000000  0.31746032  0.00000000       0.005
   0.00000000  0.32539683  0.00000000       0.005
   0.00000000  0.33333333  0.00000000       0.005
   0.00000000  0.34126984  0.00000000       0.005
   0.00000000  0.34920635  0.00000000       0.005
   0.00000000  0.35714286  0.00000000       0.005
   0.00000000  0.36507937  0.00000000       0.005
   0.00000000  0.37301587  0.00000000       0.005
   0.00000000  0.38095238  0.00000000       0.005
   0.00000000  0.38888889  0.00000000       0.005
   0.00000000  0.39682540  0.00000000       0.005
   0.00000000  0.40476190  0.00000000       0.005
   0.00000000  0.41269841  0.00000000       0.005
   0.00000000  0.42063492  0.00000000       0.005
   0.00000000  0.42857143  0.00000000       0.005
   0.00000000  0.43650794  0.00000000       0.005
   0.00000000  0.44444444  0.00000000       0.005
   0.00000000  0.45238095  0.00000000       0.005
   0.00000000  0.46031746  0.00000000       0.005
   0.00000000  0.46825397  0.00000000       0.005
   0.00000000  0.47619048  0.00000000       0.005
   0.00000000  0.48412698  0.00000000       0.005
   0.00000000  0.49206349  0.00000000       0.005
   0.00000000  0.50000000  0.00000000       0.005
   0.00000000  0.50000000  0.00000000       0.005
   0.00528571  0.49734921  0.00000000       0.005
   0.01057143  0.49469841  0.00000000       0.005
   0.01585714  0.49204762  0.00000000       0.005
   0.02114286  0.48939683  0.00000000       0.005
   0.02642857  0.48674603  0.00000000       0.005
   0.03171429  0.48409524  0.00000000       0.005
   0.03700000  0.48144444  0.00000000       0.005
   0.04228571  0.47879365  0.00000000       0.005
   0.04757143  0.47614286  0.00000000       0.005
   0.05285714  0.47349206  0.00000000       0.005
   0.05814286  0.47084127  0.00000000       0.005
   0.06342857  0.46819048  0.00000000       0.005
   0.06871429  0.46553968  0.00000000       0.005
   0.07400000  0.46288889  0.00000000       0.005
   0.07928571  0.46023810  0.00000000       0.005
   0.08457143  0.45758730  0.00000000       0.005
   0.08985714  0.45493651  0.00000000       0.005
   0.09514286  0.45228571  0.00000000       0.005
   0.10042857  0.44963492  0.00000000       0.005
   0.10571429  0.44698413  0.00000000       0.005
   0.11100000  0.44433333  0.00000000       0.005
   0.11628571  0.44168254  0.00000000       0.005
   0.12157143  0.43903175  0.00000000       0.005
   0.12685714  0.43638095  0.00000000       0.005
   0.13214286  0.43373016  0.00000000       0.005
   0.13742857  0.43107937  0.00000000       0.005
   0.14271429  0.42842857  0.00000000       0.005
   0.14800000  0.42577778  0.00000000       0.005
   0.15328571  0.42312698  0.00000000       0.005
   0.15857143  0.42047619  0.00000000       0.005
   0.16385714  0.41782540  0.00000000       0.005
   0.16914286  0.41517460  0.00000000       0.005
   0.17442857  0.41252381  0.00000000       0.005
   0.17971429  0.40987302  0.00000000       0.005
   0.18500000  0.40722222  0.00000000       0.005
   0.19028571  0.40457143  0.00000000       0.005
   0.19557143  0.40192063  0.00000000       0.005
   0.20085714  0.39926984  0.00000000       0.005
   0.20614286  0.39661905  0.00000000       0.005
   0.21142857  0.39396825  0.00000000       0.005
   0.21671429  0.39131746  0.00000000       0.005
   0.22200000  0.38866667  0.00000000       0.005
   0.22728571  0.38601587  0.00000000       0.005
   0.23257143  0.38336508  0.00000000       0.005
   0.23785714  0.38071429  0.00000000       0.005
   0.24314286  0.37806349  0.00000000       0.005
   0.24842857  0.37541270  0.00000000       0.005
   0.25371429  0.37276190  0.00000000       0.005
   0.25900000  0.37011111  0.00000000       0.005
   0.26428571  0.36746032  0.00000000       0.005
   0.26957143  0.36480952  0.00000000       0.005
   0.27485714  0.36215873  0.00000000       0.005
   0.28014286  0.35950794  0.00000000       0.005
   0.28542857  0.35685714  0.00000000       0.005
   0.29071429  0.35420635  0.00000000       0.005
   0.29600000  0.35155556  0.00000000       0.005
   0.30128571  0.34890476  0.00000000       0.005
   0.30657143  0.34625397  0.00000000       0.005
   0.31185714  0.34360317  0.00000000       0.005
   0.31714286  0.34095238  0.00000000       0.005
   0.32242857  0.33830159  0.00000000       0.005
   0.32771429  0.33565079  0.00000000       0.005
   0.33300000  0.33300000  0.00000000       0.005
 
 position of ions in fractional coordinates (direct lattice) 
   0.68285955  0.98574321  0.10120496
   0.34582221  0.98571217  0.10120830
   0.01425679  0.31713945  0.10120496
   0.01428783  0.65417679  0.10120830
   0.34572526  0.31709865  0.10006198
   0.68290035  0.65427374  0.10006198
   0.68063631  0.31936269  0.08791609
   0.34739245  0.65260655  0.11379388
   0.23572668  0.26419444  0.33449661
   0.40241503  0.09754522  0.33449697
   0.23574612  0.76425288  0.33462817
   0.40242111  0.59757789  0.33457528
   0.73577348  0.26422552  0.33447922
   0.90243818  0.09756082  0.33433640
   0.73580456  0.76427232  0.33449661
   0.90245378  0.59758397  0.33449697
 
 position of ions in cartesian coordinates  (Angst):
  -1.30601632  4.15398656  1.51807441
  -2.75916742  3.31485483  1.51812444
  -1.30601200  0.82501095  1.51807441
  -2.75916310  1.66414269  1.51812444
   0.12343624  1.65010012  1.50092974
   0.12343624  3.32889490  1.50092974
   1.55779031  2.48949751  1.31874134
  -1.31606505  2.48949751  1.70690813
  -0.12275131  1.24455364  5.01744911
   1.31458047  1.24465104  5.01745452
  -2.27888973  2.48949751  5.01942248
  -0.84150445  2.48949751  5.01862922
   2.03328670  2.48949751  5.01718831
   3.47058327  2.48949751  5.01504606
  -0.12275131  3.73444138  5.01744911
   1.31458047  3.73434398  5.01745452
 


--------------------------------------------------------------------------------------------------------


 k-point   1 :   0.3330 0.3330 0.0000  plane waves:    6932
 k-point   2 :   0.3277 0.3277 0.0000  plane waves:    6936
 k-point   3 :   0.3224 0.3224 0.0000  plane waves:    6932
 k-point   4 :   0.3171 0.3171 0.0000  plane waves:    6924
 k-point   5 :   0.3119 0.3119 0.0000  plane waves:    6924
 k-point   6 :   0.3066 0.3066 0.0000  plane waves:    6924
 k-point   7 :   0.3013 0.3013 0.0000  plane waves:    6933
 k-point   8 :   0.2960 0.2960 0.0000  plane waves:    6941
 k-point   9 :   0.2907 0.2907 0.0000  plane waves:    6947
 k-point  10 :   0.2854 0.2854 0.0000  plane waves:    6951
 k-point  11 :   0.2801 0.2801 0.0000  plane waves:    6943
 k-point  12 :   0.2749 0.2749 0.0000  plane waves:    6945
 k-point  13 :   0.2696 0.2696 0.0000  plane waves:    6951
 k-point  14 :   0.2643 0.2643 0.0000  plane waves:    6953
 k-point  15 :   0.2590 0.2590 0.0000  plane waves:    6957
 k-point  16 :   0.2537 0.2537 0.0000  plane waves:    6957
 k-point  17 :   0.2484 0.2484 0.0000  plane waves:    6967
 k-point  18 :   0.2431 0.2431 0.0000  plane waves:    6971
 k-point  19 :   0.2379 0.2379 0.0000  plane waves:    6975
 k-point  20 :   0.2326 0.2326 0.0000  plane waves:    6967
 k-point  21 :   0.2273 0.2273 0.0000  plane waves:    6975
 k-point  22 :   0.2220 0.2220 0.0000  plane waves:    6965
 k-point  23 :   0.2167 0.2167 0.0000  plane waves:    6973
 k-point  24 :   0.2114 0.2114 0.0000  plane waves:    6973
 k-point  25 :   0.2061 0.2061 0.0000  plane waves:    6973
 k-point  26 :   0.2009 0.2009 0.0000  plane waves:    6983
 k-point  27 :   0.1956 0.1956 0.0000  plane waves:    6979
 k-point  28 :   0.1903 0.1903 0.0000  plane waves:    6985
 k-point  29 :   0.1850 0.1850 0.0000  plane waves:    6995
 k-point  30 :   0.1797 0.1797 0.0000  plane waves:    6997
 k-point  31 :   0.1744 0.1744 0.0000  plane waves:    6997
 k-point  32 :   0.1691 0.1691 0.0000  plane waves:    7001
 k-point  33 :   0.1639 0.1639 0.0000  plane waves:    6993
 k-point  34 :   0.1586 0.1586 0.0000  plane waves:    6997
 k-point  35 :   0.1533 0.1533 0.0000  plane waves:    6997
 k-point  36 :   0.1480 0.1480 0.0000  plane waves:    7005
 k-point  37 :   0.1427 0.1427 0.0000  plane waves:    6999
 k-point  38 :   0.1374 0.1374 0.0000  plane waves:    7003
 k-point  39 :   0.1321 0.1321 0.0000  plane waves:    7007
 k-point  40 :   0.1269 0.1269 0.0000  plane waves:    7003
 k-point  41 :   0.1216 0.1216 0.0000  plane waves:    6995
 k-point  42 :   0.1163 0.1163 0.0000  plane waves:    7003
 k-point  43 :   0.1110 0.1110 0.0000  plane waves:    6995
 k-point  44 :   0.1057 0.1057 0.0000  plane waves:    7003
 k-point  45 :   0.1004 0.1004 0.0000  plane waves:    7009
 k-point  46 :   0.0951 0.0951 0.0000  plane waves:    7009
 k-point  47 :   0.0899 0.0899 0.0000  plane waves:    7001
 k-point  48 :   0.0846 0.0846 0.0000  plane waves:    7001
 k-point  49 :   0.0793 0.0793 0.0000  plane waves:    6997
 k-point  50 :   0.0740 0.0740 0.0000  plane waves:    6993
 k-point  51 :   0.0687 0.0687 0.0000  plane waves:    6981
 k-point  52 :   0.0634 0.0634 0.0000  plane waves:    6977
 k-point  53 :   0.0581 0.0581 0.0000  plane waves:    6977
 k-point  54 :   0.0529 0.0529 0.0000  plane waves:    6979
 k-point  55 :   0.0476 0.0476 0.0000  plane waves:    6987
 k-point  56 :   0.0423 0.0423 0.0000  plane waves:    6991
 k-point  57 :   0.0370 0.0370 0.0000  plane waves:    7001
 k-point  58 :   0.0317 0.0317 0.0000  plane waves:    7009
 k-point  59 :   0.0264 0.0264 0.0000  plane waves:    7015
 k-point  60 :   0.0211 0.0211 0.0000  plane waves:    7011
 k-point  61 :   0.0159 0.0159 0.0000  plane waves:    7015
 k-point  62 :   0.0106 0.0106 0.0000  plane waves:    7015
 k-point  63 :   0.0053 0.0053 0.0000  plane waves:    7009
 k-point  64 :   0.0000 0.0000 0.0000  plane waves:    7005
 k-point  65 :   0.0000 0.0000 0.0000  plane waves:    7005
 k-point  66 :   0.0000 0.0079 0.0000  plane waves:    7009
 k-point  67 :   0.0000 0.0159 0.0000  plane waves:    7021
 k-point  68 :   0.0000 0.0238 0.0000  plane waves:    7017
 k-point  69 :   0.0000 0.0317 0.0000  plane waves:    7013
 k-point  70 :   0.0000 0.0397 0.0000  plane waves:    7013
 k-point  71 :   0.0000 0.0476 0.0000  plane waves:    7011
 k-point  72 :   0.0000 0.0556 0.0000  plane waves:    7015
 k-point  73 :   0.0000 0.0635 0.0000  plane waves:    7011
 k-point  74 :   0.0000 0.0714 0.0000  plane waves:    7003
 k-point  75 :   0.0000 0.0794 0.0000  plane waves:    6997
 k-point  76 :   0.0000 0.0873 0.0000  plane waves:    6991
 k-point  77 :   0.0000 0.0952 0.0000  plane waves:    6991
 k-point  78 :   0.0000 0.1032 0.0000  plane waves:    6991
 k-point  79 :   0.0000 0.1111 0.0000  plane waves:    6987
 k-point  80 :   0.0000 0.1190 0.0000  plane waves:    6993
 k-point  81 :   0.0000 0.1270 0.0000  plane waves:    6993
 k-point  82 :   0.0000 0.1349 0.0000  plane waves:    6999
 k-point  83 :   0.0000 0.1429 0.0000  plane waves:    6999
 k-point  84 :   0.0000 0.1508 0.0000  plane waves:    6999
 k-point  85 :   0.0000 0.1587 0.0000  plane waves:    6989
 k-point  86 :   0.0000 0.1667 0.0000  plane waves:    6997
 k-point  87 :   0.0000 0.1746 0.0000  plane waves:    6999
 k-point  88 :   0.0000 0.1825 0.0000  plane waves:    6997
 k-point  89 :   0.0000 0.1905 0.0000  plane waves:    6993
 k-point  90 :   0.0000 0.1984 0.0000  plane waves:    6985
 k-point  91 :   0.0000 0.2063 0.0000  plane waves:    6981
 k-point  92 :   0.0000 0.2143 0.0000  plane waves:    6985
 k-point  93 :   0.0000 0.2222 0.0000  plane waves:    6977
 k-point  94 :   0.0000 0.2302 0.0000  plane waves:    6985
 k-point  95 :   0.0000 0.2381 0.0000  plane waves:    6985
 k-point  96 :   0.0000 0.2460 0.0000  plane waves:    6993
 k-point  97 :   0.0000 0.2540 0.0000  plane waves:    6991
 k-point  98 :   0.0000 0.2619 0.0000  plane waves:    6991
 k-point  99 :   0.0000 0.2698 0.0000  plane waves:    6999
 k-point 100 :   0.0000 0.2778 0.0000  plane waves:    6995
 k-point 101 :   0.0000 0.2857 0.0000  plane waves:    6997
 k-point 102 :   0.0000 0.2937 0.0000  plane waves:    6993
 k-point 103 :   0.0000 0.3016 0.0000  plane waves:    6997
 k-point 104 :   0.0000 0.3095 0.0000  plane waves:    6993
 k-point 105 :   0.0000 0.3175 0.0000  plane waves:    7001
 k-point 106 :   0.0000 0.3254 0.0000  plane waves:    6999
 k-point 107 :   0.0000 0.3333 0.0000  plane waves:    6995
 k-point 108 :   0.0000 0.3413 0.0000  plane waves:    6999
 k-point 109 :   0.0000 0.3492 0.0000  plane waves:    6991
 k-point 110 :   0.0000 0.3571 0.0000  plane waves:    6985
 k-point 111 :   0.0000 0.3651 0.0000  plane waves:    6969
 k-point 112 :   0.0000 0.3730 0.0000  plane waves:    6979
 k-point 113 :   0.0000 0.3810 0.0000  plane waves:    6977
 k-point 114 :   0.0000 0.3889 0.0000  plane waves:    6975
 k-point 115 :   0.0000 0.3968 0.0000  plane waves:    6977
 k-point 116 :   0.0000 0.4048 0.0000  plane waves:    6981
 k-point 117 :   0.0000 0.4127 0.0000  plane waves:    6975
 k-point 118 :   0.0000 0.4206 0.0000  plane waves:    6983
 k-point 119 :   0.0000 0.4286 0.0000  plane waves:    6981
 k-point 120 :   0.0000 0.4365 0.0000  plane waves:    6983
 k-point 121 :   0.0000 0.4444 0.0000  plane waves:    6971
 k-point 122 :   0.0000 0.4524 0.0000  plane waves:    6969
 k-point 123 :   0.0000 0.4603 0.0000  plane waves:    6968
 k-point 124 :   0.0000 0.4683 0.0000  plane waves:    6956
 k-point 125 :   0.0000 0.4762 0.0000  plane waves:    6968
 k-point 126 :   0.0000 0.4841 0.0000  plane waves:    6960
 k-point 127 :   0.0000 0.4921 0.0000  plane waves:    6962
 k-point 128 :   0.0000 0.5000 0.0000  plane waves:    6962
 k-point 129 :   0.0000 0.5000 0.0000  plane waves:    6962
 k-point 130 :   0.0053 0.4973 0.0000  plane waves:    6966
 k-point 131 :   0.0106 0.4947 0.0000  plane waves:    6962
 k-point 132 :   0.0159 0.4920 0.0000  plane waves:    6962
 k-point 133 :   0.0211 0.4894 0.0000  plane waves:    6954
 k-point 134 :   0.0264 0.4867 0.0000  plane waves:    6958
 k-point 135 :   0.0317 0.4841 0.0000  plane waves:    6958
 k-point 136 :   0.0370 0.4814 0.0000  plane waves:    6958
 k-point 137 :   0.0423 0.4788 0.0000  plane waves:    6966
 k-point 138 :   0.0476 0.4761 0.0000  plane waves:    6974
 k-point 139 :   0.0529 0.4735 0.0000  plane waves:    6970
 k-point 140 :   0.0581 0.4708 0.0000  plane waves:    6972
 k-point 141 :   0.0634 0.4682 0.0000  plane waves:    6972
 k-point 142 :   0.0687 0.4655 0.0000  plane waves:    6976
 k-point 143 :   0.0740 0.4629 0.0000  plane waves:    6972
 k-point 144 :   0.0793 0.4602 0.0000  plane waves:    6976
 k-point 145 :   0.0846 0.4576 0.0000  plane waves:    6976
 k-point 146 :   0.0899 0.4549 0.0000  plane waves:    6972
 k-point 147 :   0.0951 0.4523 0.0000  plane waves:    6972
 k-point 148 :   0.1004 0.4496 0.0000  plane waves:    6976
 k-point 149 :   0.1057 0.4470 0.0000  plane waves:    6972
 k-point 150 :   0.1110 0.4443 0.0000  plane waves:    6968
 k-point 151 :   0.1163 0.4417 0.0000  plane waves:    6968
 k-point 152 :   0.1216 0.4390 0.0000  plane waves:    6970
 k-point 153 :   0.1269 0.4364 0.0000  plane waves:    6964
 k-point 154 :   0.1321 0.4337 0.0000  plane waves:    6968
 k-point 155 :   0.1374 0.4311 0.0000  plane waves:    6968
 k-point 156 :   0.1427 0.4284 0.0000  plane waves:    6968
 k-point 157 :   0.1480 0.4258 0.0000  plane waves:    6960
 k-point 158 :   0.1533 0.4231 0.0000  plane waves:    6952
 k-point 159 :   0.1586 0.4205 0.0000  plane waves:    6948
 k-point 160 :   0.1639 0.4178 0.0000  plane waves:    6952
 k-point 161 :   0.1691 0.4152 0.0000  plane waves:    6956
 k-point 162 :   0.1744 0.4125 0.0000  plane waves:    6950
 k-point 163 :   0.1797 0.4099 0.0000  plane waves:    6944
 k-point 164 :   0.1850 0.4072 0.0000  plane waves:    6946
 k-point 165 :   0.1903 0.4046 0.0000  plane waves:    6946
 k-point 166 :   0.1956 0.4019 0.0000  plane waves:    6952
 k-point 167 :   0.2009 0.3993 0.0000  plane waves:    6950
 k-point 168 :   0.2061 0.3966 0.0000  plane waves:    6950
 k-point 169 :   0.2114 0.3940 0.0000  plane waves:    6942
 k-point 170 :   0.2167 0.3913 0.0000  plane waves:    6942
 k-point 171 :   0.2220 0.3887 0.0000  plane waves:    6952
 k-point 172 :   0.2273 0.3860 0.0000  plane waves:    6950
 k-point 173 :   0.2326 0.3834 0.0000  plane waves:    6946
 k-point 174 :   0.2379 0.3807 0.0000  plane waves:    6950
 k-point 175 :   0.2431 0.3781 0.0000  plane waves:    6946
 k-point 176 :   0.2484 0.3754 0.0000  plane waves:    6942
 k-point 177 :   0.2537 0.3728 0.0000  plane waves:    6942
 k-point 178 :   0.2590 0.3701 0.0000  plane waves:    6944
 k-point 179 :   0.2643 0.3675 0.0000  plane waves:    6936
 k-point 180 :   0.2696 0.3648 0.0000  plane waves:    6940
 k-point 181 :   0.2749 0.3622 0.0000  plane waves:    6928
 k-point 182 :   0.2801 0.3595 0.0000  plane waves:    6928
 k-point 183 :   0.2854 0.3569 0.0000  plane waves:    6928
 k-point 184 :   0.2907 0.3542 0.0000  plane waves:    6938
 k-point 185 :   0.2960 0.3516 0.0000  plane waves:    6938
 k-point 186 :   0.3013 0.3489 0.0000  plane waves:    6932
 k-point 187 :   0.3066 0.3463 0.0000  plane waves:    6932
 k-point 188 :   0.3119 0.3436 0.0000  plane waves:    6932
 k-point 189 :   0.3171 0.3410 0.0000  plane waves:    6932
 k-point 190 :   0.3224 0.3383 0.0000  plane waves:    6936
 k-point 191 :   0.3277 0.3357 0.0000  plane waves:    6936
 k-point 192 :   0.3330 0.3330 0.0000  plane waves:    6932

 maximum and minimum number of plane-waves per node :      7021     6924

 maximum number of plane-waves:      7021
 maximum index in each direction: 
   IXMAX=    8   IYMAX=    8   IZMAX=   25
   IXMIN=   -8   IYMIN=   -9   IZMIN=  -25


 serial   3D FFT for wavefunctions
 parallel 3D FFT for charge:
    minimum data exchange during FFTs selected (reduces bandwidth)


 total amount of memory used by VASP MPI-rank0   236313. kBytes
=======================================================================

   base      :      30000. kBytes
   nonl-proj :     175214. kBytes
   fftplans  :       1560. kBytes
   grid      :       7372. kBytes
   one-center:         49. kBytes
   wavefun   :      22118. kBytes
 
     INWAV:  cpu time      0.0000: real time      0.0001
 initial charge density was supplied:
 number of electron      55.9999991 magnetization 
 keeping initial charge density in first step


--------------------------------------------------------------------------------------------------------


 Maximum index for augmentation-charges          384 (set IRDMAX)


--------------------------------------------------------------------------------------------------------


 First call to EWALD:  gamma=   0.259
 Maximum number of real-space cells 4x 4x 2
 Maximum number of reciprocal cells 2x 2x 5

    FEWALD:  cpu time      0.0031: real time      0.0039


--------------------------------------- Iteration      1(   1)  ---------------------------------------


    POTLOK:  cpu time      0.0217: real time      0.0230
    SETDIJ:  cpu time      0.0027: real time      0.0030
     EDDAV:  cpu time      7.2576: real time      7.3285
       DOS:  cpu time      0.0032: real time      0.0052
    --------------------------------------------
      LOOP:  cpu time      7.2852: real time      7.3598

 eigenvalue-minimisations  : 18432
 total energy-change (2. order) : 0.1671387E+03  (-0.2395749E+04)
 number of electron      55.9999991 magnetization 
 augmentation part       55.9999991 magnetization 

 Free energy of the ion-electron system (eV)
  ---------------------------------------------------
  alpha Z        PSCENC =        60.47074313
  Ewald energy   TEWEN  =      4479.77314580
  -Hartree energ DENC   =     -6090.22025745
  -exchange      EXHF   =         0.00000000
  -V(xc)+E(xc)   XCENC  =       168.42495119
  PAW double counting   =      5765.98684529    -5765.35072714
  entropy T*S    EENTRO =        -0.02031986
  eigenvalues    EBANDS =      -198.43123825
  atomic energy  EATOM  =      1746.50554237
  Solvation  Ediel_sol  =         0.00000000
  ---------------------------------------------------
  free energy    TOTEN  =       167.13868509 eV

  energy without entropy =      167.15900494  energy(sigma->0) =      167.14884501


--------------------------------------------------------------------------------------------------------




--------------------------------------- Iteration      1(   2)  ---------------------------------------


     EDDAV:  cpu time     11.1873: real time     11.2810
       DOS:  cpu time      0.0016: real time      0.0016
    --------------------------------------------
      LOOP:  cpu time     11.1889: real time     11.2826

 eigenvalue-minimisations  : 28080
 total energy-change (2. order) :-0.2802223E+03  (-0.2795933E+03)
 number of electron      55.9999991 magnetization 
 augmentation part       55.9999991 magnetization 

 Free energy of the ion-electron system (eV)
  ---------------------------------------------------
  alpha Z        PSCENC =        60.47074313
  Ewald energy   TEWEN  =      4479.77314580
  -Hartree energ DENC   =     -6090.22025745
  -exchange      EXHF   =         0.00000000
  -V(xc)+E(xc)   XCENC  =       168.42495119
  PAW double counting   =      5765.98684529    -5765.35072714
  entropy T*S    EENTRO =        -0.00951078
  eigenvalues    EBANDS =      -478.66436957
  atomic energy  EATOM  =      1746.50554237
  Solvation  Ediel_sol  =         0.00000000
  ---------------------------------------------------
  free energy    TOTEN  =      -113.08363716 eV

  energy without entropy =     -113.07412638  energy(sigma->0) =     -113.07888177


--------------------------------------------------------------------------------------------------------




--------------------------------------- Iteration      1(   3)  ---------------------------------------


     EDDAV:  cpu time     13.3035: real time     13.4061
       DOS:  cpu time      0.0015: real time      0.0015
    --------------------------------------------
      LOOP:  cpu time     13.3049: real time     13.4076

 eigenvalue-minimisations  : 31632
 total energy-change (2. order) :-0.9535155E+01  (-0.9504156E+01)
 number of electron      55.9999991 magnetization 
 augmentation part       55.9999991 magnetization 

 Free energy of the ion-electron system (eV)
  ---------------------------------------------------
  alpha Z        PSCENC =        60.47074313
  Ewald energy   TEWEN  =      4479.77314580
  -Hartree energ DENC   =     -6090.22025745
  -exchange      EXHF   =         0.00000000
  -V(xc)+E(xc)   XCENC  =       168.42495119
  PAW double counting   =      5765.98684529    -5765.35072714
  entropy T*S    EENTRO =        -0.01056692
  eigenvalues    EBANDS =      -488.19846863
  atomic energy  EATOM  =      1746.50554237
  Solvation  Ediel_sol  =         0.00000000
  ---------------------------------------------------
  free energy    TOTEN  =      -122.61879236 eV

  energy without entropy =     -122.60822544  energy(sigma->0) =     -122.61350890


--------------------------------------------------------------------------------------------------------




--------------------------------------- Iteration      1(   4)  ---------------------------------------


     EDDAV:  cpu time     12.0173: real time     12.1057
       DOS:  cpu time      0.0015: real time      0.0015
    --------------------------------------------
      LOOP:  cpu time     12.0188: real time     12.1073

 eigenvalue-minimisations  : 28848
 total energy-change (2. order) :-0.2426823E-01  (-0.2426416E-01)
 number of electron      55.9999991 magnetization 
 augmentation part       55.9999991 magnetization 

 Free energy of the ion-electron system (eV)
  ---------------------------------------------------
  alpha Z        PSCENC =        60.47074313
  Ewald energy   TEWEN  =      4479.77314580
  -Hartree energ DENC   =     -6090.22025745
  -exchange      EXHF   =         0.00000000
  -V(xc)+E(xc)   XCENC  =       168.42495119
  PAW double counting   =      5765.98684529    -5765.35072714
  entropy T*S    EENTRO =        -0.01061367
  eigenvalues    EBANDS =      -488.22269011
  atomic energy  EATOM  =      1746.50554237
  Solvation  Ediel_sol  =         0.00000000
  ---------------------------------------------------
  free energy    TOTEN  =      -122.64306059 eV

  energy without entropy =     -122.63244692  energy(sigma->0) =     -122.63775375


[...]
     33       3.7712      0.00000
     34       4.3227      0.00000
     35       4.5209      0.00000
     36       5.2204      0.00000
     37       5.3328      0.00000
     38       5.5331      0.00000
     39       5.6879      0.00000
     40       5.8655      0.00000
     41       5.8845      0.00000
     42       6.0787      0.00000
     43       6.1699      0.00000
     44       6.4017      0.00000
     45       6.8614      0.00000
     46       7.0124      0.00000
     47       7.4290      0.00000
     48       7.8609      0.00000

 k-point   189 :       0.3171    0.3410    0.0000
  band No.  band energies     occupation 
      1     -17.8522      2.00000
      2     -17.8456      2.00000
      3     -17.7113      2.00000
      4     -14.7116      2.00000
      5     -14.6314      2.00000
      6     -13.0220      2.00000
      7     -12.8542      2.00000
      8     -12.5947      2.00000
      9     -10.7609      2.00000
     10      -9.0848      2.00000
     11      -8.9692      2.00000
     12      -8.2942      2.00000
     13      -8.0865      2.00000
     14      -8.0775      2.00000
     15      -7.6314      2.00000
     16      -7.4814      2.00000
     17      -6.8768      2.00000
     18      -6.6899      2.00000
     19      -6.6825      2.00000
     20      -5.8944      2.00000
     21      -5.7918      2.00000
     22      -5.6314      2.00000
     23      -4.6630      2.00000
     24      -4.5137      2.00000
     25      -3.9550      2.00000
     26      -3.9057      2.00000
     27      -2.6836      2.00000
     28      -0.5791      1.99975
     29      -0.3624      1.44834
     30       2.6652      0.00000
     31       2.9012      0.00000
     32       3.6830      0.00000
     33       3.7582      0.00000
     34       4.3152      0.00000
     35       4.5177      0.00000
     36       5.2374      0.00000
     37       5.3299      0.00000
     38       5.5874      0.00000
     39       5.6743      0.00000
     40       5.8392      0.00000
     41       5.8584      0.00000
     42       6.0969      0.00000
     43       6.1752      0.00000
     44       6.3738      0.00000
     45       6.8758      0.00000
     46       7.0053      0.00000
     47       7.4229      0.00000
     48       7.8727      0.00000

 k-point   190 :       0.3224    0.3383    0.0000
  band No.  band energies     occupation 
      1     -17.8379      2.00000
      2     -17.8312      2.00000
      3     -17.7418      2.00000
      4     -14.6989      2.00000
      5     -14.6442      2.00000
      6     -12.9927      2.00000
      7     -12.8810      2.00000
      8     -12.5959      2.00000
      9     -10.7648      2.00000
     10      -9.0631      2.00000
     11      -8.9868      2.00000
     12      -8.2470      2.00000
     13      -8.1072      2.00000
     14      -8.0983      2.00000
     15      -7.6360      2.00000
     16      -7.4804      2.00000
     17      -6.8362      2.00000
     18      -6.7125      2.00000
     19      -6.7049      2.00000
     20      -5.8815      2.00000
     21      -5.7842      2.00000
     22      -5.6536      2.00000
     23      -4.6503      2.00000
     24      -4.5262      2.00000
     25      -3.9466      2.00000
     26      -3.9127      2.00000
     27      -2.6863      2.00000
     28      -0.5423      1.99830
     29      -0.3989      1.73378
     30       2.7055      0.00000
     31       2.8660      0.00000
     32       3.6935      0.00000
     33       3.7453      0.00000
     34       4.3096      0.00000
     35       4.5154      0.00000
     36       5.2548      0.00000
     37       5.3225      0.00000
     38       5.6388      0.00000
     39       5.6680      0.00000
     40       5.8123      0.00000
     41       5.8317      0.00000
     42       6.1156      0.00000
     43       6.1758      0.00000
     44       6.3517      0.00000
     45       6.8889      0.00000
     46       6.9972      0.00000
     47       7.4185      0.00000
     48       7.9017      0.00000

 k-point   191 :       0.3277    0.3357    0.0000
  band No.  band energies     occupation 
      1     -17.8234      2.00000
      2     -17.8166      2.00000
      3     -17.7720      2.00000
      4     -14.6860      2.00000
      5     -14.6571      2.00000
      6     -12.9646      2.00000
      7     -12.9075      2.00000
      8     -12.5966      2.00000
      9     -10.7671      2.00000
     10      -9.0429      2.00000
     11      -9.0044      2.00000
     12      -8.1997      2.00000
     13      -8.1291      2.00000
     14      -8.1202      2.00000
     15      -7.6389      2.00000
     16      -7.4797      2.00000
     17      -6.7957      2.00000
     18      -6.7343      2.00000
     19      -6.7264      2.00000
     20      -5.8713      2.00000
     21      -5.7807      2.00000
     22      -5.6683      2.00000
     23      -4.6409      2.00000
     24      -4.5356      2.00000
     25      -3.9393      2.00000
     26      -3.9191      2.00000
     27      -2.6879      2.00000
     28      -0.5058      1.99130
     29      -0.4351      1.89555
     30       2.7432      0.00000
     31       2.8316      0.00000
     32       3.7048      0.00000
     33       3.7326      0.00000
     34       4.3060      0.00000
     35       4.5140      0.00000
     36       5.2724      0.00000
     37       5.3107      0.00000
     38       5.6535      0.00000
     39       5.7030      0.00000
     40       5.7848      0.00000
     41       5.8046      0.00000
     42       6.1343      0.00000
     43       6.1695      0.00000
     44       6.3378      0.00000
     45       6.8997      0.00000
     46       6.9895      0.00000
     47       7.4161      0.00000
     48       7.9337      0.00000

 k-point   192 :       0.3330    0.3330    0.0000
  band No.  band energies     occupation 
      1     -17.8094      2.00000
      2     -17.8031      2.00000
      3     -17.7998      2.00000
      4     -14.6739      2.00000
      5     -14.6692      2.00000
      6     -12.9392      2.00000
      7     -12.9323      2.00000
      8     -12.5969      2.00000
      9     -10.7680      2.00000
     10      -9.0253      2.00000
     11      -9.0210      2.00000
     12      -8.1538      2.00000
     13      -8.1506      2.00000
     14      -8.1433      2.00000
     15      -7.6400      2.00000
     16      -7.4795      2.00000
     17      -6.7560      2.00000
     18      -6.7544      2.00000
     19      -6.7470      2.00000
     20      -5.8666      2.00000
     21      -5.7805      2.00000
     22      -5.6737      2.00000
     23      -4.6369      2.00000
     24      -4.5395      2.00000
     25      -3.9352      2.00000
     26      -3.9230      2.00000
     27      -2.6884      2.00000
     28      -0.4744      1.97068
     29      -0.4664      1.96122
     30       2.7734      0.00000
     31       2.8025      0.00000
     32       3.7155      0.00000
     33       3.7213      0.00000
     34       4.3047      0.00000
     35       4.5134      0.00000
     36       5.2879      0.00000
     37       5.2971      0.00000
     38       5.6528      0.00000
     39       5.7551      0.00000
     40       5.7583      0.00000
     41       5.7777      0.00000
     42       6.1471      0.00000
     43       6.1612      0.00000
     44       6.3330      0.00000
     45       6.9054      0.00000
     46       6.9849      0.00000
     47       7.4154      0.00000
     48       7.9093      0.00000


--------------------------------------------------------------------------------------------------------


 soft charge-density along one line, spin component           1
         0         1         2         3         4         5         6         7         8         9
 total charge-density along one line
 
 pseudopotential strength for first ion, spin component:           1
  6.653  10.145  -0.005  -0.000  -0.008  -0.007  -0.000  -0.012
 10.145  15.466  -0.007  -0.000  -0.012  -0.011  -0.000  -0.018
 -0.005  -0.007  -2.276   0.001   0.003  -3.897   0.002   0.005
 -0.000  -0.000   0.001  -2.270  -0.001   0.002  -3.883  -0.001
 -0.008  -0.012   0.003  -0.001  -2.273   0.005  -0.001  -3.891
 -0.007  -0.011  -3.897   0.002   0.005  -6.475   0.004   0.010
 -0.000  -0.000   0.002  -3.883  -0.001   0.004  -6.446  -0.002
 -0.012  -0.018   0.005  -0.001  -3.891   0.010  -0.002  -6.463
 total augmentation occupancy for first ion, spin component:           1
  2.000   0.000   0.000   0.000   0.000   0.000   0.000   0.000
  0.000   0.000   0.000   0.000   0.000   0.000   0.000   0.000
  0.000   0.000   0.333   0.000   0.000   0.000   0.000   0.000
  0.000   0.000   0.000   0.333   0.000   0.000   0.000   0.000
  0.000   0.000   0.000   0.000   0.333   0.000   0.000   0.000
  0.000   0.000   0.000   0.000   0.000   0.000   0.000   0.000
  0.000   0.000   0.000   0.000   0.000   0.000   0.000   0.000
  0.000   0.000   0.000   0.000   0.000   0.000   0.000   0.000


------------------------ aborting loop because EDIFF is reached ----------------------------------------





 total charge

# of ion       s       p       d       tot
------------------------------------------
    1        0.725   1.435   0.000   2.160
    2        0.726   1.431   0.000   2.157
    3        0.699   1.446   0.000   2.145
    4        0.700   1.441   0.000   2.141
    5        0.688   1.457   0.000   2.145
    6        0.688   1.462   0.000   2.150
    7        0.686   1.406   0.000   2.092
    8        0.685   1.405   0.000   2.090
    9        0.856   1.765   0.000   2.620
   10        0.856   1.769   0.000   2.625
   11        0.856   1.769   0.000   2.626
   12        0.856   1.768   0.000   2.624
   13        0.856   1.767   0.000   2.623
   14        0.856   1.768   0.000   2.624
   15        0.856   1.768   0.000   2.624
   16        0.856   1.767   0.000   2.623
--------------------------------------------------
tot         12.446  25.623   0.000  38.070
 
    CHARGE:  cpu time      0.3277: real time      0.3338
    FORLOC:  cpu time      0.0016: real time      0.0026
    FORNL :  cpu time      1.5171: real time      1.5219
    STRESS:  cpu time      8.6466: real time      8.6723
    FORCOR:  cpu time      0.0149: real time      0.0152
    FORHAR:  cpu time      0.0043: real time      0.0043
    OFIELD:  cpu time      0.0000: real time      0.0000

 ---------------------------------------------------------------------------------------------

         DFTD3 V3.0 Rev 1        
 IVDW         = 12
 DF pbe       
 parameters
 VDW_S6       =    1.0000
 VDW_S8       =    0.7875
 VDW_A1       =    0.4289
 VDW_A2       =    4.4407
 k1-k3        =   16.0000    1.3333   -4.0000
 VDW_RADIUS   =   50.2022 A
 VDW_CNRADIUS =   21.1671 A
 Edisp (eV)   -1.86581

 E6    (eV) :    -1.2684
 E8    (eV) :    -0.5974
 % E8        : 32.02
    FORVDW:  cpu time      0.0517: real time      0.0607

  FORCE on cell =-STRESS in cart. coord.  units (eV):
  Direction    XX          YY          ZZ          XY          YZ          ZX
  --------------------------------------------------------------------------------------
  Alpha Z    60.47074    60.47074    60.47074
  Ewald    6143.73284  6143.63491 -7807.59819     0.00000    -0.00001     0.09121
  Hartree  6035.48733  6038.12658 -5975.16520    -1.48922    -0.23471     0.15954
  E(xc)    -195.84529  -195.84320  -202.23678     0.00820    -0.00312     0.00315
  Local  -12729.77934-12732.21490 13115.14118     1.60903     0.34392    -0.28765
  n-local   -38.28311   -40.44776   -40.16202     1.17608    -0.02070    -0.00489
  augment    -2.82745    -2.87101    -2.52916     0.03062    -0.00144     0.00096
  Kinetic   736.35362   726.24329   855.02618     5.36749     0.30785    -0.38236
  Fock        0.00000     0.00000     0.00000     0.00000     0.00000     0.00000
  vdW        -1.33911    -1.33960    -1.33587     0.00000     0.00000     0.00031
  -------------------------------------------------------------------------------------
  Total       7.97023    -4.24096     1.61089     6.70219     0.39179    -0.41973
  in kB      39.65292   -21.09933     8.01438    33.34428     1.94920    -2.08821
  external pressure =        8.86 kB  Pullay stress =        0.00 kB


 VOLUME and BASIS-vectors are now :
 -----------------------------------------------------------------------------
  energy-cutoff  :      450.00
  volume of cell :      322.04
      direct lattice vectors                 reciprocal lattice vectors
     4.311940485  2.489500000  0.000000000     0.115957074  0.200843543  0.000000000
    -4.311940485  2.489500000  0.000000000    -0.115957074  0.200843543  0.000000000
     0.000000000  0.000000000 15.000000000     0.000000000  0.000000000  0.066666667

  length of vectors
     4.979000000  4.979000000 15.000000000     0.231914147  0.231914147  0.066666667


 FORCES acting on ions
    electron-ion (+dipol)            ewald-force                    non-local-force                 convergence-correction
 -----------------------------------------------------------------------------------------------
   -.258E+02 -.151E+02 0.215E+03   0.287E+02 0.167E+02 -.214E+03   -.256E+01 -.140E+01 -.941E-01   0.192E+00 0.183E+00 -.431E+00
   0.261E+02 0.149E+02 0.215E+03   -.288E+02 -.165E+02 -.214E+03   0.258E+01 0.133E+01 0.154E-01   -.261E+00 -.181E+00 -.396E+00
   -.267E+02 0.142E+02 0.216E+03   0.287E+02 -.167E+02 -.214E+03   -.329E+01 0.136E+01 -.475E+00   0.284E+00 0.311E+00 -.655E+00
   0.270E+02 -.141E+02 0.214E+03   -.288E+02 0.165E+02 -.214E+03   0.330E+01 -.127E+01 0.414E+00   -.269E+00 -.271E+00 -.239E+00
   0.167E+01 0.307E+02 0.219E+03   -.404E+00 -.332E+02 -.218E+03   0.473E+00 0.347E+01 -.359E+00   -.451E+00 -.264E+00 -.537E+00
   -.763E+00 -.306E+02 0.217E+03   -.404E+00 0.332E+02 -.218E+03   -.336E+00 -.347E+01 0.415E+00   0.419E+00 0.209E+00 -.158E+00
   -.454E+00 -.880E+00 0.253E+03   0.559E+00 0.307E-03 -.254E+03   0.294E+00 -.334E+00 0.109E+01   -.961E-01 0.428E+00 -.230E+00
   -.108E+01 0.883E+00 0.179E+03   0.533E+00 0.309E-03 -.176E+03   -.264E+00 0.310E+00 -.112E+01   0.167E+00 -.461E+00 -.573E+00
   -.213E+01 0.251E+01 -.215E+03   0.503E+00 -.103E+01 0.215E+03   0.253E+00 -.380E+00 -.456E-01   0.394E+00 -.355E+00 -.470E+00
   0.248E+01 -.135E+01 -.215E+03   -.680E+00 -.181E+00 0.215E+03   -.253E+00 0.400E+00 0.445E-01   -.540E+00 0.405E+00 -.418E+00
   -.578E+00 0.156E+01 -.217E+03   -.108E+01 -.104E-05 0.217E+03   0.276E+00 -.395E+00 -.376E-02   0.385E+00 -.429E+00 -.421E+00
   0.997E+00 -.132E+01 -.217E+03   0.569E+00 0.521E-05 0.217E+03   -.269E+00 0.400E+00 -.185E-01   -.314E+00 0.246E+00 -.436E+00
   -.169E+01 0.139E+01 -.215E+03   0.726E-01 0.139E-05 0.216E+03   0.252E+00 -.398E+00 0.129E-02   0.373E+00 -.284E+00 -.433E+00
   0.761E+00 -.162E+01 -.213E+03   0.820E+00 -.509E-05 0.213E+03   -.272E+00 0.394E+00 0.425E-01   -.356E+00 0.463E+00 -.436E+00
   -.226E+01 0.434E+00 -.215E+03   0.503E+00 0.103E+01 0.215E+03   0.252E+00 -.416E+00 0.120E-01   0.495E+00 -.353E+00 -.482E+00
   0.235E+01 -.160E+01 -.215E+03   -.680E+00 0.181E+00 0.215E+03   -.258E+00 0.394E+00 0.581E-02   -.432E+00 0.309E+00 -.522E+00
 -----------------------------------------------------------------------------------------------
   -.147E+00 0.540E-01 0.693E+01   0.238E-13 -.220E-13 -.853E-13   0.167E+00 -.766E-02 -.757E-01   -.124E-01 -.434E-01 -.684E+01
 
 
 POSITION                                       TOTAL-FORCE (eV/Angst)
 -----------------------------------------------------------------------------------
     -1.30602      4.15399      1.51807         0.507060      0.366333      0.043062
     -2.75917      3.31485      1.51812        -0.387451     -0.405502      0.002627
     -1.30601      0.82501      1.51807        -1.078166     -0.821047      0.363104
     -2.75916      1.66414      1.51812         1.151333      0.884300     -0.153946
      0.12344      1.65010      1.50093         1.287944      0.713777      0.142679
      0.12344      3.32889      1.50093        -1.084658     -0.676474     -0.342304
      1.55779      2.48950      1.31874         0.302565     -0.786026     -0.414341
     -1.31607      2.48950      1.70691        -0.646833      0.731767      0.414211
     -0.12275      1.24455      5.01745        -0.978297      0.739993     -0.043089
      1.31458      1.24465      5.01745         1.011512     -0.727706      0.017765
     -2.27889      2.48950      5.01942        -0.995838      0.734823     -0.003294
     -0.84150      2.48950      5.01863         0.980675     -0.678343     -0.001752
      2.03329      2.48950      5.01719        -0.991368      0.711366     -0.004112
      3.47058      2.48950      5.01505         0.951837     -0.760435     -0.003448
     -0.12275      3.73444      5.01745        -1.008090      0.693293     -0.004328
      1.31458      3.73434      5.01745         0.977773     -0.720117     -0.012836
 -----------------------------------------------------------------------------------
    total drift:                                0.007517      0.002990      0.015495


--------------------------------------------------------------------------------------------------------



  FREE ENERGIE OF THE ION-ELECTRON SYSTEM (eV)
  ---------------------------------------------------
  free  energy   TOTEN  =      -124.50889736 eV

  energy  without entropy=     -124.49828362  energy(sigma->0) =     -124.50359049
 


--------------------------------------------------------------------------------------------------------


    POTLOK:  cpu time      0.0204: real time      0.0204


--------------------------------------------------------------------------------------------------------


 stress matrix after NEB project (eV)
      7.97023      6.70219     -0.41973
      6.70219     -4.24096      0.39179
     -0.41973      0.39179      1.61089
  FORCES: max atom, RMS     1.479403    1.191420
  FORCE total and by dimension    4.765680    1.287944
  Stress total and by dimension   13.213755    7.970228
 writing wavefunctions
     LOOP+:  cpu time     80.9658: real time     82.2316
    4ORBIT:  cpu time      0.0000: real time      0.0000



 total charge

# of ion       s       p       d       tot
------------------------------------------
    1        0.725   1.435   0.000   2.160
    2        0.726   1.431   0.000   2.157
    3        0.699   1.446   0.000   2.145
    4        0.700   1.441   0.000   2.141
    5        0.688   1.457   0.000   2.145
    6        0.688   1.462   0.000   2.150
    7        0.686   1.406   0.000   2.092
    8        0.685   1.405   0.000   2.090
    9        0.856   1.765   0.000   2.620
   10        0.856   1.769   0.000   2.625
   11        0.856   1.769   0.000   2.626
   12        0.856   1.768   0.000   2.624
   13        0.856   1.767   0.000   2.623
   14        0.856   1.768   0.000   2.624
   15        0.856   1.768   0.000   2.624
   16        0.856   1.767   0.000   2.623
--------------------------------------------------
tot         12.446  25.623   0.000  38.070
 

 total amount of memory used by VASP MPI-rank0   236313. kBytes
=======================================================================

   base      :      30000. kBytes
   nonl-proj :     175214. kBytes
   fftplans  :       1560. kBytes
   grid      :       7372. kBytes
   one-center:         49. kBytes
   wavefun   :      22118. kBytes
 
  
  
 General timing and accounting informations for this job:
 ========================================================
  
                  Total CPU time used (sec):       90.811
                            User time (sec):       87.172
                          System time (sec):        3.639
                         Elapsed time (sec):       95.612
  
                   Maximum memory used (kb):      768392.
                   Average memory used (kb):          N/A
  
                          Minor page faults:       578424
                          Major page faults:         4045
                 Voluntary context switches:         8693
