Lattice                                 
           1
     4.192429    2.420500    0.000000
    -4.192429    2.420500    0.000000
     0.000000    0.000000   15.000000
   B    C 
     4    11
Direct configuration=     1
   0.00415361  0.00267210  0.12034134
   0.35695335  0.00285503  0.09748893
   0.00423858  0.35550699  0.09749256
   0.65142295  0.65006557  0.09747688
   0.32808646  0.32671938  0.10030508
   0.68027775  0.00278085  0.10027562
   0.00416530  0.67883808  0.10026559
   0.08333267  0.41666633  0.33646667
   0.24999967  0.24999933  0.33646667
   0.08333267  0.91666633  0.33646667
   0.24999967  0.74999933  0.33646667
   0.58333267  0.41666633  0.33646667
   0.74999967  0.24999933  0.33646667
   0.58333267  0.91666633  0.33646667
   0.74999967  0.74999933  0.33646667
Direct configuration=     2
   0.00414314  0.00267186  0.11915402
   0.35572729  0.00282927  0.09780610
   0.00413872  0.35448548  0.09786712
   0.65256795  0.65105086  0.09783796
   0.32487953  0.32327950  0.10029994
   0.68386130  0.00285624  0.10032468
   0.00417273  0.68209030  0.10027626
   0.08331746  0.41677922  0.33646290
   0.25017785  0.25026426  0.33655944
   0.08349784  0.91679465  0.33645097
   0.25029791  0.74995653  0.33643606
   0.58328455  0.41664532  0.33642134
   0.74993309  0.25000226  0.33646120
   0.58309127  0.91661664  0.33653638
   0.74953671  0.74977827  0.33648496
Direct configuration=     3
   0.00414852  0.00267198  0.11976493
   0.35635813  0.00284253  0.09764291
   0.00419010  0.35501108  0.09767440
   0.65197882  0.65054390  0.09765217
   0.32652959  0.32504942  0.10030258
   0.68201746  0.00281745  0.10029944
   0.00416891  0.68041693  0.10027077
   0.08332529  0.41672114  0.33646484
   0.25008617  0.25012795  0.33651170
   0.08341285  0.91672863  0.33645904
   0.25014445  0.74997856  0.33645181
   0.58330931  0.41665613  0.33644466
   0.74996735  0.25000075  0.33646401
   0.58321547  0.91664221  0.33650051
   0.74977492  0.74989201  0.33647555
Direct configuration=     4
   0.00414874  0.00269767  0.11872750
   0.35682638  0.00280762  0.09793883
   0.00415762  0.35544707  0.09802777
   0.65161090  0.65000481  0.09799118
   0.32667192  0.32502155  0.10026685
   0.68201013  0.00285341  0.10031509
   0.00418188  0.68032428  0.10024999
   0.08328531  0.41665739  0.33646744
   0.24988863  0.24998668  0.33658547
   0.08321690  0.91664328  0.33645636
   0.24983730  0.75006173  0.33642699
   0.58331738  0.41667892  0.33641542
   0.74996866  0.25002928  0.33645854
   0.58339960  0.91675230  0.33656125
   0.75010599  0.75013467  0.33649065
Direct configuration=     5
   0.00414930  0.00276342  0.11607232
   0.35802479  0.00271828  0.09869620
   0.00407449  0.35656295  0.09893217
   0.65066925  0.64862508  0.09885883
   0.32703619  0.32495021  0.10017539
   0.68199136  0.00294544  0.10035516
   0.00421508  0.68008713  0.10019679
   0.08318299  0.41649425  0.33647410
   0.24938304  0.24962512  0.33677428
   0.08271539  0.91642485  0.33644948
   0.24905117  0.75027460  0.33636347
   0.58333804  0.41673726  0.33634059
   0.74997204  0.25010229  0.33644453
   0.58387084  0.91703406  0.33671672
   0.75095334  0.75075573  0.33652932
Direct configuration=     6
   0.00415295  0.00276765  0.11577544
   0.35813599  0.00270788  0.09876827
   0.00407686  0.35665677  0.09901741
   0.65058674  0.64850431  0.09894073
   0.32710875  0.32499087  0.10018041
   0.68194013  0.00294258  0.10037264
   0.00422185  0.68002515  0.10020557
   0.08318266  0.41654420  0.33647597
   0.24944262  0.24968213  0.33678765
   0.08277880  0.91649373  0.33645171
   0.24916023  0.75026030  0.33636031
   0.58331122  0.41675487  0.33633786
   0.74995922  0.25010678  0.33644411
   0.58376820  0.91699883  0.33672850
   0.75080111  0.75066464  0.33653275
Direct configuration=     7
   0.00416387  0.00278031  0.11488479
   0.35846958  0.00267669  0.09898448
   0.00408396  0.35693824  0.09927315
   0.65033923  0.64814198  0.09918645
   0.32732642  0.32511283  0.10019544
   0.68178643  0.00293400  0.10042509
   0.00424217  0.67983919  0.10023193
   0.08318167  0.41669403  0.33648157
   0.24962137  0.24985317  0.33682775
   0.08296904  0.91670034  0.33645841
   0.24948741  0.75021738  0.33635086
   0.58323073  0.41680773  0.33632969
   0.74992076  0.25012025  0.33644284
   0.58346027  0.91689314  0.33676386
   0.75034443  0.75039139  0.33654303
Direct configuration=     8
   0.00418573  0.00280564  0.11310350
   0.35913676  0.00261432  0.09941691
   0.00409817  0.35750117  0.09978463
   0.64984421  0.64741732  0.09967787
   0.32776178  0.32535674  0.10022551
   0.68147904  0.00291682  0.10053000
   0.00428280  0.67946729  0.10028465
   0.08317968  0.41699371  0.33649277
   0.24997885  0.25019525  0.33690795
   0.08334950  0.91711356  0.33647181
   0.25014176  0.75013155  0.33633194
   0.58306976  0.41691344  0.33631333
   0.74984383  0.25014720  0.33644031
   0.58284441  0.91668177  0.33683457
   0.74943106  0.74984488  0.33656358
Direct configuration=     9
   0.00420460  0.00279283  0.11263767
   0.35913675  0.00259741  0.09948521
   0.00413722  0.35746933  0.09985934
   0.64987174  0.64742846  0.09975076
   0.32782487  0.32542526  0.10029053
   0.68140953  0.00286966  0.10060445
   0.00430503  0.67940299  0.10035270
   0.08317369  0.41697180  0.33649911
   0.24997656  0.25030112  0.33690029
   0.08332975  0.91704886  0.33648464
   0.25011812  0.75015505  0.33634292
   0.58307409  0.41686006  0.33632931
   0.74979542  0.25016382  0.33644500
   0.58286955  0.91671129  0.33683087
   0.74940040  0.74990272  0.33656652
Direct configuration=    10
   0.00426123  0.00275439  0.11124018
   0.35913674  0.00254665  0.09969009
   0.00425436  0.35737383  0.10008347
   0.64995432  0.64746187  0.09996943
   0.32801416  0.32563082  0.10048559
   0.68120102  0.00272817  0.10082780
   0.00437172  0.67921009  0.10055684
   0.08315573  0.41690608  0.33651814
   0.24996970  0.25061873  0.33687730
   0.08327047  0.91685475  0.33652315
   0.25004721  0.75022556  0.33637588
   0.58308711  0.41669995  0.33637725
   0.74965017  0.25021367  0.33645909
   0.58294497  0.91679985  0.33681978
   0.74930843  0.75007625  0.33657533
Direct configuration=    11
   0.00437449  0.00267752  0.10844519
   0.35913670  0.00244515  0.10009986
   0.00448863  0.35718283  0.10053173
   0.65011950  0.64752870  0.10040677
   0.32839273  0.32604194  0.10087571
   0.68078400  0.00244519  0.10127452
   0.00450511  0.67882429  0.10096512
   0.08311981  0.41677463  0.33655619
   0.24995596  0.25125396  0.33683132
   0.08315193  0.91646653  0.33660016
   0.24990539  0.75036656  0.33644180
   0.58311313  0.41637971  0.33647313
   0.74935967  0.25031338  0.33648728
   0.58309581  0.91697697  0.33679760
   0.74912447  0.75042331  0.33659296
Direct configuration=    12
   0.00439960  0.00265327  0.10791736
   0.35913276  0.00242715  0.10017607
   0.00453287  0.35715483  0.10060817
   0.65014330  0.64754772  0.10048314
   0.32843592  0.32609226  0.10095624
   0.68074406  0.00239440  0.10136022
   0.00453179  0.67876579  0.10104776
   0.08306957  0.41682011  0.33656272
   0.24989376  0.25109987  0.33681799
   0.08309741  0.91655756  0.33661497
   0.24984807  0.75035248  0.33645998
   0.58308775  0.41649042  0.33649413
   0.74940282  0.25030145  0.33649600
   0.58308607  0.91702518  0.33678707
   0.74922157  0.75041818  0.33659751
Direct configuration=    13
   0.00447492  0.00258051  0.10633386
   0.35912095  0.00237316  0.10040470
   0.00466559  0.35707086  0.10083749
   0.65021471  0.64760479  0.10071227
   0.32856551  0.32624324  0.10119784
   0.68062424  0.00224201  0.10161735
   0.00461181  0.67859028  0.10129571
   0.08291886  0.41695655  0.33658228
   0.24970717  0.25063762  0.33677798
   0.08293387  0.91683064  0.33665940
   0.24967609  0.75031024  0.33651453
   0.58301161  0.41682252  0.33655713
   0.74953227  0.25026565  0.33652216
   0.58305685  0.91716979  0.33675550
   0.74951288  0.75040279  0.33661115
Direct configuration=    14
   0.00450798  0.00254858  0.10563882
   0.35911576  0.00234946  0.10050505
   0.00472385  0.35703400  0.10093814
   0.65024605  0.64762985  0.10081284
   0.32862239  0.32630951  0.10130388
   0.68057165  0.00217512  0.10173021
   0.00464694  0.67851324  0.10140454
   0.08285271  0.41701643  0.33659087
   0.24962527  0.25043473  0.33676042
   0.08286209  0.91695050  0.33667890
   0.24960060  0.75029170  0.33653847
   0.58297818  0.41696829  0.33658478
   0.74958909  0.25024994  0.33653364
   0.58304402  0.91723327  0.33674164
   0.74964074  0.75039604  0.33661714
Direct configuration=    15
   0.00451417  0.00253096  0.10557077
   0.35916871  0.00235006  0.10053327
   0.00471430  0.35709266  0.10095344
   0.65018513  0.64758194  0.10083195
   0.32857479  0.32624143  0.10130611
   0.68065635  0.00219567  0.10172194
   0.00464747  0.67854276  0.10140479
   0.08288810  0.41702439  0.33658967
   0.24961083  0.25038492  0.33675925
   0.08291364  0.91701771  0.33667709
   0.24962677  0.75033456  0.33654758
   0.58295365  0.41700447  0.33658621
   0.74959794  0.25030472  0.33654063
   0.58297308  0.91712685  0.33673492
   0.74960240  0.75036757  0.33662173
Direct configuration=    16
   0.00453027  0.00248508  0.10539353
   0.35930662  0.00235162  0.10060678
   0.00468945  0.35724542  0.10099328
   0.65002647  0.64745717  0.10088170
   0.32845082  0.32606411  0.10131192
   0.68087697  0.00224918  0.10170041
   0.00464886  0.67861964  0.10140544
   0.08298027  0.41704511  0.33658653
   0.24957323  0.25025520  0.33675618
   0.08304790  0.91719276  0.33667238
   0.24969493  0.75044620  0.33657130
   0.58288973  0.41709869  0.33658994
   0.74962098  0.25044740  0.33655882
   0.58278830  0.91684966  0.33671742
   0.74950254  0.75029342  0.33663369
Direct configuration=    17
   0.00453895  0.00245730  0.10533232
   0.35941544  0.00235373  0.10065328
   0.00466820  0.35733102  0.10101291
   0.64991680  0.64736637  0.10090909
   0.32839887  0.32597478  0.10130515
   0.68098434  0.00229197  0.10166992
   0.00464599  0.67866090  0.10139409
   0.08298071  0.41704886  0.33658548
   0.24958725  0.25031483  0.33675513
   0.08301605  0.91714831  0.33666840
   0.24967193  0.75043604  0.33658389
   0.58288224  0.41707183  0.33659111
   0.74959234  0.25042397  0.33656922
   0.58281698  0.91690065  0.33670927
   0.74951124  0.75032011  0.33664005
Direct configuration=    18
   0.00455825  0.00239552  0.10519621
   0.35965739  0.00235842  0.10075668
   0.00462097  0.35752133  0.10105656
   0.64967297  0.64716447  0.10097001
   0.32828335  0.32577617  0.10129011
   0.68122308  0.00238710  0.10160213
   0.00463961  0.67875266  0.10136886
   0.08298168  0.41705720  0.33658316
   0.24961842  0.25044741  0.33675279
   0.08294524  0.91704945  0.33665955
   0.24962079  0.75041346  0.33661189
   0.58286559  0.41701210  0.33659370
   0.74952867  0.25037188  0.33659235
   0.58288075  0.91701403  0.33669116
   0.74953059  0.75037945  0.33665419
Direct configuration=    19
   0.00456781  0.00237966  0.10515649
   0.35971480  0.00235940  0.10079331
   0.00461374  0.35750531  0.10106661
   0.64964347  0.64713493  0.10098755
   0.32832528  0.32579883  0.10128684
   0.68119544  0.00240584  0.10157222
   0.00463729  0.67873258  0.10136064
   0.08290691  0.41706049  0.33658793
   0.24959026  0.25040550  0.33675041
   0.08292918  0.91708264  0.33666066
   0.24962426  0.75039245  0.33661532
   0.58289773  0.41704111  0.33659791
   0.74956079  0.25036478  0.33659574
   0.58288890  0.91706841  0.33669349
   0.74953149  0.75036871  0.33665422
Direct configuration=    20
   0.00457350  0.00237024  0.10513290
   0.35974889  0.00235997  0.10081507
   0.00460945  0.35749580  0.10107258
   0.64962595  0.64711739  0.10099797
   0.32835018  0.32581229  0.10128490
   0.68117902  0.00241697  0.10155446
   0.00463591  0.67872066  0.10135576
   0.08286250  0.41706245  0.33659076
   0.24957353  0.25038061  0.33674900
   0.08291963  0.91710235  0.33666131
   0.24962631  0.75037997  0.33661735
   0.58291683  0.41705834  0.33660040
   0.74957986  0.25036057  0.33659775
   0.58289374  0.91710071  0.33669487
   0.74953203  0.75036233  0.33665424
Direct configuration=    21
   0.00458662  0.00235585  0.10508971
   0.35975444  0.00236177  0.10084945
   0.00460998  0.35743454  0.10107747
   0.64965298  0.64713457  0.10101112
   0.32840768  0.32585677  0.10128715
   0.68113129  0.00242030  0.10152413
   0.00463557  0.67867815  0.10135208
   0.08286952  0.41705822  0.33659870
   0.24956077  0.25038757  0.33674699
   0.08292842  0.91711093  0.33666485
   0.24962243  0.75040901  0.33661756
   0.58290788  0.41705973  0.33660622
   0.74957156  0.25039084  0.33659914
   0.58287440  0.91706825  0.33670259
   0.74951379  0.75037419  0.33665218
Direct configuration=    22
   0.00460398  0.00233681  0.10503256
   0.35976178  0.00236416  0.10089494
   0.00461068  0.35735349  0.10108394
   0.64968873  0.64715730  0.10102851
   0.32848376  0.32591561  0.10129012
   0.68106814  0.00242470  0.10148401
   0.00463511  0.67862190  0.10134722
   0.08287882  0.41705261  0.33660920
   0.24954389  0.25039677  0.33674432
   0.08294004  0.91712228  0.33666954
   0.24961728  0.75044742  0.33661784
   0.58289605  0.41706156  0.33661391
   0.74956058  0.25043089  0.33660098
   0.58284883  0.91702530  0.33671279
   0.74948967  0.75038987  0.33664946
Direct configuration=    23
   0.00462194  0.00231920  0.10497002
   0.35971393  0.00236528  0.10092828
   0.00461922  0.35729332  0.10108388
   0.64975735  0.64720948  0.10103775
   0.32849050  0.32590919  0.10130191
   0.68109100  0.00240958  0.10145494
   0.00464196  0.67859022  0.10135164
   0.08290516  0.41708847  0.33661742
   0.24956177  0.25043254  0.33674608
   0.08291287  0.91711623  0.33667297
   0.24959556  0.75044007  0.33661928
   0.58285430  0.41706796  0.33661901
   0.74952499  0.25040815  0.33660454
   0.58284161  0.91705504  0.33672234
   0.74949518  0.75039592  0.33664926
Direct configuration=    24
   0.00463926  0.00230221  0.10490967
   0.35966777  0.00236636  0.10096045
   0.00462745  0.35723527  0.10108383
   0.64982356  0.64725983  0.10104666
   0.32849700  0.32590300  0.10131328
   0.68111307  0.00239500  0.10142690
   0.00464857  0.67855965  0.10135590
   0.08293057  0.41712307  0.33662535
   0.24957902  0.25046706  0.33674778
   0.08288666  0.91711038  0.33667629
   0.24957459  0.75043297  0.33662067
   0.58281401  0.41707414  0.33662393
   0.74949066  0.25038621  0.33660798
   0.58283465  0.91708374  0.33673156
   0.74950050  0.75040177  0.33664907
Direct configuration=    25
   0.00465935  0.00228499  0.10482605
   0.35964474  0.00235861  0.10098573
   0.00464550  0.35721773  0.10107941
   0.64986883  0.64727683  0.10105038
   0.32848158  0.32586828  0.10133499
   0.68116533  0.00236416  0.10140562
   0.00466616  0.67854366  0.10137002
   0.08286490  0.41711505  0.33663111
   0.24953744  0.25045221  0.33675576
   0.08287838  0.91713958  0.33667821
   0.24956886  0.75044816  0.33662628
   0.58283605  0.41709344  0.33662655
   0.74950612  0.25041823  0.33661601
   0.58282667  0.91710483  0.33673944
   0.74947743  0.75041488  0.33665378
Direct configuration=    26
   0.00468044  0.00226691  0.10473824
   0.35962057  0.00235047  0.10101228
   0.00466445  0.35719933  0.10107476
   0.64991637  0.64729468  0.10105427
   0.32846540  0.32583183  0.10135779
   0.68122021  0.00233179  0.10138327
   0.00468464  0.67852687  0.10138485
   0.08279593  0.41710663  0.33663715
   0.24949378  0.25043661  0.33676414
   0.08286968  0.91717024  0.33668022
   0.24956284  0.75046410  0.33663216
   0.58285919  0.41711371  0.33662931
   0.74952235  0.25045186  0.33662443
   0.58281829  0.91712699  0.33674773
   0.74945320  0.75042866  0.33665872
Direct configuration=    27
   0.00469577  0.00225632  0.10466329
   0.35965842  0.00233501  0.10102595
   0.00468322  0.35720852  0.10107202
   0.64991089  0.64725716  0.10105590
   0.32847827  0.32582200  0.10137661
   0.68122826  0.00230647  0.10137234
   0.00470353  0.67851724  0.10139863
   0.08279008  0.41711595  0.33664077
   0.24948115  0.25045494  0.33677253
   0.08286056  0.91717889  0.33668207
   0.24955082  0.75048373  0.33663850
   0.58284402  0.41712192  0.33663120
   0.74950482  0.25046976  0.33663217
   0.58280224  0.91712797  0.33675261
   0.74943528  0.75044481  0.33666474
Direct configuration=    28
   0.00474175  0.00222455  0.10443845
   0.35977199  0.00228864  0.10106697
   0.00473954  0.35723608  0.10106378
   0.64989446  0.64714461  0.10106077
   0.32851689  0.32579250  0.10143307
   0.68125239  0.00223054  0.10133956
   0.00476019  0.67848832  0.10143997
   0.08277252  0.41714390  0.33665163
   0.24944327  0.25050993  0.33679768
   0.08283320  0.91720481  0.33668763
   0.24951478  0.75054262  0.33665753
   0.58279853  0.41714655  0.33663687
   0.74945222  0.25052345  0.33665539
   0.58275408  0.91713091  0.33676725
   0.74938152  0.75049326  0.33668278
Direct configuration=    29
   0.00483373  0.00216100  0.10398875
   0.35999913  0.00219588  0.10114900
   0.00485217  0.35729122  0.10104732
   0.64986160  0.64691951  0.10107051
   0.32859412  0.32573351  0.10154600
   0.68130065  0.00207866  0.10127401
   0.00487351  0.67843049  0.10152264
   0.08273740  0.41719981  0.33667335
   0.24936752  0.25061992  0.33684799
   0.08277848  0.91725667  0.33669874
   0.24944269  0.75066040  0.33669560
   0.58270755  0.41719580  0.33664822
   0.74934703  0.25063084  0.33670183
   0.58265776  0.91713678  0.33679653
   0.74927399  0.75059015  0.33671886
Direct configuration=    30
   0.00479323  0.00218898  0.10418673
   0.35989913  0.00223672  0.10111289
   0.00480258  0.35726695  0.10105457
   0.64987607  0.64701861  0.10106622
   0.32856012  0.32575948  0.10149628
   0.68127940  0.00214552  0.10130287
   0.00482362  0.67845595  0.10148624
   0.08275286  0.41717520  0.33666379
   0.24940087  0.25057150  0.33682584
   0.08280257  0.91723384  0.33669385
   0.24947443  0.75060855  0.33667884
   0.58274761  0.41717412  0.33664322
   0.74939334  0.25058356  0.33668138
   0.58270017  0.91713420  0.33678364
   0.74932133  0.75054749  0.33670298
Direct configuration=    31
   0.00481046  0.00217642  0.10409875
   0.35994466  0.00221412  0.10112619
   0.00482328  0.35726639  0.10105856
   0.64987156  0.64697426  0.10107248
   0.32858518  0.32574818  0.10151085
   0.68128385  0.00212521  0.10129267
   0.00484513  0.67844609  0.10149679
   0.08274218  0.41721157  0.33667001
   0.24939644  0.25057966  0.33683294
   0.08277255  0.91725525  0.33669943
   0.24945243  0.75060184  0.33668506
   0.58271691  0.41720204  0.33664884
   0.74937479  0.25057348  0.33668807
   0.58268560  0.91717604  0.33678998
   0.74932231  0.75055010  0.33670871
Direct configuration=    32
   0.00484109  0.00215410  0.10394232
   0.36002560  0.00217394  0.10114986
   0.00486009  0.35726540  0.10106564
   0.64986353  0.64689541  0.10108362
   0.32862973  0.32572807  0.10153675
   0.68129177  0.00208909  0.10127452
   0.00488338  0.67842855  0.10151554
   0.08272319  0.41727626  0.33668109
   0.24938855  0.25059416  0.33684555
   0.08271918  0.91729332  0.33670936
   0.24941333  0.75058993  0.33669611
   0.58266233  0.41725169  0.33665884
   0.74934181  0.25055555  0.33669997
   0.58265970  0.91725045  0.33680126
   0.74932405  0.75055474  0.33671891
Direct configuration=    33
   0.00485266  0.00214302  0.10388086
   0.36003731  0.00215498  0.10115654
   0.00487145  0.35724402  0.10107996
   0.64987952  0.64688276  0.10109553
   0.32864953  0.32570959  0.10153437
   0.68130723  0.00208837  0.10127121
   0.00489588  0.67841930  0.10151335
   0.08270064  0.41728264  0.33668808
   0.24937080  0.25060229  0.33684656
   0.08270479  0.91730434  0.33671785
   0.24939718  0.75059972  0.33669878
   0.58265662  0.41726213  0.33666746
   0.74933501  0.25056988  0.33670126
   0.58265321  0.91726902  0.33680640
   0.74931549  0.75056861  0.33672114
Direct configuration=    34
   0.00488736  0.00210977  0.10369647
   0.36007242  0.00209809  0.10117657
   0.00490553  0.35717989  0.10112289
   0.64992750  0.64684482  0.10113127
   0.32870894  0.32565416  0.10152723
   0.68135360  0.00208620  0.10126127
   0.00493340  0.67839154  0.10150678
   0.08263301  0.41730179  0.33670905
   0.24931755  0.25062666  0.33684959
   0.08266161  0.91733742  0.33674333
   0.24934873  0.75062909  0.33670680
   0.58263950  0.41729346  0.33669331
   0.74931464  0.25061285  0.33670513
   0.58263376  0.91732473  0.33682182
   0.74928979  0.75061021  0.33672781
Direct configuration=    35
   0.00495676  0.00204328  0.10332769
   0.36014266  0.00198430  0.10121664
   0.00497369  0.35705162  0.10120876
   0.65002344  0.64676894  0.10120274
   0.32882774  0.32554329  0.10151296
   0.68144635  0.00208186  0.10124138
   0.00500845  0.67833601  0.10149364
   0.08249773  0.41734010  0.33675100
   0.24921105  0.25067541  0.33685565
   0.08257526  0.91740357  0.33679429
   0.24925184  0.75068784  0.33672285
   0.58260525  0.41735611  0.33674502
   0.74927388  0.25069879  0.33671287
   0.58259485  0.91743614  0.33685268
   0.74923838  0.75069340  0.33674117
Direct configuration=    36
   0.00509555  0.00191029  0.10259013
   0.36028312  0.00175673  0.10129677
   0.00511000  0.35679509  0.10138050
   0.65021534  0.64661718  0.10134570
   0.32906536  0.32532156  0.10148441
   0.68163186  0.00207318  0.10120161
   0.00515853  0.67822496  0.10146736
   0.08222717  0.41741672  0.33683488
   0.24899805  0.25077292  0.33686777
   0.08240256  0.91753588  0.33689621
   0.24905806  0.75080533  0.33675494
   0.58253675  0.41748141  0.33684844
   0.74919237  0.25087067  0.33672836
   0.58251703  0.91765896  0.33691438
   0.74913558  0.75085979  0.33676788
Direct configuration=    37
   0.00500787  0.00199430  0.10305609
   0.36019438  0.00190050  0.10124614
   0.00502388  0.35695716  0.10127201
   0.65009411  0.64671306  0.10125538
   0.32891524  0.32546164  0.10150244
   0.68151466  0.00207866  0.10122674
   0.00506371  0.67829512  0.10148396
   0.08239810  0.41736832  0.33678189
   0.24913261  0.25071132  0.33686011
   0.08251166  0.91745229  0.33683182
   0.24918048  0.75073110  0.33673467
   0.58258003  0.41740225  0.33678311
   0.74924386  0.25076208  0.33671858
   0.58256619  0.91751819  0.33687540
   0.74920053  0.75075467  0.33675100
Direct configuration=    38
   0.00502034  0.00198078  0.10299570
   0.36020137  0.00188468  0.10125171
   0.00503613  0.35694429  0.10128662
   0.65011188  0.64670335  0.10126729
   0.32893388  0.32544534  0.10149847
   0.68153289  0.00207282  0.10122586
   0.00507615  0.67827630  0.10148085
   0.08239961  0.41738373  0.33678685
   0.24912634  0.25072969  0.33686322
   0.08250459  0.91746337  0.33683828
   0.24917474  0.75074859  0.33673910
   0.58256037  0.41741291  0.33678961
   0.74922359  0.25077362  0.33672171
   0.58254545  0.91751604  0.33687884
   0.74917999  0.75076517  0.33675521
Direct configuration=    39
   0.00505775  0.00194023  0.10281455
   0.36022232  0.00183720  0.10126841
   0.00507288  0.35690571  0.10133048
   0.65016520  0.64667421  0.10130300
   0.32898978  0.32539643  0.10148656
   0.68158756  0.00205528  0.10122324
   0.00511348  0.67821984  0.10147152
   0.08240416  0.41742998  0.33680174
   0.24910753  0.25078479  0.33687255
   0.08248336  0.91749659  0.33685767
   0.24915753  0.75080104  0.33675241
   0.58250139  0.41744488  0.33680913
   0.74916277  0.25080822  0.33673110
   0.58248323  0.91750960  0.33688915
   0.74911840  0.75079667  0.33676784
Direct configuration=    40
   0.00513256  0.00185911  0.10245224
   0.36026422  0.00174224  0.10130182
   0.00514639  0.35682853  0.10141819
   0.65027184  0.64661593  0.10137441
   0.32910158  0.32529861  0.10146272
   0.68169692  0.00202020  0.10121799
   0.00518813  0.67810692  0.10145286
   0.08241324  0.41752247  0.33683152
   0.24906991  0.25089501  0.33689119
   0.08244091  0.91756303  0.33689645
   0.24912310  0.75090594  0.33677903
   0.58238343  0.41750884  0.33684816
   0.74904113  0.25087743  0.33674988
   0.58235878  0.91749673  0.33690978
   0.74899520  0.75085966  0.33679309
Direct configuration=    41
   0.00515718  0.00183242  0.10233302
   0.36027801  0.00171099  0.10131281
   0.00517057  0.35680314  0.10144705
   0.65030693  0.64659676  0.10139791
   0.32913837  0.32526642  0.10145488
   0.68173290  0.00200865  0.10121626
   0.00521269  0.67806977  0.10144672
   0.08241623  0.41755291  0.33684132
   0.24905753  0.25093127  0.33689733
   0.08242694  0.91758490  0.33690921
   0.24911177  0.75094046  0.33678779
   0.58234461  0.41752989  0.33686100
   0.74900110  0.25090021  0.33675606
   0.58231783  0.91749249  0.33691656
   0.74895466  0.75088039  0.33680140
Direct configuration=    42
   0.00518777  0.00179972  0.10221168
   0.36029988  0.00169066  0.10132054
   0.00520318  0.35679807  0.10147220
   0.65033830  0.64657284  0.10141816
   0.32916810  0.32524724  0.10144642
   0.68176383  0.00196829  0.10122511
   0.00524058  0.67801842  0.10144169
   0.08239386  0.41759098  0.33684331
   0.24903733  0.25094475  0.33691305
   0.08239486  0.91761645  0.33691313
   0.24908528  0.75095474  0.33680336
   0.58231106  0.41756598  0.33686461
   0.74897530  0.25091003  0.33677028
   0.58228993  0.91752680  0.33691818
   0.74893807  0.75089569  0.33681760
Direct configuration=    43
   0.00527954  0.00170162  0.10184764
   0.36036551  0.00162966  0.10134373
   0.00530101  0.35678285  0.10154764
   0.65043242  0.64650110  0.10147890
   0.32925731  0.32518969  0.10142104
   0.68185660  0.00184720  0.10125167
   0.00532424  0.67786436  0.10142660
   0.08232676  0.41770520  0.33684929
   0.24897673  0.25098520  0.33696023
   0.08229861  0.91771109  0.33692488
   0.24900578  0.75099757  0.33685010
   0.58221039  0.41767427  0.33687544
   0.74889791  0.25093950  0.33681292
   0.58220623  0.91762975  0.33692303
   0.74888829  0.75094159  0.33686621
Direct configuration=    44
   0.00530598  0.00167334  0.10174272
   0.36038442  0.00161208  0.10135041
   0.00532921  0.35677847  0.10156939
   0.65045955  0.64648043  0.10149641
   0.32928302  0.32517311  0.10141373
   0.68188334  0.00181230  0.10125932
   0.00534835  0.67781996  0.10142224
   0.08230742  0.41773812  0.33685101
   0.24895927  0.25099685  0.33697383
   0.08227087  0.91773837  0.33692827
   0.24898287  0.75100992  0.33686357
   0.58218138  0.41770548  0.33687857
   0.74887560  0.25094799  0.33682522
   0.58218211  0.91765942  0.33692443
   0.74887395  0.75095482  0.33688022
Direct configuration=    45
   0.00536630  0.00162232  0.10153808
   0.36046194  0.00158636  0.10136061
   0.00539445  0.35674125  0.10160084
   0.65049994  0.64642122  0.10152247
   0.32931453  0.32514853  0.10140226
   0.68191211  0.00171604  0.10128939
   0.00540256  0.67777712  0.10141822
   0.08221885  0.41773411  0.33685248
   0.24888141  0.25104321  0.33700462
   0.08222356  0.91776003  0.33693032
   0.24891475  0.75106351  0.33688978
   0.58217579  0.41772108  0.33687975
   0.74885249  0.25102550  0.33685177
   0.58216994  0.91771366  0.33692990
   0.74883871  0.75102674  0.33690883
Direct configuration=    46
   0.00541730  0.00157918  0.10136502
   0.36052750  0.00156460  0.10136924
   0.00544962  0.35670978  0.10162744
   0.65053409  0.64637115  0.10154451
   0.32934118  0.32512774  0.10139255
   0.68193644  0.00163463  0.10131482
   0.00544841  0.67774089  0.10141482
   0.08214395  0.41773072  0.33685371
   0.24881557  0.25108241  0.33703067
   0.08218356  0.91777835  0.33693205
   0.24885715  0.75110882  0.33691195
   0.58217106  0.41773426  0.33688074
   0.74883294  0.25109104  0.33687422
   0.58215964  0.91775953  0.33693454
   0.74880892  0.75108756  0.33693303
Direct configuration=    47
   0.00545279  0.00156023  0.10126891
   0.36059527  0.00155291  0.10137480
   0.00548388  0.35665183  0.10163003
   0.65054598  0.64632967  0.10154889
   0.32934139  0.32511085  0.10139044
   0.68193909  0.00158135  0.10134114
   0.00548204  0.67776654  0.10141723
   0.08213345  0.41775964  0.33686173
   0.24880355  0.25111592  0.33703966
   0.08217077  0.91780635  0.33693732
   0.24885100  0.75113167  0.33691568
   0.58213949  0.41775450  0.33688556
   0.74880162  0.25111014  0.33688071
   0.58212154  0.91776886  0.33694859
   0.74876548  0.75110020  0.33693863
Direct configuration=    48
   0.00550545  0.00153212  0.10112634
   0.36069580  0.00153557  0.10138304
   0.00553470  0.35656588  0.10163388
   0.65056362  0.64626813  0.10155540
   0.32934170  0.32508580  0.10138730
   0.68194300  0.00150232  0.10138018
   0.00553192  0.67780460  0.10142080
   0.08211787  0.41780255  0.33687363
   0.24878572  0.25116562  0.33705300
   0.08215179  0.91784788  0.33694513
   0.24884188  0.75116555  0.33692122
   0.58209267  0.41778452  0.33689271
   0.74875516  0.25113847  0.33689034
   0.58206501  0.91778271  0.33696943
   0.74870104  0.75111895  0.33694695
Direct configuration=    49
   0.00553287  0.00150527  0.10105836
   0.36072155  0.00152153  0.10139314
   0.00555263  0.35655189  0.10162661
   0.65058107  0.64624787  0.10155439
   0.32935551  0.32506776  0.10138575
   0.68197183  0.00147421  0.10140418
   0.00556104  0.67777526  0.10142281
   0.08209772  0.41783441  0.33688760
   0.24876420  0.25116126  0.33705169
   0.08211291  0.91786674  0.33695440
   0.24880338  0.75117507  0.33691610
   0.58206677  0.41782110  0.33690241
   0.74873829  0.25114061  0.33688931
   0.58205506  0.91781978  0.33698980
   0.74871251  0.75113790  0.33694277
Direct configuration=    50
   0.00554971  0.00148880  0.10101664
   0.36073736  0.00151292  0.10139933
   0.00556363  0.35654330  0.10162215
   0.65059178  0.64623544  0.10155377
   0.32936399  0.32505669  0.10138481
   0.68198952  0.00145696  0.10141891
   0.00557891  0.67775725  0.10142405
   0.08208534  0.41785397  0.33689618
   0.24875099  0.25115858  0.33705089
   0.08208905  0.91787832  0.33696008
   0.24877975  0.75118091  0.33691297
   0.58205088  0.41784354  0.33690837