  16  16   0  16
  0.2015159E+02  0.4982000E-09  0.4982000E-09  0.1500000E-08  0.5000000E-15
  1.000000000000000E-004
  CAR 
 Lattice                                 
      9.49413269    -21.05624008  301     -0.22091989      1.00000000
    -21.056  0.0000E+00  0.0000E+00  0.0000E+00  0.0000E+00
    -20.954  0.0000E+00  0.0000E+00  0.0000E+00  0.0000E+00
    -20.853  0.0000E+00  0.0000E+00  0.0000E+00  0.0000E+00
    -20.751  0.0000E+00  0.0000E+00  0.0000E+00  0.0000E+00
    -20.649  0.0000E+00  0.0000E+00  0.0000E+00  0.0000E+00
    -20.547  0.0000E+00  0.0000E+00  0.0000E+00  0.0000E+00
    -20.445  0.0000E+00  0.0000E+00  0.0000E+00  0.0000E+00
    -20.343  0.0000E+00  0.0000E+00  0.0000E+00  0.0000E+00
    -20.242  0.1183E-18  0.1183E-18  0.1205E-19  0.1205E-19
    -20.140  0.7171E-14  0.7171E-14  0.7303E-15  0.7303E-15
    -20.038  0.5364E-10  0.5364E-10  0.5463E-11  0.5463E-11
    -19.936  0.5918E-07  0.5918E-07  0.6032E-08  0.6032E-08
    -19.834  0.1041E-04  0.1041E-04  0.1066E-05  0.1066E-05
    -19.732  0.3204E-03  0.3204E-03  0.3369E-04  0.3369E-04
    -19.631  0.2085E-02  0.2085E-02  0.2460E-03  0.2460E-03
    -19.529  0.4298E-02  0.4298E-02  0.6837E-03  0.6837E-03
    -19.427  0.4765E-02  0.4765E-02  0.1169E-02  0.1169E-02
    -19.325  0.5120E-02  0.5120E-02  0.1690E-02  0.1690E-02
    -19.223  0.4447E-02  0.4447E-02  0.2143E-02  0.2143E-02
    -19.121  0.5555E-02  0.5555E-02  0.2709E-02  0.2709E-02
    -19.020  0.4459E-02  0.4459E-02  0.3163E-02  0.3163E-02
    -18.918  0.4542E-02  0.4542E-02  0.3625E-02  0.3625E-02
    -18.816  0.6171E-02  0.6171E-02  0.4254E-02  0.4254E-02
    -18.714  0.4053E-02  0.4053E-02  0.4667E-02  0.4667E-02
    -18.612  0.4171E-02  0.4171E-02  0.5091E-02  0.5091E-02
    -18.510  0.6330E-02  0.6330E-02  0.5736E-02  0.5736E-02
    -18.409  0.5402E-02  0.5402E-02  0.6286E-02  0.6286E-02
    -18.307  0.3182E-02  0.3182E-02  0.6610E-02  0.6610E-02
    -18.205  0.4723E-02  0.4723E-02  0.7091E-02  0.7091E-02
    -18.103  0.7088E-02  0.7088E-02  0.7813E-02  0.7813E-02
    -18.001  0.4823E-02  0.4823E-02  0.8304E-02  0.8304E-02
    -17.899  0.3911E-02  0.3911E-02  0.8702E-02  0.8702E-02
    -17.798  0.3347E-02  0.3347E-02  0.9043E-02  0.9043E-02
    -17.696  0.6953E-02  0.6953E-02  0.9751E-02  0.9751E-02
    -17.594  0.6770E-02  0.6770E-02  0.1044E-01  0.1044E-01
    -17.492  0.3697E-02  0.3697E-02  0.1082E-01  0.1082E-01
    -17.390  0.3537E-02  0.3537E-02  0.1118E-01  0.1118E-01
    -17.288  0.4407E-02  0.4407E-02  0.1163E-01  0.1163E-01
    -17.187  0.6639E-02  0.6639E-02  0.1230E-01  0.1230E-01
    -17.085  0.6920E-02  0.6920E-02  0.1301E-01  0.1301E-01
    -16.983  0.4854E-02  0.4854E-02  0.1350E-01  0.1350E-01
    -16.881  0.2549E-02  0.2549E-02  0.1376E-01  0.1376E-01
    -16.779  0.3777E-02  0.3777E-02  0.1415E-01  0.1415E-01
    -16.677  0.6999E-02  0.6999E-02  0.1486E-01  0.1486E-01
    -16.576  0.6744E-02  0.6744E-02  0.1555E-01  0.1555E-01
    -16.474  0.5617E-02  0.5617E-02  0.1612E-01  0.1612E-01
    -16.372  0.4645E-02  0.4645E-02  0.1659E-01  0.1659E-01
    -16.270  0.3300E-02  0.3300E-02  0.1693E-01  0.1693E-01
    -16.168  0.2721E-02  0.2721E-02  0.1720E-01  0.1720E-01
    -16.066  0.9212E-02  0.9212E-02  0.1814E-01  0.1814E-01
    -15.965  0.1188E-01  0.1188E-01  0.1935E-01  0.1935E-01
    -15.863  0.1077E-01  0.1077E-01  0.2045E-01  0.2045E-01
    -15.761  0.1065E-01  0.1065E-01  0.2153E-01  0.2153E-01
    -15.659  0.1073E-01  0.1073E-01  0.2262E-01  0.2262E-01
    -15.557  0.1032E-01  0.1032E-01  0.2368E-01  0.2368E-01
    -15.455  0.1186E-01  0.1186E-01  0.2488E-01  0.2488E-01
    -15.354  0.1710E-01  0.1710E-01  0.2662E-01  0.2662E-01
    -15.252  0.1576E-01  0.1576E-01  0.2823E-01  0.2823E-01
    -15.150  0.1430E-01  0.1430E-01  0.2969E-01  0.2969E-01
    -15.048  0.1038E-01  0.1038E-01  0.3074E-01  0.3074E-01
    -14.946  0.8502E-02  0.8502E-02  0.3161E-01  0.3161E-01
    -14.844  0.6388E-02  0.6388E-02  0.3226E-01  0.3226E-01
    -14.742  0.8763E-02  0.8763E-02  0.3315E-01  0.3315E-01
    -14.641  0.1145E-01  0.1145E-01  0.3432E-01  0.3432E-01
    -14.539  0.1162E-01  0.1162E-01  0.3550E-01  0.3550E-01
    -14.437  0.1303E-01  0.1303E-01  0.3683E-01  0.3683E-01
    -14.335  0.1094E-01  0.1094E-01  0.3794E-01  0.3794E-01
    -14.233  0.9064E-02  0.9064E-02  0.3887E-01  0.3887E-01
    -14.131  0.9317E-02  0.9317E-02  0.3981E-01  0.3981E-01
    -14.030  0.1401E-01  0.1401E-01  0.4124E-01  0.4124E-01
    -13.928  0.9519E-02  0.9519E-02  0.4221E-01  0.4221E-01
    -13.826  0.4244E-02  0.4244E-02  0.4264E-01  0.4264E-01
    -13.724  0.2525E-02  0.2525E-02  0.4290E-01  0.4290E-01
    -13.622  0.5284E-02  0.5284E-02  0.4344E-01  0.4344E-01
    -13.520  0.6306E-02  0.6306E-02  0.4408E-01  0.4408E-01
    -13.419  0.6376E-02  0.6376E-02  0.4473E-01  0.4473E-01
    -13.317  0.6927E-02  0.6927E-02  0.4543E-01  0.4543E-01
    -13.215  0.7270E-02  0.7270E-02  0.4617E-01  0.4617E-01
    -13.113  0.7270E-02  0.7270E-02  0.4692E-01  0.4692E-01
    -13.011  0.6607E-02  0.6607E-02  0.4759E-01  0.4759E-01
    -12.909  0.5882E-02  0.5882E-02  0.4819E-01  0.4819E-01
    -12.808  0.8436E-02  0.8436E-02  0.4905E-01  0.4905E-01
    -12.706  0.1214E-01  0.1214E-01  0.5028E-01  0.5028E-01
    -12.604  0.1217E-01  0.1217E-01  0.5152E-01  0.5152E-01
    -12.502  0.1380E-01  0.1380E-01  0.5293E-01  0.5293E-01
    -12.400  0.1525E-01  0.1525E-01  0.5448E-01  0.5448E-01
    -12.298  0.1322E-01  0.1322E-01  0.5583E-01  0.5583E-01
    -12.197  0.1688E-01  0.1688E-01  0.5754E-01  0.5754E-01
    -12.095  0.1516E-01  0.1516E-01  0.5909E-01  0.5909E-01
    -11.993  0.1604E-01  0.1604E-01  0.6072E-01  0.6072E-01
    -11.891  0.1779E-01  0.1779E-01  0.6253E-01  0.6253E-01
    -11.789  0.1098E-01  0.1098E-01  0.6365E-01  0.6365E-01
    -11.687  0.6673E-02  0.6673E-02  0.6433E-01  0.6433E-01
    -11.586  0.4956E-02  0.4956E-02  0.6484E-01  0.6484E-01
    -11.484  0.6385E-02  0.6385E-02  0.6549E-01  0.6549E-01
    -11.382  0.6448E-02  0.6448E-02  0.6614E-01  0.6614E-01
    -11.280  0.5428E-02  0.5428E-02  0.6669E-01  0.6669E-01
    -11.178  0.4497E-02  0.4497E-02  0.6715E-01  0.6715E-01
    -11.076  0.4263E-02  0.4263E-02  0.6759E-01  0.6759E-01
    -10.975  0.5092E-02  0.5092E-02  0.6811E-01  0.6811E-01
    -10.873  0.9983E-02  0.9983E-02  0.6912E-01  0.6912E-01
    -10.771  0.1226E-01  0.1226E-01  0.7037E-01  0.7037E-01
    -10.669  0.1216E-01  0.1216E-01  0.7161E-01  0.7161E-01
    -10.567  0.1458E-01  0.1458E-01  0.7309E-01  0.7309E-01
    -10.465  0.1489E-01  0.1489E-01  0.7461E-01  0.7461E-01
    -10.364  0.1071E-01  0.1071E-01  0.7570E-01  0.7570E-01
    -10.262  0.1011E-01  0.1011E-01  0.7673E-01  0.7673E-01
    -10.160  0.1031E-01  0.1031E-01  0.7778E-01  0.7778E-01
    -10.058  0.9989E-02  0.9989E-02  0.7880E-01  0.7880E-01
     -9.956  0.6898E-02  0.6898E-02  0.7950E-01  0.7950E-01
     -9.854  0.1111E-01  0.1111E-01  0.8063E-01  0.8063E-01
     -9.753  0.1043E-01  0.1043E-01  0.8169E-01  0.8169E-01
     -9.651  0.1397E-01  0.1397E-01  0.8312E-01  0.8312E-01
     -9.549  0.1815E-01  0.1815E-01  0.8496E-01  0.8496E-01
     -9.447  0.1103E-01  0.1103E-01  0.8609E-01  0.8609E-01
     -9.345  0.1613E-01  0.1613E-01  0.8773E-01  0.8773E-01
     -9.243  0.1878E-01  0.1878E-01  0.8964E-01  0.8964E-01
     -9.142  0.1355E-01  0.1355E-01  0.9102E-01  0.9102E-01
     -9.040  0.8861E-02  0.8861E-02  0.9192E-01  0.9192E-01
     -8.938  0.1648E-01  0.1648E-01  0.9360E-01  0.9360E-01
     -8.836  0.2408E-01  0.2408E-01  0.9605E-01  0.9605E-01
     -8.734  0.1118E-01  0.1118E-01  0.9719E-01  0.9719E-01
     -8.632  0.5535E-02  0.5535E-02  0.9776E-01  0.9776E-01
     -8.531  0.1414E-01  0.1414E-01  0.9920E-01  0.9920E-01
     -8.429  0.1788E-01  0.1788E-01  0.1010E+00  0.1010E+00
     -8.327  0.1420E-01  0.1420E-01  0.1025E+00  0.1025E+00
     -8.225  0.1541E-01  0.1541E-01  0.1040E+00  0.1040E+00
     -8.123  0.1312E-01  0.1312E-01  0.1054E+00  0.1054E+00
     -8.021  0.1107E-01  0.1107E-01  0.1065E+00  0.1065E+00
     -7.920  0.1373E-01  0.1373E-01  0.1079E+00  0.1079E+00
     -7.818  0.1839E-01  0.1839E-01  0.1098E+00  0.1098E+00
     -7.716  0.2377E-01  0.2377E-01  0.1122E+00  0.1122E+00
     -7.614  0.1757E-01  0.1757E-01  0.1140E+00  0.1140E+00
     -7.512  0.1271E-01  0.1271E-01  0.1153E+00  0.1153E+00
     -7.410  0.1274E-01  0.1274E-01  0.1166E+00  0.1166E+00
     -7.309  0.1688E-01  0.1688E-01  0.1183E+00  0.1183E+00
     -7.207  0.1992E-01  0.1992E-01  0.1203E+00  0.1203E+00
     -7.105  0.1700E-01  0.1700E-01  0.1220E+00  0.1220E+00
     -7.003  0.1896E-01  0.1896E-01  0.1240E+00  0.1240E+00
     -6.901  0.1818E-01  0.1818E-01  0.1258E+00  0.1258E+00
     -6.799  0.2124E-01  0.2124E-01  0.1280E+00  0.1280E+00
     -6.698  0.2796E-01  0.2796E-01  0.1308E+00  0.1308E+00
     -6.596  0.3574E-01  0.3574E-01  0.1345E+00  0.1345E+00
     -6.494  0.3536E-01  0.3536E-01  0.1381E+00  0.1381E+00
     -6.392  0.1960E-01  0.1960E-01  0.1401E+00  0.1401E+00
     -6.290  0.1601E-01  0.1601E-01  0.1417E+00  0.1417E+00
     -6.188  0.1832E-01  0.1832E-01  0.1436E+00  0.1436E+00
     -6.087  0.1792E-01  0.1792E-01  0.1454E+00  0.1454E+00
     -5.985  0.1726E-01  0.1726E-01  0.1472E+00  0.1472E+00
     -5.883  0.1376E-01  0.1376E-01  0.1486E+00  0.1486E+00
     -5.781  0.1715E-01  0.1715E-01  0.1503E+00  0.1503E+00
     -5.679  0.2017E-01  0.2017E-01  0.1524E+00  0.1524E+00
     -5.577  0.1296E-01  0.1296E-01  0.1537E+00  0.1537E+00
     -5.476  0.8183E-02  0.8183E-02  0.1545E+00  0.1545E+00
     -5.374  0.1352E-01  0.1352E-01  0.1559E+00  0.1559E+00
     -5.272  0.2122E-01  0.2122E-01  0.1580E+00  0.1580E+00
     -5.170  0.1674E-01  0.1674E-01  0.1598E+00  0.1598E+00
     -5.068  0.1151E-01  0.1151E-01  0.1609E+00  0.1609E+00
     -4.966  0.1455E-01  0.1455E-01  0.1624E+00  0.1624E+00
     -4.865  0.2058E-01  0.2058E-01  0.1645E+00  0.1645E+00
     -4.763  0.1284E-01  0.1284E-01  0.1658E+00  0.1658E+00
     -4.661  0.7728E-02  0.7728E-02  0.1666E+00  0.1666E+00
     -4.559  0.1577E-01  0.1577E-01  0.1682E+00  0.1682E+00
     -4.457  0.2000E-01  0.2000E-01  0.1702E+00  0.1702E+00
     -4.355  0.2205E-01  0.2205E-01  0.1725E+00  0.1725E+00
     -4.254  0.2284E-01  0.2284E-01  0.1748E+00  0.1748E+00
     -4.152  0.1838E-01  0.1838E-01  0.1767E+00  0.1767E+00
     -4.050  0.2032E-01  0.2032E-01  0.1788E+00  0.1788E+00
     -3.948  0.2465E-01  0.2465E-01  0.1813E+00  0.1813E+00
     -3.846  0.2877E-01  0.2877E-01  0.1842E+00  0.1842E+00
     -3.744  0.2655E-01  0.2655E-01  0.1869E+00  0.1869E+00
     -3.643  0.2104E-01  0.2104E-01  0.1890E+00  0.1890E+00
     -3.541  0.1985E-01  0.1985E-01  0.1911E+00  0.1911E+00
     -3.439  0.1702E-01  0.1702E-01  0.1928E+00  0.1928E+00
     -3.337  0.1277E-01  0.1277E-01  0.1941E+00  0.1941E+00
     -3.235  0.7369E-02  0.7369E-02  0.1948E+00  0.1948E+00
     -3.133  0.8185E-02  0.8185E-02  0.1957E+00  0.1957E+00
     -3.032  0.1510E-01  0.1510E-01  0.1972E+00  0.1972E+00
     -2.930  0.1614E-01  0.1614E-01  0.1989E+00  0.1989E+00
     -2.828  0.1200E-01  0.1200E-01  0.2001E+00  0.2001E+00
     -2.726  0.1172E-01  0.1172E-01  0.2013E+00  0.2013E+00
     -2.624  0.1139E-01  0.1139E-01  0.2024E+00  0.2024E+00
     -2.522  0.1113E-01  0.1113E-01  0.2036E+00  0.2036E+00
     -2.421  0.1582E-01  0.1582E-01  0.2052E+00  0.2052E+00
     -2.319  0.1331E-01  0.1331E-01  0.2065E+00  0.2065E+00
     -2.217  0.9728E-02  0.9728E-02  0.2075E+00  0.2075E+00
     -2.115  0.1020E-01  0.1020E-01  0.2086E+00  0.2086E+00
     -2.013  0.7822E-02  0.7822E-02  0.2094E+00  0.2094E+00
     -1.911  0.5053E-02  0.5053E-02  0.2099E+00  0.2099E+00
     -1.810  0.5866E-02  0.5866E-02  0.2105E+00  0.2105E+00
     -1.708  0.9541E-02  0.9541E-02  0.2114E+00  0.2114E+00
     -1.606  0.9866E-02  0.9866E-02  0.2124E+00  0.2124E+00
     -1.504  0.9193E-02  0.9193E-02  0.2134E+00  0.2134E+00
     -1.402  0.6510E-02  0.6510E-02  0.2140E+00  0.2140E+00
     -1.300  0.5217E-02  0.5217E-02  0.2146E+00  0.2146E+00
     -1.198  0.4794E-02  0.4794E-02  0.2151E+00  0.2151E+00
     -1.097  0.5726E-02  0.5726E-02  0.2156E+00  0.2156E+00
     -0.995  0.8116E-02  0.8116E-02  0.2165E+00  0.2165E+00
     -0.893  0.6027E-02  0.6027E-02  0.2171E+00  0.2171E+00
     -0.791  0.3114E-02  0.3114E-02  0.2174E+00  0.2174E+00
     -0.689  0.1393E-02  0.1393E-02  0.2175E+00  0.2175E+00
     -0.587  0.1167E-02  0.1167E-02  0.2177E+00  0.2177E+00
     -0.486  0.3391E-02  0.3391E-02  0.2180E+00  0.2180E+00
     -0.384  0.3325E-02  0.3325E-02  0.2183E+00  0.2183E+00
     -0.282  0.2038E-02  0.2038E-02  0.2186E+00  0.2186E+00
     -0.180  0.3624E-02  0.3624E-02  0.2189E+00  0.2189E+00
     -0.078  0.4788E-02  0.4788E-02  0.2194E+00  0.2194E+00
      0.024  0.3525E-02  0.3525E-02  0.2198E+00  0.2198E+00
      0.125  0.3628E-02  0.3628E-02  0.2201E+00  0.2201E+00
      0.227  0.8019E-02  0.8019E-02  0.2210E+00  0.2210E+00
      0.329  0.1211E-01  0.1211E-01  0.2222E+00  0.2222E+00
      0.431  0.1141E-01  0.1141E-01  0.2234E+00  0.2234E+00
      0.533  0.9607E-02  0.9607E-02  0.2243E+00  0.2243E+00
      0.635  0.3750E-02  0.3750E-02  0.2247E+00  0.2247E+00
      0.736  0.5346E-02  0.5346E-02  0.2253E+00  0.2253E+00
      0.838  0.1172E-01  0.1172E-01  0.2265E+00  0.2265E+00
      0.940  0.7824E-02  0.7824E-02  0.2272E+00  0.2272E+00
      1.042  0.2059E-02  0.2059E-02  0.2275E+00  0.2275E+00
      1.144  0.4275E-02  0.4275E-02  0.2279E+00  0.2279E+00
      1.246  0.1413E-01  0.1413E-01  0.2293E+00  0.2293E+00
      1.347  0.2058E-01  0.2058E-01  0.2314E+00  0.2314E+00
      1.449  0.1597E-01  0.1597E-01  0.2331E+00  0.2331E+00
      1.551  0.1180E-01  0.1180E-01  0.2343E+00  0.2343E+00
      1.653  0.7541E-02  0.7541E-02  0.2350E+00  0.2350E+00
      1.755  0.9111E-02  0.9111E-02  0.2360E+00  0.2360E+00
      1.857  0.1223E-01  0.1223E-01  0.2372E+00  0.2372E+00
      1.958  0.1087E-01  0.1087E-01  0.2383E+00  0.2383E+00
      2.060  0.1301E-01  0.1301E-01  0.2396E+00  0.2396E+00
      2.162  0.1347E-01  0.1347E-01  0.2410E+00  0.2410E+00
      2.264  0.1069E-01  0.1069E-01  0.2421E+00  0.2421E+00
      2.366  0.8738E-02  0.8738E-02  0.2430E+00  0.2430E+00
      2.468  0.4993E-02  0.4993E-02  0.2435E+00  0.2435E+00
      2.569  0.8836E-02  0.8836E-02  0.2444E+00  0.2444E+00
      2.671  0.1316E-01  0.1316E-01  0.2457E+00  0.2457E+00
      2.773  0.1471E-01  0.1471E-01  0.2472E+00  0.2472E+00
      2.875  0.1565E-01  0.1565E-01  0.2488E+00  0.2488E+00
      2.977  0.1269E-01  0.1269E-01  0.2501E+00  0.2501E+00
      3.079  0.1201E-01  0.1201E-01  0.2513E+00  0.2513E+00
      3.180  0.1635E-01  0.1635E-01  0.2530E+00  0.2530E+00
      3.282  0.1539E-01  0.1539E-01  0.2546E+00  0.2546E+00
      3.384  0.1236E-01  0.1236E-01  0.2558E+00  0.2558E+00
      3.486  0.1826E-01  0.1826E-01  0.2577E+00  0.2577E+00
      3.588  0.2559E-01  0.2559E-01  0.2603E+00  0.2603E+00
      3.690  0.2169E-01  0.2169E-01  0.2625E+00  0.2625E+00
      3.791  0.1778E-01  0.1778E-01  0.2643E+00  0.2643E+00
      3.893  0.2097E-01  0.2097E-01  0.2664E+00  0.2664E+00
      3.995  0.2498E-01  0.2498E-01  0.2690E+00  0.2690E+00
      4.097  0.2064E-01  0.2064E-01  0.2711E+00  0.2711E+00
      4.199  0.1729E-01  0.1729E-01  0.2729E+00  0.2729E+00
      4.301  0.2025E-01  0.2025E-01  0.2749E+00  0.2749E+00
      4.402  0.2232E-01  0.2232E-01  0.2772E+00  0.2772E+00
      4.504  0.2499E-01  0.2499E-01  0.2797E+00  0.2797E+00
      4.606  0.1822E-01  0.1822E-01  0.2816E+00  0.2816E+00
      4.708  0.1831E-01  0.1831E-01  0.2835E+00  0.2835E+00
      4.810  0.2664E-01  0.2664E-01  0.2862E+00  0.2862E+00
      4.912  0.3302E-01  0.3302E-01  0.2895E+00  0.2895E+00
      5.013  0.2477E-01  0.2477E-01  0.2921E+00  0.2921E+00
      5.115  0.2575E-01  0.2575E-01  0.2947E+00  0.2947E+00
      5.217  0.2196E-01  0.2195E-01  0.2969E+00  0.2969E+00
      5.319  0.1870E-01  0.1870E-01  0.2988E+00  0.2988E+00
      5.421  0.2604E-01  0.2604E-01  0.3015E+00  0.3015E+00
      5.523  0.2935E-01  0.2935E-01  0.3045E+00  0.3045E+00
      5.624  0.2629E-01  0.2629E-01  0.3071E+00  0.3071E+00
      5.726  0.2434E-01  0.2434E-01  0.3096E+00  0.3096E+00
      5.828  0.2687E-01  0.2687E-01  0.3123E+00  0.3123E+00
      5.930  0.2157E-01  0.2157E-01  0.3145E+00  0.3145E+00
      6.032  0.2555E-01  0.2555E-01  0.3171E+00  0.3171E+00
      6.134  0.2982E-01  0.2982E-01  0.3202E+00  0.3202E+00
      6.235  0.1957E-01  0.1957E-01  0.3222E+00  0.3222E+00
      6.337  0.1600E-01  0.1600E-01  0.3238E+00  0.3238E+00
      6.439  0.2410E-01  0.2410E-01  0.3263E+00  0.3263E+00
      6.541  0.3103E-01  0.3103E-01  0.3294E+00  0.3294E+00
      6.643  0.2849E-01  0.2849E-01  0.3323E+00  0.3323E+00
      6.745  0.2478E-01  0.2478E-01  0.3348E+00  0.3348E+00
      6.846  0.2256E-01  0.2256E-01  0.3371E+00  0.3371E+00
      6.948  0.2749E-01  0.2749E-01  0.3399E+00  0.3399E+00
      7.050  0.3114E-01  0.3114E-01  0.3431E+00  0.3431E+00
      7.152  0.3903E-01  0.3903E-01  0.3471E+00  0.3471E+00
      7.254  0.4010E-01  0.4010E-01  0.3512E+00  0.3512E+00
      7.356  0.3547E-01  0.3547E-01  0.3548E+00  0.3548E+00
      7.457  0.2939E-01  0.2939E-01  0.3578E+00  0.3578E+00
      7.559  0.2537E-01  0.2537E-01  0.3604E+00  0.3604E+00
      7.661  0.3436E-01  0.3436E-01  0.3639E+00  0.3639E+00
      7.763  0.3211E-01  0.3211E-01  0.3671E+00  0.3671E+00
      7.865  0.3107E-01  0.3107E-01  0.3703E+00  0.3703E+00
      7.967  0.2549E-01  0.2549E-01  0.3729E+00  0.3729E+00
      8.068  0.1291E-01  0.1291E-01  0.3742E+00  0.3742E+00
      8.170  0.6347E-02  0.6346E-02  0.3749E+00  0.3749E+00
      8.272  0.1404E-02  0.1404E-02  0.3750E+00  0.3750E+00
      8.374  0.6546E-04  0.6545E-04  0.3750E+00  0.3750E+00
      8.476  0.4932E-06  0.4931E-06  0.3750E+00  0.3750E+00
      8.578  0.5349E-09  0.5348E-09  0.3750E+00  0.3750E+00
      8.679  0.7884E-13  0.7881E-13  0.3750E+00  0.3750E+00
      8.781  0.1420E-17  0.1420E-17  0.3750E+00  0.3750E+00
      8.883  0.0000E+00  0.0000E+00  0.3750E+00  0.3750E+00
      8.985  0.0000E+00  0.0000E+00  0.3750E+00  0.3750E+00
      9.087  0.0000E+00  0.0000E+00  0.3750E+00  0.3750E+00
      9.189  0.0000E+00  0.0000E+00  0.3750E+00  0.3750E+00
      9.290  0.0000E+00  0.0000E+00  0.3750E+00  0.3750E+00
      9.392  0.0000E+00  0.0000E+00  0.3750E+00  0.3750E+00
      9.494  0.0000E+00  0.0000E+00  0.3750E+00  0.3750E+00
