<?xml version="1.0" encoding="ISO-8859-1"?>
<modeling>
 <generator>
  <i name="program" type="string">vasp </i>
  <i name="version" type="string">5.4.4.18Apr17-6-g9f103f2a35  </i>
  <i name="subversion" type="string">(build Mar 30 2023 15:39:25) complex            parallel </i>
  <i name="platform" type="string">LinuxIFC </i>
  <i name="date" type="string">2023 08 23 </i>
  <i name="time" type="string">18:40:36 </i>
 </generator>
 <incar>
  <i type="string" name="SYSTEM"> Lattice</i>
  <i type="int" name="ISTART">     0</i>
  <i type="string" name="PREC">accurate</i>
  <i type="string" name="ALGO"> Normal</i>
  <i type="int" name="ISPIN">     2</i>
  <i type="int" name="ICHARG">     2</i>
  <i type="int" name="NELM">    64</i>
  <i type="int" name="IBRION">     2</i>
  <i name="EDIFF">      0.00000100</i>
  <i name="EDIFFG">     -0.00100000</i>
  <i type="int" name="NSW">   128</i>
  <i type="int" name="ISIF">     2</i>
  <i name="ENCUT">    450.00000000</i>
  <i name="POTIM">      0.50000000</i>
  <i type="int" name="ISMEAR">     0</i>
  <i name="SIGMA">      0.10000000</i>
  <i type="logical" name="LWAVE"> F  </i>
  <i type="logical" name="LCHARG"> F  </i>
  <v type="int" name="KPOINT_BSE">    -1     0     0     0</v>
  <i type="int" name="NELM">    64</i>
  <i type="string" name="GGA"> PE</i>
 </incar>
 <structure name="primitive_cell" >
  <crystal>
   <varray name="basis" >
    <v>       4.19935718       2.42450000       0.00000000 </v>
    <v>      -4.19935718       2.42450000       0.00000000 </v>
    <v>       0.00000000       0.00000000      15.00000000 </v>
   </varray>
   <i name="volume">    305.44024470 </i>
   <varray name="rec_basis" >
    <v>       0.11906584       0.20622809       0.00000000 </v>
    <v>      -0.11906584       0.20622809       0.00000000 </v>
    <v>       0.00000000       0.00000000       0.06666667 </v>
   </varray>
  </crystal>
  <varray name="positions" >
   <v>       0.00415361       0.00267210       0.12034134 </v>
   <v>       0.00416530      -0.32116192       0.10026559 </v>
   <v>      -0.31972225       0.00278085       0.10027562 </v>
   <v>       0.32808646       0.32671938       0.10030508 </v>
   <v>      -0.34857705      -0.34993443       0.09747688 </v>
   <v>       0.35695335       0.00285503       0.09748893 </v>
   <v>       0.00423858       0.35550699       0.09749256 </v>
   <v>       0.33333300       0.16666600       0.33720000 </v>
   <v>       0.16666600       0.33333300       0.33720000 </v>
   <v>       0.16666600      -0.16666700       0.33720000 </v>
   <v>      -0.16666700       0.16666600       0.33720000 </v>
   <v>      -0.16666700      -0.33333400       0.33720000 </v>
   <v>      -0.33333400      -0.16666700       0.33720000 </v>
   <v>      -0.33333400       0.33333300       0.33720000 </v>
   <v>       0.33333300      -0.33333400       0.33720000 </v>
  </varray>
 </structure>
 <varray name="primitive_index" >
  <v type="int" >        1 </v>
  <v type="int" >        7 </v>
  <v type="int" >        6 </v>
  <v type="int" >        5 </v>
  <v type="int" >        4 </v>
  <v type="int" >        2 </v>
  <v type="int" >        3 </v>
  <v type="int" >        9 </v>
  <v type="int" >        8 </v>
  <v type="int" >       10 </v>
  <v type="int" >       13 </v>
  <v type="int" >       15 </v>
  <v type="int" >       14 </v>
  <v type="int" >       12 </v>
  <v type="int" >       11 </v>
 </varray>
 <kpoints>
  <generation param="Gamma">
   <v type="int" name="divisions">      12       12        1 </v>
   <v name="usershift">      0.00000000       0.00000000       0.00000000 </v>
   <v name="genvec1">      0.08333333       0.00000000       0.00000000 </v>
   <v name="genvec2">      0.00000000       0.08333333       0.00000000 </v>
   <v name="genvec3">      0.00000000       0.00000000       1.00000000 </v>
   <v name="shift">      0.00000000       0.00000000       0.00000000 </v>
  </generation>
  <varray name="kpointlist" >
   <v>       0.00000000       0.00000000       0.00000000 </v>
   <v>       0.08333333      -0.00000000       0.00000000 </v>
   <v>       0.16666667      -0.00000000       0.00000000 </v>
   <v>       0.25000000      -0.00000000       0.00000000 </v>
   <v>       0.33333333       0.00000000       0.00000000 </v>
   <v>       0.41666667       0.00000000       0.00000000 </v>
   <v>       0.50000000      -0.00000000       0.00000000 </v>
   <v>      -0.00000000       0.08333333       0.00000000 </v>
   <v>       0.08333333       0.08333333       0.00000000 </v>
   <v>       0.16666667       0.08333333       0.00000000 </v>
   <v>       0.25000000       0.08333333       0.00000000 </v>
   <v>       0.33333333       0.08333333       0.00000000 </v>
   <v>       0.41666667       0.08333333       0.00000000 </v>
   <v>       0.50000000       0.08333333       0.00000000 </v>
   <v>      -0.41666667       0.08333333       0.00000000 </v>
   <v>      -0.33333333       0.08333333       0.00000000 </v>
   <v>      -0.25000000       0.08333333       0.00000000 </v>
   <v>      -0.16666667       0.08333333       0.00000000 </v>
   <v>      -0.08333333       0.08333333       0.00000000 </v>
   <v>      -0.00000000       0.16666667       0.00000000 </v>
   <v>       0.08333333       0.16666667       0.00000000 </v>
   <v>       0.16666667       0.16666667       0.00000000 </v>
   <v>       0.25000000       0.16666667       0.00000000 </v>
   <v>       0.33333333       0.16666667       0.00000000 </v>
   <v>       0.41666667       0.16666667       0.00000000 </v>
   <v>       0.50000000       0.16666667       0.00000000 </v>
   <v>      -0.41666667       0.16666667       0.00000000 </v>
   <v>      -0.33333333       0.16666667       0.00000000 </v>
   <v>      -0.25000000       0.16666667       0.00000000 </v>
   <v>      -0.16666667       0.16666667       0.00000000 </v>
   <v>      -0.08333333       0.16666667       0.00000000 </v>
   <v>      -0.00000000       0.25000000       0.00000000 </v>
   <v>       0.08333333       0.25000000       0.00000000 </v>
   <v>       0.16666667       0.25000000       0.00000000 </v>
   <v>       0.25000000       0.25000000       0.00000000 </v>
   <v>       0.33333333       0.25000000       0.00000000 </v>
   <v>       0.41666667       0.25000000       0.00000000 </v>
   <v>       0.50000000       0.25000000       0.00000000 </v>
   <v>      -0.41666667       0.25000000       0.00000000 </v>
   <v>      -0.33333333       0.25000000       0.00000000 </v>
   <v>      -0.25000000       0.25000000       0.00000000 </v>
   <v>      -0.16666667       0.25000000       0.00000000 </v>
   <v>      -0.08333333       0.25000000       0.00000000 </v>
   <v>       0.00000000       0.33333333       0.00000000 </v>
   <v>       0.08333333       0.33333333       0.00000000 </v>
   <v>       0.16666667       0.33333333       0.00000000 </v>
   <v>       0.25000000       0.33333333       0.00000000 </v>
   <v>       0.33333333       0.33333333       0.00000000 </v>
   <v>       0.41666667       0.33333333       0.00000000 </v>
   <v>       0.50000000       0.33333333       0.00000000 </v>
   <v>      -0.41666667       0.33333333       0.00000000 </v>
   <v>      -0.33333333       0.33333333       0.00000000 </v>
   <v>      -0.25000000       0.33333333       0.00000000 </v>
   <v>      -0.16666667       0.33333333       0.00000000 </v>
   <v>      -0.08333333       0.33333333       0.00000000 </v>
   <v>       0.00000000       0.41666667       0.00000000 </v>
   <v>       0.08333333       0.41666667       0.00000000 </v>
   <v>       0.16666667       0.41666667       0.00000000 </v>
   <v>       0.25000000       0.41666667       0.00000000 </v>
   <v>       0.33333333       0.41666667       0.00000000 </v>
   <v>       0.41666667       0.41666667       0.00000000 </v>
   <v>       0.50000000       0.41666667       0.00000000 </v>
   <v>      -0.41666667       0.41666667       0.00000000 </v>
   <v>      -0.33333333       0.41666667       0.00000000 </v>
   <v>      -0.25000000       0.41666667       0.00000000 </v>
   <v>      -0.16666667       0.41666667       0.00000000 </v>
   <v>      -0.08333333       0.41666667       0.00000000 </v>
   <v>      -0.00000000       0.50000000       0.00000000 </v>
   <v>       0.08333333       0.50000000       0.00000000 </v>
   <v>       0.16666667       0.50000000       0.00000000 </v>
   <v>       0.25000000       0.50000000       0.00000000 </v>
   <v>       0.33333333       0.50000000       0.00000000 </v>
   <v>       0.41666667       0.50000000       0.00000000 </v>
   <v>       0.50000000       0.50000000       0.00000000 </v>
  </varray>
  <varray name="weights" >
   <v>       0.00694444 </v>
   <v>       0.01388889 </v>
   <v>       0.01388889 </v>
   <v>       0.01388889 </v>
   <v>       0.01388889 </v>
   <v>       0.01388889 </v>
   <v>       0.00694444 </v>
   <v>       0.01388889 </v>
   <v>       0.01388889 </v>
   <v>       0.01388889 </v>
   <v>       0.01388889 </v>
   <v>       0.01388889 </v>
   <v>       0.01388889 </v>
   <v>       0.01388889 </v>
   <v>       0.01388889 </v>
   <v>       0.01388889 </v>
   <v>       0.01388889 </v>
   <v>       0.01388889 </v>
   <v>       0.01388889 </v>
   <v>       0.01388889 </v>
   <v>       0.01388889 </v>
   <v>       0.01388889 </v>
   <v>       0.01388889 </v>
   <v>       0.01388889 </v>
   <v>       0.01388889 </v>
   <v>       0.01388889 </v>
   <v>       0.01388889 </v>
   <v>       0.01388889 </v>
   <v>       0.01388889 </v>
   <v>       0.01388889 </v>
   <v>       0.01388889 </v>
   <v>       0.01388889 </v>
   <v>       0.01388889 </v>
   <v>       0.01388889 </v>
   <v>       0.01388889 </v>
   <v>       0.01388889 </v>
   <v>       0.01388889 </v>
   <v>       0.01388889 </v>
   <v>       0.01388889 </v>
   <v>       0.01388889 </v>
   <v>       0.01388889 </v>
   <v>       0.01388889 </v>
   <v>       0.01388889 </v>
   <v>       0.01388889 </v>
   <v>       0.01388889 </v>
   <v>       0.01388889 </v>
   <v>       0.01388889 </v>
   <v>       0.01388889 </v>
   <v>       0.01388889 </v>
   <v>       0.01388889 </v>
   <v>       0.01388889 </v>
   <v>       0.01388889 </v>
   <v>       0.01388889 </v>
   <v>       0.01388889 </v>
   <v>       0.01388889 </v>
   <v>       0.01388889 </v>
   <v>       0.01388889 </v>
   <v>       0.01388889 </v>
   <v>       0.01388889 </v>
   <v>       0.01388889 </v>
   <v>       0.01388889 </v>
   <v>       0.01388889 </v>
   <v>       0.01388889 </v>
   <v>       0.01388889 </v>
   <v>       0.01388889 </v>
   <v>       0.01388889 </v>
   <v>       0.01388889 </v>
   <v>       0.00694444 </v>
   <v>       0.01388889 </v>
   <v>       0.01388889 </v>
   <v>       0.01388889 </v>
   <v>       0.01388889 </v>
   <v>       0.01388889 </v>
   <v>       0.00694444 </v>
  </varray>
 </kpoints>
 <parameters>
  <separator name="general" >
   <i type="string" name="SYSTEM">Lattice</i>
   <i type="logical" name="LCOMPAT"> F  </i>
  </separator>
  <separator name="electronic" >
   <i type="string" name="PREC">accura</i>
   <i name="ENMAX">    450.00000000</i>
   <i name="ENAUG">    644.87300000</i>
   <i name="EDIFF">      0.00000100</i>
   <i type="int" name="IALGO">    38</i>
   <i type="int" name="IWAVPR">    11</i>
   <i type="int" name="NBANDS">    48</i>
   <i name="NELECT">     56.00000000</i>
   <i type="int" name="TURBO">     0</i>
   <i type="int" name="IRESTART">     0</i>
   <i type="int" name="NREBOOT">     0</i>
   <i type="int" name="NMIN">     0</i>
   <i name="EREF">      0.00000000</i>
   <separator name="electronic smearing" >
    <i type="int" name="ISMEAR">     0</i>
    <i name="SIGMA">      0.10000000</i>
    <i name="KSPACING">      0.50000000</i>
    <i type="logical" name="KGAMMA"> T  </i>
   </separator>
   <separator name="electronic projectors" >
    <i type="logical" name="LREAL"> F  </i>
    <v name="ROPT">      0.00000000      0.00000000</v>
    <i type="int" name="LMAXPAW">  -100</i>
    <i type="int" name="LMAXMIX">     2</i>
    <i type="logical" name="NLSPLINE"> F  </i>
   </separator>
   <separator name="electronic startup" >
    <i type="int" name="ISTART">     0</i>
    <i type="int" name="ICHARG">     2</i>
    <i type="int" name="INIWAV">     1</i>
   </separator>
   <separator name="electronic spin" >
    <i type="int" name="ISPIN">     2</i>
    <i type="logical" name="LNONCOLLINEAR"> F  </i>
    <v name="MAGMOM">      1.00000000      1.00000000      1.00000000      1.00000000      1.00000000      1.00000000      1.00000000      1.00000000      1.00000000      1.00000000      1.00000000      1.00000000      1.00000000      1.00000000      1.00000000</v>
    <i name="NUPDOWN">     -1.00000000</i>
    <i type="logical" name="LSORBIT"> F  </i>
    <v name="SAXIS">      0.00000000      0.00000000      1.00000000</v>
    <i type="logical" name="LSPIRAL"> F  </i>
    <v name="QSPIRAL">      0.00000000      0.00000000      0.00000000</v>
    <i type="logical" name="LZEROZ"> F  </i>
   </separator>
   <separator name="electronic exchange-correlation" >
    <i type="logical" name="LASPH"> F  </i>
    <i type="logical" name="LMETAGGA"> F  </i>
   </separator>
   <separator name="electronic convergence" >
    <i type="int" name="NELM">    64</i>
    <i type="int" name="NELMDL">    -5</i>
    <i type="int" name="NELMIN">     2</i>
    <i name="ENINI">    450.00000000</i>
    <separator name="electronic convergence detail" >
     <i type="logical" name="LDIAG"> T  </i>
     <i type="logical" name="LSUBROT"> F  </i>
     <i name="WEIMIN">      0.00100000</i>
     <i name="EBREAK">      0.00000001</i>
     <i name="DEPER">      0.30000000</i>
     <i type="int" name="NRMM">     4</i>
     <i name="TIME">      0.40000000</i>
    </separator>
   </separator>
   <separator name="electronic mixer" >
    <i name="AMIX">      0.40000000</i>
    <i name="BMIX">      1.00000000</i>
    <i name="AMIN">      0.10000000</i>
    <i name="AMIX_MAG">      1.60000000</i>
    <i name="BMIX_MAG">      1.00000000</i>
    <separator name="electronic mixer details" >
     <i type="int" name="IMIX">     4</i>
     <i type="logical" name="MIXFIRST"> F  </i>
     <i type="int" name="MAXMIX">   -45</i>
     <i name="WC">    100.00000000</i>
     <i type="int" name="INIMIX">     1</i>
     <i type="int" name="MIXPRE">     1</i>
     <i type="int" name="MREMOVE">     5</i>
    </separator>
   </separator>
   <separator name="electronic dipolcorrection" >
    <i type="logical" name="LDIPOL"> F  </i>
    <i type="logical" name="LMONO"> F  </i>
    <i type="int" name="IDIPOL">     0</i>
    <i name="EPSILON">      1.00000000</i>
    <v name="DIPOL">   -100.00000000   -100.00000000   -100.00000000</v>
    <i name="EFIELD">      0.00000000</i>
   </separator>
  </separator>
  <separator name="grids" >
   <i type="int" name="NGX">    36</i>
   <i type="int" name="NGY">    36</i>
   <i type="int" name="NGZ">   108</i>
   <i type="int" name="NGXF">    72</i>
   <i type="int" name="NGYF">    72</i>
   <i type="int" name="NGZF">   216</i>
   <i type="logical" name="ADDGRID"> F  </i>
  </separator>
  <separator name="ionic" >
   <i type="int" name="NSW">   128</i>
   <i type="int" name="IBRION">     2</i>
   <i type="int" name="MDALGO">     0</i>
   <i type="int" name="ISIF">     2</i>
   <i name="PSTRESS">      0.00000000</i>
   <i name="EDIFFG">     -0.00100000</i>
   <i type="int" name="NFREE">     1</i>
   <i name="POTIM">      0.50000000</i>
   <i name="SMASS">     -3.00000000</i>
   <i name="SCALEE">      1.00000000</i>
  </separator>
  <separator name="ionic md" >
   <i name="TEBEG">      0.00010000</i>
   <i name="TEEND">      0.00010000</i>
   <i type="int" name="NBLOCK">     1</i>
   <i type="int" name="KBLOCK">   128</i>
   <i type="int" name="NPACO">   256</i>
   <i name="APACO">     16.00000000</i>
  </separator>
  <separator name="symmetry" >
   <i type="int" name="ISYM">     2</i>
   <i name="SYMPREC">      0.00001000</i>
  </separator>
  <separator name="dos" >
   <i type="int" name="LORBIT">     0</i>
   <v name="RWIGS">     -1.00000000     -1.00000000</v>
   <i type="int" name="NEDOS">   301</i>
   <i name="EMIN">     10.00000000</i>
   <i name="EMAX">    -10.00000000</i>
   <i name="EFERMI">      0.00000000</i>
  </separator>
  <separator name="writing" >
   <i type="int" name="NWRITE">     2</i>
   <i type="logical" name="LWAVE"> F  </i>
   <i type="logical" name="LDOWNSAMPLE"> F  </i>
   <i type="logical" name="LCHARG"> F  </i>
   <i type="logical" name="LPARD"> F  </i>
   <i type="logical" name="LVTOT"> F  </i>
   <i type="logical" name="LVHAR"> F  </i>
   <i type="logical" name="LELF"> F  </i>
   <i type="logical" name="LOPTICS"> F  </i>
   <v name="STM">      0.00000000      0.00000000      0.00000000      0.00000000      0.00000000      0.00000000      0.00000000</v>
  </separator>
  <separator name="performance" >
   <i type="int" name="NPAR">    16</i>
   <i type="int" name="NSIM">     4</i>
   <i type="int" name="NBLK">    -1</i>
   <i type="logical" name="LPLANE"> T  </i>
   <i type="logical" name="LSCALAPACK"> T  </i>
   <i type="logical" name="LSCAAWARE"> F  </i>
   <i type="logical" name="LSCALU"> F  </i>
   <i type="logical" name="LASYNC"> F  </i>
   <i type="logical" name="LORBITALREAL"> F  </i>
  </separator>
  <separator name="miscellaneous" >
   <i type="int" name="IDIOT">     3</i>
   <i type="int" name="ISPECIAL">     0</i>
   <i type="logical" name="LMUSIC"> F  </i>
   <v name="POMASS">     10.81100000     12.01100000</v>
   <v name="DARWINR">      0.00000000      0.00000000</v>
   <v name="DARWINV">      1.00000000      1.00000000</v>
   <i type="logical" name="LCORR"> T  </i>
  </separator>
  <i type="logical" name="GGA_COMPAT"> T  </i>
  <i type="logical" name="LBERRY"> F  </i>
  <i type="int" name="ICORELEVEL">     0</i>
  <i type="logical" name="LDAU"> F  </i>
  <i type="int" name="I_CONSTRAINED_M">     0</i>
  <separator name="electronic exchange-correlation" >
   <i type="string" name="GGA">PE</i>
   <i type="int" name="VOSKOWN">     0</i>
   <i type="logical" name="LHFCALC"> F  </i>
   <i type="string" name="PRECFOCK"></i>
   <i type="logical" name="LSYMGRAD"> F  </i>
   <i type="logical" name="LHFONE"> F  </i>
   <i type="logical" name="LRHFCALC"> F  </i>
   <i type="logical" name="LTHOMAS"> F  </i>
   <i type="logical" name="LMODELHF"> F  </i>
   <i name="ENCUT4O">     -1.00000000</i>
   <i type="int" name="EXXOEP">     0</i>
   <i type="int" name="FOURORBIT">     0</i>
   <i name="AEXX">      0.00000000</i>
   <i name="HFALPHA">      0.00000000</i>
   <i name="MCALPHA">      0.00000000</i>
   <i name="ALDAX">      1.00000000</i>
   <i name="AGGAX">      1.00000000</i>
   <i name="ALDAC">      1.00000000</i>
   <i name="AGGAC">      1.00000000</i>
   <i type="int" name="NKREDX">     1</i>
   <i type="int" name="NKREDY">     1</i>
   <i type="int" name="NKREDZ">     1</i>
   <i type="logical" name="SHIFTRED"> F  </i>
   <i type="logical" name="ODDONLY"> F  </i>
   <i type="logical" name="EVENONLY"> F  </i>
   <i type="int" name="LMAXFOCK">     0</i>
   <i type="int" name="NMAXFOCKAE">     0</i>
   <i type="logical" name="LFOCKAEDFT"> F  </i>
   <i name="HFSCREEN">      0.00000000</i>
   <i name="HFSCREENC">      0.00000000</i>
   <i type="int" name="NBANDSGWLOW">     0</i>
  </separator>
  <separator name="vdW DFT" >
   <i type="logical" name="LUSE_VDW"> F  </i>
   <i name="Zab_VDW">     -0.84910000</i>
   <i name="PARAM1">      0.12340000</i>
   <i name="PARAM2">      1.00000000</i>
   <i name="PARAM3">      0.00000000</i>
  </separator>
  <separator name="model GW" >
   <i type="int" name="MODEL_GW">     0</i>
   <i name="MODEL_EPS0">     12.21760979</i>
   <i name="MODEL_ALPHA">      1.00000000</i>
  </separator>
  <separator name="linear response parameters" >
   <i type="logical" name="LEPSILON"> F  </i>
   <i type="logical" name="LRPA"> F  </i>
   <i type="logical" name="LNABLA"> F  </i>
   <i type="logical" name="LVEL"> F  </i>
   <i type="int" name="KINTER">     0</i>
   <i name="CSHIFT">      0.10000000</i>
   <i name="OMEGAMAX">     -1.00000000</i>
   <i name="DEG_THRESHOLD">      0.00200000</i>
   <i name="RTIME">     -0.10000000</i>
   <i name="WPLASMAI">      0.00000000</i>
   <v name="DFIELD">      0.00000000      0.00000000      0.00000000</v>
   <v name="WPLASMA">      0.00000000      0.00000000      0.00000000      0.00000000      0.00000000      0.00000000      0.00000000      0.00000000      0.00000000</v>
  </separator>
  <separator name="orbital magnetization" >
   <i type="logical" name="NUCIND"> F  </i>
   <v name="MAGPOS">      0.00000000      0.00000000      0.00000000</v>
   <i type="logical" name="LNICSALL"> T  </i>
   <i type="logical" name="ORBITALMAG"> F  </i>
   <i type="logical" name="LMAGBLOCH"> F  </i>
   <i type="logical" name="LCHIMAG"> F  </i>
   <i type="logical" name="LGAUGE"> T  </i>
   <i type="int" name="MAGATOM">     0</i>
   <v name="MAGDIPOL">      0.00000000      0.00000000      0.00000000</v>
   <v name="AVECCONST">      0.00000000      0.00000000      0.00000000</v>
  </separator>
  <separator name="response functions" >
   <i type="logical" name="LADDER"> F  </i>
   <i type="logical" name="LRPAFORCE"> F  </i>
   <i type="logical" name="LFXC"> F  </i>
   <i type="logical" name="LHARTREE"> T  </i>
   <i type="int" name="IBSE">     0</i>
   <v type="int" name="KPOINT">    -1     0     0     0</v>
   <i type="logical" name="LTCTE"> F  </i>
   <i type="logical" name="LTETE"> F  </i>
   <i type="logical" name="LTRIPLET"> F  </i>
   <i type="logical" name="LFXCEPS"> F  </i>
   <i type="logical" name="LFXHEG"> F  </i>
   <i type="int" name="NATURALO">     2</i>
   <i type="logical" name="L2ORDER"> F  </i>
   <i type="logical" name="LMP2LT"> F  </i>
   <i type="logical" name="LUSEW"> F  </i>
   <i name="ENCUTGW">     -2.00000000</i>
   <i name="ENCUTGWSOFT">     -2.00000000</i>
   <i name="ENCUTLF">     -1.00000000</i>
   <i type="int" name="LMAXMP2">    -1</i>
   <i name="SCISSOR">      0.00000000</i>
   <i type="int" name="NOMEGA">     0</i>
   <i type="int" name="NOMEGAR">     0</i>
   <i type="int" name="NBANDSGW">    -1</i>
   <i type="int" name="NBANDSO">    -1</i>
   <i type="int" name="NBANDSV">    -1</i>
   <i type="int" name="NELM">    64</i>
   <i type="int" name="NELMHF">     1</i>
   <i type="int" name="DIM">     3</i>
   <i type="int" name="ANTIRES">     0</i>
   <i name="OMEGAMAX">    -30.00000000</i>
   <i name="OMEGAMIN">    -30.00000000</i>
   <i name="OMEGATL">   -200.00000000</i>
   <i type="int" name="OMEGAGRID">   140</i>
   <i name="CSHIFT">     -0.10000000</i>
   <i type="logical" name="SELFENERGY"> F  </i>
   <i type="logical" name="LSPECTRAL"> F  </i>
   <i type="logical" name="LSPECTRALGW"> F  </i>
   <i type="logical" name="LSINGLES"> F  </i>
   <i type="logical" name="LFERMIGW"> F  </i>
   <i type="logical" name="ODDONLYGW"> F  </i>
   <i type="logical" name="EVENONLYGW"> F  </i>
   <i type="int" name="NKREDLFX">     1</i>
   <i type="int" name="NKREDLFY">     1</i>
   <i type="int" name="NKREDLFZ">     1</i>
   <i type="int" name="MAXMEM">  2800</i>
   <i type="int" name="TELESCOPE">     0</i>
   <i type="int" name="TAUPAR">     1</i>
   <i type="int" name="OMEGAPAR">    -1</i>
   <i name="LAMBDA">      1.00000000</i>
  </separator>
  <separator name="External order field" >
   <i name="OFIELD_KAPPA">      0.00000000</i>
   <v name="OFIELD_K">      0.00000000      0.00000000      0.00000000</v>
   <i name="OFIELD_Q6_NEAR">      0.00000000</i>
   <i name="OFIELD_Q6_FAR">      0.00000000</i>
   <i name="OFIELD_A">      0.00000000</i>
  </separator>
 </parameters>
 <atominfo>
  <atoms>      15 </atoms>
  <types>       2 </types>
  <array name="atoms" >
   <dimension dim="1">ion</dimension>
   <field type="string">element</field>
   <field type="int">atomtype</field>
   <set>
    <rc><c>B </c><c>   1</c></rc>
    <rc><c>B </c><c>   1</c></rc>
    <rc><c>B </c><c>   1</c></rc>
    <rc><c>B </c><c>   1</c></rc>
    <rc><c>C </c><c>   2</c></rc>
    <rc><c>C </c><c>   2</c></rc>
    <rc><c>C </c><c>   2</c></rc>
    <rc><c>C </c><c>   2</c></rc>
    <rc><c>C </c><c>   2</c></rc>
    <rc><c>C </c><c>   2</c></rc>
    <rc><c>C </c><c>   2</c></rc>
    <rc><c>C </c><c>   2</c></rc>
    <rc><c>C </c><c>   2</c></rc>
    <rc><c>C </c><c>   2</c></rc>
    <rc><c>C </c><c>   2</c></rc>
   </set>
  </array>
  <array name="atomtypes" >
   <dimension dim="1">type</dimension>
   <field type="int">atomspertype</field>
   <field type="string">element</field>
   <field>mass</field>
   <field>valence</field>
   <field type="string">pseudopotential</field>
   <set>
    <rc><c>   4</c><c>B </c><c>     10.81100000</c><c>      3.00000000</c><c>  PAW_PBE B 06Sep2000                   </c></rc>
    <rc><c>  11</c><c>C </c><c>     12.01100000</c><c>      4.00000000</c><c>  PAW_PBE C 08Apr2002                   </c></rc>
   </set>
  </array>
 </atominfo>
 <structure name="initialpos" >
  <crystal>
   <varray name="basis" >
    <v>       4.19935718       2.42450000       0.00000000 </v>
    <v>      -4.19935718       2.42450000       0.00000000 </v>
    <v>       0.00000000       0.00000000      15.00000000 </v>
   </varray>
   <i name="volume">    305.44024470 </i>
   <varray name="rec_basis" >
    <v>       0.11906584       0.20622809       0.00000000 </v>
    <v>      -0.11906584       0.20622809       0.00000000 </v>
    <v>       0.00000000       0.00000000       0.06666667 </v>
   </varray>
  </crystal>
  <varray name="positions" >
   <v>       0.00415361       0.00267210       0.12034134 </v>
   <v>       0.35695335       0.00285503       0.09748893 </v>
   <v>       0.00423858       0.35550699       0.09749256 </v>
   <v>       0.65142295       0.65006557       0.09747688 </v>
   <v>       0.32808646       0.32671938       0.10030508 </v>
   <v>       0.68027775       0.00278085       0.10027562 </v>
   <v>       0.00416530       0.67883808       0.10026559 </v>
   <v>       0.16666600       0.33333300       0.33720000 </v>
   <v>       0.33333300       0.16666600       0.33720000 </v>
   <v>       0.16666600       0.83333300       0.33720000 </v>
   <v>       0.33333300       0.66666600       0.33720000 </v>
   <v>       0.66666600       0.33333300       0.33720000 </v>
   <v>       0.83333300       0.16666600       0.33720000 </v>
   <v>       0.66666600       0.83333300       0.33720000 </v>
   <v>       0.83333300       0.66666600       0.33720000 </v>
  </varray>
 </structure>
 <calculation>
  <scstep>
   <time name="dav">   16.59   16.60</time>
   <time name="total">   16.73   16.74</time>
   <energy>
    <i name="alphaZ">     58.23494169 </i>
    <i name="ewald">   4679.75981970 </i>
    <i name="hartreedc">  -6236.55206995 </i>
    <i name="XCdc">    175.03037149 </i>
    <i name="pawpsdc">   1365.87943566 </i>
    <i name="pawaedc">  -1368.52100941 </i>
    <i name="eentropy">     -0.01671192 </i>
    <i name="bandstr">   -286.33468669 </i>
    <i name="atom">   1903.26342058 </i>
    <i name="e_fr_energy">    290.74351114 </i>
    <i name="e_wo_entrp">    290.76022306 </i>
    <i name="e_0_energy">    290.75186710 </i>
   </energy>
  </scstep>
  <scstep>
   <time name="dav">   21.62   21.63</time>
   <time name="total">   21.62   21.63</time>
   <energy>
    <i name="e_fr_energy">    -98.26516643 </i>
    <i name="e_wo_entrp">    -98.26351455 </i>
    <i name="e_0_energy">    -98.26434049 </i>
   </energy>
  </scstep>
  <scstep>
   <time name="dav">   20.64   20.65</time>
   <time name="total">   20.64   20.65</time>
   <energy>
    <i name="e_fr_energy">   -128.61728474 </i>
    <i name="e_wo_entrp">   -128.61431857 </i>
    <i name="e_0_energy">   -128.61580166 </i>
   </energy>
  </scstep>
  <scstep>
   <time name="dav">   21.03   21.04</time>
   <time name="total">   21.03   21.04</time>
   <energy>
    <i name="e_fr_energy">   -129.32746459 </i>
    <i name="e_wo_entrp">   -129.32434046 </i>
    <i name="e_0_energy">   -129.32590252 </i>
   </energy>
  </scstep>
  <scstep>
   <time name="dav">   22.91   22.92</time>
   <time name="total">   23.79   23.79</time>
   <energy>
    <i name="e_fr_energy">   -129.34884430 </i>
    <i name="e_wo_entrp">   -129.34571659 </i>
    <i name="e_0_energy">   -129.34728044 </i>
   </energy>
  </scstep>
  <scstep>
   <time name="dav">   20.01   20.02</time>
   <time name="total">   21.01   21.02</time>
   <energy>
    <i name="e_fr_energy">    -91.60630883 </i>
    <i name="e_wo_entrp">    -91.59937063 </i>
    <i name="e_0_energy">    -91.60283973 </i>
   </energy>
  </scstep>
  <scstep>
   <time name="dav">   19.82   19.82</time>
   <time name="total">   20.82   20.83</time>
   <energy>
    <i name="e_fr_energy">   -101.38945970 </i>
    <i name="e_wo_entrp">   -101.38322451 </i>
    <i name="e_0_energy">   -101.38634210 </i>
   </energy>
  </scstep>
  <scstep>
   <time name="dav">   19.47   19.47</time>
   <time name="total">   20.47   20.47</time>
   <energy>
    <i name="e_fr_energy">   -111.01047728 </i>
    <i name="e_wo_entrp">   -111.01043231 </i>
    <i name="e_0_energy">   -111.01045479 </i>
   </energy>
  </scstep>
  <scstep>
   <time name="dav">   18.52   18.52</time>
   <time name="total">   19.52   19.52</time>
   <energy>
    <i name="e_fr_energy">   -117.93840712 </i>
    <i name="e_wo_entrp">   -117.93839542 </i>
    <i name="e_0_energy">   -117.93840127 </i>
   </energy>
  </scstep>
  <scstep>
   <time name="dav">   19.75   19.76</time>
   <time name="total">   20.75   20.76</time>
   <energy>
    <i name="e_fr_energy">   -123.55163095 </i>
    <i name="e_wo_entrp">   -123.55104983 </i>
    <i name="e_0_energy">   -123.55134039 </i>
   </energy>
  </scstep>
  <scstep>
   <time name="dav">   20.43   20.43</time>
   <time name="total">   21.44   21.44</time>
   <energy>
    <i name="e_fr_energy">   -125.33526802 </i>
    <i name="e_wo_entrp">   -125.33405214 </i>
    <i name="e_0_energy">   -125.33466008 </i>
   </energy>
  </scstep>
  <scstep>
   <time name="dav">   19.81   19.83</time>
   <time name="total">   20.82   20.84</time>
   <energy>
    <i name="e_fr_energy">   -125.42567267 </i>
    <i name="e_wo_entrp">   -125.42419788 </i>
    <i name="e_0_energy">   -125.42493527 </i>
   </energy>
  </scstep>
  <scstep>
   <time name="dav">   18.21   18.21</time>
   <time name="total">   19.22   19.22</time>
   <energy>
    <i name="e_fr_energy">   -125.45131925 </i>
    <i name="e_wo_entrp">   -125.44976026 </i>
    <i name="e_0_energy">   -125.45053976 </i>
   </energy>
  </scstep>
  <scstep>
   <time name="dav">   18.31   18.31</time>
   <time name="total">   19.32   19.32</time>
   <energy>
    <i name="e_fr_energy">   -125.47463631 </i>
    <i name="e_wo_entrp">   -125.47307000 </i>
    <i name="e_0_energy">   -125.47385315 </i>
   </energy>
  </scstep>
  <scstep>
   <time name="dav">   18.79   18.79</time>
   <time name="total">   19.79   19.80</time>
   <energy>
    <i name="e_fr_energy">   -125.48309600 </i>
    <i name="e_wo_entrp">   -125.48152885 </i>
    <i name="e_0_energy">   -125.48231243 </i>
   </energy>
  </scstep>
  <scstep>
   <time name="dav">   17.10   17.10</time>
   <time name="total">   18.11   18.11</time>
   <energy>
    <i name="e_fr_energy">   -125.48504624 </i>
    <i name="e_wo_entrp">   -125.48347904 </i>
    <i name="e_0_energy">   -125.48426264 </i>
   </energy>
  </scstep>
  <scstep>
   <time name="dav">   16.73   16.73</time>
   <time name="total">   17.74   17.74</time>
   <energy>
    <i name="e_fr_energy">   -125.48631313 </i>
    <i name="e_wo_entrp">   -125.48474596 </i>
    <i name="e_0_energy">   -125.48552955 </i>
   </energy>
  </scstep>
  <scstep>
   <time name="dav">   17.07   17.07</time>
   <time name="total">   18.08   18.08</time>
   <energy>
    <i name="e_fr_energy">   -125.48695417 </i>
    <i name="e_wo_entrp">   -125.48538702 </i>
    <i name="e_0_energy">   -125.48617059 </i>
   </energy>
  </scstep>
  <scstep>
   <time name="dav">   18.47   18.48</time>
   <time name="total">   19.48   19.48</time>
   <energy>
    <i name="e_fr_energy">   -125.48749420 </i>
    <i name="e_wo_entrp">   -125.48592702 </i>
    <i name="e_0_energy">   -125.48671061 </i>
   </energy>
  </scstep>
  <scstep>
   <time name="dav">   19.48   19.48</time>
   <time name="total">   20.48   20.49</time>
   <energy>
    <i name="e_fr_energy">   -125.48757183 </i>
    <i name="e_wo_entrp">   -125.48600464 </i>
    <i name="e_0_energy">   -125.48678824 </i>
   </energy>
  </scstep>
  <scstep>
   <time name="dav">   20.02   20.02</time>
   <time name="total">   21.03   21.03</time>
   <energy>
    <i name="e_fr_energy">   -125.48760493 </i>
    <i name="e_wo_entrp">   -125.48603774 </i>
    <i name="e_0_energy">   -125.48682134 </i>
   </energy>
  </scstep>
  <scstep>
   <time name="dav">   20.05   20.07</time>
   <time name="total">   21.06   21.08</time>
   <energy>
    <i name="e_fr_energy">   -125.48762040 </i>
    <i name="e_wo_entrp">   -125.48605321 </i>
    <i name="e_0_energy">   -125.48683681 </i>
   </energy>
  </scstep>
  <scstep>
   <time name="dav">   19.27   19.27</time>
   <time name="total">   20.29   20.29</time>
   <energy>
    <i name="e_fr_energy">   -125.48764006 </i>
    <i name="e_wo_entrp">   -125.48607286 </i>
    <i name="e_0_energy">   -125.48685646 </i>
   </energy>
  </scstep>
  <scstep>
   <time name="dav">   19.07   19.08</time>
   <time name="total">   20.09   20.09</time>
   <energy>
    <i name="e_fr_energy">   -125.48764501 </i>
    <i name="e_wo_entrp">   -125.48607781 </i>
    <i name="e_0_energy">   -125.48686141 </i>
   </energy>
  </scstep>
  <scstep>
   <time name="dav">   19.13   19.14</time>
   <time name="total">   20.15   20.15</time>
   <energy>
    <i name="e_fr_energy">   -125.48764602 </i>
    <i name="e_wo_entrp">   -125.48607883 </i>
    <i name="e_0_energy">   -125.48686243 </i>
   </energy>
  </scstep>
  <scstep>
   <time name="dav">   18.16   18.17</time>
   <time name="total">   18.29   18.30</time>
   <energy>
    <i name="alphaZ">     58.23494169 </i>
    <i name="ewald">   4679.75981970 </i>
    <i name="hartreedc">  -6437.71237232 </i>
    <i name="XCdc">    180.40247861 </i>
    <i name="pawpsdc">   5720.38921626 </i>
    <i name="pawaedc">  -5724.79406184 </i>
    <i name="eentropy">     -0.00156719 </i>
    <i name="bandstr">   -505.02952199 </i>
    <i name="atom">   1903.26342058 </i>
    <i name="e_fr_energy">   -125.48764652 </i>
    <i name="e_wo_entrp">   -125.48607933 </i>
    <i name="e_0_energy">   -125.48686292 </i>
   </energy>
  </scstep>
  <structure>
   <crystal>
    <varray name="basis" >
     <v>       4.19935718       2.42450000       0.00000000 </v>
     <v>      -4.19935718       2.42450000       0.00000000 </v>
     <v>       0.00000000       0.00000000      15.00000000 </v>
    </varray>
    <i name="volume">    305.44024470 </i>
    <varray name="rec_basis" >
     <v>       0.11906584       0.20622809       0.00000000 </v>
     <v>      -0.11906584       0.20622809       0.00000000 </v>
     <v>       0.00000000       0.00000000       0.06666667 </v>
    </varray>
   </crystal>
   <varray name="positions" >
    <v>       0.00415361       0.00267210       0.12034134 </v>
    <v>       0.35695335       0.00285503       0.09748893 </v>
    <v>       0.00423858       0.35550699       0.09749256 </v>
    <v>       0.65142295       0.65006557       0.09747688 </v>
    <v>       0.32808646       0.32671938       0.10030508 </v>
    <v>       0.68027775       0.00278085       0.10027562 </v>
    <v>       0.00416530       0.67883808       0.10026559 </v>
    <v>       0.16666600       0.33333300       0.33720000 </v>
    <v>       0.33333300       0.16666600       0.33720000 </v>
    <v>       0.16666600       0.83333300       0.33720000 </v>
    <v>       0.33333300       0.66666600       0.33720000 </v>
    <v>       0.66666600       0.33333300       0.33720000 </v>
    <v>       0.83333300       0.16666600       0.33720000 </v>
    <v>       0.66666600       0.83333300       0.33720000 </v>
    <v>       0.83333300       0.66666600       0.33720000 </v>
   </varray>
  </structure>
  <varray name="forces" >
   <v>      -0.00407594       0.00545812      -0.43043846 </v>
   <v>      -0.08975154      -0.05699033       0.11384950 </v>
   <v>       0.08936326      -0.05591844       0.11361253 </v>
   <v>       0.00271689       0.10435970       0.11622191 </v>
   <v>       0.00309391      -0.34655278       0.00517338 </v>
   <v>       0.29851240       0.17444735       0.00847237 </v>
   <v>      -0.29939527       0.17659833       0.00962939 </v>
   <v>      -0.01425771       0.00082776       0.01916304 </v>
   <v>       0.01405833       0.00098607       0.01948841 </v>
   <v>       0.00830624       0.01088210       0.02002118 </v>
   <v>      -0.00037285       0.00040792      -0.02672636 </v>
   <v>       0.00060563       0.00018666      -0.02673138 </v>
   <v>      -0.00833155       0.01062783       0.01998222 </v>
   <v>       0.00571036      -0.01256210       0.01928586 </v>
   <v>      -0.00618215      -0.01275821       0.01899640 </v>
  </varray>
  <varray name="stress" >
   <v>      -9.84017635       0.00990990      -0.01556159 </v>
   <v>       0.00990992      -9.83158968      -0.01595548 </v>
   <v>      -0.01556158      -0.01595547      -1.69474271 </v>
  </varray>
  <energy>
   <i name="e_fr_energy">   -127.07484083 </i>
   <i name="e_wo_entrp">   -127.07405723 </i>
   <i name="e_0_energy">     -0.00156719 </i>
  </energy>
  <time name="totalsc">  534.77  534.93</time>
 </calculation>
 <calculation>
  <scstep>
   <time name="dav">   16.57   16.59</time>
   <time name="total">   17.59   17.61</time>
   <energy>
    <i name="alphaZ">     58.23494169 </i>
    <i name="ewald">   4682.73379953 </i>
    <i name="hartreedc">  -6439.28840919 </i>
    <i name="XCdc">    180.48359431 </i>
    <i name="pawpsdc">   5720.39673932 </i>
    <i name="pawaedc">  -5724.80158838 </i>
    <i name="eentropy">     -0.00156719 </i>
    <i name="bandstr">   -506.51721894 </i>
    <i name="atom">   1903.26342058 </i>
    <i name="e_fr_energy">   -125.49628827 </i>
    <i name="e_wo_entrp">   -125.49472108 </i>
    <i name="e_0_energy">   -125.49550467 </i>
   </energy>
  </scstep>
  <scstep>
   <time name="dav">   20.73   20.74</time>
   <time name="total">   21.75   21.75</time>
   <energy>
    <i name="e_fr_energy">   -125.49087049 </i>
    <i name="e_wo_entrp">   -125.48930329 </i>
    <i name="e_0_energy">   -125.49008689 </i>
   </energy>
  </scstep>
  <scstep>
   <time name="dav">   19.90   19.90</time>
   <time name="total">   20.91   20.91</time>
   <energy>
    <i name="e_fr_energy">   -125.48986082 </i>
    <i name="e_wo_entrp">   -125.48829362 </i>
    <i name="e_0_energy">   -125.48907722 </i>
   </energy>
  </scstep>
  <scstep>
   <time name="dav">   20.25   20.25</time>
   <time name="total">   21.26   21.27</time>
   <energy>
    <i name="e_fr_energy">   -125.48981882 </i>
    <i name="e_wo_entrp">   -125.48825163 </i>
    <i name="e_0_energy">   -125.48903523 </i>
   </energy>
  </scstep>
  <scstep>
   <time name="dav">   21.00   21.00</time>
   <time name="total">   22.02   22.02</time>
   <energy>
    <i name="e_fr_energy">   -125.48982012 </i>
    <i name="e_wo_entrp">   -125.48825293 </i>
    <i name="e_0_energy">   -125.48903653 </i>
   </energy>
  </scstep>
  <scstep>
   <time name="dav">   20.09   20.09</time>
   <time name="total">   21.10   21.10</time>
   <energy>
    <i name="e_fr_energy">   -125.48981939 </i>
    <i name="e_wo_entrp">   -125.48825220 </i>
    <i name="e_0_energy">   -125.48903579 </i>
   </energy>
  </scstep>
  <scstep>
   <time name="dav">   20.87   20.87</time>
   <time name="total">   21.00   21.00</time>
   <energy>
    <i name="alphaZ">     58.23494169 </i>
    <i name="ewald">   4682.73379953 </i>
    <i name="hartreedc">  -6440.00512905 </i>
    <i name="XCdc">    180.49955487 </i>
    <i name="pawpsdc">   5746.88851362 </i>
    <i name="pawaedc">  -5751.30197409 </i>
    <i name="eentropy">     -0.00156719 </i>
    <i name="bandstr">   -505.80137997 </i>
    <i name="atom">   1903.26342058 </i>
    <i name="e_fr_energy">   -125.48982002 </i>
    <i name="e_wo_entrp">   -125.48825283 </i>
    <i name="e_0_energy">   -125.48903643 </i>
   </energy>
  </scstep>
  <structure>
   <crystal>
    <varray name="basis" >
     <v>       4.19935718       2.42450000       0.00000000 </v>
     <v>      -4.19935718       2.42450000       0.00000000 </v>
     <v>       0.00000000       0.00000000      15.00000000 </v>
    </varray>
    <i name="volume">    305.44024470 </i>
    <varray name="rec_basis" >
     <v>       0.11906584       0.20622809       0.00000000 </v>
     <v>      -0.11906584       0.20622809       0.00000000 </v>
     <v>       0.00000000       0.00000000       0.06666667 </v>
    </varray>
   </crystal>
   <varray name="positions" >
    <v>       0.00418450       0.00274982       0.11895697 </v>
    <v>       0.35587082       0.00280357       0.09785509 </v>
    <v>       0.00419555       0.35443735       0.09785796 </v>
    <v>       0.65247683       0.65108824       0.09785067 </v>
    <v>       0.32465638       0.32325375       0.10032172 </v>
    <v>       0.68372799       0.00280176       0.10030287 </v>
    <v>       0.00420253       0.68231480       0.10029656 </v>
    <v>       0.16659234       0.33342313       0.33726163 </v>
    <v>       0.33342356       0.16659506       0.33726268 </v>
    <v>       0.16682198       0.83339355       0.33726439 </v>
    <v>       0.33333492       0.66667220       0.33711404 </v>
    <v>       0.66667134       0.33333138       0.33711403 </v>
    <v>       0.83339088       0.16681959       0.33726427 </v>
    <v>       0.66657382       0.83317522       0.33726203 </v>
    <v>       0.83317056       0.66657458       0.33726110 </v>
   </varray>
  </structure>
  <varray name="forces" >
   <v>      -0.00153814      -0.00056930      -0.20422802 </v>
   <v>       0.23815174       0.13609420       0.06600400 </v>
   <v>      -0.23929071       0.13792051       0.06583443 </v>
   <v>       0.00126611      -0.26925579       0.06765127 </v>
   <v>       0.00042018       0.55838283      -0.02105006 </v>
   <v>      -0.48174783      -0.28049804      -0.01873411 </v>
   <v>       0.48321802      -0.28069290      -0.01830355 </v>
   <v>       0.05371542      -0.00258247       0.01023790 </v>
   <v>      -0.05359898      -0.00307610       0.01032465 </v>
   <v>      -0.03070210      -0.04335569       0.01041450 </v>
   <v>       0.00123640      -0.00208769       0.00058100 </v>
   <v>      -0.00249204      -0.00134155       0.00058405 </v>
   <v>       0.03028868      -0.04244863       0.01037199 </v>
   <v>      -0.02353690       0.04642888       0.01017817 </v>
   <v>       0.02461014       0.04708176       0.01013379 </v>
  </varray>
  <varray name="stress" >
   <v>      -7.21415445       0.00161839      -0.01119829 </v>
   <v>       0.00161838      -7.23123423      -0.02536425 </v>
   <v>      -0.01119830      -0.02536425      -1.28960586 </v>
  </varray>
  <energy>
   <i name="e_fr_energy">   -127.07630178 </i>
   <i name="e_wo_entrp">   -127.07551819 </i>
   <i name="e_0_energy">     -0.00156719 </i>
  </energy>
  <time name="totalsc">  158.64  158.70</time>
 </calculation>
 <calculation>
  <scstep>
   <time name="dav">   16.52   16.52</time>
   <time name="total">   17.53   17.53</time>
   <energy>
    <i name="alphaZ">     58.23494169 </i>
    <i name="ewald">   4681.28766540 </i>
    <i name="hartreedc">  -6439.23099808 </i>
    <i name="XCdc">    180.46009968 </i>
    <i name="pawpsdc">   5746.90900076 </i>
    <i name="pawaedc">  -5751.32246895 </i>
    <i name="eentropy">     -0.00156719 </i>
    <i name="bandstr">   -505.09748517 </i>
    <i name="atom">   1903.26342058 </i>
    <i name="e_fr_energy">   -125.49739129 </i>
    <i name="e_wo_entrp">   -125.49582409 </i>
    <i name="e_0_energy">   -125.49660769 </i>
   </energy>
  </scstep>
  <scstep>
   <time name="dav">   20.72   20.73</time>
   <time name="total">   21.73   21.74</time>
   <energy>
    <i name="e_fr_energy">   -125.49613927 </i>
    <i name="e_wo_entrp">   -125.49457208 </i>
    <i name="e_0_energy">   -125.49535568 </i>
   </energy>
  </scstep>
  <scstep>
   <time name="dav">   19.93   19.93</time>
   <time name="total">   20.94   20.94</time>
   <energy>
    <i name="e_fr_energy">   -125.49591616 </i>
    <i name="e_wo_entrp">   -125.49434897 </i>
    <i name="e_0_energy">   -125.49513257 </i>
   </energy>
  </scstep>
  <scstep>
   <time name="dav">   19.86   19.88</time>
   <time name="total">   20.87   20.89</time>
   <energy>
    <i name="e_fr_energy">   -125.49590904 </i>
    <i name="e_wo_entrp">   -125.49434185 </i>
    <i name="e_0_energy">   -125.49512545 </i>
   </energy>
  </scstep>
  <scstep>
   <time name="dav">   19.31   19.34</time>
   <time name="total">   20.32   20.34</time>
   <energy>
    <i name="e_fr_energy">   -125.49590952 </i>
    <i name="e_wo_entrp">   -125.49434233 </i>
    <i name="e_0_energy">   -125.49512593 </i>
   </energy>
  </scstep>
  <scstep>
   <time name="dav">   20.51   20.53</time>
   <time name="total">   20.64   20.66</time>
   <energy>
    <i name="alphaZ">     58.23494169 </i>
    <i name="ewald">   4681.28766540 </i>
    <i name="hartreedc">  -6438.91059947 </i>
    <i name="XCdc">    180.45259216 </i>
    <i name="pawpsdc">   5733.91907665 </i>
    <i name="pawaedc">  -5738.32817782 </i>
    <i name="eentropy">     -0.00156719 </i>
    <i name="bandstr">   -505.41326109 </i>
    <i name="atom">   1903.26342058 </i>
    <i name="e_fr_energy">   -125.49590911 </i>
    <i name="e_wo_entrp">   -125.49434191 </i>
    <i name="e_0_energy">   -125.49512551 </i>
   </energy>
  </scstep>
  <structure>
   <crystal>
    <varray name="basis" >
     <v>       4.19935718       2.42450000       0.00000000 </v>
     <v>      -4.19935718       2.42450000       0.00000000 </v>
     <v>       0.00000000       0.00000000      15.00000000 </v>
    </varray>
    <i name="volume">    305.44024470 </i>
    <varray name="rec_basis" >
     <v>       0.11906584       0.20622809       0.00000000 </v>
     <v>      -0.11906584       0.20622809       0.00000000 </v>
     <v>       0.00000000       0.00000000       0.06666667 </v>
    </varray>
   </crystal>
   <varray name="positions" >
    <v>       0.00416982       0.00271290       0.11961467 </v>
    <v>       0.35638512       0.00282802       0.09768114 </v>
    <v>       0.00421599       0.35494552       0.09768437 </v>
    <v>       0.65197615       0.65060238       0.09767309 </v>
    <v>       0.32628597       0.32490023       0.10031381 </v>
    <v>       0.68208883       0.00279183       0.10028992 </v>
    <v>       0.00418484       0.68066305       0.10028184 </v>
    <v>       0.16662733       0.33338031       0.33723235 </v>
    <v>       0.33338054       0.16662876       0.33723290 </v>
    <v>       0.16674787       0.83336479       0.33723380 </v>
    <v>       0.33333401       0.66666925       0.33715488 </v>
    <v>       0.66666880       0.33333215       0.33715487 </v>
    <v>       0.83336338       0.16674662       0.33723373 </v>
    <v>       0.66661761       0.83325018       0.33723256 </v>
    <v>       0.83324773       0.66661801       0.33723207 </v>
   </varray>
  </structure>
  <varray name="forces" >
   <v>      -0.00283525       0.00246555      -0.31019721 </v>
   <v>       0.08631703       0.04656376       0.08855633 </v>
   <v>      -0.08714423       0.04804304       0.08835438 </v>
   <v>       0.00197183      -0.09632658       0.09055573 </v>
   <v>       0.00172443       0.12792925      -0.00874732 </v>
   <v>      -0.11075811      -0.06406595      -0.00600009 </v>
   <v>       0.11119596      -0.06320112      -0.00524661 </v>
   <v>       0.02146187      -0.00099527       0.01442590 </v>
   <v>      -0.02149494      -0.00117944       0.01462599 </v>
   <v>      -0.01221256      -0.01760649       0.01492534 </v>
   <v>       0.00047023      -0.00090314      -0.01243861 </v>
   <v>      -0.00101810      -0.00061736      -0.01243942 </v>
   <v>       0.01198198      -0.01724979       0.01488421 </v>
   <v>      -0.00963400       0.01844569       0.01445105 </v>
   <v>       0.00997384       0.01869785       0.01429033 </v>
  </varray>
  <varray name="stress" >
   <v>      -8.58550720       0.00546338      -0.01336055 </v>
   <v>       0.00546338      -8.59191960      -0.02053437 </v>
   <v>      -0.01336058      -0.02053438      -1.47967021 </v>
  </varray>
  <energy>
   <i name="e_fr_energy">   -127.08272474 </i>
   <i name="e_wo_entrp">   -127.08194115 </i>
   <i name="e_0_energy">     -0.00156719 </i>
  </energy>
  <time name="totalsc">  135.03  135.12</time>
 </calculation>
 <calculation>
  <scstep>
   <time name="dav">   16.52   16.55</time>
   <time name="total">   17.53   17.56</time>
   <energy>
    <i name="alphaZ">     58.23494169 </i>
    <i name="ewald">   4680.76838989 </i>
    <i name="hartreedc">  -6438.11343523 </i>
    <i name="XCdc">    180.47246318 </i>
    <i name="pawpsdc">   5733.81342335 </i>
    <i name="pawaedc">  -5738.22252857 </i>
    <i name="eentropy">     -0.00156719 </i>
    <i name="bandstr">   -505.71892471 </i>
    <i name="atom">   1903.26342058 </i>
    <i name="e_fr_energy">   -125.50381702 </i>
    <i name="e_wo_entrp">   -125.50224983 </i>
    <i name="e_0_energy">   -125.50303343 </i>
   </energy>
  </scstep>
  <scstep>
   <time name="dav">   20.85   20.87</time>
   <time name="total">   21.86   21.88</time>
   <energy>
    <i name="e_fr_energy">   -125.50403787 </i>
    <i name="e_wo_entrp">   -125.50247068 </i>
    <i name="e_0_energy">   -125.50325428 </i>
   </energy>
  </scstep>
  <scstep>
   <time name="dav">   19.53   19.55</time>
   <time name="total">   20.54   20.56</time>
   <energy>
    <i name="e_fr_energy">   -125.50403441 </i>
    <i name="e_wo_entrp">   -125.50246722 </i>
    <i name="e_0_energy">   -125.50325082 </i>
   </energy>
  </scstep>
  <scstep>
   <time name="dav">   22.17   22.20</time>
   <time name="total">   23.18   23.21</time>
   <energy>
    <i name="e_fr_energy">   -125.50403602 </i>
    <i name="e_wo_entrp">   -125.50246883 </i>
    <i name="e_0_energy">   -125.50325242 </i>
   </energy>
  </scstep>
  <scstep>
   <time name="dav">   20.64   20.65</time>
   <time name="total">   20.77   20.78</time>
   <energy>
    <i name="alphaZ">     58.23494169 </i>
    <i name="ewald">   4680.76838989 </i>
    <i name="hartreedc">  -6438.09646459 </i>
    <i name="XCdc">    180.47121821 </i>
    <i name="pawpsdc">   5739.60378083 </i>
    <i name="pawaedc">  -5744.01489613 </i>
    <i name="eentropy">     -0.00156719 </i>
    <i name="bandstr">   -505.73285982 </i>
    <i name="atom">   1903.26342058 </i>
    <i name="e_fr_energy">   -125.50403654 </i>
    <i name="e_wo_entrp">   -125.50246935 </i>
    <i name="e_0_energy">   -125.50325295 </i>
   </energy>
  </scstep>
  <structure>
   <crystal>
    <varray name="basis" >
     <v>       4.19935718       2.42450000       0.00000000 </v>
     <v>      -4.19935718       2.42450000       0.00000000 </v>
     <v>       0.00000000       0.00000000      15.00000000 </v>
    </varray>
    <i name="volume">    305.44024470 </i>
    <varray name="rec_basis" >
     <v>       0.11906584       0.20622809       0.00000000 </v>
     <v>      -0.11906584       0.20622809       0.00000000 </v>
     <v>       0.00000000       0.00000000       0.06666667 </v>
    </varray>
   </crystal>
   <varray name="positions" >
    <v>       0.00418633       0.00277259       0.11830651 </v>
    <v>       0.35693612       0.00278350       0.09804609 </v>
    <v>       0.00418296       0.35551792       0.09804851 </v>
    <v>       0.65142765       0.65002425       0.09804609 </v>
    <v>       0.32644253       0.32502845       0.10029322 </v>
    <v>       0.68194639       0.00279687       0.10028044 </v>
    <v>       0.00420473       0.68053387       0.10027564 </v>
    <v>       0.16670837       0.33328617       0.33729238 </v>
    <v>       0.33328470       0.16670911       0.33729382 </v>
    <v>       0.16657153       0.83328748       0.33729609 </v>
    <v>       0.33332888       0.66666049       0.33709351 </v>
    <v>       0.66665951       0.33333141       0.33709350 </v>
    <v>       0.83328730       0.16657399       0.33729587 </v>
    <v>       0.66670662       0.83342014       0.33729278 </v>
    <v>       0.83342037       0.66670775       0.33729155 </v>
   </varray>
  </structure>
  <varray name="forces" >
   <v>      -0.00000597      -0.00039532      -0.27915448 </v>
   <v>       0.05221858       0.03021731       0.05134271 </v>
   <v>      -0.05220233       0.03131348       0.05127412 </v>
   <v>       0.00063570      -0.05829652       0.05219773 </v>
   <v>      -0.00037523       0.11603043       0.02079835 </v>
   <v>      -0.09876072      -0.05885263       0.02246553 </v>
   <v>       0.09892336      -0.05870403       0.02279768 </v>
   <v>      -0.05044134      -0.00232105       0.00637645 </v>
   <v>       0.05026713      -0.00208037       0.00638117 </v>
   <v>       0.02522222       0.04362635       0.00633328 </v>
   <v>      -0.00158309       0.00113823       0.01013698 </v>
   <v>       0.00221363       0.00057916       0.01014131 </v>
   <v>      -0.02516426       0.04284555       0.00630217 </v>
   <v>       0.02659995      -0.04231884       0.00628951 </v>
   <v>      -0.02754763      -0.04278176       0.00631749 </v>
  </varray>
  <varray name="stress" >
   <v>      -8.14794309       0.00172063      -0.00832859 </v>
   <v>       0.00172064      -8.14370327      -0.02444530 </v>
   <v>      -0.00832855      -0.02444529      -1.47748628 </v>
  </varray>
  <energy>
   <i name="e_fr_energy">   -127.09056312 </i>
   <i name="e_wo_entrp">   -127.08977952 </i>
   <i name="e_0_energy">     -0.00156719 </i>
  </energy>
  <time name="totalsc">  116.89  117.02</time>
 </calculation>
 <calculation>
  <scstep>
   <time name="dav">   16.49   16.51</time>
   <time name="total">   17.50   17.51</time>
   <energy>
    <i name="alphaZ">     58.23494169 </i>
    <i name="ewald">   4678.55840263 </i>
    <i name="hartreedc">  -6435.20899799 </i>
    <i name="XCdc">    180.52041604 </i>
    <i name="pawpsdc">   5739.63028817 </i>
    <i name="pawaedc">  -5744.04142062 </i>
    <i name="eentropy">     -0.00156714 </i>
    <i name="bandstr">   -506.47044843 </i>
    <i name="atom">   1903.26342058 </i>
    <i name="e_fr_energy">   -125.51496506 </i>
    <i name="e_wo_entrp">   -125.51339792 </i>
    <i name="e_0_energy">   -125.51418149 </i>
   </energy>
  </scstep>
  <scstep>
   <time name="dav">   21.38   21.41</time>
   <time name="total">   22.38   22.42</time>
   <energy>
    <i name="e_fr_energy">   -125.51719898 </i>
    <i name="e_wo_entrp">   -125.51563183 </i>
    <i name="e_0_energy">   -125.51641541 </i>
   </energy>
  </scstep>
  <scstep>
   <time name="dav">   19.78   19.79</time>
   <time name="total">   20.79   20.80</time>
   <energy>
    <i name="e_fr_energy">   -125.51715382 </i>
    <i name="e_wo_entrp">   -125.51558668 </i>
    <i name="e_0_energy">   -125.51637025 </i>
   </energy>
  </scstep>
  <scstep>
   <time name="dav">   22.10   22.12</time>
   <time name="total">   23.11   23.13</time>
   <energy>
    <i name="e_fr_energy">   -125.51717246 </i>
    <i name="e_wo_entrp">   -125.51560531 </i>
    <i name="e_0_energy">   -125.51638888 </i>
   </energy>
  </scstep>
  <scstep>
   <time name="dav">   21.95   21.96</time>
   <time name="total">   22.95   22.97</time>
   <energy>
    <i name="e_fr_energy">   -125.51717753 </i>
    <i name="e_wo_entrp">   -125.51561038 </i>
    <i name="e_0_energy">   -125.51639395 </i>
   </energy>
  </scstep>
  <scstep>
   <time name="dav">   21.94   21.96</time>
   <time name="total">   22.07   22.09</time>
   <energy>
    <i name="alphaZ">     58.23494169 </i>
    <i name="ewald">   4678.55840263 </i>
    <i name="hartreedc">  -6435.15422865 </i>
    <i name="XCdc">    180.51672389 </i>
    <i name="pawpsdc">   5754.00004541 </i>
    <i name="pawaedc">  -5758.41632870 </i>
    <i name="eentropy">     -0.00156715 </i>
    <i name="bandstr">   -506.51858752 </i>
    <i name="atom">   1903.26342058 </i>
    <i name="e_fr_energy">   -125.51717782 </i>
    <i name="e_wo_entrp">   -125.51561067 </i>
    <i name="e_0_energy">   -125.51639424 </i>
   </energy>
  </scstep>
  <structure>
   <crystal>
    <varray name="basis" >
     <v>       4.19935718       2.42450000       0.00000000 </v>
     <v>      -4.19935718       2.42450000       0.00000000 </v>
     <v>       0.00000000       0.00000000      15.00000000 </v>
    </varray>
    <i name="volume">    305.44024470 </i>
    <varray name="rec_basis" >
     <v>       0.11906584       0.20622809       0.00000000 </v>
     <v>      -0.11906584       0.20622809       0.00000000 </v>
     <v>       0.00000000       0.00000000       0.06666667 </v>
    </varray>
   </crystal>
   <varray name="positions" >
    <v>       0.00423584       0.00295166       0.11438202 </v>
    <v>       0.35858914       0.00264994       0.09914095 </v>
    <v>       0.00408386       0.35723512       0.09914093 </v>
    <v>       0.64978217       0.64828985       0.09916511 </v>
    <v>       0.32691221       0.32541313       0.10023146 </v>
    <v>       0.68151908       0.00281199       0.10025198 </v>
    <v>       0.00426439       0.68014634       0.10025703 </v>
    <v>       0.16695148       0.33300376       0.33747248 </v>
    <v>       0.33299717       0.16695015       0.33747658 </v>
    <v>       0.16604251       0.83305555       0.33748297 </v>
    <v>       0.33331350       0.66663421       0.33690940 </v>
    <v>       0.66663165       0.33332919       0.33690937 </v>
    <v>       0.83305906       0.16605611       0.33748228 </v>
    <v>       0.66697366       0.83393004       0.33747344 </v>
    <v>       0.83393828       0.66697696       0.33746999 </v>
   </varray>
  </structure>
  <varray name="forces" >
   <v>       0.00897731      -0.00975468      -0.22027075 </v>
   <v>      -0.07144589      -0.03171629      -0.04917315 </v>
   <v>       0.07324438      -0.03162718      -0.04880284 </v>
   <v>      -0.00318269       0.08028047      -0.05162385 </v>
   <v>      -0.00609060       0.06181143       0.10940897 </v>
   <v>      -0.04576114      -0.03317722       0.10798883 </v>
   <v>       0.04462235      -0.03471995       0.10722645 </v>
   <v>      -0.26878788      -0.00407245      -0.01776250 </v>
   <v>       0.26817482      -0.00253973      -0.01833441 </v>
   <v>       0.14068469       0.22836618      -0.01943798 </v>
   <v>      -0.00772575       0.00725730       0.07798374 </v>
   <v>       0.01188129       0.00414612       0.07800310 </v>
   <v>      -0.13969771       0.22406522      -0.01944784 </v>
   <v>       0.13449729      -0.22779940      -0.01817557 </v>
   <v>      -0.13939048      -0.23051981      -0.01758219 </v>
  </varray>
  <varray name="stress" >
   <v>      -6.95645295      -0.00707008       0.00317828 </v>
   <v>      -0.00707006      -6.93494236      -0.03147717 </v>
   <v>       0.00317828      -0.03147722      -1.55064937 </v>
  </varray>
  <energy>
   <i name="e_fr_energy">   -127.10284954 </i>
   <i name="e_wo_entrp">   -127.10206597 </i>
   <i name="e_0_energy">     -0.00156715 </i>
  </energy>
  <time name="totalsc">  141.80  141.94</time>
 </calculation>
 <calculation>
  <scstep>
   <time name="dav">   16.59   16.62</time>
   <time name="total">   17.60   17.62</time>
   <energy>
    <i name="alphaZ">     58.23494169 </i>
    <i name="ewald">   4678.24864874 </i>
    <i name="hartreedc">  -6434.74653626 </i>
    <i name="XCdc">    180.52285470 </i>
    <i name="pawpsdc">   5753.97271618 </i>
    <i name="pawaedc">  -5758.38899807 </i>
    <i name="eentropy">     -0.00156719 </i>
    <i name="bandstr">   -506.62650153 </i>
    <i name="atom">   1903.26342058 </i>
    <i name="e_fr_energy">   -125.52102116 </i>
    <i name="e_wo_entrp">   -125.51945397 </i>
    <i name="e_0_energy">   -125.52023757 </i>
   </energy>
  </scstep>
  <scstep>
   <time name="dav">   21.15   21.17</time>
   <time name="total">   22.16   22.18</time>
   <energy>
    <i name="e_fr_energy">   -125.52106568 </i>
    <i name="e_wo_entrp">   -125.51949849 </i>
    <i name="e_0_energy">   -125.52028209 </i>
   </energy>
  </scstep>
  <scstep>
   <time name="dav">   19.79   19.81</time>
   <time name="total">   20.79   20.82</time>
   <energy>
    <i name="e_fr_energy">   -125.52103208 </i>
    <i name="e_wo_entrp">   -125.51946489 </i>
    <i name="e_0_energy">   -125.52024848 </i>
   </energy>
  </scstep>
  <scstep>
   <time name="dav">   22.08   22.11</time>
   <time name="total">   23.09   23.12</time>
   <energy>
    <i name="e_fr_energy">   -125.52103320 </i>
    <i name="e_wo_entrp">   -125.51946601 </i>
    <i name="e_0_energy">   -125.52024961 </i>
   </energy>
  </scstep>
  <scstep>
   <time name="dav">   21.65   21.67</time>
   <time name="total">   21.78   21.80</time>
   <energy>
    <i name="alphaZ">     58.23494169 </i>
    <i name="ewald">   4678.24864874 </i>
    <i name="hartreedc">  -6434.75811378 </i>
    <i name="XCdc">    180.52197164 </i>
    <i name="pawpsdc">   5755.59691816 </i>
    <i name="pawaedc">  -5760.01386568 </i>
    <i name="eentropy">     -0.00156719 </i>
    <i name="bandstr">   -506.61338795 </i>
    <i name="atom">   1903.26342058 </i>
    <i name="e_fr_energy">   -125.52103379 </i>
    <i name="e_wo_entrp">   -125.51946660 </i>
    <i name="e_0_energy">   -125.52025020 </i>
   </energy>
  </scstep>
  <structure>
   <crystal>
    <varray name="basis" >
     <v>       4.19935718       2.42450000       0.00000000 </v>
     <v>      -4.19935718       2.42450000       0.00000000 </v>
     <v>       0.00000000       0.00000000      15.00000000 </v>
    </varray>
    <i name="volume">    305.44024470 </i>
    <varray name="rec_basis" >
     <v>       0.11906584       0.20622809       0.00000000 </v>
     <v>      -0.11906584       0.20622809       0.00000000 </v>
     <v>       0.00000000       0.00000000       0.06666667 </v>
    </varray>
   </crystal>
   <varray name="positions" >
    <v>       0.00423641       0.00295599       0.11372112 </v>
    <v>       0.35872131       0.00264442       0.09927454 </v>
    <v>       0.00408487       0.35737510       0.09927435 </v>
    <v>       0.64965886       0.64815908       0.09930103 </v>
    <v>       0.32706199       0.32556077       0.10027287 </v>
    <v>       0.68137349       0.00280456       0.10029749 </v>
    <v>       0.00426018       0.68000518       0.10030360 </v>
    <v>       0.16676000       0.33317807       0.33749001 </v>
    <v>       0.33317242       0.16676106       0.33749424 </v>
    <v>       0.16640669       0.83323141       0.33750071 </v>
    <v>       0.33331528       0.66664710       0.33691894 </v>
    <v>       0.66664330       0.33332501       0.33691891 </v>
    <v>       0.83323016       0.16641496       0.33749994 </v>
    <v>       0.66679853       0.83356901       0.33749087 </v>
    <v>       0.83357052       0.66680229       0.33748737 </v>
   </varray>
  </structure>
  <varray name="forces" >
   <v>       0.00895058      -0.00906188      -0.20624584 </v>
   <v>      -0.07665086      -0.03422517      -0.05200553 </v>
   <v>       0.07867203      -0.03477871      -0.05157833 </v>
   <v>      -0.00366887       0.08492407      -0.05476488 </v>
   <v>      -0.00616867       0.03951710       0.10870803 </v>
   <v>      -0.02769271      -0.02168415       0.10684264 </v>
   <v>       0.02691043      -0.02364837       0.10596555 </v>
   <v>      -0.11492353       0.00399358      -0.01863347 </v>
   <v>       0.11445195       0.00495543      -0.01922816 </v>
   <v>       0.06453763       0.09311682      -0.02032792 </v>
   <v>      -0.00287872       0.00368462       0.07951233 </v>
   <v>       0.00501395       0.00209408       0.07953090 </v>
   <v>      -0.06408143       0.09125130      -0.02032680 </v>
   <v>       0.05114385      -0.09945505      -0.01902720 </v>
   <v>      -0.05361565      -0.10068366      -0.01842133 </v>
  </varray>
  <varray name="stress" >
   <v>      -6.81132023      -0.00881507       0.00281405 </v>
   <v>      -0.00881508      -6.82172270      -0.02941034 </v>
   <v>       0.00281403      -0.02941034      -1.55165272 </v>
  </varray>
  <energy>
   <i name="e_fr_energy">   -127.10654320 </i>
   <i name="e_wo_entrp">   -127.10575960 </i>
   <i name="e_0_energy">     -0.00156719 </i>
  </energy>
  <time name="totalsc">  118.42  118.55</time>
 </calculation>
 <calculation>
  <scstep>
   <time name="dav">   16.56   16.58</time>
   <time name="total">   17.57   17.59</time>
   <energy>
    <i name="alphaZ">     58.23494169 </i>
    <i name="ewald">   4677.65286064 </i>
    <i name="hartreedc">  -6434.00627405 </i>
    <i name="XCdc">    180.53229866 </i>
    <i name="pawpsdc">   5755.73259947 </i>
    <i name="pawaedc">  -5760.14955314 </i>
    <i name="eentropy">     -0.00156715 </i>
    <i name="bandstr">   -506.78263272 </i>
    <i name="atom">   1903.26342058 </i>
    <i name="e_fr_energy">   -125.52390602 </i>
    <i name="e_wo_entrp">   -125.52233887 </i>
    <i name="e_0_energy">   -125.52312245 </i>
   </energy>
  </scstep>
  <scstep>
   <time name="dav">   21.13   21.14</time>
   <time name="total">   22.14   22.16</time>
   <energy>
    <i name="e_fr_energy">   -125.52405649 </i>
    <i name="e_wo_entrp">   -125.52248934 </i>
    <i name="e_0_energy">   -125.52327291 </i>
   </energy>
  </scstep>
  <scstep>
   <time name="dav">   19.68   19.70</time>
   <time name="total">   20.69   20.71</time>
   <energy>
    <i name="e_fr_energy">   -125.52395289 </i>
    <i name="e_wo_entrp">   -125.52238574 </i>
    <i name="e_0_energy">   -125.52316932 </i>
   </energy>
  </scstep>
  <scstep>
   <time name="dav">   21.34   21.36</time>
   <time name="total">   22.35   22.37</time>
   <energy>
    <i name="e_fr_energy">   -125.52395647 </i>
    <i name="e_wo_entrp">   -125.52238931 </i>
    <i name="e_0_energy">   -125.52317289 </i>
   </energy>
  </scstep>
  <scstep>
   <time name="dav">   21.69   21.70</time>
   <time name="total">   22.70   22.72</time>
   <energy>
    <i name="e_fr_energy">   -125.52395753 </i>
    <i name="e_wo_entrp">   -125.52239037 </i>
    <i name="e_0_energy">   -125.52317395 </i>
   </energy>
  </scstep>
  <scstep>
   <time name="dav">   17.80   17.82</time>
   <time name="total">   17.93   17.95</time>
   <energy>
    <i name="alphaZ">     58.23494169 </i>
    <i name="ewald">   4677.65286064 </i>
    <i name="hartreedc">  -6434.06420667 </i>
    <i name="XCdc">    180.53135772 </i>
    <i name="pawpsdc">   5759.03423112 </i>
    <i name="pawaedc">  -5763.45241310 </i>
    <i name="eentropy">     -0.00156716 </i>
    <i name="bandstr">   -506.72258194 </i>
    <i name="atom">   1903.26342058 </i>
    <i name="e_fr_energy">   -125.52395711 </i>
    <i name="e_wo_entrp">   -125.52238996 </i>
    <i name="e_0_energy">   -125.52317354 </i>
   </energy>
  </scstep>
  <structure>
   <crystal>
    <varray name="basis" >
     <v>       4.19935718       2.42450000       0.00000000 </v>
     <v>      -4.19935718       2.42450000       0.00000000 </v>
     <v>       0.00000000       0.00000000      15.00000000 </v>
    </varray>
    <i name="volume">    305.44024470 </i>
    <varray name="rec_basis" >
     <v>       0.11906584       0.20622809       0.00000000 </v>
     <v>      -0.11906584       0.20622809       0.00000000 </v>
     <v>       0.00000000       0.00000000       0.06666667 </v>
    </varray>
   </crystal>
   <varray name="positions" >
    <v>       0.00423742       0.00296365       0.11255173 </v>
    <v>       0.35895516       0.00263467       0.09951093 </v>
    <v>       0.00408664       0.35762277       0.09951042 </v>
    <v>       0.64944067       0.64792768       0.09954152 </v>
    <v>       0.32732700       0.32582200       0.10034615 </v>
    <v>       0.68111590       0.00279140       0.10037803 </v>
    <v>       0.00425273       0.67975540       0.10038600 </v>
    <v>       0.16642120       0.33348649       0.33752104 </v>
    <v>       0.33348251       0.16642647       0.33752547 </v>
    <v>       0.16705107       0.83354260       0.33753208 </v>
    <v>       0.33331843       0.66666991       0.33693582 </v>
    <v>       0.66666392       0.33331764       0.33693580 </v>
    <v>       0.83353289       0.16704991       0.33753120 </v>
    <v>       0.66648865       0.83293020       0.33752170 </v>
    <v>       0.83291980       0.66649323       0.33751813 </v>
   </varray>
  </structure>
  <varray name="forces" >
   <v>       0.00888022      -0.00778365      -0.18477826 </v>
   <v>      -0.08835804      -0.04000849      -0.05640797 </v>
   <v>       0.09082170      -0.04176450      -0.05589694 </v>
   <v>      -0.00454728       0.09589358      -0.05969053 </v>
   <v>      -0.00629648      -0.00196215       0.10789568 </v>
   <v>       0.00609200      -0.00032625       0.10532906 </v>
   <v>      -0.00625396      -0.00305069       0.10428139 </v>
   <v>       0.15063208       0.01877286      -0.02017976 </v>
   <v>      -0.15086340       0.01872018      -0.02081485 </v>
   <v>      -0.06648658      -0.14064662      -0.02190278 </v>
   <v>       0.00574823      -0.00267019       0.08222993 </v>
   <v>      -0.00719413      -0.00156063       0.08224625 </v>
   <v>       0.06610162      -0.13835939      -0.02187995 </v>
   <v>      -0.09361782       0.12175350      -0.02052851 </v>
   <v>       0.09534183       0.12299246      -0.01990276 </v>
  </varray>
  <varray name="stress" >
   <v>      -6.51817016      -0.01162036       0.00214626 </v>
   <v>      -0.01162036      -6.58594178      -0.02595205 </v>
   <v>       0.00214625      -0.02595207      -1.57192265 </v>
  </varray>
  <energy>
   <i name="e_fr_energy">   -127.10916496 </i>
   <i name="e_wo_entrp">   -127.10838139 </i>
   <i name="e_0_energy">     -0.00156716 </i>
  </energy>
  <time name="totalsc">  136.38  136.52</time>
 </calculation>
 <calculation>
  <scstep>
   <time name="dav">   16.49   16.49</time>
   <time name="total">   17.49   17.50</time>
   <energy>
    <i name="alphaZ">     58.23494169 </i>
    <i name="ewald">   4677.52479449 </i>
    <i name="hartreedc">  -6433.81667936 </i>
    <i name="XCdc">    180.53910124 </i>
    <i name="pawpsdc">   5759.16642953 </i>
    <i name="pawaedc">  -5763.58461662 </i>
    <i name="eentropy">     -0.00156718 </i>
    <i name="bandstr">   -506.85231360 </i>
    <i name="atom">   1903.26342058 </i>
    <i name="e_fr_energy">   -125.52648924 </i>
    <i name="e_wo_entrp">   -125.52492206 </i>
    <i name="e_0_energy">   -125.52570565 </i>
   </energy>
  </scstep>
  <scstep>
   <time name="dav">   20.76   20.76</time>
   <time name="total">   21.77   21.77</time>
   <energy>
    <i name="e_fr_energy">   -125.52654738 </i>
    <i name="e_wo_entrp">   -125.52498020 </i>
    <i name="e_0_energy">   -125.52576379 </i>
   </energy>
  </scstep>
  <scstep>
   <time name="dav">   19.59   19.60</time>
   <time name="total">   20.60   20.60</time>
   <energy>
    <i name="e_fr_energy">   -125.52654463 </i>
    <i name="e_wo_entrp">   -125.52497745 </i>
    <i name="e_0_energy">   -125.52576104 </i>
   </energy>
  </scstep>
  <scstep>
   <time name="dav">   20.18   20.18</time>
   <time name="total">   20.31   20.31</time>
   <energy>
    <i name="alphaZ">     58.23494169 </i>
    <i name="ewald">   4677.52479449 </i>
    <i name="hartreedc">  -6433.90341399 </i>
    <i name="XCdc">    180.53830361 </i>
    <i name="pawpsdc">   5761.53367683 </i>
    <i name="pawaedc">  -5765.95273994 </i>
    <i name="eentropy">     -0.00156718 </i>
    <i name="bandstr">   -506.76396109 </i>
    <i name="atom">   1903.26342058 </i>
    <i name="e_fr_energy">   -125.52654500 </i>
    <i name="e_wo_entrp">   -125.52497782 </i>
    <i name="e_0_energy">   -125.52576141 </i>
   </energy>
  </scstep>
  <structure>
   <crystal>
    <varray name="basis" >
     <v>       4.19935718       2.42450000       0.00000000 </v>
     <v>      -4.19935718       2.42450000       0.00000000 </v>
     <v>       0.00000000       0.00000000      15.00000000 </v>
    </varray>
    <i name="volume">    305.44024470 </i>
    <varray name="rec_basis" >
     <v>       0.11906584       0.20622809       0.00000000 </v>
     <v>      -0.11906584       0.20622809       0.00000000 </v>
     <v>       0.00000000       0.00000000       0.06666667 </v>
    </varray>
   </crystal>
   <varray name="positions" >
    <v>       0.00423284       0.00294286       0.11182121 </v>
    <v>       0.35890329       0.00265069       0.09960032 </v>
    <v>       0.00410809       0.35757206       0.09959997 </v>
    <v>       0.64950511       0.64799526       0.09963103 </v>
    <v>       0.32745577       0.32596275       0.10045179 </v>
    <v>       0.68098641       0.00277708       0.10048589 </v>
    <v>       0.00423600       0.67962497       0.10049419 </v>
    <v>       0.16644612       0.33351775       0.33752483 </v>
    <v>       0.33351430       0.16645377       0.33752898 </v>
    <v>       0.16704612       0.83350983       0.33753499 </v>
    <v>       0.33332133       0.66667041       0.33699581 </v>
    <v>       0.66666379       0.33331874       0.33699580 </v>
    <v>       0.83349965       0.16704482       0.33753405 </v>
    <v>       0.66645567       0.83293188       0.33752518 </v>
    <v>       0.83291950       0.66646114       0.33752195 </v>
   </varray>
  </structure>
  <varray name="forces" >
   <v>       0.00728934      -0.00546848      -0.16135092 </v>
   <v>      -0.06596209      -0.02794340      -0.04435411 </v>
   <v>       0.06849712      -0.03065073      -0.04385796 </v>
   <v>      -0.00470560       0.06910568      -0.04762385 </v>
   <v>      -0.00534467      -0.01095469       0.08872253 </v>
   <v>       0.01093776       0.00499666       0.08585680 </v>
   <v>      -0.01035956       0.00189854       0.08480014 </v>
   <v>       0.15247565       0.00457215      -0.01723029 </v>
   <v>      -0.15240063       0.00383448      -0.01779285 </v>
   <v>      -0.07773244      -0.13165641      -0.01873856 </v>
   <v>       0.00433225      -0.00396314       0.07235181 </v>
   <v>      -0.00657415      -0.00224349       0.07236332 </v>
   <v>       0.07711860      -0.12929037      -0.01870495 </v>
   <v>      -0.07872503       0.12818644      -0.01749155 </v>
   <v>       0.08115345       0.12957675      -0.01694956 </v>
  </varray>
  <varray name="stress" >
   <v>      -6.35357931      -0.01024784       0.00037601 </v>
   <v>      -0.01024781      -6.40422779      -0.02254927 </v>
   <v>       0.00037602      -0.02254927      -1.55927161 </v>
  </varray>
  <energy>
   <i name="e_fr_energy">   -127.11152232 </i>
   <i name="e_wo_entrp">   -127.11073873 </i>
   <i name="e_0_energy">     -0.00156718 </i>
  </energy>
  <time name="totalsc">   93.15   93.18</time>
 </calculation>
 <calculation>
  <scstep>
   <time name="dav">   16.57   16.57</time>
   <time name="total">   17.58   17.58</time>
   <energy>
    <i name="alphaZ">     58.23494169 </i>
    <i name="ewald">   4676.93229985 </i>
    <i name="hartreedc">  -6433.00745662 </i>
    <i name="XCdc">    180.55821286 </i>
    <i name="pawpsdc">   5761.66350323 </i>
    <i name="pawaedc">  -5766.08256874 </i>
    <i name="eentropy">     -0.00156718 </i>
    <i name="bandstr">   -507.09247862 </i>
    <i name="atom">   1903.26342058 </i>
    <i name="e_fr_energy">   -125.53169296 </i>
    <i name="e_wo_entrp">   -125.53012578 </i>
    <i name="e_0_energy">   -125.53090937 </i>
   </energy>
  </scstep>
  <scstep>
   <time name="dav">   21.36   21.36</time>
   <time name="total">   22.37   22.37</time>
   <energy>
    <i name="e_fr_energy">   -125.53224700 </i>
    <i name="e_wo_entrp">   -125.53067982 </i>
    <i name="e_0_energy">   -125.53146341 </i>
   </energy>
  </scstep>
  <scstep>
   <time name="dav">   20.08   20.09</time>
   <time name="total">   21.10   21.10</time>
   <energy>
    <i name="e_fr_energy">   -125.53221889 </i>
    <i name="e_wo_entrp">   -125.53065170 </i>
    <i name="e_0_energy">   -125.53143530 </i>
   </energy>
  </scstep>
  <scstep>
   <time name="dav">   19.61   19.61</time>
   <time name="total">   20.62   20.62</time>
   <energy>
    <i name="e_fr_energy">   -125.53222153 </i>
    <i name="e_wo_entrp">   -125.53065434 </i>
    <i name="e_0_energy">   -125.53143793 </i>
   </energy>
  </scstep>
  <scstep>
   <time name="dav">   22.66   22.66</time>
   <time name="total">   23.67   23.68</time>
   <energy>
    <i name="e_fr_energy">   -125.53221907 </i>
    <i name="e_wo_entrp">   -125.53065189 </i>
    <i name="e_0_energy">   -125.53143548 </i>
   </energy>
  </scstep>
  <scstep>
   <time name="dav">   19.21   19.21</time>
   <time name="total">   19.34   19.34</time>
   <energy>
    <i name="alphaZ">     58.23494169 </i>
    <i name="ewald">   4676.93229985 </i>
    <i name="hartreedc">  -6433.32815469 </i>
    <i name="XCdc">    180.55575411 </i>
    <i name="pawpsdc">   5768.34640249 </i>
    <i name="pawaedc">  -5772.76773682 </i>
    <i name="eentropy">     -0.00156718 </i>
    <i name="bandstr">   -506.76757855 </i>
    <i name="atom">   1903.26342058 </i>
    <i name="e_fr_energy">   -125.53221852 </i>
    <i name="e_wo_entrp">   -125.53065133 </i>
    <i name="e_0_energy">   -125.53143492 </i>
   </energy>
  </scstep>
  <structure>
   <crystal>
    <varray name="basis" >
     <v>       4.19935718       2.42450000       0.00000000 </v>
     <v>      -4.19935718       2.42450000       0.00000000 </v>
     <v>       0.00000000       0.00000000      15.00000000 </v>
    </varray>
    <i name="volume">    305.44024470 </i>
    <varray name="rec_basis" >
     <v>       0.11906584       0.20622809       0.00000000 </v>
     <v>      -0.11906584       0.20622809       0.00000000 </v>
     <v>       0.00000000       0.00000000       0.06666667 </v>
    </varray>
   </crystal>
   <varray name="positions" >
    <v>       0.00421912       0.00288049       0.10962965 </v>
    <v>       0.35874767       0.00269876       0.09986851 </v>
    <v>       0.00417245       0.35741992       0.09986862 </v>
    <v>       0.64969843       0.64819800       0.09989959 </v>
    <v>       0.32784207       0.32638501       0.10076871 </v>
    <v>       0.68059795       0.00273412       0.10080948 </v>
    <v>       0.00418581       0.67923368       0.10081877 </v>
    <v>       0.16652088       0.33361156       0.33753621 </v>
    <v>       0.33360967       0.16653566       0.33753950 </v>
    <v>       0.16703128       0.83341151       0.33754371 </v>
    <v>       0.33333004       0.66667189       0.33717579 </v>
    <v>       0.66666340       0.33332204       0.33717583 </v>
    <v>       0.83339991       0.16702957       0.33754261 </v>
    <v>       0.66635673       0.83293689       0.33753560 </v>
    <v>       0.83291859       0.66636489       0.33753342 </v>
   </varray>
  </structure>
  <varray name="forces" >
   <v>       0.00246143       0.00153789      -0.10085583 </v>
   <v>      -0.00557834       0.00434309      -0.00665401 </v>
   <v>       0.00860686      -0.00123324      -0.00621364 </v>
   <v>      -0.00518731      -0.00319111      -0.00989058 </v>
   <v>      -0.00271242      -0.04588933       0.03290151 </v>
   <v>       0.03264543       0.02475039       0.02929691 </v>
   <v>      -0.02993223       0.02058441       0.02823904 </v>
   <v>       0.15883863      -0.03700411      -0.00849022 </v>
   <v>      -0.15783574      -0.03976347      -0.00883803 </v>
   <v>      -0.11105227      -0.10606638      -0.00937149 </v>
   <v>       0.00010139      -0.00781347       0.04297310 </v>
[...]
       <r>     2.7228     1.2441    30.8923 </r>
       <r>     2.8292     0.6147    30.9578 </r>
       <r>     2.9357     0.8053    31.0435 </r>
       <r>     3.0421     1.3087    31.1828 </r>
       <r>     3.1485     1.5451    31.3472 </r>
       <r>     3.2550     1.2294    31.4781 </r>
       <r>     3.3614     1.3570    31.6225 </r>
       <r>     3.4679     1.0943    31.7390 </r>
       <r>     3.5743     2.1540    31.9683 </r>
       <r>     3.6807     3.1575    32.3043 </r>
       <r>     3.7872     3.1373    32.6383 </r>
       <r>     3.8936     2.8265    32.9391 </r>
       <r>     4.0000     2.8124    33.2385 </r>
       <r>     4.1065     3.4203    33.6025 </r>
       <r>     4.2129     3.3347    33.9574 </r>
       <r>     4.3194     2.9214    34.2684 </r>
       <r>     4.4258     3.0666    34.5948 </r>
       <r>     4.5322     2.9200    34.9056 </r>
       <r>     4.6387     2.4117    35.1623 </r>
       <r>     4.7451     3.4530    35.5298 </r>
       <r>     4.8515     3.5974    35.9127 </r>
       <r>     4.9580     2.7188    36.2021 </r>
       <r>     5.0644     3.0671    36.5285 </r>
       <r>     5.1709     3.3645    36.8866 </r>
       <r>     5.2773     2.7915    37.1837 </r>
       <r>     5.3837     2.7857    37.4802 </r>
       <r>     5.4902     3.0485    37.8047 </r>
       <r>     5.5966     3.5337    38.1808 </r>
       <r>     5.7030     2.7326    38.4717 </r>
       <r>     5.8095     2.8049    38.7702 </r>
       <r>     5.9159     2.6377    39.0510 </r>
       <r>     6.0224     2.7161    39.3401 </r>
       <r>     6.1288     2.0656    39.5599 </r>
       <r>     6.2352     2.1917    39.7932 </r>
       <r>     6.3417     2.9556    40.1078 </r>
       <r>     6.4481     2.9835    40.4253 </r>
       <r>     6.5545     3.2863    40.7751 </r>
       <r>     6.6610     3.4117    41.1383 </r>
       <r>     6.7674     4.3524    41.6015 </r>
       <r>     6.8739     3.5505    41.9794 </r>
       <r>     6.9803     3.1725    42.3171 </r>
       <r>     7.0867     3.2580    42.6639 </r>
       <r>     7.1932     2.7691    42.9586 </r>
       <r>     7.2996     2.2981    43.2032 </r>
       <r>     7.4060     2.7751    43.4986 </r>
       <r>     7.5125     2.9466    43.8122 </r>
       <r>     7.6189     2.8350    44.1140 </r>
       <r>     7.7253     3.4485    44.4810 </r>
       <r>     7.8318     4.2242    44.9306 </r>
       <r>     7.9382     3.8760    45.3432 </r>
       <r>     8.0447     3.9857    45.7674 </r>
       <r>     8.1511     4.2510    46.2199 </r>
       <r>     8.2575     3.6401    46.6073 </r>
       <r>     8.3640     4.6584    47.1031 </r>
       <r>     8.4704     4.2750    47.5582 </r>
       <r>     8.5768     2.1162    47.7834 </r>
       <r>     8.6833     1.0950    47.9000 </r>
       <r>     8.7897     0.5346    47.9569 </r>
       <r>     8.8962     0.3314    47.9921 </r>
       <r>     9.0026     0.0712    47.9997 </r>
       <r>     9.1090     0.0027    48.0000 </r>
       <r>     9.2155     0.0000    48.0000 </r>
       <r>     9.3219     0.0000    48.0000 </r>
       <r>     9.4283     0.0000    48.0000 </r>
       <r>     9.5348     0.0000    48.0000 </r>
       <r>     9.6412     0.0000    48.0000 </r>
       <r>     9.7477     0.0000    48.0000 </r>
       <r>     9.8541     0.0000    48.0000 </r>
       <r>     9.9605     0.0000    48.0000 </r>
       <r>    10.0670     0.0000    48.0000 </r>
       <r>    10.1734     0.0000    48.0000 </r>
       <r>    10.2798     0.0000    48.0000 </r>
      </set>
      <set comment="spin 2">
       <r>   -21.6513     0.0000     0.0000 </r>
       <r>   -21.5449     0.0000     0.0000 </r>
       <r>   -21.4385     0.0000     0.0000 </r>
       <r>   -21.3320     0.0000     0.0000 </r>
       <r>   -21.2256     0.0000     0.0000 </r>
       <r>   -21.1191     0.0000     0.0000 </r>
       <r>   -21.0127     0.0000     0.0000 </r>
       <r>   -20.9063     0.0000     0.0000 </r>
       <r>   -20.7998     0.0000     0.0000 </r>
       <r>   -20.6934     0.0000     0.0000 </r>
       <r>   -20.5870     0.0000     0.0000 </r>
       <r>   -20.4805     0.0000     0.0000 </r>
       <r>   -20.3741     0.0009     0.0001 </r>
       <r>   -20.2676     0.0349     0.0038 </r>
       <r>   -20.1612     0.2527     0.0307 </r>
       <r>   -20.0548     0.5311     0.0872 </r>
       <r>   -19.9483     0.5787     0.1488 </r>
       <r>   -19.8419     0.6322     0.2161 </r>
       <r>   -19.7355     0.5321     0.2728 </r>
       <r>   -19.6290     0.6879     0.3460 </r>
       <r>   -19.5226     0.5430     0.4038 </r>
       <r>   -19.4162     0.5406     0.4613 </r>
       <r>   -19.3097     0.7695     0.5432 </r>
       <r>   -19.2033     0.4948     0.5959 </r>
       <r>   -19.0968     0.4898     0.6480 </r>
       <r>   -18.9904     0.7806     0.7311 </r>
       <r>   -18.8840     0.6730     0.8027 </r>
       <r>   -18.7775     0.3857     0.8438 </r>
       <r>   -18.6711     0.5436     0.9016 </r>
       <r>   -18.5647     0.8871     0.9961 </r>
       <r>   -18.4582     0.5946     1.0593 </r>
       <r>   -18.3518     0.4891     1.1114 </r>
       <r>   -18.2453     0.3765     1.1515 </r>
       <r>   -18.1389     0.8283     1.2396 </r>
       <r>   -18.0325     0.8614     1.3313 </r>
       <r>   -17.9260     0.4680     1.3811 </r>
       <r>   -17.8196     0.4119     1.4250 </r>
       <r>   -17.7132     0.5217     1.4805 </r>
       <r>   -17.6067     0.7768     1.5632 </r>
       <r>   -17.5003     0.8977     1.6587 </r>
       <r>   -17.3938     0.8797     1.7523 </r>
       <r>   -17.2874     1.0596     1.8651 </r>
       <r>   -17.1810     1.3507     2.0089 </r>
       <r>   -17.0745     1.9079     2.2120 </r>
       <r>   -16.9681     2.1204     2.4377 </r>
       <r>   -16.8617     2.4720     2.7008 </r>
       <r>   -16.7552     2.6868     2.9867 </r>
       <r>   -16.6488     1.5048     3.1469 </r>
       <r>   -16.5423     0.3760     3.1869 </r>
       <r>   -16.4359     0.8514     3.2775 </r>
       <r>   -16.3295     1.0806     3.3926 </r>
       <r>   -16.2230     0.5990     3.4563 </r>
       <r>   -16.1166     0.5383     3.5136 </r>
       <r>   -16.0102     0.4901     3.5658 </r>
       <r>   -15.9037     0.5012     3.6191 </r>
       <r>   -15.7973     0.4414     3.6661 </r>
       <r>   -15.6908     0.9877     3.7712 </r>
       <r>   -15.5844     1.0767     3.8858 </r>
       <r>   -15.4780     0.5297     3.9422 </r>
       <r>   -15.3715     0.4967     3.9951 </r>
       <r>   -15.2651     0.4299     4.0408 </r>
       <r>   -15.1587     0.5764     4.1022 </r>
       <r>   -15.0522     0.8356     4.1911 </r>
       <r>   -14.9458     1.6515     4.3669 </r>
       <r>   -14.8393     2.4263     4.6252 </r>
       <r>   -14.7329     2.4367     4.8845 </r>
       <r>   -14.6265     2.0386     5.1015 </r>
       <r>   -14.5200     1.3153     5.2415 </r>
       <r>   -14.4136     1.0718     5.3556 </r>
       <r>   -14.3072     1.7470     5.5415 </r>
       <r>   -14.2007     2.0571     5.7605 </r>
       <r>   -14.0943     1.6560     5.9367 </r>
       <r>   -13.9879     1.3533     6.0808 </r>
       <r>   -13.8814     1.8457     6.2772 </r>
       <r>   -13.7750     2.4513     6.5381 </r>
       <r>   -13.6685     2.2848     6.7813 </r>
       <r>   -13.5621     2.1803     7.0134 </r>
       <r>   -13.4557     1.1858     7.1396 </r>
       <r>   -13.3492     0.7428     7.2187 </r>
       <r>   -13.2428     0.4517     7.2667 </r>
       <r>   -13.1364     0.4705     7.3168 </r>
       <r>   -13.0299     0.8286     7.4050 </r>
       <r>   -12.9235     0.9272     7.5037 </r>
       <r>   -12.8170     0.6214     7.5698 </r>
       <r>   -12.7106     0.8197     7.6571 </r>
       <r>   -12.6042     0.9376     7.7569 </r>
       <r>   -12.4977     0.7193     7.8334 </r>
       <r>   -12.3913     0.7154     7.9096 </r>
       <r>   -12.2849     0.4524     7.9577 </r>
       <r>   -12.1784     0.6990     8.0321 </r>
       <r>   -12.0720     1.0843     8.1475 </r>
       <r>   -11.9655     0.5129     8.2021 </r>
       <r>   -11.8591     0.3989     8.2446 </r>
       <r>   -11.7527     0.4376     8.2912 </r>
       <r>   -11.6462     0.6816     8.3637 </r>
       <r>   -11.5398     0.8981     8.4593 </r>
       <r>   -11.4334     0.5714     8.5201 </r>
       <r>   -11.3269     0.2331     8.5450 </r>
       <r>   -11.2205     0.5244     8.6008 </r>
       <r>   -11.1140     0.7460     8.6802 </r>
       <r>   -11.0076     0.6681     8.7513 </r>
       <r>   -10.9012     0.8834     8.8453 </r>
       <r>   -10.7947     0.9443     8.9458 </r>
       <r>   -10.6883     0.4050     8.9889 </r>
       <r>   -10.5819     1.0440     9.1001 </r>
       <r>   -10.4754     1.7981     9.2914 </r>
       <r>   -10.3690     1.9511     9.4991 </r>
       <r>   -10.2625     1.9218     9.7037 </r>
       <r>   -10.1561     2.0291     9.9196 </r>
       <r>   -10.0497     2.2228    10.1562 </r>
       <r>    -9.9432     2.0423    10.3736 </r>
       <r>    -9.8368     1.3461    10.5169 </r>
       <r>    -9.7304     1.2996    10.6552 </r>
       <r>    -9.6239     1.7156    10.8378 </r>
       <r>    -9.5175     1.4624    10.9934 </r>
       <r>    -9.4110     2.1187    11.2189 </r>
       <r>    -9.3046     2.4848    11.4834 </r>
       <r>    -9.1982     1.7275    11.6673 </r>
       <r>    -9.0917     1.1530    11.7900 </r>
       <r>    -8.9853     0.9003    11.8858 </r>
       <r>    -8.8789     2.2038    12.1204 </r>
       <r>    -8.7724     2.6699    12.4046 </r>
       <r>    -8.6660     1.6290    12.5780 </r>
       <r>    -8.5596     1.0580    12.6906 </r>
       <r>    -8.4531     1.5817    12.8589 </r>
       <r>    -8.3467     2.4438    13.1190 </r>
       <r>    -8.2402     2.1602    13.3490 </r>
       <r>    -8.1338     1.7044    13.5304 </r>
       <r>    -8.0274     2.2586    13.7708 </r>
       <r>    -7.9209     2.9439    14.0841 </r>
       <r>    -7.8145     3.1720    14.4217 </r>
       <r>    -7.7081     2.4107    14.6783 </r>
       <r>    -7.6016     1.4377    14.8314 </r>
       <r>    -7.4952     0.8915    14.9263 </r>
       <r>    -7.3887     2.0670    15.1463 </r>
       <r>    -7.2823     2.4255    15.4044 </r>
       <r>    -7.1759     1.7247    15.5880 </r>
       <r>    -7.0694     1.3864    15.7356 </r>
       <r>    -6.9630     1.9604    15.9442 </r>
       <r>    -6.8566     2.3420    16.1935 </r>
       <r>    -6.7501     2.4874    16.4582 </r>
       <r>    -6.6437     2.8702    16.7637 </r>
       <r>    -6.5372     2.4773    17.0274 </r>
       <r>    -6.4308     2.7383    17.3189 </r>
       <r>    -6.3244     2.3060    17.5643 </r>
       <r>    -6.2179     2.3386    17.8132 </r>
       <r>    -6.1115     3.3472    18.1695 </r>
       <r>    -6.0051     3.1686    18.5067 </r>
       <r>    -5.8986     3.8742    18.9191 </r>
       <r>    -5.7922     3.4792    19.2894 </r>
       <r>    -5.6857     2.4467    19.5498 </r>
       <r>    -5.5793     2.6545    19.8324 </r>
       <r>    -5.4729     4.1859    20.2779 </r>
       <r>    -5.3664     4.4353    20.7500 </r>
       <r>    -5.2600     2.6222    21.0291 </r>
       <r>    -5.1536     2.0530    21.2476 </r>
       <r>    -5.0471     1.3767    21.3941 </r>
       <r>    -4.9407     1.3823    21.5413 </r>
       <r>    -4.8342     1.7523    21.7278 </r>
       <r>    -4.7278     1.4302    21.8800 </r>
       <r>    -4.6214     1.0033    21.9868 </r>
       <r>    -4.5149     1.1234    22.1064 </r>
       <r>    -4.4085     2.0736    22.3271 </r>
       <r>    -4.3021     3.1054    22.6576 </r>
       <r>    -4.1956     2.8274    22.9585 </r>
       <r>    -4.0892     2.1797    23.1905 </r>
       <r>    -3.9827     2.4289    23.4491 </r>
       <r>    -3.8763     3.1290    23.7821 </r>
       <r>    -3.7699     2.4736    24.0454 </r>
       <r>    -3.6634     2.4733    24.3087 </r>
       <r>    -3.5570     2.5684    24.5820 </r>
       <r>    -3.4506     2.0945    24.8050 </r>
       <r>    -3.3441     1.6123    24.9766 </r>
       <r>    -3.2377     1.5902    25.1458 </r>
       <r>    -3.1313     2.2752    25.3880 </r>
       <r>    -3.0248     2.2793    25.6306 </r>
       <r>    -2.9184     1.5726    25.7980 </r>
       <r>    -2.8119     1.5765    25.9658 </r>
       <r>    -2.7055     1.0946    26.0823 </r>
       <r>    -2.5991     1.2081    26.2109 </r>
       <r>    -2.4926     2.1141    26.4359 </r>
       <r>    -2.3862     2.2615    26.6766 </r>
       <r>    -2.2798     0.7135    26.7525 </r>
       <r>    -2.1733     0.6681    26.8237 </r>
       <r>    -2.0669     1.2107    26.9525 </r>
       <r>    -1.9604     1.1928    27.0795 </r>
       <r>    -1.8540     1.3531    27.2235 </r>
       <r>    -1.7476     1.4125    27.3739 </r>
       <r>    -1.6411     1.3237    27.5147 </r>
       <r>    -1.5347     1.1071    27.6326 </r>
       <r>    -1.4283     0.4895    27.6847 </r>
       <r>    -1.3218     0.5106    27.7390 </r>
       <r>    -1.2154     0.5827    27.8010 </r>
       <r>    -1.1089     0.3995    27.8436 </r>
       <r>    -1.0025     0.6360    27.9113 </r>
       <r>    -0.8961     0.5541    27.9702 </r>
       <r>    -0.7896     0.1364    27.9848 </r>
       <r>    -0.6832     0.0125    27.9861 </r>
       <r>    -0.5768     0.0003    27.9861 </r>
       <r>    -0.4703     0.0013    27.9863 </r>
       <r>    -0.3639     0.0364    27.9901 </r>
       <r>    -0.2574     0.1376    28.0048 </r>
       <r>    -0.1510     0.0789    28.0132 </r>
       <r>    -0.0446     0.0066    28.0139 </r>
       <r>     0.0619     0.0001    28.0139 </r>
       <r>     0.1683     0.0005    28.0139 </r>
       <r>     0.2747     0.0332    28.0175 </r>
       <r>     0.3812     0.2925    28.0486 </r>
       <r>     0.4876     0.3823    28.0893 </r>
       <r>     0.5941     0.1524    28.1055 </r>
       <r>     0.7005     0.5118    28.1600 </r>
       <r>     0.8069     0.9128    28.2571 </r>
       <r>     0.9134     1.5763    28.4249 </r>
       <r>     1.0198     3.0872    28.7535 </r>
       <r>     1.1262     2.2613    28.9942 </r>
       <r>     1.2327     0.5012    29.0475 </r>
       <r>     1.3391     0.1247    29.0608 </r>
       <r>     1.4456     0.5647    29.1209 </r>
       <r>     1.5520     1.8316    29.3159 </r>
       <r>     1.6584     2.6393    29.5968 </r>
       <r>     1.7649     1.8875    29.7977 </r>
       <r>     1.8713     1.2363    29.9293 </r>
       <r>     1.9777     1.1100    30.0474 </r>
       <r>     2.0842     1.2578    30.1813 </r>
       <r>     2.1906     0.9045    30.2776 </r>
       <r>     2.2970     1.1639    30.4015 </r>
       <r>     2.4035     0.7905    30.4856 </r>
       <r>     2.5099     0.8130    30.5721 </r>
       <r>     2.6164     1.7643    30.7599 </r>
       <r>     2.7228     1.2441    30.8923 </r>
       <r>     2.8292     0.6148    30.9578 </r>
       <r>     2.9357     0.8055    31.0435 </r>
       <r>     3.0421     1.3088    31.1828 </r>
       <r>     3.1485     1.5450    31.3473 </r>
       <r>     3.2550     1.2295    31.4781 </r>
       <r>     3.3614     1.3569    31.6226 </r>
       <r>     3.4679     1.0942    31.7390 </r>
       <r>     3.5743     2.1542    31.9683 </r>
       <r>     3.6807     3.1573    32.3044 </r>
       <r>     3.7872     3.1374    32.6383 </r>
       <r>     3.8936     2.8265    32.9391 </r>
       <r>     4.0000     2.8125    33.2385 </r>
       <r>     4.1065     3.4201    33.6025 </r>
       <r>     4.2129     3.3348    33.9575 </r>
       <r>     4.3194     2.9214    34.2684 </r>
       <r>     4.4258     3.0668    34.5948 </r>
       <r>     4.5322     2.9203    34.9057 </r>
       <r>     4.6387     2.4125    35.1624 </r>
       <r>     4.7451     3.4537    35.5300 </r>
       <r>     4.8515     3.5972    35.9129 </r>
       <r>     4.9580     2.7187    36.2023 </r>
       <r>     5.0644     3.0679    36.5288 </r>
       <r>     5.1709     3.3641    36.8869 </r>
       <r>     5.2773     2.7917    37.1840 </r>
       <r>     5.3837     2.7849    37.4804 </r>
       <r>     5.4902     3.0487    37.8049 </r>
       <r>     5.5966     3.5332    38.1810 </r>
       <r>     5.7030     2.7338    38.4720 </r>
       <r>     5.8095     2.8045    38.7705 </r>
       <r>     5.9159     2.6366    39.0511 </r>
       <r>     6.0224     2.7161    39.3402 </r>
       <r>     6.1288     2.0663    39.5601 </r>
       <r>     6.2352     2.1929    39.7936 </r>
       <r>     6.3417     2.9550    40.1081 </r>
       <r>     6.4481     2.9834    40.4256 </r>
       <r>     6.5545     3.2865    40.7754 </r>
       <r>     6.6610     3.4127    41.1386 </r>
       <r>     6.7674     4.3532    41.6020 </r>
       <r>     6.8739     3.5506    41.9799 </r>
       <r>     6.9803     3.1736    42.3177 </r>
       <r>     7.0867     3.2559    42.6642 </r>
       <r>     7.1932     2.7673    42.9588 </r>
       <r>     7.2996     2.2980    43.2034 </r>
       <r>     7.4060     2.7785    43.4991 </r>
       <r>     7.5125     2.9451    43.8126 </r>
       <r>     7.6189     2.8338    44.1142 </r>
       <r>     7.7253     3.4490    44.4813 </r>
       <r>     7.8318     4.2236    44.9309 </r>
       <r>     7.9382     3.8772    45.3435 </r>
       <r>     8.0447     3.9874    45.7679 </r>
       <r>     8.1511     4.2490    46.2202 </r>
       <r>     8.2575     3.6397    46.6076 </r>
       <r>     8.3640     4.6594    47.1035 </r>
       <r>     8.4704     4.2731    47.5583 </r>
       <r>     8.5768     2.1150    47.7834 </r>
       <r>     8.6833     1.0948    47.9000 </r>
       <r>     8.7897     0.5345    47.9569 </r>
       <r>     8.8962     0.3313    47.9921 </r>
       <r>     9.0026     0.0712    47.9997 </r>
       <r>     9.1090     0.0027    48.0000 </r>
       <r>     9.2155     0.0000    48.0000 </r>
       <r>     9.3219     0.0000    48.0000 </r>
       <r>     9.4283     0.0000    48.0000 </r>
       <r>     9.5348     0.0000    48.0000 </r>
       <r>     9.6412     0.0000    48.0000 </r>
       <r>     9.7477     0.0000    48.0000 </r>
       <r>     9.8541     0.0000    48.0000 </r>
       <r>     9.9605     0.0000    48.0000 </r>
       <r>    10.0670     0.0000    48.0000 </r>
       <r>    10.1734     0.0000    48.0000 </r>
       <r>    10.2798     0.0000    48.0000 </r>
      </set>
     </set>
    </array>
   </total>
  </dos>
 </calculation>
 <structure name="finalpos" >
  <crystal>
   <varray name="basis" >
    <v>       4.19935718       2.42450000       0.00000000 </v>
    <v>      -4.19935718       2.42450000       0.00000000 </v>
    <v>       0.00000000       0.00000000      15.00000000 </v>
   </varray>
   <i name="volume">    305.44024470 </i>
   <varray name="rec_basis" >
    <v>       0.11906584       0.20622809       0.00000000 </v>
    <v>      -0.11906584       0.20622809       0.00000000 </v>
    <v>       0.00000000       0.00000000       0.06666667 </v>
   </varray>
  </crystal>
  <varray name="positions" >
   <v>       0.00441347       0.00293721       0.09964574 </v>
   <v>       0.35955573       0.00293860       0.10100718 </v>
   <v>       0.00441964       0.35807293       0.10100938 </v>
   <v>       0.64927351       0.64779259       0.10101422 </v>
   <v>       0.32805899       0.32657660       0.10078709 </v>
   <v>       0.68077484       0.00294394       0.10078546 </v>
   <v>       0.00442860       0.67928958       0.10078572 </v>
   <v>       0.16644212       0.33319143       0.33830204 </v>
   <v>       0.33312720       0.16650581       0.33830392 </v>
   <v>       0.16648196       0.83321418       0.33830607 </v>
   <v>       0.33312912       0.66652793       0.33819544 </v>
   <v>       0.66646308       0.33319263       0.33819534 </v>
   <v>       0.83314931       0.16654558       0.33830559 </v>
   <v>       0.66646450       0.83317613       0.33830191 </v>
   <v>       0.83311192       0.66652887       0.33830091 </v>
  </varray>
 </structure>
</modeling>
