Lattice                                 
           1
     4.197625    2.423500    0.000000
    -4.197625    2.423500    0.000000
     0.000000    0.000000   15.000000
   B    C 
     4    11
Direct configuration=     1
   0.00415361  0.00267210  0.12034134
   0.35695335  0.00285503  0.09748893
   0.00423858  0.35550699  0.09749256
   0.65142295  0.65006557  0.09747688
   0.32808646  0.32671938  0.10030508
   0.68027775  0.00278085  0.10027562
   0.00416530  0.67883808  0.10026559
   0.08333267  0.41666633  0.33646667
   0.24999967  0.24999933  0.33646667
   0.08333267  0.91666633  0.33646667
   0.24999967  0.74999933  0.33646667
   0.58333267  0.41666633  0.33646667
   0.74999967  0.24999933  0.33646667
   0.58333267  0.91666633  0.33646667
   0.74999967  0.74999933  0.33646667
Direct configuration=     2
   0.00414255  0.00267040  0.11911464
   0.35568676  0.00283012  0.09781674
   0.00413905  0.35444545  0.09787797
   0.65260849  0.65109132  0.09784876
   0.32476322  0.32316289  0.10030070
   0.68397883  0.00285635  0.10032574
   0.00417221  0.68220651  0.10027728
   0.08331729  0.41677885  0.33646324
   0.25017617  0.25026243  0.33656032
   0.08349747  0.91679600  0.33645175
   0.25029838  0.74995697  0.33643649
   0.58328528  0.41664563  0.33642167
   0.74993339  0.25000309  0.33646150
   0.58309076  0.91661577  0.33653689
   0.74953750  0.74977890  0.33648565
Direct configuration=     3
   0.00414819  0.00267127  0.11974024
   0.35633270  0.00284282  0.09764956
   0.00418981  0.35498682  0.09768142
   0.65200388  0.65056820  0.09765910
   0.32645803  0.32497665  0.10030293
   0.68209133  0.00281785  0.10030018
   0.00416869  0.68048865  0.10027132
   0.08332513  0.41672147  0.33646499
   0.25008615  0.25012825  0.33651256
   0.08341342  0.91672987  0.33645936
   0.25014604  0.74997857  0.33645188
   0.58330944  0.41665619  0.33644462
   0.74996719  0.25000117  0.33646413
   0.58321413  0.91664156  0.33650108
   0.74977320  0.74989132  0.33647597
Direct configuration=     4
   0.00414783  0.00269667  0.11867377
   0.35680663  0.00280908  0.09795367
   0.00415750  0.35542769  0.09804294
   0.65163070  0.65002377  0.09800625
   0.32661076  0.32495897  0.10026715
   0.68207397  0.00285413  0.10031577
   0.00418137  0.68038514  0.10025061
   0.08328637  0.41665767  0.33646813
   0.24988843  0.24998613  0.33658640
   0.08321683  0.91664326  0.33645791
   0.24983623  0.75006274  0.33642784
   0.58331629  0.41667946  0.33641632
   0.74996825  0.25002933  0.33645908
   0.58339942  0.91675155  0.33656181
   0.75010675  0.75013508  0.33649169
Direct configuration=     5
   0.00414690  0.00276379  0.11585557
   0.35805903  0.00271991  0.09875730
   0.00407213  0.35659270  0.09899827
   0.65064456  0.64858509  0.09892362
   0.32701434  0.32491223  0.10017258
   0.68202809  0.00295002  0.10035698
   0.00421490  0.68011162  0.10019590
   0.08318394  0.41648907  0.33647642
   0.24936593  0.24961054  0.33678154
   0.08269734  0.91641439  0.33645407
   0.24901753  0.75028515  0.33636432
   0.58333437  0.41674095  0.33634153
   0.74997106  0.25010374  0.33644573
   0.58388906  0.91704222  0.33672230
   0.75098817  0.75077923  0.33653322
Direct configuration=     6
   0.00415051  0.00276796  0.11554572
   0.35817310  0.00270964  0.09883211
   0.00407461  0.35668880  0.09908633
   0.65055976  0.64846146  0.09900831
   0.32708963  0.32495525  0.10017849
   0.68197438  0.00294706  0.10037545
   0.00422171  0.68004703  0.10020565
   0.08318304  0.41654122  0.33647849
   0.24942900  0.24967096  0.33679492
   0.08276459  0.91648696  0.33645673
   0.24913372  0.75026911  0.33636151
   0.58330715  0.41675874  0.33633920
   0.74995789  0.25010827  0.33644549
   0.58378118  0.91700546  0.33673409
   0.75082705  0.75068276  0.33653686
Direct configuration=     7
   0.00416135  0.00278048  0.11461617
   0.35851533  0.00267884  0.09905653
   0.00408206  0.35697711  0.09935053
   0.65030536  0.64809054  0.09926240
   0.32731553  0.32508429  0.10019620
   0.68181325  0.00293818  0.10043084
   0.00424216  0.67985325  0.10023490
   0.08318034  0.41669765  0.33648470
   0.24961821  0.24985222  0.33683506
   0.08296634  0.91670466  0.33646471
   0.24948228  0.75022097  0.33635307
   0.58322551  0.41681211  0.33633221
   0.74991838  0.25012185  0.33644479
   0.58345755  0.91689517  0.33676946
   0.75034368  0.75039334  0.33654778
Direct configuration=     8
   0.00418303  0.00280550  0.11275707
   0.35919979  0.00261724  0.09950538
   0.00409695  0.35755374  0.09987891
   0.64979656  0.64734872  0.09977058
   0.32776733  0.32534239  0.10023162
   0.68149099  0.00292041  0.10054162
   0.00428306  0.67946570  0.10029340
   0.08317494  0.41701052  0.33649712
   0.24999662  0.25021473  0.33691535
   0.08336985  0.91714006  0.33648069
   0.25017939  0.75012470  0.33633620
   0.58306222  0.41691885  0.33631823
   0.74983936  0.25014900  0.33644338
   0.58281029  0.91667458  0.33684018
   0.74937695  0.74981451  0.33656962
Direct configuration=     9
   0.00420285  0.00279274  0.11222760
   0.35921426  0.00259879  0.09958580
   0.00413686  0.35753331  0.09996716
   0.64981413  0.64734433  0.09985665
   0.32783581  0.32541224  0.10030198
   0.68141897  0.00287183  0.10062278
   0.00430658  0.67939758  0.10036728
   0.08316898  0.41698845  0.33650415
   0.24999382  0.25032597  0.33690873
   0.08334959  0.91707364  0.33649461
   0.25015465  0.75015099  0.33634799
   0.58306536  0.41686410  0.33633512
   0.74978793  0.25016771  0.33644866
   0.58283447  0.91670398  0.33683743
   0.74934306  0.74987502  0.33657338
Direct configuration=    10
   0.00426232  0.00275444  0.11063921
   0.35925768  0.00254342  0.09982706
   0.00425657  0.35747201  0.10023191
   0.64986684  0.64733116  0.10011484
   0.32804124  0.32562180  0.10051307
   0.68120292  0.00272608  0.10086626
   0.00437714  0.67919324  0.10058894
   0.08315110  0.41692223  0.33652523
   0.24998543  0.25065966  0.33688889
   0.08328882  0.91687440  0.33653637
   0.25008044  0.75022985  0.33638338
   0.58307475  0.41669984  0.33638582
   0.74963366  0.25022384  0.33646453
   0.58290703  0.91679217  0.33682918
   0.74924140  0.75005652  0.33658464
Direct configuration=    11
   0.00438126  0.00267784  0.10746242
   0.35934451  0.00243269  0.10030958
   0.00449599  0.35734942  0.10076140
   0.64997225  0.64730482  0.10063122
   0.32845210  0.32604093  0.10093525
   0.68077082  0.00243459  0.10135324
   0.00451826  0.67878456  0.10103226
   0.08311535  0.41678979  0.33656739
   0.24996863  0.25132706  0.33684921
   0.08316727  0.91647591  0.33661990
   0.24993203  0.75038756  0.33645416
   0.58309354  0.41637132  0.33648720
   0.74932511  0.25033610  0.33649626
   0.58305214  0.91696857  0.33681267
   0.74903806  0.75041953  0.33660718
Direct configuration=    12
   0.00440914  0.00265138  0.10683787
   0.35934456  0.00241199  0.10040295
   0.00454357  0.35732299  0.10085567
   0.64999602  0.64731964  0.10072528
   0.32849144  0.32608407  0.10102652
   0.68073919  0.00237961  0.10145063
   0.00454791  0.67872895  0.10112610
   0.08305665  0.41684187  0.33657497
   0.24989130  0.25113877  0.33683600
   0.08309807  0.91658071  0.33663648
   0.24985656  0.75037120  0.33647473
   0.58306430  0.41650261  0.33651050
   0.74937750  0.25032061  0.33650650
   0.58304677  0.91702814  0.33680216
   0.74916435  0.75041814  0.33661299
Direct configuration=    13
   0.00449279  0.00257200  0.10496420
   0.35934473  0.00234990  0.10068306
   0.00468632  0.35724372  0.10113849
   0.65006732  0.64736408  0.10100744
   0.32860944  0.32621352  0.10130031
   0.68064429  0.00221468  0.10174283
   0.00463687  0.67856211  0.10140763
   0.08288056  0.41699809  0.33659770
   0.24965929  0.25057391  0.33679637
   0.08289046  0.91689511  0.33668621
   0.24963017  0.75032214  0.33653644
   0.58297657  0.41689648  0.33658038
   0.74953466  0.25027413  0.33653724
   0.58303066  0.91720685  0.33677061
   0.74954321  0.75041397  0.33663044
Direct configuration=    14
   0.00451312  0.00255270  0.10450877
   0.35934477  0.00233480  0.10075114
   0.00472102  0.35722445  0.10120723
   0.65008465  0.64737489  0.10107602
   0.32863812  0.32624498  0.10136686
   0.68062122  0.00217459  0.10181385
   0.00465850  0.67852156  0.10147607
   0.08283776  0.41703606  0.33660322
   0.24960290  0.25043661  0.33678673
   0.08284000  0.91697154  0.33669829
   0.24957514  0.75031021  0.33655144
   0.58295524  0.41699222  0.33659736
   0.74957286  0.25026283  0.33654471
   0.58302674  0.91725029  0.33676295
   0.74963530  0.75041295  0.33663468
Direct configuration=    15
   0.00452038  0.00253343  0.10443668
   0.35936989  0.00233484  0.10078029
   0.00471320  0.35725649  0.10122196
   0.65004893  0.64735651  0.10109497
   0.32857507  0.32616425  0.10137063
   0.68072101  0.00219342  0.10180580
   0.00465987  0.67856403  0.10147755
   0.08287314  0.41704185  0.33660223
   0.24958825  0.25039010  0.33678481
   0.08289423  0.91703891  0.33669635
   0.24960432  0.75035497  0.33656137
   0.58293204  0.41702568  0.33659937
   0.74958107  0.25032128  0.33655233
   0.58295388  0.91713990  0.33675562
   0.74959204  0.75038500  0.33663939
Direct configuration=    16
   0.00453606  0.00249180  0.10428096
   0.35942417  0.00233493  0.10084323
   0.00469632  0.35732570  0.10125379
   0.64997178  0.64731682  0.10113588
   0.32843889  0.32598988  0.10137877
   0.68093655  0.00223409  0.10178839
   0.00466284  0.67865579  0.10148077
   0.08294956  0.41705436  0.33660010
   0.24955660  0.25028963  0.33678065
   0.08301138  0.91718442  0.33669215
   0.24966734  0.75045166  0.33658282
   0.58288191  0.41709797  0.33660370
   0.74959881  0.25044752  0.33656878
   0.58279651  0.91690147  0.33673979
   0.74949860  0.75032463  0.33664955
Direct configuration=    17
   0.00454522  0.00246514  0.10423449
   0.35948930  0.00233635  0.10088291
   0.00467998  0.35737156  0.10126739
   0.64990180  0.64727073  0.10115697
   0.32838866  0.32591162  0.10137393
   0.68103324  0.00226956  0.10176040
   0.00466125  0.67869359  0.10147134
   0.08295142  0.41705880  0.33659951
   0.24957092  0.25034258  0.33677848
   0.08298696  0.91714782  0.33668827
   0.24965084  0.75044279  0.33659471
   0.58287450  0.41707529  0.33660538
   0.74957355  0.25042734  0.33657866
   0.58281821  0.91694303  0.33673185
   0.74950150  0.75034446  0.33665505
Direct configuration=    18
   0.00456780  0.00239941  0.10411993
   0.35964981  0.00233985  0.10098071
   0.00463971  0.35748460  0.10130090
   0.64972929  0.64715713  0.10120895
   0.32826485  0.32571873  0.10136202
   0.68127156  0.00235699  0.10169142
   0.00465733  0.67878678  0.10144809
   0.08295600  0.41706974  0.33659805
   0.24960620  0.25047309  0.33677314
   0.08292676  0.91705760  0.33667869
   0.24961017  0.75042094  0.33662402
   0.58285623  0.41701936  0.33660952
   0.74951127  0.25037762  0.33660302
   0.58287169  0.91704549  0.33671225
   0.74950865  0.75039332  0.33666861
Direct configuration=    19
   0.00458090  0.00237460  0.10407875
   0.35973124  0.00234136  0.10102440
   0.00462932  0.35749316  0.10130989
   0.64966944  0.64710996  0.10122776
   0.32830964  0.32574019  0.10135870
   0.68125194  0.00238442  0.10165429
   0.00465511  0.67875593  0.10143820
   0.08289240  0.41707432  0.33660265
   0.24957601  0.25042622  0.33676917
   0.08291127  0.91709272  0.33667831
   0.24960785  0.75040725  0.33663135
   0.58288041  0.41705136  0.33661452
   0.74954093  0.25037619  0.33660977
   0.58287529  0.91708698  0.33671145
   0.74951557  0.75038599  0.33667012
Direct configuration=    20
   0.00458986  0.00235762  0.10405057
   0.35978697  0.00234239  0.10105430
   0.00462221  0.35749903  0.10131604
   0.64962848  0.64707767  0.10124063
   0.32834029  0.32575488  0.10135644
   0.68123852  0.00240320  0.10162888
   0.00465360  0.67873481  0.10143143
   0.08284887  0.41707745  0.33660579
   0.24955534  0.25039415  0.33676646
   0.08290067  0.91711676  0.33667805
   0.24960627  0.75039787  0.33663637
   0.58289696  0.41707326  0.33661794
   0.74956123  0.25037521  0.33661438
   0.58287775  0.91711538  0.33671091
   0.74952032  0.75038098  0.33667116
Direct configuration=    21
   0.00460450  0.00233961  0.10401236
   0.35981233  0.00234458  0.10108838
   0.00462278  0.35746098  0.10131710
   0.64963125  0.64707801  0.10125095
   0.32839840  0.32580097  0.10136042
   0.68119270  0.00240795  0.10159729
   0.00465370  0.67868574  0.10142865
   0.08286809  0.41707365  0.33661375
   0.24954432  0.25040405  0.33676318
   0.08291427  0.91712528  0.33668100
   0.24960255  0.75043304  0.33663815
   0.58288209  0.41707336  0.33662438
   0.74954825  0.25041057  0.33661721
   0.58285262  0.91706929  0.33671708
   0.74949949  0.75039359  0.33666943
Direct configuration=    22
   0.00461476  0.00232699  0.10398560
   0.35983010  0.00234612  0.10111225
   0.00462318  0.35743432  0.10131785
   0.64963319  0.64707825  0.10125818
   0.32843911  0.32583326  0.10136322
   0.68116060  0.00241127  0.10157516
   0.00465377  0.67865136  0.10142671
   0.08288155  0.41707098  0.33661932
   0.24953660  0.25041099  0.33676088
   0.08292379  0.91713124  0.33668308
   0.24959994  0.75045768  0.33663939
   0.58287167  0.41707343  0.33662890
   0.74953916  0.25043533  0.33661920
   0.58283502  0.91703700  0.33672140
   0.74948489  0.75040243  0.33666821
Direct configuration=    23
   0.00463212  0.00231054  0.10393802
   0.35979668  0.00234773  0.10114001
   0.00463243  0.35737361  0.10131257
   0.64969077  0.64712167  0.10126208
   0.32845225  0.32583794  0.10137589
   0.68116621  0.00239662  0.10154781
   0.00465906  0.67862391  0.10143190
   0.08289440  0.41709730  0.33662822
   0.24954826  0.25044031  0.33676086
   0.08290311  0.91712885  0.33668704
   0.24958500  0.75045294  0.33663999
   0.58284194  0.41707877  0.33663497
   0.74951294  0.25042031  0.33662207
   0.58282850  0.91706279  0.33673110
   0.74948367  0.75040738  0.33666679
Direct configuration=    24
   0.00465724  0.00228673  0.10386915
   0.35974832  0.00235007  0.10118019
   0.00464581  0.35728575  0.10130494
   0.64977411  0.64718451  0.10126773
   0.32847127  0.32584470  0.10139424
   0.68117433  0.00237541  0.10150822
   0.00466671  0.67858418  0.10143942
   0.08291299  0.41713538  0.33664111
   0.24956513  0.25048273  0.33676084
   0.08287319  0.91712538  0.33669278
   0.24956337  0.75044608  0.33664087
   0.58279892  0.41708649  0.33664376
   0.74947499  0.25039857  0.33662622
   0.58281906  0.91710013  0.33674514
   0.74948189  0.75041455  0.33666474
Direct configuration=    25
   0.00467453  0.00227258  0.10381112
   0.35972886  0.00234471  0.10119976
   0.00466081  0.35725286  0.10129702
   0.64981921  0.64720401  0.10126733
   0.32846676  0.32582584  0.10141241
   0.68120268  0.00235088  0.10148736
   0.00467954  0.67857209  0.10145043
   0.08285281  0.41712398  0.33664742
   0.24952363  0.25046326  0.33676653
   0.08286768  0.91715148  0.33669523
   0.24955768  0.75046230  0.33664445
   0.58282336  0.41710369  0.33664707
   0.74949239  0.25043105  0.33663234
   0.58281348  0.91711389  0.33675340
   0.74946390  0.75042805  0.33666746
Direct configuration=    26
   0.00468914  0.00226061  0.10376210
   0.35971242  0.00234019  0.10121630
   0.00467349  0.35722507  0.10129032
   0.64985732  0.64722049  0.10126700
   0.32846295  0.32580991  0.10142777
   0.68122664  0.00233016  0.10146974
   0.00469038  0.67856187  0.10145974
   0.08280196  0.41711435  0.33665275
   0.24948857  0.25044680  0.33677133
   0.08286302  0.91717353  0.33669730
   0.24955288  0.75047600  0.33664747
   0.58284401  0.41711823  0.33664987
   0.74950709  0.25045849  0.33663750
   0.58280876  0.91712551  0.33676038
   0.74944870  0.75043945  0.33666976
Direct configuration=    27
   0.00470567  0.00224964  0.10369041
   0.35975033  0.00232219  0.10122673
   0.00469432  0.35723658  0.10128324
   0.64985598  0.64717848  0.10126452
   0.32847362  0.32579257  0.10144847
   0.68124275  0.00230163  0.10145592
   0.00471226  0.67855268  0.10147438
   0.08279693  0.41712667  0.33665640
   0.24947453  0.25046664  0.33678285
   0.08285190  0.91718416  0.33669896
   0.24953863  0.75049839  0.33665518
   0.58282478  0.41712906  0.33665113
   0.74948673  0.25047844  0.33664728
   0.58278927  0.91712594  0.33676618
   0.74942964  0.75045760  0.33667768
Direct configuration=    28
   0.00475525  0.00221672  0.10347533
   0.35986408  0.00226820  0.10125800
   0.00475683  0.35727114  0.10126201
   0.64985194  0.64705243  0.10125710
   0.32850561  0.32574055  0.10151055
   0.68129107  0.00221602  0.10141446
   0.00477789  0.67852509  0.10151828
   0.08278182  0.41716364  0.33666737
   0.24943241  0.25052618  0.33681741
   0.08281855  0.91721604  0.33670394
   0.24949586  0.75056558  0.33667831
   0.58276710  0.41716154  0.33665491
   0.74942564  0.25053829  0.33667662
   0.58273081  0.91712724  0.33678358
   0.74937246  0.75051203  0.33670145
Direct configuration=    29
   0.00477308  0.00220395  0.10339096
   0.35991888  0.00223840  0.10126461
   0.00478022  0.35727772  0.10126583
   0.64984419  0.64699360  0.10126126
   0.32853559  0.32572132  0.10152187
   0.68130149  0.00219589  0.10140378
   0.00480391  0.67851420  0.10152600
   0.08276698  0.41721336  0.33667450
   0.24943374  0.25054099  0.33682690
   0.08277744  0.91724086  0.33671153
   0.24946829  0.75054574  0.33668590
   0.58272797  0.41719511  0.33666185
   0.74940129  0.25051392  0.33668427
   0.58271850  0.91719594  0.33679082
   0.74937576  0.75050967  0.33670925
Direct configuration=    30
   0.00477956  0.00219930  0.10336026
   0.35993881  0.00222756  0.10126701
   0.00478872  0.35728012  0.10126722
   0.64984137  0.64697221  0.10126277
   0.32854650  0.32571432  0.10152599
   0.68130528  0.00218857  0.10139989
   0.00481338  0.67851024  0.10152881
   0.08276158  0.41723145  0.33667710
   0.24943423  0.25054638  0.33683035
   0.08276248  0.91724989  0.33671430
   0.24945826  0.75053852  0.33668867
   0.58271374  0.41720732  0.33666438
   0.74939244  0.25050506  0.33668705
   0.58271402  0.91722092  0.33679346
   0.74937696  0.75050881  0.33671209
Direct configuration=    31
   0.00479840  0.00218319  0.10327093
   0.35998197  0.00219163  0.10127030
   0.00481226  0.35727097  0.10128302
   0.64984698  0.64692377  0.10127457
   0.32858343  0.32568624  0.10152458
   0.68132387  0.00217714  0.10139280
   0.00484028  0.67849597  0.10152693
   0.08273174  0.41724788  0.33668752
   0.24941083  0.25056925  0.33683644
   0.08273733  0.91726697  0.33672742
   0.24943206  0.75055443  0.33669545
   0.58269611  0.41722414  0.33667690
   0.74937350  0.25052492  0.33669181
   0.58269979  0.91725301  0.33680176
   0.74935877  0.75053117  0.33671890
Direct configuration=    32
   0.00485491  0.00213485  0.10300292
   0.36011145  0.00208384  0.10128019
   0.00488287  0.35724354  0.10133040
   0.64986382  0.64677845  0.10130997
   0.32869425  0.32560200  0.10152036
   0.68137963  0.00214287  0.10137154
   0.00492099  0.67845317  0.10152130
   0.08264219  0.41729718  0.33671877
   0.24934062  0.25063784  0.33685471
   0.08266189  0.91731820  0.33676680
   0.24935348  0.75060215  0.33671578
   0.58264323  0.41727457  0.33671448
   0.74931670  0.25058451  0.33670610
   0.58265711  0.91734926  0.33682667
   0.74930420  0.75059825  0.33673935
Direct configuration=    33
   0.00496794  0.00203816  0.10246690
   0.36037042  0.00186826  0.10129995
   0.00502409  0.35718867  0.10142518
   0.64989749  0.64648782  0.10138077
   0.32891587  0.32543350  0.10151192
   0.68149115  0.00207431  0.10132902
   0.00508241  0.67836757  0.10151002
   0.08246311  0.41739577  0.33678127
   0.24920021  0.25077503  0.33689126
   0.08251100  0.91742067  0.33684555
   0.24919630  0.75069758  0.33675646
   0.58253746  0.41737545  0.33678964
   0.74920309  0.25070370  0.33673467
   0.58257175  0.91754175  0.33687647
   0.74919506  0.75073241  0.33678024
Direct configuration=    34
   0.00492671  0.00207343  0.10266244
   0.36027595  0.00194690  0.10129274
   0.00497257  0.35720869  0.10139061
   0.64988520  0.64659384  0.10135494
   0.32883502  0.32549497  0.10151500
   0.68145047  0.00209932  0.10134453
   0.00502352  0.67839880  0.10151414
   0.08252844  0.41735980  0.33675847
   0.24925143  0.25072498  0.33687793
   0.08256604  0.91738329  0.33681682
   0.24925364  0.75066277  0.33674162
   0.58257605  0.41733865  0.33676222
   0.74924453  0.25066022  0.33672425
   0.58260289  0.91747153  0.33685830
   0.74923487  0.75068347  0.33676532
Direct configuration=    35
   0.00493966  0.00206105  0.10260890
   0.36028594  0.00192863  0.10129482
   0.00498735  0.35719825  0.10140062
   0.64990205  0.64657969  0.10136250
   0.32884944  0.32547318  0.10151242
   0.68147226  0.00208904  0.10134147
   0.00503892  0.67838613  0.10151176
   0.08251988  0.41736996  0.33676389
   0.24923607  0.25073601  0.33688251
   0.08255893  0.91739747  0.33682376
   0.24924527  0.75068409  0.33674667
   0.58256298  0.41735137  0.33676889
   0.74923026  0.25068006  0.33672813
   0.58258306  0.91746817  0.33686259
   0.74921526  0.75069756  0.33677041
Direct configuration=    36
   0.00497853  0.00202388  0.10244826
   0.36031591  0.00187381  0.10130105
   0.00503170  0.35716694  0.10143067
   0.64995259  0.64653724  0.10138519
   0.32889271  0.32540781  0.10150468
   0.68153764  0.00205820  0.10133228
   0.00508510  0.67834814  0.10150464
   0.08249419  0.41740045  0.33678018
   0.24918997  0.25076909  0.33689624
   0.08253760  0.91744000  0.33684456
   0.24922016  0.75074807  0.33676181
   0.58252380  0.41738952  0.33678888
   0.74918743  0.25073959  0.33673976
   0.58252357  0.91745809  0.33687545
   0.74915643  0.75073983  0.33678568
Direct configuration=    37
   0.00505627  0.00194956  0.10212699
   0.36037585  0.00176417  0.10131351
   0.00512039  0.35710431  0.10149075
   0.65005368  0.64645234  0.10143056
   0.32897923  0.32527707  0.10148920
   0.68166840  0.00199653  0.10131391
   0.00517746  0.67827216  0.10149041
   0.08244282  0.41746142  0.33681274
   0.24909778  0.25083524  0.33692371
   0.08249494  0.91752506  0.33688618
   0.24916994  0.75087602  0.33679211
   0.58244542  0.41746583  0.33682886
   0.74910179  0.25085864  0.33676304
   0.58240460  0.91743793  0.33690116
   0.74903878  0.75082438  0.33681621
Direct configuration=    38
   0.00508575  0.00192137  0.10200516
   0.36039858  0.00172260  0.10131824
   0.00515402  0.35708056  0.10151354
   0.65009201  0.64642015  0.10144776
   0.32901205  0.32522749  0.10148333
   0.68171798  0.00197314  0.10130694
   0.00521248  0.67824335  0.10148501
   0.08242334  0.41748454  0.33682509
   0.24906281  0.25086032  0.33693413
   0.08247876  0.91755732  0.33690196
   0.24915090  0.75092454  0.33680359
   0.58241570  0.41749476  0.33684402
   0.74906931  0.25090379  0.33677186
   0.58235948  0.91743029  0.33691092
   0.74899416  0.75085644  0.33682779
Direct configuration=    39
   0.00513331  0.00187442  0.10184125
   0.36039709  0.00168142  0.10132636
   0.00520404  0.35702416  0.10154210
   0.65017927  0.64641600  0.10147024
   0.32904484  0.32516939  0.10147189
   0.68179135  0.00192290  0.10130352
   0.00525661  0.67818607  0.10147567
   0.08239279  0.41754452  0.33683760
   0.24903078  0.25088968  0.33695293
   0.08242965  0.91760453  0.33691749
   0.24911036  0.75095268  0.33682309
   0.58236076  0.41754914  0.33685917
   0.74902253  0.25092216  0.33678883
   0.58231231  0.91747911  0.33692161
   0.74896165  0.75088450  0.33684758
Direct configuration=    40
   0.00525304  0.00175620  0.10142859
   0.36039334  0.00157775  0.10134682
   0.00532998  0.35688217  0.10161399
   0.65039893  0.64640555  0.10152681
   0.32912740  0.32502313  0.10144310
   0.68197604  0.00179642  0.10129491
   0.00536771  0.67804187  0.10145217
   0.08231589  0.41769550  0.33686911
   0.24895012  0.25096357  0.33700026
   0.08230601  0.91772339  0.33695658
   0.24900828  0.75102352  0.33687218
   0.58222245  0.41768602  0.33689733
   0.74890477  0.25096842  0.33683154
   0.58219357  0.91760202  0.33694853
   0.74887981  0.75095513  0.33689742
Direct configuration=    41
   0.00530045  0.00171410  0.10130987
   0.36041957  0.00156369  0.10135648
   0.00537358  0.35680789  0.10162690
   0.65046213  0.64640109  0.10153918
   0.32917526  0.32503354  0.10143246
   0.68197384  0.00173735  0.10130246
   0.00539872  0.67798320  0.10144482
   0.08225410  0.41770239  0.33687544
   0.24891189  0.25101897  0.33701805
   0.08225806  0.91772809  0.33696164
   0.24895003  0.75103982  0.33688884
   0.58220731  0.41768933  0.33690295
   0.74888000  0.25100066  0.33684881
   0.58219860  0.91767862  0.33695695
   0.74886380  0.75100192  0.33691450
Direct configuration=    42
   0.00535847  0.00166259  0.10116461
   0.36045166  0.00154649  0.10136829
   0.00542694  0.35671699  0.10164269
   0.65053946  0.64639564  0.10155433
   0.32923383  0.32504626  0.10141944
   0.68197115  0.00166508  0.10131170
   0.00543666  0.67791141  0.10143582
   0.08217849  0.41771081  0.33688318
   0.24886510  0.25108677  0.33703981
   0.08219938  0.91773385  0.33696782
   0.24887875  0.75105977  0.33690924
   0.58218878  0.41769337  0.33690983
   0.74884970  0.25104011  0.33686994
   0.58220475  0.91777235  0.33696724
   0.74884420  0.75105917  0.33693539
Direct configuration=    43
   0.00540311  0.00162454  0.10108195
   0.36050918  0.00154686  0.10138003
   0.00546006  0.35665307  0.10164184
   0.65056524  0.64637395  0.10155809
   0.32927563  0.32507644  0.10141003
   0.68194428  0.00161133  0.10132713
   0.00546151  0.67786910  0.10143031
   0.08215654  0.41773433  0.33688928
   0.24883603  0.25109861  0.33705196
   0.08219342  0.91777729  0.33696927
   0.24887473  0.75109647  0.33691946
   0.58216584  0.41772455  0.33691260
   0.74882901  0.25107893  0.33688334
   0.58215665  0.91776169  0.33697821
   0.74879611  0.75107350  0.33694583
Direct configuration=    44
   0.00544813  0.00158617  0.10099856
   0.36056719  0.00154723  0.10139187
   0.00549347  0.35658859  0.10164099
   0.65059126  0.64635207  0.10156188
   0.32931779  0.32510688  0.10140054
   0.68191718  0.00155711  0.10134271
   0.00548657  0.67782642  0.10142476
   0.08213440  0.41775807  0.33689543
   0.24880670  0.25111056  0.33706422
   0.08218742  0.91782111  0.33697072
   0.24887067  0.75113348  0.33692977
   0.58214270  0.41775599  0.33691540
   0.74880813  0.25111810  0.33689685
   0.58210814  0.91775094  0.33698928
   0.74874759  0.75108795  0.33695637
Direct configuration=    45
   0.00548448  0.00154854  0.10094278
   0.36061517  0.00154788  0.10140557
   0.00551173  0.35656364  0.10163166
   0.65059822  0.64632917  0.10156050
   0.32931674  0.32508805  0.10139174
   0.68194964  0.00152368  0.10136084
   0.00551038  0.67780820  0.10141991
   0.08213805  0.41780015  0.33690448
   0.24879750  0.25112321  0.33706825
   0.08215691  0.91783965  0.33697348
   0.24884726  0.75115005  0.33693285
   0.58210366  0.41779019  0.33692016
   0.74877444  0.25111443  0.33690433
   0.58208227  0.91777020  0.33700378
   0.74874090  0.75110362  0.33695902
Direct configuration=    46
   0.00552418  0.00150743  0.10088185
   0.36066758  0.00154859  0.10142053
   0.00553169  0.35653639  0.10162148
   0.65060582  0.64630415  0.10155900
   0.32931558  0.32506749  0.10138213
   0.68198510  0.00148716  0.10138065
   0.00553639  0.67778830  0.10141461
   0.08214204  0.41784612  0.33691436
   0.24878744  0.25113704  0.33707264
   0.08212359  0.91785991  0.33697648
   0.24882168  0.75116816  0.33693621
   0.58206102  0.41782754  0.33692536
   0.74873764  0.25111042  0.33691250
   0.58205401  0.91779123  0.33701961
   0.74873359  0.75112074  0.33696192
Direct configuration=    47
   0.00555430  0.00147123  0.10083579
   0.36070667  0.00154174  0.10143493
   0.00554469  0.35652538  0.10161091
   0.65060985  0.64628084  0.10155698
   0.32931086  0.32503059  0.10137287
   0.68203779  0.00146680  0.10139736
   0.00556048  0.67777357  0.10140905
   0.08211129  0.41785011  0.33692379
   0.24876135  0.25116512  0.33707396
   0.08210162  0.91786760  0.33697979
   0.24879325  0.75118938  0.33693803
   0.58205066  0.41783348  0.33693099
   0.74872156  0.25113860  0.33691848
   0.58204611  0.91781641  0.33703367
   0.74871684  0.75114983  0.33696273
Direct configuration=    48
   0.00559084  0.00142731  0.10077992
   0.36075409  0.00153343  0.10145240
   0.00556047  0.35651203  0.10159810
   0.65061473  0.64625256  0.10155454
   0.32930514  0.32498582  0.10136162
   0.68210170  0.00144209  0.10141762
   0.00558970  0.67775570  0.10140232
   0.08207400  0.41785495  0.33693524
   0.24872971  0.25119918  0.33707555
   0.08207498  0.91787694  0.33698380
   0.24875877  0.75121512  0.33694024
   0.58203809  0.41784068  0.33693781
   0.74870207  0.25117278  0.33692573
   0.58203652  0.91784696  0.33705072
   0.74869653  0.75118511  0.33696372
Direct configuration=    49
   0.00559996  0.00141374  0.10076279
   0.36076998  0.00151479  0.10146004
   0.00556758  0.35650354  0.10159419
   0.65062016  0.64623618  0.10155460
   0.32932705  0.32496864  0.10135555
   0.68211939  0.00144410  0.10142209
   0.00560293  0.67774254  0.10139774
   0.08204628  0.41786086  0.33693853
   0.24871428  0.25120432  0.33707581
   0.08207539  0.91790464  0.33698509
   0.24876068  0.75122081  0.33694310
   0.58203597  0.41785235  0.33694046
   0.74870222  0.25119324  0.33692966
   0.58201782  0.91785689  0.33705441
   0.74866765  0.75118403  0.33696527
Direct configuration=    50
   0.00560899  0.00140030  0.10074583
   0.36078570  0.00149635  0.10146760
   0.00557461  0.35649513  0.10159032
   0.65062554  0.64621996  0.10155467
   0.32934873  0.32495163  0.10134953
   0.68213689  0.00144610  0.10142652
   0.00561603  0.67772951  0.10139322
   0.08201884  0.41786672  0.33694178
   0.24869901  0.25120941  0.33707607
   0.08207579  0.91793205  0.33698637
   0.24876257  0.75122644  0.33694592
   0.58203388  0.41786390  0.33694309