   16   16    1    1
  0.2012733E+02  0.4979000E-09  0.4979000E-09  0.1500000E-08  0.5000000E-15
  1.000000000000000E-004
  CAR 
 SC                                      
     56     75     48
 
  0.0000000E+00  0.0000000E+00  0.0000000E+00  0.1371742E-02
      1        -19.704052   1.000000
      2        -16.019199   1.000000
      3        -14.588874   1.000000
      4        -14.588842   1.000000
      5        -14.587822   1.000000
      6        -13.464972   1.000000
      7        -13.462460   1.000000
      8        -13.462407   1.000000
      9        -11.797858   1.000000
     10        -11.700184   1.000000
     11        -11.700165   1.000000
     12         -9.490290   1.000000
     13         -9.490267   1.000000
     14         -8.021811   1.000000
     15         -7.492668   1.000000
     16         -6.741156   1.000000
     17         -6.740907   1.000000
     18         -6.740880   1.000000
     19         -6.674523   1.000000
     20         -3.451930   1.000000
     21         -3.451814   1.000000
     22         -2.766438   1.000000
     23         -2.766411   1.000000
     24         -2.752016   1.000000
     25         -1.690256   1.000000
     26         -1.690252   1.000000
     27         -0.299608   0.969770
     28          0.092171   0.000125
     29          0.092190   0.000124
     30          0.622365   0.000000
     31          0.622388   0.000000
     32          0.989527   0.000000
     33          0.989547   0.000000
     34          1.292642   0.000000
     35          1.501283   0.000000
     36          1.501318   0.000000
     37          2.930731   0.000000
     38          3.574275   0.000000
     39          4.476844   0.000000
     40          4.784515   0.000000
     41          6.675580   0.000000
     42          6.682524   0.000000
     43          6.682546   0.000000
     44          7.014688   0.000000
     45          7.722759   0.000000
     46          7.726206   0.000000
     47          7.726338   0.000000
     48          8.123552   0.000000
 
  0.3703704E-01  0.9414700E-18  0.0000000E+00  0.8230453E-02
      1        -19.696090   1.000000
      2        -16.012807   1.000000
      3        -14.711506   1.000000
      4        -14.617017   1.000000
      5        -14.616383   1.000000
      6        -13.422805   1.000000
      7        -13.421160   1.000000
      8        -13.328392   1.000000
      9        -11.993788   1.000000
     10        -11.706730   1.000000
     11        -11.508742   1.000000
     12         -9.504105   1.000000
     13         -9.473514   1.000000
     14         -8.011424   1.000000
     15         -7.460433   1.000000
     16         -6.766292   1.000000
     17         -6.766122   1.000000
     18         -6.733119   1.000000
     19         -6.664822   1.000000
     20         -3.485600   1.000000
     21         -3.469232   1.000000
     22         -2.816616   1.000000
     23         -2.772817   1.000000
     24         -2.761633   1.000000
     25         -1.776750   1.000000
     26         -1.763417   1.000000
     27         -0.477395   0.999994
     28          0.059216   0.000694
     29          0.204864   0.000000
     30          0.654934   0.000000
     31          0.666059   0.000000
     32          1.062521   0.000000
     33          1.071286   0.000000
     34          1.325166   0.000000
     35          1.544873   0.000000
     36          1.569107   0.000000
     37          2.942026   0.000000
     38          3.587859   0.000000
     39          4.507235   0.000000
     40          4.798950   0.000000
     41          6.684254   0.000000
     42          6.715973   0.000000
     43          6.720267   0.000000
     44          7.023993   0.000000
     45          7.715232   0.000000
     46          7.747201   0.000000
     47          7.760763   0.000000
     48          8.067321   0.000000
 
  0.7407407E-01  0.1882940E-17  0.0000000E+00  0.8230453E-02
      1        -19.672164   1.000000
      2        -15.993659   1.000000
      3        -14.983280   1.000000
      4        -14.690874   1.000000
      5        -14.690393   1.000000
      6        -13.309560   1.000000
      7        -13.308078   1.000000
      8        -13.021036   1.000000
      9        -12.232555   1.000000
     10        -11.725582   1.000000
     11        -11.285191   1.000000
     12         -9.539023   1.000000
     13         -9.424104   1.000000
     14         -7.980624   1.000000
     15         -7.368818   1.000000
     16         -6.840796   1.000000
     17         -6.840653   1.000000
     18         -6.709540   1.000000
     19         -6.635696   1.000000
     20         -3.584954   1.000000
     21         -3.520531   1.000000
     22         -2.966710   1.000000
     23         -2.791739   1.000000
     24         -2.780966   1.000000
     25         -2.002088   1.000000
     26         -1.956477   1.000000
     27         -0.801618   1.000000
     28         -0.050852   0.050448
     29          0.294791   0.000000
     30          0.824313   0.000000
     31          0.827247   0.000000
     32          1.221467   0.000000
     33          1.260400   0.000000
     34          1.401563   0.000000
     35          1.681454   0.000000
     36          1.780932   0.000000
     37          2.976104   0.000000
     38          3.627714   0.000000
     39          4.593462   0.000000
     40          4.845493   0.000000
     41          6.697467   0.000000
     42          6.827798   0.000000
     43          6.832403   0.000000
     44          7.051980   0.000000
     45          7.714648   0.000000
     46          7.778016   0.000000
     47          7.863530   0.000000
     48          7.906386   0.000000
 
  0.1111111E+00 -0.5467310E-17  0.0000000E+00  0.8230453E-02
      1        -19.632287   1.000000
      2        -15.961875   1.000000
      3        -15.301959   1.000000
      4        -14.790111   1.000000
      5        -14.789782   1.000000
      6        -13.145124   1.000000
      7        -13.143790   1.000000
      8        -12.643285   1.000000
      9        -12.472128   1.000000
     10        -11.754686   1.000000
     11        -11.077317   1.000000
     12         -9.577822   1.000000
     13         -9.344527   1.000000
     14         -7.930475   1.000000
     15         -7.230972   1.000000
     16         -6.961774   1.000000
     17         -6.961670   1.000000
     18         -6.670331   1.000000
     19         -6.587248   1.000000
     20         -3.746858   1.000000
     21         -3.603736   1.000000
     22         -3.190476   1.000000
     23         -2.822081   1.000000
     24         -2.811053   1.000000
     25         -2.306171   1.000000
     26         -2.219088   1.000000
     27         -1.165275   1.000000
     28         -0.206334   0.711690
     29          0.289380   0.000000
     30          1.054757   0.000000
     31          1.126008   0.000000
     32          1.394816   0.000000
     33          1.423511   0.000000
     34          1.625468   0.000000
     35          1.910823   0.000000
     36          2.094204   0.000000
     37          3.033732   0.000000
     38          3.691746   0.000000
     39          4.716564   0.000000
     40          4.937766   0.000000
     41          6.718980   0.000000
     42          7.010177   0.000000
     43          7.015703   0.000000
     44          7.097780   0.000000
     45          7.581210   0.000000
     46          7.747070   0.000000
     47          7.852933   0.000000
     48          8.032651   0.000000
 
  0.1481481E+00 -0.4498500E-17  0.0000000E+00  0.8230453E-02
      1        -19.576500   1.000000
      2        -15.917732   1.000000
      3        -15.630773   1.000000
      4        -14.898577   1.000000
      5        -14.898370   1.000000
      6        -12.946249   1.000000
      7        -12.944944   1.000000
      8        -12.709963   1.000000
      9        -12.231703   1.000000
     10        -11.791188   1.000000
     11        -10.899193   1.000000
     12         -9.596868   1.000000
     13         -9.238355   1.000000
     14         -7.861637   1.000000
     15         -7.124729   1.000000
     16         -7.124678   1.000000
     17         -7.063800   1.000000
     18         -6.615678   1.000000
     19         -6.519679   1.000000
     20         -3.967137   1.000000
     21         -3.715327   1.000000
     22         -3.462494   1.000000
     23         -2.864718   1.000000
     24         -2.850890   1.000000
     25         -2.643708   1.000000
     26         -2.510168   1.000000
     27         -1.542045   1.000000
     28         -0.371445   0.998094
     29          0.244865   0.000000
     30          1.263186   0.000000
     31          1.451538   0.000000
     32          1.514079   0.000000
     33          1.693396   0.000000
     34          1.974467   0.000000
     35          2.211170   0.000000
     36          2.454083   0.000000
     37          3.117136   0.000000
     38          3.778126   0.000000
     39          4.843791   0.000000
     40          5.099192   0.000000
     41          6.748272   0.000000
     42          7.125084   0.000000
     43          7.241664   0.000000
     44          7.265092   0.000000
     45          7.265190   0.000000
     46          7.756975   0.000000
     47          7.910411   0.000000
     48          8.071510   0.000000
 
  0.1851852E+00 -0.1022536E-16  0.0000000E+00  0.8230453E-02
      1        -19.504820   1.000000
      2        -15.958117   1.000000
      3        -15.860327   1.000000
      4        -15.006534   1.000000
      5        -15.006413   1.000000
      6        -12.944324   1.000000
      7        -12.722847   1.000000
      8        -12.722059   1.000000
      9        -11.832031   1.000000
     10        -11.800010   1.000000
     11        -10.767784   1.000000
     12         -9.570609   1.000000
     13         -9.109741   1.000000
     14         -7.774290   1.000000
     15         -7.323862   1.000000
     16         -7.323811   1.000000
     17         -6.885166   1.000000
     18         -6.545786   1.000000
     19         -6.433289   1.000000
     20         -4.239050   1.000000
     21         -3.851122   1.000000
     22         -3.762470   1.000000
     23         -3.024543   1.000000
     24         -2.904565   1.000000
     25         -2.883328   1.000000
     26         -2.796806   1.000000
     27         -1.918794   1.000000
     28         -0.530394   1.000000
     29          0.183726   0.000000
     30          1.434168   0.000000
     31          1.567321   0.000000
     32          1.876228   0.000000
     33          2.028896   0.000000
     34          2.374911   0.000000
     35          2.558029   0.000000
     36          2.824710   0.000000
     37          3.233926   0.000000
     38          3.886121   0.000000
     39          4.965110   0.000000
     40          5.326332   0.000000
     41          6.752726   0.000000
     42          6.791569   0.000000
     43          7.254195   0.000000
     44          7.572047   0.000000
     45          7.574159   0.000000
     46          7.736596   0.000000
     47          7.785749   0.000000
     48          8.022283   0.000000
 
  0.2222222E+00 -0.1811674E-16  0.0000000E+00  0.8230453E-02
      1        -19.417300   1.000000
      2        -16.276046   1.000000
      3        -15.792725   1.000000
      4        -15.108449   1.000000
      5        -15.108384   1.000000
      6        -13.172899   1.000000
      7        -12.482623   1.000000
      8        -12.481832   1.000000
      9        -11.874361   1.000000
     10        -11.353797   1.000000
     11        -10.694573   1.000000
     12         -9.481803   1.000000
     13         -8.963223   1.000000
     14         -7.668538   1.000000
     15         -7.552638   1.000000
     16         -7.552524   1.000000
     17         -6.713327   1.000000
     18         -6.460979   1.000000
     19         -6.328687   1.000000
     20         -4.556396   1.000000
     21         -4.076039   1.000000
     22         -4.007083   1.000000
     23         -3.370046   1.000000
     24         -3.092584   1.000000
     25         -2.939742   1.000000
     26         -2.938266   1.000000
     27         -2.285887   1.000000
     28         -0.676635   1.000000
     29          0.115193   0.000033
     30          1.587677   0.000000
     31          1.676549   0.000000
     32          2.265230   0.000000
     33          2.399936   0.000000
     34          2.805421   0.000000
     35          2.933989   0.000000
     36          3.161635   0.000000
     37          3.416336   0.000000
     38          4.016245   0.000000
     39          5.093393   0.000000
     40          5.587591   0.000000
     41          6.303450   0.000000
     42          6.828895   0.000000
     43          7.318463   0.000000
     44          7.463646   0.000000
     45          7.774415   0.000000
     46          7.908682   0.000000
     47          7.931117   0.000000
     48          7.949518   0.000000
 
  0.2592593E+00 -0.3772139E-16  0.0000000E+00  0.8230453E-02
      1        -19.313982   1.000000
      2        -16.583946   1.000000
      3        -15.713586   1.000000
      4        -15.201147   1.000000
      5        -15.201105   1.000000
      6        -13.394671   1.000000
      7        -12.229869   1.000000
      8        -12.229254   1.000000
      9        -11.915664   1.000000
     10        -10.896351   1.000000
     11        -10.673691   1.000000
     12         -9.333297   1.000000
     13         -8.803703   1.000000
     14         -7.804285   1.000000
     15         -7.804083   1.000000
     16         -7.544482   1.000000
     17         -6.567365   1.000000
     18         -6.361753   1.000000
     19         -6.206889   1.000000
     20         -4.912567   1.000000
     21         -4.393231   1.000000
     22         -4.178427   1.000000
     23         -3.714785   1.000000
     24         -3.330795   1.000000
     25         -3.008879   1.000000
     26         -2.987565   1.000000
     27         -2.628752   1.000000
     28         -0.807170   1.000000
     29          0.045330   0.001347
     30          1.733540   0.000000
     31          1.793299   0.000000
     32          2.652655   0.000000
     33          2.789670   0.000000
     34          3.235718   0.000000
     35          3.326249   0.000000
     36          3.420875   0.000000
     37          3.717192   0.000000
     38          4.170870   0.000000
     39          5.236423   0.000000
     40          5.815558   0.000000
     41          5.885009   0.000000
     42          6.868121   0.000000
     43          7.088096   0.000000
     44          7.481923   0.000000
     45          7.622280   0.000000
     46          7.768917   0.000000
     47          7.903852   0.000000
     48          7.915296   0.000000
 
  0.2962963E+00 -0.1677493E-16  0.0000000E+00  0.8230453E-02
      1        -19.194925   1.000000
      2        -16.879878   1.000000
      3        -15.624462   1.000000
      4        -15.282692   1.000000
      5        -15.282622   1.000000
      6        -13.607661   1.000000
      7        -11.972987   1.000000
      8        -11.969168   1.000000
      9        -11.949838   1.000000
     10        -10.686546   1.000000
     11        -10.429862   1.000000
     12         -9.143389   1.000000
     13         -8.636775   1.000000
     14         -8.071191   1.000000
     15         -8.070855   1.000000
     16         -7.402328   1.000000
     17         -6.466304   1.000000
     18         -6.248402   1.000000
     19         -6.069510   1.000000
     20         -5.301340   1.000000
     21         -4.707182   1.000000
     22         -4.361015   1.000000
     23         -4.043134   1.000000
     24         -3.521759   1.000000
     25         -3.141810   1.000000
     26         -3.031992   1.000000
     27         -2.889705   1.000000
     28         -0.920440   1.000000
     29         -0.021225   0.019723
     30          1.872326   0.000000
     31          1.912150   0.000000
     32          3.029571   0.000000
     33          3.191369   0.000000
     34          3.535962   0.000000
     35          3.724417   0.000000
     36          3.775290   0.000000
     37          4.071864   0.000000
     38          4.357461   0.000000
     39          5.385392   0.000000
     40          5.430637   0.000000
     41          6.064466   0.000000
     42          6.745501   0.000000
     43          6.962371   0.000000
     44          7.326954   0.000000
     45          7.517695   0.000000
     46          7.614627   0.000000
     47          7.680532   0.000000
     48          7.753858   0.000000
 
  0.3333333E+00 -0.8624001E-17  0.0000000E+00  0.8230453E-02
      1        -19.060198   1.000000
      2        -17.162876   1.000000
      3        -15.527225   1.000000
      4        -15.351884   1.000000
      5        -15.351638   1.000000
      6        -13.809407   1.000000
      7        -11.988923   1.000000
      8        -11.705843   1.000000
      9        -11.704726   1.000000
     10        -10.714798   1.000000
     11         -9.956370   1.000000
     12         -8.932452   1.000000
     13         -8.469805   1.000000
     14         -8.344992   1.000000
     15         -8.343939   1.000000
     16         -7.242445   1.000000
     17         -6.424774   1.000000
     18         -6.121716   1.000000
     19         -5.919766   1.000000
     20         -5.716700   1.000000
     21         -5.011476   1.000000
     22         -4.550726   1.000000
     23         -4.346408   1.000000
     24         -3.652981   1.000000
     25         -3.403137   1.000000
     26         -3.071726   1.000000
     27         -2.998866   1.000000
     28         -1.015576   1.000000
     29         -0.080977   0.112280
     30          2.000285   0.000000
     31          2.026157   0.000000
     32          3.385860   0.000000
     33          3.600932   0.000000
     34          3.750397   0.000000
     35          4.119602   0.000000
     36          4.207820   0.000000
     37          4.412878   0.000000
     38          4.600373   0.000000
     39          5.039122   0.000000
     40          5.574389   0.000000
     41          6.093721   0.000000
     42          6.582973   0.000000
     43          6.980128   0.000000
     44          7.061877   0.000000
     45          7.175606   0.000000
     46          7.436271   0.000000
     47          7.668701   0.000000
     48          7.798199   0.000000
 
  0.3703704E+00 -0.3039317E-16  0.0000000E+00  0.8230453E-02
      1        -18.909895   1.000000
      2        -17.432303   1.000000
      3        -15.428031   1.000000
      4        -15.407944   1.000000
      5        -15.404301   1.000000
      6        -13.996194   1.000000
      7        -12.017293   1.000000
      8        -11.447614   1.000000
      9        -11.446660   1.000000
     10        -10.746486   1.000000
     11         -9.477563   1.000000
     12         -8.718840   1.000000
     13         -8.615355   1.000000
     14         -8.614595   1.000000
     15         -8.308931   1.000000
     16         -7.065622   1.000000
     17         -6.444899   1.000000
     18         -6.153335   1.000000
     19         -5.982135   1.000000
     20         -5.769198   1.000000
     21         -5.294149   1.000000
     22         -4.743773   1.000000
     23         -4.615008   1.000000
     24         -3.741174   1.000000
     25         -3.677378   1.000000
     26         -3.105356   1.000000
     27         -3.049159   1.000000
     28         -1.092092   1.000000
     29         -0.131363   0.307865
     30          2.111930   0.000000
     31          2.128051   0.000000
     32          3.706813   0.000000
     33          3.976000   0.000000
     34          4.012646   0.000000
     35          4.504245   0.000000
     36          4.568031   0.000000
     37          4.633649   0.000000
     38          4.806131   0.000000
     39          4.969039   0.000000
     40          5.729621   0.000000
     41          5.913781   0.000000
     42          6.551036   0.000000
     43          6.760585   0.000000
     44          6.839206   0.000000
     45          7.108605   0.000000
     46          7.165003   0.000000
     47          7.568518   0.000000
     48          7.741883   0.000000
 
  0.4074074E+00 -0.4438441E-16  0.0000000E+00  0.8230453E-02
      1        -18.744101   1.000000
      2        -17.687704   1.000000
      3        -15.451198   1.000000
      4        -15.450361   1.000000
      5        -15.321613   1.000000
      6        -14.161726   1.000000
      7        -12.039310   1.000000
      8        -11.207492   1.000000
      9        -11.206539   1.000000
     10        -10.774471   1.000000
     11         -8.995338   1.000000
     12         -8.866876   1.000000
     13         -8.866429   1.000000
     14         -8.518674   1.000000
     15         -8.169108   1.000000
     16         -6.874143   1.000000
     17         -6.607030   1.000000
     18         -6.509038   1.000000
     19         -5.830779   1.000000
     20         -5.716040   1.000000
     21         -5.461148   1.000000
     22         -4.937572   1.000000
     23         -4.837066   1.000000
     24         -3.980223   1.000000
     25         -3.735190   1.000000
     26         -3.131642   1.000000
     27         -3.081237   1.000000
     28         -1.149684   1.000000
     29         -0.170560   0.520900
     30          2.201819   0.000000
     31          2.211330   0.000000
     32          3.972137   0.000000
     33          4.211083   0.000000
     34          4.413303   0.000000
     35          4.438327   0.000000
     36          4.851881   0.000000
     37          4.872951   0.000000
     38          5.090987   0.000000
     39          5.378930   0.000000
     40          5.564237   0.000000
     41          6.006213   0.000000
     42          6.339793   0.000000
     43          6.576759   0.000000
     44          6.677230   0.000000
     45          6.844265   0.000000
     46          7.161330   0.000000
     47          7.196818   0.000000
     48          7.476234   0.000000
 
  0.4444444E+00 -0.3623348E-16  0.0000000E+00  0.8230453E-02
      1        -18.562942   1.000000
      2        -17.928714   1.000000
      3        -15.479372   1.000000
      4        -15.478802   1.000000
      5        -15.232132   1.000000
      6        -14.294081   1.000000
      7        -12.054317   1.000000
      8        -11.008880   1.000000
      9        -11.007720   1.000000
     10        -10.794648   1.000000
     11         -9.074050   1.000000
     12         -9.073591   1.000000
     13         -8.511920   1.000000
     14         -8.357219   1.000000
     15         -8.062782   1.000000
     16         -7.072474   1.000000
     17         -6.688905   1.000000
     18         -6.567294   1.000000
     19         -5.920134   1.000000
     20         -5.668398   1.000000
     21         -5.365778   1.000000
     22         -5.129066   1.000000
     23         -4.998229   1.000000
     24         -4.211499   1.000000
     25         -3.733440   1.000000
     26         -3.149661   1.000000
     27         -3.101630   1.000000
     28         -1.188162   1.000000
     29         -0.197319   0.666708
     30          2.265039   0.000000
     31          2.270445   0.000000
     32          4.098399   0.000000
     33          4.327010   0.000000
     34          4.500655   0.000000
     35          4.767054   0.000000
     36          5.102443   0.000000
     37          5.211550   0.000000
     38          5.227893   0.000000
     39          5.418396   0.000000
     40          5.813628   0.000000
     41          6.069459   0.000000
     42          6.188562   0.000000
     43          6.415368   0.000000
     44          6.460836   0.000000
     45          6.617878   0.000000
     46          6.922399   0.000000
     47          7.116388   0.000000
     48          7.308925   0.000000
 
  0.4814815E+00  0.4002069E-17  0.0000000E+00  0.8230453E-02
      1        -18.366557   1.000000
      2        -18.155063   1.000000
      3        -15.493571   1.000000
      4        -15.493062   1.000000
      5        -15.175582   1.000000
      6        -14.372050   1.000000
      7        -12.061917   1.000000
      8        -10.890570   1.000000
      9        -10.888597   1.000000
     10        -10.804484   1.000000
     11         -9.197667   1.000000
     12         -9.197178   1.000000
     13         -8.265681   1.000000
     14         -8.026981   1.000000
     15         -8.004664   1.000000
     16         -7.547013   1.000000
     17         -6.672270   1.000000
     18         -6.424049   1.000000
     19         -6.158615   1.000000
     20         -5.496314   1.000000
     21         -5.316074   1.000000
     22         -5.262331   1.000000
     23         -5.083785   1.000000
     24         -4.359829   1.000000
     25         -3.726046   1.000000
     26         -3.158705   1.000000
     27         -3.111561   1.000000
     28         -1.207418   1.000000
     29         -0.210875   0.733211
     30          2.297937   0.000000
     31          2.301376   0.000000
     32          4.058156   0.000000
     33          4.447038   0.000000
     34          4.717793   0.000000
     35          4.958019   0.000000
     36          4.991094   0.000000
     37          5.363529   0.000000
     38          5.540603   0.000000
     39          5.575614   0.000000
     40          5.729009   0.000000
     41          6.069439   0.000000
     42          6.209583   0.000000
     43          6.314418   0.000000
     44          6.418446   0.000000
     45          6.645736   0.000000
     46          6.767392   0.000000
     47          6.853810   0.000000
     48          6.973992   0.000000
 
  0.3703704E-01  0.3703704E-01  0.0000000E+00  0.8230453E-02
      1        -19.680142   1.000000
      2        -16.000036   1.000000
      3        -14.833087   1.000000
      4        -14.830929   1.000000
      5        -14.567837   1.000000
      6        -13.443400   1.000000
      7        -13.184101   1.000000
      8        -13.181816   1.000000
      9        -12.168031   1.000000
     10        -11.720308   1.000000
     11        -11.343348   1.000000
     12         -9.529326   1.000000
     13         -9.439631   1.000000
     14         -7.990827   1.000000
     15         -7.398546   1.000000
     16         -6.848662   1.000000
     17         -6.750523   1.000000
     18         -6.750335   1.000000
     19         -6.645403   1.000000
     20         -3.551629   1.000000
     21         -3.503901   1.000000
     22         -2.882379   1.000000
     23         -2.863350   1.000000
     24         -2.732346   1.000000
     25         -1.934259   1.000000
     26         -1.893126   1.000000
     27         -0.707242   1.000000
     28         -0.031925   0.028184
     29          0.305119   0.000000
     30          0.748984   0.000000
     31          0.780384   0.000000
     32          1.174734   0.000000
     33          1.207639   0.000000
     34          1.368314   0.000000
     35          1.634232   0.000000
     36          1.716290   0.000000
     37          2.964719   0.000000
     38          3.614561   0.000000
     39          4.565600   0.000000
     40          4.829364   0.000000
     41          6.724247   0.000000
     42          6.728977   0.000000
     43          6.825869   0.000000
     44          7.042669   0.000000
     45          7.715679   0.000000
     46          7.771168   0.000000
     47          7.828156   0.000000
     48          7.958934   0.000000
 
  0.7407407E-01  0.3703704E-01  0.0000000E+00  0.1646091E-01
      1        -19.648240   1.000000
      2        -15.974565   1.000000
      3        -15.134620   1.000000
      4        -14.962045   1.000000
      5        -14.575233   1.000000
      6        -13.382555   1.000000
      7        -13.002047   1.000000
      8        -12.833038   1.000000
      9        -12.386553   1.000000
     10        -11.746617   1.000000
     11        -11.145088   1.000000
     12         -9.568816   1.000000
     13         -9.373090   1.000000
     14         -7.950424   1.000000
     15         -7.284070   1.000000
     16         -6.977537   1.000000
     17         -6.817037   1.000000
     18         -6.718998   1.000000
     19         -6.606613   1.000000
     20         -3.681341   1.000000
     21         -3.572230   1.000000
     22         -3.064930   1.000000
     23         -2.936784   1.000000
     24         -2.710825   1.000000
     25         -2.199526   1.000000
     26         -2.113400   1.000000
     27         -1.028290   1.000000
     28         -0.193367   0.646149
     29          0.359051   0.000000
     30          0.948775   0.000000
     31          1.014846   0.000000
     32          1.309696   0.000000
     33          1.407363   0.000000
     34          1.501073   0.000000
     35          1.804306   0.000000
     36          1.997940   0.000000
     37          3.010630   0.000000
     38          3.666380   0.000000
     39          4.670651   0.000000
     40          4.898250   0.000000
     41          6.743802   0.000000
     42          6.843075   0.000000
     43          7.004282   0.000000
     44          7.079844   0.000000
     45          7.680968   0.000000
     46          7.759064   0.000000
     47          7.841934   0.000000
     48          7.960503   0.000000
 
  0.1111111E+00  0.3703704E-01  0.0000000E+00  0.1646091E-01
      1        -19.600409   1.000000
      2        -15.936575   1.000000
      3        -15.460761   1.000000
      4        -15.091840   1.000000
      5        -14.628066   1.000000
      6        -13.250619   1.000000
      7        -12.795920   1.000000
      8        -12.615061   1.000000