<?xml version="1.0" encoding="ISO-8859-1"?>
<modeling>
 <generator>
  <i name="program" type="string">vasp </i>
  <i name="version" type="string">6.3.2  </i>
  <i name="subversion" type="string">27Jun22 (build Dec 22 2022 13:13:19) complex                          parallel </i>
  <i name="platform" type="string">LinuxIFC </i>
  <i name="date" type="string">2023 08 23 </i>
  <i name="time" type="string">05:28:31 </i>
 </generator>
 <incar>
  <i type="string" name="SYSTEM">Lattice</i>
  <i type="int" name="ISTART">     0</i>
  <i type="string" name="PREC">Accurate</i>
  <i type="string" name="ALGO">Normal</i>
  <i type="int" name="ISPIN">     2</i>
  <i type="int" name="ICHARG">     2</i>
  <i type="int" name="NELM">    64</i>
  <i type="int" name="IBRION">     2</i>
  <i name="EDIFF">      0.00000100</i>
  <i name="EDIFFG">     -0.00100000</i>
  <i type="int" name="NSW">   128</i>
  <i type="int" name="ISIF">     2</i>
  <i name="ENCUT">    450.00000000</i>
  <i name="POTIM">      0.50000000</i>
  <i type="int" name="ISMEAR">     0</i>
  <i name="SIGMA">      0.10000000</i>
  <i type="logical" name="LWAVE"> F  </i>
  <i type="logical" name="LCHARG"> F  </i>
  <i type="string" name="GGA">PE</i>
  <i type="int" name="IVDW">    12</i>
 </incar>
 <primitive_cell>
  <structure name="primitive_cell" >
   <crystal>
    <varray name="basis" >
     <v>       4.20715141       2.42900000       0.00000000 </v>
     <v>      -4.20715141       2.42900000       0.00000000 </v>
     <v>       0.00000000       0.00000000      15.00000000 </v>
    </varray>
    <i name="volume">    306.57512336 </i>
    <varray name="rec_basis" >
     <v>       0.11884526       0.20584603       0.00000000 </v>
     <v>      -0.11884526       0.20584603       0.00000000 </v>
     <v>       0.00000000       0.00000000       0.06666667 </v>
    </varray>
   </crystal>
   <varray name="positions" >
    <v>       0.00415361       0.00267210       0.12034134 </v>
    <v>       0.35695335       0.00285503       0.09748893 </v>
    <v>       0.00423858       0.35550699       0.09749256 </v>
    <v>       0.65142295       0.65006557       0.09747688 </v>
    <v>       0.32808646       0.32671938       0.10030508 </v>
    <v>       0.68027775       0.00278085       0.10027562 </v>
    <v>       0.00416530       0.67883808       0.10026559 </v>
    <v>       0.16666600       0.33333300       0.33720000 </v>
    <v>       0.33333300       0.16666600       0.33720000 </v>
    <v>       0.16666600       0.83333300       0.33720000 </v>
    <v>       0.33333300       0.66666600       0.33720000 </v>
    <v>       0.66666600       0.33333300       0.33720000 </v>
    <v>       0.83333300       0.16666600       0.33720000 </v>
    <v>       0.66666600       0.83333300       0.33720000 </v>
    <v>       0.83333300       0.66666600       0.33720000 </v>
   </varray>
  </structure>
  <varray name="primitive_index" >
   <v type="int" >        1 </v>
   <v type="int" >        2 </v>
   <v type="int" >        3 </v>
   <v type="int" >        4 </v>
   <v type="int" >        5 </v>
   <v type="int" >        6 </v>
   <v type="int" >        7 </v>
   <v type="int" >        8 </v>
   <v type="int" >        9 </v>
   <v type="int" >       10 </v>
   <v type="int" >       11 </v>
   <v type="int" >       12 </v>
   <v type="int" >       13 </v>
   <v type="int" >       14 </v>
   <v type="int" >       15 </v>
  </varray>
 </primitive_cell>
 <kpoints>
  <generation param="Gamma">
   <v type="int" name="divisions">      12       12        1 </v>
   <v name="usershift">      0.00000000       0.00000000       0.00000000 </v>
   <v name="genvec1">      0.08333333       0.00000000       0.00000000 </v>
   <v name="genvec2">      0.00000000       0.08333333       0.00000000 </v>
   <v name="genvec3">      0.00000000       0.00000000       1.00000000 </v>
   <v name="shift">      0.00000000       0.00000000       0.00000000 </v>
  </generation>
  <varray name="kpointlist" >
   <v>       0.00000000       0.00000000       0.00000000 </v>
   <v>       0.08333333      -0.00000000       0.00000000 </v>
   <v>       0.00000000       0.08333333       0.00000000 </v>
   <v>      -0.08333333       0.08333333       0.00000000 </v>
   <v>       0.16666667      -0.00000000       0.00000000 </v>
   <v>       0.00000000       0.16666667       0.00000000 </v>
   <v>      -0.16666667       0.16666667       0.00000000 </v>
   <v>       0.25000000      -0.00000000       0.00000000 </v>
   <v>      -0.00000000       0.25000000       0.00000000 </v>
   <v>      -0.25000000       0.25000000       0.00000000 </v>
   <v>       0.33333333      -0.00000000       0.00000000 </v>
   <v>      -0.00000000       0.33333333       0.00000000 </v>
   <v>      -0.33333333       0.33333333       0.00000000 </v>
   <v>       0.41666667      -0.00000000       0.00000000 </v>
   <v>      -0.00000000       0.41666667       0.00000000 </v>
   <v>      -0.41666667       0.41666667       0.00000000 </v>
   <v>       0.50000000      -0.00000000       0.00000000 </v>
   <v>      -0.00000000       0.50000000       0.00000000 </v>
   <v>       0.50000000       0.50000000       0.00000000 </v>
   <v>       0.08333333       0.08333333       0.00000000 </v>
   <v>      -0.08333333       0.16666667       0.00000000 </v>
   <v>      -0.16666667       0.08333333       0.00000000 </v>
   <v>       0.16666667       0.08333333       0.00000000 </v>
   <v>      -0.08333333       0.25000000       0.00000000 </v>
   <v>      -0.25000000       0.16666667       0.00000000 </v>
   <v>      -0.16666667       0.25000000       0.00000000 </v>
   <v>       0.08333333       0.16666667       0.00000000 </v>
   <v>       0.25000000      -0.08333333       0.00000000 </v>
   <v>       0.25000000       0.08333333       0.00000000 </v>
   <v>      -0.08333333       0.33333333       0.00000000 </v>
   <v>      -0.33333333       0.25000000       0.00000000 </v>
   <v>      -0.25000000       0.33333333       0.00000000 </v>
   <v>       0.08333333       0.25000000       0.00000000 </v>
   <v>       0.33333333      -0.08333333       0.00000000 </v>
   <v>       0.33333333       0.08333333       0.00000000 </v>
   <v>      -0.08333333       0.41666667       0.00000000 </v>
   <v>      -0.41666667       0.33333333       0.00000000 </v>
   <v>      -0.33333333       0.41666667       0.00000000 </v>
   <v>       0.08333333       0.33333333       0.00000000 </v>
   <v>       0.41666667      -0.08333333       0.00000000 </v>
   <v>       0.41666667       0.08333333       0.00000000 </v>
   <v>      -0.08333333       0.50000000       0.00000000 </v>
   <v>       0.50000000       0.41666667       0.00000000 </v>
   <v>      -0.41666667       0.50000000       0.00000000 </v>
   <v>       0.08333333       0.41666667       0.00000000 </v>
   <v>       0.50000000      -0.08333333       0.00000000 </v>
   <v>       0.16666667       0.16666667       0.00000000 </v>
   <v>      -0.16666667       0.33333333       0.00000000 </v>
   <v>      -0.33333333       0.16666667       0.00000000 </v>
   <v>       0.25000000       0.16666667       0.00000000 </v>
   <v>      -0.16666667       0.41666667       0.00000000 </v>
   <v>      -0.41666667       0.25000000       0.00000000 </v>
   <v>      -0.25000000       0.41666667       0.00000000 </v>
   <v>       0.16666667       0.25000000       0.00000000 </v>
   <v>       0.41666667      -0.16666667       0.00000000 </v>
   <v>       0.33333333       0.16666667       0.00000000 </v>
   <v>      -0.16666667       0.50000000       0.00000000 </v>
   <v>       0.50000000       0.33333333       0.00000000 </v>
   <v>      -0.33333333       0.50000000       0.00000000 </v>
   <v>       0.16666667       0.33333333       0.00000000 </v>
   <v>       0.50000000      -0.16666667       0.00000000 </v>
   <v>       0.41666667       0.16666667       0.00000000 </v>
   <v>      -0.16666667      -0.41666667       0.00000000 </v>
   <v>       0.41666667       0.41666667       0.00000000 </v>
   <v>       0.25000000       0.25000000       0.00000000 </v>
   <v>      -0.25000000       0.50000000       0.00000000 </v>
   <v>       0.50000000       0.25000000       0.00000000 </v>
   <v>       0.33333333       0.25000000       0.00000000 </v>
   <v>      -0.25000000      -0.41666667       0.00000000 </v>
   <v>       0.41666667       0.33333333       0.00000000 </v>
   <v>      -0.33333333      -0.41666667       0.00000000 </v>
   <v>       0.25000000       0.33333333       0.00000000 </v>
   <v>      -0.41666667      -0.25000000       0.00000000 </v>
   <v>       0.33333333       0.33333333       0.00000000 </v>
  </varray>
  <varray name="weights" >
   <v>       0.00694444 </v>
   <v>       0.01388889 </v>
   <v>       0.01388889 </v>
   <v>       0.01388889 </v>
   <v>       0.01388889 </v>
   <v>       0.01388889 </v>
   <v>       0.01388889 </v>
   <v>       0.01388889 </v>
   <v>       0.01388889 </v>
   <v>       0.01388889 </v>
   <v>       0.01388889 </v>
   <v>       0.01388889 </v>
   <v>       0.01388889 </v>
   <v>       0.01388889 </v>
   <v>       0.01388889 </v>
   <v>       0.01388889 </v>
   <v>       0.00694444 </v>
   <v>       0.00694444 </v>
   <v>       0.00694444 </v>
   <v>       0.01388889 </v>
   <v>       0.01388889 </v>
   <v>       0.01388889 </v>
   <v>       0.01388889 </v>
   <v>       0.01388889 </v>
   <v>       0.01388889 </v>
   <v>       0.01388889 </v>
   <v>       0.01388889 </v>
   <v>       0.01388889 </v>
   <v>       0.01388889 </v>
   <v>       0.01388889 </v>
   <v>       0.01388889 </v>
   <v>       0.01388889 </v>
   <v>       0.01388889 </v>
   <v>       0.01388889 </v>
   <v>       0.01388889 </v>
   <v>       0.01388889 </v>
   <v>       0.01388889 </v>
   <v>       0.01388889 </v>
   <v>       0.01388889 </v>
   <v>       0.01388889 </v>
   <v>       0.01388889 </v>
   <v>       0.01388889 </v>
   <v>       0.01388889 </v>
   <v>       0.01388889 </v>
   <v>       0.01388889 </v>
   <v>       0.01388889 </v>
   <v>       0.01388889 </v>
   <v>       0.01388889 </v>
   <v>       0.01388889 </v>
   <v>       0.01388889 </v>
   <v>       0.01388889 </v>
   <v>       0.01388889 </v>
   <v>       0.01388889 </v>
   <v>       0.01388889 </v>
   <v>       0.01388889 </v>
   <v>       0.01388889 </v>
   <v>       0.01388889 </v>
   <v>       0.01388889 </v>
   <v>       0.01388889 </v>
   <v>       0.01388889 </v>
   <v>       0.01388889 </v>
   <v>       0.01388889 </v>
   <v>       0.01388889 </v>
   <v>       0.01388889 </v>
   <v>       0.01388889 </v>
   <v>       0.01388889 </v>
   <v>       0.01388889 </v>
   <v>       0.01388889 </v>
   <v>       0.01388889 </v>
   <v>       0.01388889 </v>
   <v>       0.01388889 </v>
   <v>       0.01388889 </v>
   <v>       0.01388889 </v>
   <v>       0.01388889 </v>
  </varray>
 </kpoints>
 <parameters>
  <separator name="general" >
   <i type="string" name="SYSTEM">Lattice</i>
   <i type="logical" name="LCOMPAT"> F  </i>
  </separator>
  <separator name="electronic" >
   <i type="string" name="PREC">accura</i>
   <i name="ENMAX">    450.00000000</i>
   <i name="ENAUG">    644.87300000</i>
   <i name="EDIFF">      0.00000100</i>
   <i type="int" name="IALGO">    38</i>
   <i type="int" name="IWAVPR">    11</i>
   <i type="int" name="NBANDS">    48</i>
   <i type="int" name="NBANDSLOW">    -1</i>
   <i type="int" name="NBANDSHIGH">    -1</i>
   <i name="NELECT">     56.00000000</i>
   <i type="int" name="TURBO">     0</i>
   <i type="int" name="IRESTART">     0</i>
   <i type="int" name="NREBOOT">     0</i>
   <i type="int" name="NMIN">     0</i>
   <i name="EREF">      0.00000000</i>
   <separator name="electronic smearing" >
    <i type="int" name="ISMEAR">     0</i>
    <i name="SIGMA">      0.10000000</i>
    <i name="KSPACING">      0.50000000</i>
    <i type="logical" name="KGAMMA"> T  </i>
    <i type="logical" name="KBLOWUP"> T  </i>
   </separator>
   <separator name="electronic projectors" >
    <i type="logical" name="LREAL"> F  </i>
    <v name="ROPT">      0.00000000      0.00000000</v>
    <i type="int" name="LMAXPAW">  -100</i>
    <i type="int" name="LMAXMIX">     2</i>
    <i type="logical" name="NLSPLINE"> F  </i>
   </separator>
   <separator name="electronic startup" >
    <i type="int" name="ISTART">     0</i>
    <i type="int" name="ICHARG">     2</i>
    <i type="int" name="INIWAV">     1</i>
   </separator>
   <separator name="electronic spin" >
    <i type="int" name="ISPIN">     2</i>
    <i type="logical" name="LNONCOLLINEAR"> F  </i>
    <v name="MAGMOM">      1.00000000      1.00000000      1.00000000      1.00000000      1.00000000      1.00000000      1.00000000      1.00000000      1.00000000      1.00000000      1.00000000      1.00000000      1.00000000      1.00000000      1.00000000</v>
    <i name="NUPDOWN">     -1.00000000</i>
    <i type="logical" name="LSORBIT"> F  </i>
    <v name="SAXIS">      0.00000000      0.00000000      1.00000000</v>
    <i type="logical" name="LSPIRAL"> F  </i>
    <v name="QSPIRAL">      0.00000000      0.00000000      0.00000000</v>
    <i type="logical" name="LZEROZ"> F  </i>
   </separator>
   <separator name="electronic exchange-correlation" >
    <i type="logical" name="LASPH"> F  </i>
    <i type="logical" name="LMETAGGA"> F  </i>
   </separator>
   <separator name="electronic convergence" >
    <i type="int" name="NELM">    64</i>
    <i type="int" name="NELMDL">    -5</i>
    <i type="int" name="NELMIN">     2</i>
    <i name="ENINI">    450.00000000</i>
    <separator name="electronic convergence detail" >
     <i type="logical" name="LDIAG"> T  </i>
     <i type="logical" name="LSUBROT"> F  </i>
     <i name="WEIMIN">      0.00100000</i>
     <i name="EBREAK">      0.00000001</i>
     <i name="DEPER">      0.30000000</i>
     <i type="int" name="NRMM">     4</i>
     <i name="TIME">      0.40000000</i>
    </separator>
   </separator>
   <separator name="electronic mixer" >
    <i name="AMIX">      0.40000000</i>
    <i name="BMIX">      1.00000000</i>
    <i name="AMIN">      0.10000000</i>
    <i name="AMIX_MAG">      1.60000000</i>
    <i name="BMIX_MAG">      1.00000000</i>
    <separator name="electronic mixer details" >
     <i type="int" name="IMIX">     4</i>
     <i type="logical" name="MIXFIRST"> F  </i>
     <i type="int" name="MAXMIX">   -45</i>
     <i name="WC">    100.00000000</i>
     <i type="int" name="INIMIX">     1</i>
     <i type="int" name="MIXPRE">     1</i>
     <i type="int" name="MREMOVE">     5</i>
    </separator>
   </separator>
   <separator name="electronic dipolcorrection" >
    <i type="logical" name="LDIPOL"> F  </i>
    <i type="logical" name="LMONO"> F  </i>
    <i type="int" name="IDIPOL">     0</i>
    <i name="EPSILON">      1.00000000</i>
    <v name="DIPOL">   -100.00000000   -100.00000000   -100.00000000</v>
    <i name="EFIELD">      0.00000000</i>
   </separator>
  </separator>
  <separator name="grids" >
   <i type="int" name="NGX">    36</i>
   <i type="int" name="NGY">    36</i>
   <i type="int" name="NGZ">   108</i>
   <i type="int" name="NGXF">    72</i>
   <i type="int" name="NGYF">    72</i>
   <i type="int" name="NGZF">   216</i>
   <i type="logical" name="ADDGRID"> F  </i>
  </separator>
  <separator name="ionic" >
   <i type="int" name="NSW">   128</i>
   <i type="int" name="IBRION">     2</i>
   <i type="int" name="MDALGO">     0</i>
   <i type="int" name="ISIF">     2</i>
   <i name="PSTRESS">      0.00000000</i>
   <i name="EDIFFG">     -0.00100000</i>
   <i type="int" name="NFREE">     1</i>
   <i name="POTIM">      0.50000000</i>
   <i name="SMASS">     -3.00000000</i>
   <i name="SCALEE">      1.00000000</i>
  </separator>
  <separator name="ionic md" >
   <i name="TEBEG">      0.00010000</i>
   <i name="TEEND">      0.00010000</i>
   <i type="int" name="NBLOCK">     1</i>
   <i type="int" name="KBLOCK">   128</i>
   <i type="int" name="NPACO">   256</i>
   <i name="APACO">     10.00000000</i>
  </separator>
  <separator name="symmetry" >
   <i type="int" name="ISYM">     2</i>
   <i name="SYMPREC">      0.00001000</i>
  </separator>
  <separator name="dos" >
   <i type="int" name="LORBIT">     0</i>
   <v name="RWIGS">     -1.00000000     -1.00000000</v>
   <i type="int" name="NEDOS">   301</i>
   <i name="EMIN">     10.00000000</i>
   <i name="EMAX">    -10.00000000</i>
   <i name="EFERMI">      0.00000000</i>
  </separator>
  <separator name="writing" >
   <i type="int" name="NWRITE">     2</i>
   <i type="logical" name="LWAVE"> F  </i>
   <i type="logical" name="LDOWNSAMPLE"> F  </i>
   <i type="logical" name="LCHARG"> F  </i>
   <i type="logical" name="LPARD"> F  </i>
   <i type="logical" name="LVTOT"> F  </i>
   <i type="logical" name="LVHAR"> F  </i>
   <i type="logical" name="LELF"> F  </i>
   <i type="logical" name="LOPTICS"> F  </i>
   <v name="STM">      0.00000000      0.00000000      0.00000000      0.00000000      0.00000000      0.00000000      0.00000000</v>
  </separator>
  <separator name="performance" >
   <i type="int" name="NPAR">    48</i>
   <i type="int" name="NSIM">     4</i>
   <i type="int" name="NBLK">    -1</i>
   <i type="logical" name="LPLANE"> T  </i>
   <i type="logical" name="LSCALAPACK"> T  </i>
   <i type="logical" name="LSCAAWARE"> F  </i>
   <i type="logical" name="LSCALU"> F  </i>
   <i type="logical" name="LASYNC"> F  </i>
   <i type="logical" name="LORBITALREAL"> F  </i>
  </separator>
  <separator name="miscellaneous" >
   <i type="int" name="IDIOT">     3</i>
   <i type="int" name="PHON_NSTRUCT">    -1</i>
   <i type="logical" name="LMUSIC"> F  </i>
   <v name="POMASS">     10.81100000     12.01100000</v>
   <v name="DARWINR">      0.00000000      0.00000000</v>
   <v name="DARWINV">      1.00000000      1.00000000</v>
   <i type="logical" name="LCORR"> T  </i>
  </separator>
  <i type="logical" name="GGA_COMPAT"> T  </i>
  <i type="logical" name="LBERRY"> F  </i>
  <i type="int" name="ICORELEVEL">     0</i>
  <i type="logical" name="LDAU"> F  </i>
  <i type="int" name="I_CONSTRAINED_M">     0</i>
  <separator name="electronic exchange-correlation" >
   <i type="string" name="GGA">PE</i>
   <i type="int" name="VOSKOWN">     0</i>
   <i type="logical" name="LHFCALC"> F  </i>
   <i type="string" name="PRECFOCK"></i>
   <i type="logical" name="LSYMGRAD"> F  </i>
   <i type="logical" name="LHFONE"> F  </i>
   <i type="logical" name="LRHFCALC"> F  </i>
   <i type="logical" name="LTHOMAS"> F  </i>
   <i type="logical" name="LMODELHF"> F  </i>
   <i type="logical" name="LFOCKACE"> F  </i>
   <i name="ENCUT4O">     -1.00000000</i>
   <i type="int" name="EXXOEP">     0</i>
   <i type="int" name="FOURORBIT">     0</i>
   <i name="AEXX">      0.00000000</i>
   <i name="HFALPHA">      0.00000000</i>
   <i name="MCALPHA">      0.00000000</i>
   <i name="ALDAX">      1.00000000</i>
   <i name="AGGAX">      1.00000000</i>
   <i name="ALDAC">      1.00000000</i>
   <i name="AGGAC">      1.00000000</i>
   <i type="int" name="NKREDX">     1</i>
   <i type="int" name="NKREDY">     1</i>
   <i type="int" name="NKREDZ">     1</i>
   <i type="logical" name="SHIFTRED"> F  </i>
   <i type="logical" name="ODDONLY"> F  </i>
   <i type="logical" name="EVENONLY"> F  </i>
   <i type="int" name="LMAXFOCK">     0</i>
   <i type="int" name="NMAXFOCKAE">     0</i>
   <i type="logical" name="LFOCKAEDFT"> F  </i>
   <i name="HFSCREEN">      0.00000000</i>
   <i name="HFSCREENC">      0.00000000</i>
   <i type="int" name="NBANDSGWLOW">     0</i>
  </separator>
  <separator name="vdW DFT" >
   <i type="logical" name="LUSE_VDW"> F  </i>
   <i name="Zab_VDW">     -0.84910000</i>
   <i name="PARAM1">      0.12340000</i>
   <i name="PARAM2">      1.00000000</i>
   <i name="PARAM3">      0.00000000</i>
  </separator>
  <separator name="model GW" >
   <i type="int" name="MODEL_GW">     0</i>
   <i name="MODEL_EPS0">     12.26300493</i>
   <i name="MODEL_ALPHA">      1.00000000</i>
  </separator>
  <separator name="linear response parameters" >
   <i type="logical" name="LEPSILON"> F  </i>
   <i type="logical" name="LRPA"> F  </i>
   <i type="logical" name="LNABLA"> F  </i>
   <i type="logical" name="LVEL"> F  </i>
   <i name="CSHIFT">      0.10000000</i>
   <i name="OMEGAMAX">     -1.00000000</i>
   <i name="DEG_THRESHOLD">      0.00200000</i>
   <i name="RTIME">     -0.10000000</i>
   <i name="WPLASMAI">      0.00000000</i>
   <v name="DFIELD">      0.00000000      0.00000000      0.00000000</v>
   <v name="WPLASMA">      0.00000000      0.00000000      0.00000000      0.00000000      0.00000000      0.00000000      0.00000000      0.00000000      0.00000000</v>
  </separator>
  <separator name="orbital magnetization" >
   <i type="logical" name="NUCIND"> F  </i>
   <v name="MAGPOS">      0.00000000      0.00000000      0.00000000</v>
   <i type="logical" name="LNICSALL"> T  </i>
   <i type="logical" name="ORBITALMAG"> F  </i>
   <i type="logical" name="LMAGBLOCH"> F  </i>
   <i type="logical" name="LCHIMAG"> F  </i>
   <i type="logical" name="LGAUGE"> T  </i>
   <i type="int" name="MAGATOM">     0</i>
   <v name="MAGDIPOL">      0.00000000      0.00000000      0.00000000</v>
   <v name="AVECCONST">      0.00000000      0.00000000      0.00000000</v>
  </separator>
  <separator name="response functions" >
   <i type="logical" name="LFINITE_TEMPERATURE"> F  </i>
   <i type="logical" name="LADDER"> F  </i>
   <i type="logical" name="LRPAFORCE"> F  </i>
   <i type="logical" name="LFXC"> F  </i>
   <i type="logical" name="LHARTREE"> T  </i>
   <i type="int" name="IBSE">     0</i>
   <v type="int" name="KPOINT">    -1     0     0     0</v>
   <i type="logical" name="LTCTC"> F  </i>
   <i type="logical" name="LTCTE"> F  </i>
   <i type="logical" name="LTETE"> F  </i>
   <i type="logical" name="LTRIPLET"> F  </i>
   <i type="logical" name="LFXCEPS"> F  </i>
   <i type="logical" name="LFXHEG"> F  </i>
   <i type="int" name="NATURALO">     2</i>
   <i type="logical" name="LHOLEGF"> F  </i>
   <i type="logical" name="L2ORDER"> F  </i>
   <i type="logical" name="LDMP1"> F  </i>
   <i type="logical" name="LMP2LT"> F  </i>
   <i type="logical" name="LSMP2LT"> F  </i>
   <i type="logical" name="LGWLF"> F  </i>
   <i name="ENCUTGW">     -2.00000000</i>
   <i name="ENCUTGWSOFT">     -2.00000000</i>
   <i name="ENCUTLF">     -1.00000000</i>
   <i type="logical" name="LESF_SPLINES"> F  </i>
   <i type="int" name="LMAXMP2">    -1</i>
   <i name="SCISSOR">      0.00000000</i>
   <i type="int" name="NOMEGA">     0</i>
   <i type="int" name="NOMEGAR">     0</i>
   <i type="int" name="NBANDSGW">    -1</i>
   <i type="int" name="NBANDSO">    -1</i>
   <i type="int" name="NBANDSV">    -1</i>
   <i type="int" name="NELMGW">     1</i>
   <i type="int" name="NELMHF">     1</i>
   <i type="int" name="DIM">     3</i>
   <i type="int" name="IESPILON">     4</i>
   <i type="int" name="ANTIRES">     0</i>
   <i name="OMEGAMAX">    -30.00000000</i>
   <i name="OMEGAMIN">    -30.00000000</i>
   <i name="OMEGATL">   -200.00000000</i>
   <i type="int" name="OMEGAGRID">     0</i>
   <i name="CSHIFT">     -0.10000000</i>
   <i type="logical" name="LSELFENERGY"> F  </i>
   <i type="logical" name="LSPECTRAL"> F  </i>
   <i type="logical" name="LSPECTRALGW"> F  </i>
   <i type="logical" name="LSINGLES"> F  </i>
   <i type="logical" name="LFERMIGW"> F  </i>
   <i type="logical" name="ODDONLYGW"> F  </i>
   <i type="logical" name="EVENONLYGW"> F  </i>
   <i type="int" name="NKREDLFX">     1</i>
   <i type="int" name="NKREDLFY">     1</i>
   <i type="int" name="NKREDLFZ">     1</i>
   <i type="int" name="MAXMEM">  2800</i>
   <i type="int" name="TELESCOPE">     0</i>
   <i type="int" name="NTAUPAR">    -1</i>
   <i type="int" name="NOMEGAPAR">    -1</i>
   <i name="DAMP_NEWTON">      0.80000001</i>
   <i name="LAMBDA">      1.00000000</i>
  </separator>
  <separator name="External order field" >
   <i name="OFIELD_KAPPA">      0.00000000</i>
   <v name="OFIELD_K">      0.00000000      0.00000000      0.00000000</v>
   <i name="OFIELD_Q6_NEAR">      0.00000000</i>
   <i name="OFIELD_Q6_FAR">      0.00000000</i>
   <i name="OFIELD_A">      0.00000000</i>
  </separator>
  <separator name="optional k-points parameters" >
   <i type="int" name="KPOINTS_OPT_MODE">     1</i>
   <i type="logical" name="LKPOINTS_OPT"> F  </i>
  </separator>
  <separator name="solvation model" >
   <i type="logical" name="LSOL"> F  </i>
  </separator>
 </parameters>
 <atominfo>
  <atoms>      15 </atoms>
  <types>       2 </types>
  <array name="atoms" >
   <dimension dim="1">ion</dimension>
   <field type="string">element</field>
   <field type="int">atomtype</field>
   <set>
    <rc><c>B </c><c>   1</c></rc>
    <rc><c>B </c><c>   1</c></rc>
    <rc><c>B </c><c>   1</c></rc>
    <rc><c>B </c><c>   1</c></rc>
    <rc><c>C </c><c>   2</c></rc>
    <rc><c>C </c><c>   2</c></rc>
    <rc><c>C </c><c>   2</c></rc>
    <rc><c>C </c><c>   2</c></rc>
    <rc><c>C </c><c>   2</c></rc>
    <rc><c>C </c><c>   2</c></rc>
    <rc><c>C </c><c>   2</c></rc>
    <rc><c>C </c><c>   2</c></rc>
    <rc><c>C </c><c>   2</c></rc>
    <rc><c>C </c><c>   2</c></rc>
    <rc><c>C </c><c>   2</c></rc>
   </set>
  </array>
  <array name="atomtypes" >
   <dimension dim="1">type</dimension>
   <field type="int">atomspertype</field>
   <field type="string">element</field>
   <field>mass</field>
   <field>valence</field>
   <field type="string">pseudopotential</field>
   <set>
    <rc><c>   4</c><c>B </c><c>     10.81100000</c><c>      3.00000000</c><c>  PAW_PBE B 06Sep2000                   </c></rc>
    <rc><c>  11</c><c>C </c><c>     12.01100000</c><c>      4.00000000</c><c>  PAW_PBE C 08Apr2002                   </c></rc>
   </set>
  </array>
 </atominfo>
 <structure name="initialpos" >
  <crystal>
   <varray name="basis" >
    <v>       4.20715141       2.42900000       0.00000000 </v>
    <v>      -4.20715141       2.42900000       0.00000000 </v>
    <v>       0.00000000       0.00000000      15.00000000 </v>
   </varray>
   <i name="volume">    306.57512336 </i>
   <varray name="rec_basis" >
    <v>       0.11884526       0.20584603       0.00000000 </v>
    <v>      -0.11884526       0.20584603       0.00000000 </v>
    <v>       0.00000000       0.00000000       0.06666667 </v>
   </varray>
  </crystal>
  <varray name="positions" >
   <v>       0.00415361       0.00267210       0.12034134 </v>
   <v>       0.35695335       0.00285503       0.09748893 </v>
   <v>       0.00423858       0.35550699       0.09749256 </v>
   <v>       0.65142295       0.65006557       0.09747688 </v>
   <v>       0.32808646       0.32671938       0.10030508 </v>
   <v>       0.68027775       0.00278085       0.10027562 </v>
   <v>       0.00416530       0.67883808       0.10026559 </v>
   <v>       0.16666600       0.33333300       0.33720000 </v>
   <v>       0.33333300       0.16666600       0.33720000 </v>
   <v>       0.16666600       0.83333300       0.33720000 </v>
   <v>       0.33333300       0.66666600       0.33720000 </v>
   <v>       0.66666600       0.33333300       0.33720000 </v>
   <v>       0.83333300       0.16666600       0.33720000 </v>
   <v>       0.66666600       0.83333300       0.33720000 </v>
   <v>       0.83333300       0.66666600       0.33720000 </v>
  </varray>
 </structure>
 <calculation>
  <scstep>
   <time name="dav">    5.91    5.95</time>
   <time name="total">    5.95    6.00</time>
   <energy>
    <i name="alphaZ">     58.01936780 </i>
    <i name="ewald">   4655.97058965 </i>
    <i name="hartreedc">  -6214.13608321 </i>
    <i name="XCdc">    174.85727534 </i>
    <i name="pawpsdc">   1365.87943566 </i>
    <i name="pawaedc">  -1368.52100941 </i>
    <i name="eentropy">     -0.01791905 </i>
    <i name="bandstr">   -373.39981478 </i>
    <i name="atom">   1903.26342058 </i>
    <i name="e_fr_energy">    201.91526258 </i>
    <i name="e_wo_entrp">    201.93318163 </i>
    <i name="e_0_energy">    201.92422210 </i>
   </energy>
  </scstep>
  <scstep>
   <time name="dav">    8.50    8.56</time>
   <time name="total">    8.50    8.56</time>
   <energy>
    <i name="e_fr_energy">   -116.29234885 </i>
    <i name="e_wo_entrp">   -116.29111600 </i>
    <i name="e_0_energy">   -116.29173243 </i>
   </energy>
  </scstep>
  <scstep>
   <time name="dav">   11.89   11.97</time>
   <time name="total">   11.89   11.97</time>
   <energy>
    <i name="e_fr_energy">   -129.16952946 </i>
    <i name="e_wo_entrp">   -129.16637764 </i>
    <i name="e_0_energy">   -129.16795355 </i>
   </energy>
  </scstep>
  <scstep>
   <time name="dav">    8.93    9.00</time>
   <time name="total">    8.93    9.00</time>
   <energy>
    <i name="e_fr_energy">   -129.19651934 </i>
    <i name="e_wo_entrp">   -129.19335352 </i>
    <i name="e_0_energy">   -129.19493643 </i>
   </energy>
  </scstep>
  <scstep>
   <time name="dav">   11.37   11.44</time>
   <time name="total">   11.74   11.83</time>
   <energy>
    <i name="e_fr_energy">   -129.19657460 </i>
    <i name="e_wo_entrp">   -129.19340866 </i>
    <i name="e_0_energy">   -129.19499163 </i>
   </energy>
  </scstep>
  <scstep>
   <time name="dav">   11.48   11.56</time>
   <time name="total">   11.98   12.07</time>
   <energy>
    <i name="e_fr_energy">    -91.95243962 </i>
    <i name="e_wo_entrp">    -91.94528694 </i>
    <i name="e_0_energy">    -91.94886328 </i>
   </energy>
  </scstep>
  <scstep>
   <time name="dav">    9.64    9.72</time>
   <time name="total">   10.15   10.24</time>
   <energy>
    <i name="e_fr_energy">   -100.38697357 </i>
    <i name="e_wo_entrp">   -100.38095129 </i>
    <i name="e_0_energy">   -100.38396243 </i>
   </energy>
  </scstep>
  <scstep>
   <time name="dav">   11.03   11.11</time>
   <time name="total">   11.51   11.60</time>
   <energy>
    <i name="e_fr_energy">   -110.48740241 </i>
    <i name="e_wo_entrp">   -110.48736663 </i>
    <i name="e_0_energy">   -110.48738452 </i>
   </energy>
  </scstep>
  <scstep>
   <time name="dav">    8.34    8.42</time>
   <time name="total">    8.85    8.93</time>
   <energy>
    <i name="e_fr_energy">   -117.12391147 </i>
    <i name="e_wo_entrp">   -117.12390738 </i>
    <i name="e_0_energy">   -117.12390942 </i>
   </energy>
  </scstep>
  <scstep>
   <time name="dav">   10.54   10.62</time>
   <time name="total">   11.04   11.12</time>
   <energy>
    <i name="e_fr_energy">   -123.50465922 </i>
    <i name="e_wo_entrp">   -123.50403180 </i>
    <i name="e_0_energy">   -123.50434551 </i>
   </energy>
  </scstep>
  <scstep>
   <time name="dav">   11.29   11.37</time>
   <time name="total">   11.77   11.86</time>
   <energy>
    <i name="e_fr_energy">   -125.29106353 </i>
    <i name="e_wo_entrp">   -125.28987467 </i>
    <i name="e_0_energy">   -125.29046910 </i>
   </energy>
  </scstep>
  <scstep>
   <time name="dav">    8.97    9.04</time>
   <time name="total">    9.46    9.54</time>
   <energy>
    <i name="e_fr_energy">   -125.41616166 </i>
    <i name="e_wo_entrp">   -125.41468991 </i>
    <i name="e_0_energy">   -125.41542578 </i>
   </energy>
  </scstep>
  <scstep>
   <time name="dav">    7.72    7.77</time>
   <time name="total">    8.21    8.28</time>
   <energy>
    <i name="e_fr_energy">   -125.44297426 </i>
    <i name="e_wo_entrp">   -125.44141373 </i>
    <i name="e_0_energy">   -125.44219400 </i>
   </energy>
  </scstep>
  <scstep>
   <time name="dav">    9.11    9.18</time>
   <time name="total">    9.61    9.69</time>
   <energy>
    <i name="e_fr_energy">   -125.46718057 </i>
    <i name="e_wo_entrp">   -125.46561426 </i>
    <i name="e_0_energy">   -125.46639742 </i>
   </energy>
  </scstep>
  <scstep>
   <time name="dav">    8.01    8.07</time>
   <time name="total">    8.52    8.58</time>
   <energy>
    <i name="e_fr_energy">   -125.47525676 </i>
    <i name="e_wo_entrp">   -125.47368960 </i>
    <i name="e_0_energy">   -125.47447318 </i>
   </energy>
  </scstep>
  <scstep>
   <time name="dav">    7.06    7.11</time>
   <time name="total">    7.55    7.61</time>
   <energy>
    <i name="e_fr_energy">   -125.47733353 </i>
    <i name="e_wo_entrp">   -125.47576634 </i>
    <i name="e_0_energy">   -125.47654994 </i>
   </energy>
  </scstep>
  <scstep>
   <time name="dav">    6.19    6.23</time>
   <time name="total">    6.69    6.75</time>
   <energy>
    <i name="e_fr_energy">   -125.47861247 </i>
    <i name="e_wo_entrp">   -125.47704529 </i>
    <i name="e_0_energy">   -125.47782888 </i>
   </energy>
  </scstep>
  <scstep>
   <time name="dav">    7.07    7.12</time>
   <time name="total">    7.57    7.63</time>
   <energy>
    <i name="e_fr_energy">   -125.47929866 </i>
    <i name="e_wo_entrp">   -125.47773149 </i>
    <i name="e_0_energy">   -125.47851508 </i>
   </energy>
  </scstep>
  <scstep>
   <time name="dav">    8.65    8.71</time>
   <time name="total">    9.15    9.22</time>
   <energy>
    <i name="e_fr_energy">   -125.47976516 </i>
    <i name="e_wo_entrp">   -125.47819798 </i>
    <i name="e_0_energy">   -125.47898157 </i>
   </energy>
  </scstep>
  <scstep>
   <time name="dav">    9.63    9.70</time>
   <time name="total">   10.12   10.20</time>
   <energy>
    <i name="e_fr_energy">   -125.47981919 </i>
    <i name="e_wo_entrp">   -125.47825200 </i>
    <i name="e_0_energy">   -125.47903559 </i>
   </energy>
  </scstep>
  <scstep>
   <time name="dav">    9.20    9.26</time>
   <time name="total">    9.70    9.77</time>
   <energy>
    <i name="e_fr_energy">   -125.47984384 </i>
    <i name="e_wo_entrp">   -125.47827665 </i>
    <i name="e_0_energy">   -125.47906024 </i>
   </energy>
  </scstep>
  <scstep>
   <time name="dav">    9.38    9.44</time>
   <time name="total">    9.87    9.95</time>
   <energy>
    <i name="e_fr_energy">   -125.47986359 </i>
    <i name="e_wo_entrp">   -125.47829640 </i>
    <i name="e_0_energy">   -125.47907999 </i>
   </energy>
  </scstep>
  <scstep>
   <time name="dav">    9.40    9.46</time>
   <time name="total">    9.89    9.96</time>
   <energy>
    <i name="e_fr_energy">   -125.47988060 </i>
    <i name="e_wo_entrp">   -125.47831341 </i>
    <i name="e_0_energy">   -125.47909700 </i>
   </energy>
  </scstep>
  <scstep>
   <time name="dav">    9.47    9.53</time>
   <time name="total">    9.96   10.03</time>
   <energy>
    <i name="e_fr_energy">   -125.47988429 </i>
    <i name="e_wo_entrp">   -125.47831709 </i>
    <i name="e_0_energy">   -125.47910069 </i>
   </energy>
  </scstep>
  <scstep>
   <time name="dav">    9.46    9.52</time>
   <time name="total">    9.96   10.04</time>
   <energy>
    <i name="e_fr_energy">   -125.47988531 </i>
    <i name="e_wo_entrp">   -125.47831811 </i>
    <i name="e_0_energy">   -125.47910171 </i>
   </energy>
  </scstep>
  <scstep>
   <time name="dav">    9.54    9.60</time>
   <time name="total">    9.57    9.63</time>
   <energy>
    <i name="alphaZ">     58.01936780 </i>
    <i name="ewald">   4655.97058965 </i>
    <i name="hartreedc">  -6413.41044533 </i>
    <i name="XCdc">    180.17601506 </i>
    <i name="pawpsdc">   5670.21005352 </i>
    <i name="pawaedc">  -5674.59484212 </i>
    <i name="eentropy">     -0.00156719 </i>
    <i name="bandstr">   -505.11247781 </i>
    <i name="atom">   1903.26342058 </i>
    <i name="e_fr_energy">   -125.47988585 </i>
    <i name="e_wo_entrp">   -125.47831866 </i>
    <i name="e_0_energy">   -125.47910226 </i>
   </energy>
  </scstep>
  <structure>
   <crystal>
    <varray name="basis" >
     <v>       4.20715141       2.42900000       0.00000000 </v>
     <v>      -4.20715141       2.42900000       0.00000000 </v>
     <v>       0.00000000       0.00000000      15.00000000 </v>
    </varray>
    <i name="volume">    306.57512336 </i>
    <varray name="rec_basis" >
     <v>       0.11884526       0.20584603       0.00000000 </v>
     <v>      -0.11884526       0.20584603       0.00000000 </v>
     <v>       0.00000000       0.00000000       0.06666667 </v>
    </varray>
   </crystal>
   <varray name="positions" >
    <v>       0.00415361       0.00267210       0.12034134 </v>
    <v>       0.35695335       0.00285503       0.09748893 </v>
    <v>       0.00423858       0.35550699       0.09749256 </v>
    <v>       0.65142295       0.65006557       0.09747688 </v>
    <v>       0.32808646       0.32671938       0.10030508 </v>
    <v>       0.68027775       0.00278085       0.10027562 </v>
    <v>       0.00416530       0.67883808       0.10026559 </v>
    <v>       0.16666600       0.33333300       0.33720000 </v>
    <v>       0.33333300       0.16666600       0.33720000 </v>
    <v>       0.16666600       0.83333300       0.33720000 </v>
    <v>       0.33333300       0.66666600       0.33720000 </v>
    <v>       0.66666600       0.33333300       0.33720000 </v>
    <v>       0.83333300       0.16666600       0.33720000 </v>
    <v>       0.66666600       0.83333300       0.33720000 </v>
    <v>       0.83333300       0.66666600       0.33720000 </v>
   </varray>
  </structure>
  <varray name="forces" >
   <v>      -0.00397692       0.00534748      -0.44856984 </v>
   <v>      -0.09506761      -0.05997445       0.11874417 </v>
   <v>       0.09470259      -0.05891145       0.11849983 </v>
   <v>       0.00266773       0.11046516       0.12113599 </v>
   <v>       0.00304472      -0.36435300       0.00552096 </v>
   <v>       0.31395782       0.18333886       0.00887339 </v>
   <v>      -0.31485732       0.18549588       0.01005304 </v>
   <v>      -0.01437801       0.00069694       0.01948918 </v>
   <v>       0.01417694       0.00085394       0.01981750 </v>
   <v>       0.00825146       0.01105096       0.02034974 </v>
   <v>      -0.00037131       0.00041038      -0.02656990 </v>
   <v>       0.00060453       0.00018888      -0.02657491 </v>
   <v>      -0.00828143       0.01079644       0.02030769 </v>
   <v>       0.00587484      -0.01260587       0.01960613 </v>
   <v>      -0.00634803      -0.01280015       0.01931702 </v>
  </varray>
  <varray name="stress" >
   <v>     -18.96834616       0.01006205      -0.01537558 </v>
   <v>       0.01006202     -18.95824574      -0.01630525 </v>
   <v>      -0.01537561      -0.01630525      -1.68454326 </v>
  </varray>
  <energy>
   <i name="e_fr_energy">   -127.06556411 </i>
   <i name="e_wo_entrp">   -127.06399692 </i>
   <i name="e_0_energy">   -127.06478051 </i>
  </energy>
  <time name="totalsc">  253.32  255.30</time>
 </calculation>
 <calculation>
  <scstep>
   <time name="dav">    6.10    6.14</time>
   <time name="total">    6.59    6.65</time>
   <energy>
    <i name="alphaZ">     58.01936780 </i>
    <i name="ewald">   4659.10001102 </i>
    <i name="hartreedc">  -6415.07851369 </i>
    <i name="XCdc">    180.26090798 </i>
    <i name="pawpsdc">   5670.21672752 </i>
    <i name="pawaedc">  -5674.60151802 </i>
    <i name="eentropy">     -0.00156719 </i>
    <i name="bandstr">   -506.67146085 </i>
    <i name="atom">   1903.26342058 </i>
    <i name="e_fr_energy">   -125.49262486 </i>
    <i name="e_wo_entrp">   -125.49105766 </i>
    <i name="e_0_energy">   -125.49184126 </i>
   </energy>
  </scstep>
  <scstep>
   <time name="dav">   11.91   11.99</time>
   <time name="total">   12.41   12.50</time>
   <energy>
    <i name="e_fr_energy">   -125.48361032 </i>
    <i name="e_wo_entrp">   -125.48204313 </i>
    <i name="e_0_energy">   -125.48282673 </i>
   </energy>
  </scstep>
  <scstep>
   <time name="dav">    8.97    9.02</time>
   <time name="total">    9.46    9.53</time>
   <energy>
    <i name="e_fr_energy">   -125.48262543 </i>
    <i name="e_wo_entrp">   -125.48105824 </i>
    <i name="e_0_energy">   -125.48184183 </i>
   </energy>
  </scstep>
  <scstep>
   <time name="dav">   12.36   12.43</time>
   <time name="total">   12.86   12.95</time>
   <energy>
    <i name="e_fr_energy">   -125.48258648 </i>
    <i name="e_wo_entrp">   -125.48101928 </i>
    <i name="e_0_energy">   -125.48180288 </i>
   </energy>
  </scstep>
  <scstep>
   <time name="dav">   10.96   11.02</time>
   <time name="total">   11.46   11.54</time>
   <energy>
    <i name="e_fr_energy">   -125.48259035 </i>
    <i name="e_wo_entrp">   -125.48102316 </i>
    <i name="e_0_energy">   -125.48180676 </i>
   </energy>
  </scstep>
  <scstep>
   <time name="dav">    9.47    9.53</time>
   <time name="total">    9.50    9.56</time>
   <energy>
    <i name="alphaZ">     58.01936780 </i>
    <i name="ewald">   4659.10001102 </i>
    <i name="hartreedc">  -6415.82563491 </i>
    <i name="XCdc">    180.27774890 </i>
    <i name="pawpsdc">   5697.77631153 </i>
    <i name="pawaedc">  -5702.17013499 </i>
    <i name="eentropy">     -0.00156719 </i>
    <i name="bandstr">   -505.92211319 </i>
    <i name="atom">   1903.26342058 </i>
    <i name="e_fr_energy">   -125.48259046 </i>
    <i name="e_wo_entrp">   -125.48102327 </i>
    <i name="e_0_energy">   -125.48180687 </i>
   </energy>
  </scstep>
  <structure>
   <crystal>
    <varray name="basis" >
     <v>       4.20715141       2.42900000       0.00000000 </v>
     <v>      -4.20715141       2.42900000       0.00000000 </v>
     <v>       0.00000000       0.00000000      15.00000000 </v>
    </varray>
    <i name="volume">    306.57512336 </i>
    <varray name="rec_basis" >
     <v>       0.11884526       0.20584603       0.00000000 </v>
     <v>      -0.11884526       0.20584603       0.00000000 </v>
     <v>       0.00000000       0.00000000       0.06666667 </v>
    </varray>
   </crystal>
   <varray name="positions" >
    <v>       0.00418391       0.00274801       0.11889866 </v>
    <v>       0.35581271       0.00280451       0.09787084 </v>
    <v>       0.00419652       0.35437900       0.09787368 </v>
    <v>       0.65253523       0.65114726       0.09786647 </v>
    <v>       0.32448569       0.32308369       0.10032283 </v>
    <v>       0.68389845       0.00280146       0.10030416 </v>
    <v>       0.00420217       0.68248536       0.10029792 </v>
    <v>       0.16659049       0.33342236       0.33726268 </v>
    <v>       0.33342276       0.16659320       0.33726374 </v>
    <v>       0.16682305       0.83339543       0.33726545 </v>
    <v>       0.33333495       0.66667220       0.33711455 </v>
    <v>       0.66667134       0.33333141       0.33711453 </v>
    <v>       0.83339273       0.16682070       0.33726531 </v>
    <v>       0.66657450       0.83317413       0.33726306 </v>
    <v>       0.83316949       0.66657528       0.33726213 </v>
   </varray>
  </structure>
  <varray name="forces" >
   <v>      -0.00162237      -0.00043415      -0.21290136 </v>
   <v>       0.24141525       0.13794892       0.06845198 </v>
   <v>      -0.24254256       0.13971826       0.06828430 </v>
   <v>       0.00126673      -0.27318012       0.07009942 </v>
   <v>       0.00045810       0.57305113      -0.02130620 </v>
   <v>      -0.49448687      -0.28772778      -0.01898150 </v>
   <v>       0.49600544      -0.28795679      -0.01854583 </v>
   <v>       0.05327227      -0.00211402       0.01038472 </v>
   <v>      -0.05315930      -0.00259890       0.01046860 </v>
   <v>      -0.03003940      -0.04323856       0.01055173 </v>
   <v>       0.00119899      -0.00208083       0.00119333 </v>
   <v>      -0.00245372      -0.00134713       0.00119632 </v>
   <v>       0.02963550      -0.04234802       0.01050739 </v>
   <v>      -0.02372410       0.04583435       0.01031872 </v>
   <v>       0.02477606       0.04647364       0.01027837 </v>
  </varray>
  <varray name="stress" >
   <v>     -16.23631211       0.00175904      -0.01129908 </v>
   <v>       0.00175904     -16.25315481      -0.02507960 </v>
   <v>      -0.01129907      -0.02507960      -1.27557696 </v>
  </varray>
  <energy>
   <i name="e_fr_energy">   -127.06750653 </i>
   <i name="e_wo_entrp">   -127.06593934 </i>
   <i name="e_0_energy">   -127.06672293 </i>
  </energy>
  <time name="totalsc">   67.45   67.94</time>
 </calculation>
 <calculation>
  <scstep>
   <time name="dav">    5.96    6.00</time>
   <time name="total">    6.39    6.44</time>
   <energy>
    <i name="alphaZ">     58.01936780 </i>
    <i name="ewald">   4657.59878510 </i>
    <i name="hartreedc">  -6415.01579451 </i>
    <i name="XCdc">    180.23685186 </i>
    <i name="pawpsdc">   5697.78616772 </i>
    <i name="pawaedc">  -5702.17996448 </i>
    <i name="eentropy">     -0.00156719 </i>
    <i name="bandstr">   -505.19855099 </i>
    <i name="atom">   1903.26342058 </i>
    <i name="e_fr_energy">   -125.49128412 </i>
    <i name="e_wo_entrp">   -125.48971693 </i>
    <i name="e_0_energy">   -125.49050053 </i>
   </energy>
  </scstep>
  <scstep>
   <time name="dav">   11.45   11.54</time>
   <time name="total">   11.88   11.98</time>
   <energy>
    <i name="e_fr_energy">   -125.48926740 </i>
    <i name="e_wo_entrp">   -125.48770021 </i>
    <i name="e_0_energy">   -125.48848381 </i>
   </energy>
  </scstep>
  <scstep>
   <time name="dav">    9.55    9.61</time>
   <time name="total">    9.98   10.06</time>
   <energy>
    <i name="e_fr_energy">   -125.48905885 </i>
    <i name="e_wo_entrp">   -125.48749166 </i>
    <i name="e_0_energy">   -125.48827526 </i>
   </energy>
  </scstep>
  <scstep>
   <time name="dav">   10.30   10.37</time>
   <time name="total">   10.73   10.81</time>
   <energy>
    <i name="e_fr_energy">   -125.48905107 </i>
    <i name="e_wo_entrp">   -125.48748387 </i>
    <i name="e_0_energy">   -125.48826747 </i>
   </energy>
  </scstep>
  <scstep>
   <time name="dav">    8.14    8.20</time>
   <time name="total">    8.17    8.23</time>
   <energy>
    <i name="alphaZ">     58.01936780 </i>
    <i name="ewald">   4657.59878510 </i>
    <i name="hartreedc">  -6414.68803576 </i>
    <i name="XCdc">    180.22903535 </i>
    <i name="pawpsdc">   5684.31752441 </i>
    <i name="pawaedc">  -5688.70680273 </i>
    <i name="eentropy">     -0.00156719 </i>
    <i name="bandstr">   -505.52077936 </i>
    <i name="atom">   1903.26342058 </i>
    <i name="e_fr_energy">   -125.48905181 </i>
    <i name="e_wo_entrp">   -125.48748462 </i>
    <i name="e_0_energy">   -125.48826821 </i>
   </energy>
  </scstep>
  <structure>
   <crystal>
    <varray name="basis" >
     <v>       4.20715141       2.42900000       0.00000000 </v>
     <v>      -4.20715141       2.42900000       0.00000000 </v>
     <v>       0.00000000       0.00000000      15.00000000 </v>
    </varray>
    <i name="volume">    306.57512336 </i>
    <varray name="rec_basis" >
     <v>       0.11884526       0.20584603       0.00000000 </v>
     <v>      -0.11884526       0.20584603       0.00000000 </v>
     <v>       0.00000000       0.00000000       0.06666667 </v>
    </varray>
   </crystal>
   <varray name="positions" >
    <v>       0.00416973       0.00271249       0.11957376 </v>
    <v>       0.35634647       0.00282815       0.09769213 </v>
    <v>       0.00421620       0.35490684       0.09769534 </v>
    <v>       0.65201474       0.65064108       0.09768416 </v>
    <v>       0.32617067       0.32478501       0.10031453 </v>
    <v>       0.68220415       0.00279182       0.10029080 </v>
    <v>       0.00418492       0.68077862       0.10028279 </v>
    <v>       0.16662582       0.33338054       0.33723335 </v>
    <v>       0.33338076       0.16662727       0.33723391 </v>
    <v>       0.16674956       0.83336622       0.33723482 </v>
    <v>       0.33333404       0.66666930       0.33715453 </v>
    <v>       0.66666884       0.33333215       0.33715453 </v>
    <v>       0.83336478       0.16674831       0.33723475 </v>
    <v>       0.66661732       0.83324848       0.33723355 </v>
    <v>       0.83324601       0.66661773       0.33723305 </v>
   </varray>
  </structure>
  <varray name="forces" >
   <v>      -0.00282162       0.00244847      -0.32168163 </v>
   <v>       0.08737198       0.04721878       0.09176963 </v>
   <v>      -0.08819045       0.04866104       0.09156657 </v>
   <v>       0.00193894      -0.09761624       0.09377113 </v>
   <v>       0.00171140       0.13242830      -0.00894455 </v>
   <v>      -0.11464600      -0.06626204      -0.00616936 </v>
   <v>       0.11512170      -0.06543863      -0.00540780 </v>
   <v>       0.02153628      -0.00088465       0.01463521 </v>
   <v>      -0.02156947      -0.00107061       0.01483434 </v>
   <v>      -0.01214853      -0.01772365       0.01512719 </v>
   <v>       0.00045976      -0.00091628      -0.01186566 </v>
   <v>      -0.00101849      -0.00063122      -0.01186645 </v>
   <v>       0.01191681      -0.01736831       0.01508319 </v>
   <v>      -0.00976126       0.01845151       0.01465253 </v>
   <v>       0.01009896       0.01870354       0.01449565 </v>
  </varray>
  <varray name="stress" >
   <v>     -17.64473031       0.00552772      -0.01330511 </v>
   <v>       0.00552773     -17.65086166      -0.02056987 </v>
   <v>      -0.01330510      -0.02056985      -1.44661542 </v>
  </varray>
  <energy>
   <i name="e_fr_energy">   -127.07431863 </i>
   <i name="e_wo_entrp">   -127.07275144 </i>
   <i name="e_0_energy">   -127.07353503 </i>
  </energy>
  <time name="totalsc">   52.27   52.68</time>
 </calculation>
 <calculation>
  <scstep>
   <time name="dav">    5.96    6.01</time>
   <time name="total">    6.40    6.45</time>
   <energy>
    <i name="alphaZ">     58.01936780 </i>
    <i name="ewald">   4657.05302245 </i>
    <i name="hartreedc">  -6413.86141645 </i>
    <i name="XCdc">    180.24939101 </i>
    <i name="pawpsdc">   5684.27433699 </i>
    <i name="pawaedc">  -5688.66361818 </i>
    <i name="eentropy">     -0.00156719 </i>
    <i name="bandstr">   -505.83057917 </i>
    <i name="atom">   1903.26342058 </i>
    <i name="e_fr_energy">   -125.49764216 </i>
    <i name="e_wo_entrp">   -125.49607497 </i>
    <i name="e_0_energy">   -125.49685856 </i>
   </energy>
  </scstep>
  <scstep>
   <time name="dav">   12.68   12.77</time>
   <time name="total">   13.12   13.23</time>
   <energy>
    <i name="e_fr_energy">   -125.49773929 </i>
    <i name="e_wo_entrp">   -125.49617210 </i>
    <i name="e_0_energy">   -125.49695569 </i>
   </energy>
  </scstep>
  <scstep>
   <time name="dav">    8.91    8.97</time>
   <time name="total">    9.34    9.41</time>
   <energy>
    <i name="e_fr_energy">   -125.49773591 </i>
    <i name="e_wo_entrp">   -125.49616872 </i>
    <i name="e_0_energy">   -125.49695232 </i>
   </energy>
  </scstep>
  <scstep>
   <time name="dav">   11.93   12.00</time>
   <time name="total">   12.36   12.44</time>
   <energy>
    <i name="e_fr_energy">   -125.49773776 </i>
    <i name="e_wo_entrp">   -125.49617057 </i>
    <i name="e_0_energy">   -125.49695417 </i>
   </energy>
  </scstep>
  <scstep>
   <time name="dav">    9.42    9.48</time>
   <time name="total">    9.45    9.52</time>
   <energy>
    <i name="alphaZ">     58.01936780 </i>
    <i name="ewald">   4657.05302245 </i>
    <i name="hartreedc">  -6413.84259108 </i>
    <i name="XCdc">    180.24800978 </i>
    <i name="pawpsdc">   5690.12428876 </i>
    <i name="pawaedc">  -5694.51560030 </i>
    <i name="eentropy">     -0.00156719 </i>
    <i name="bandstr">   -505.84608885 </i>
    <i name="atom">   1903.26342058 </i>
    <i name="e_fr_energy">   -125.49773805 </i>
    <i name="e_wo_entrp">   -125.49617086 </i>
    <i name="e_0_energy">   -125.49695446 </i>
   </energy>
  </scstep>
  <structure>
   <crystal>
    <varray name="basis" >
     <v>       4.20715141       2.42900000       0.00000000 </v>
     <v>      -4.20715141       2.42900000       0.00000000 </v>
     <v>       0.00000000       0.00000000      15.00000000 </v>
    </varray>
    <i name="volume">    306.57512336 </i>
    <varray name="rec_basis" >
     <v>       0.11884526       0.20584603       0.00000000 </v>
     <v>      -0.11884526       0.20584603       0.00000000 </v>
     <v>       0.00000000       0.00000000       0.06666667 </v>
    </varray>
   </crystal>
   <varray name="positions" >
    <v>       0.00418576       0.00277086       0.11822413 </v>
    <v>       0.35689991       0.00278470       0.09806868 </v>
    <v>       0.00418389       0.35548113       0.09807107 </v>
    <v>       0.65146370       0.65006116       0.09806875 </v>
    <v>       0.32634359       0.32493017       0.10029352 </v>
    <v>       0.68204559       0.00279706       0.10028097 </v>
    <v>       0.00420469       0.68063259       0.10027626 </v>
    <v>       0.16670822       0.33328617       0.33729391 </v>
    <v>       0.33328465       0.16670894       0.33729535 </v>
    <v>       0.16657173       0.83328764       0.33729761 </v>
    <v>       0.33332873       0.66666044       0.33709555 </v>
    <v>       0.66665939       0.33333131       0.33709553 </v>
    <v>       0.83328743       0.16657421       0.33729737 </v>
    <v>       0.66670655       0.83341993       0.33729427 </v>
    <v>       0.83342016       0.66670771       0.33729305 </v>
   </varray>
  </structure>
  <varray name="forces" >
   <v>      -0.00007643      -0.00029548      -0.28909921 </v>
   <v>       0.05544586       0.03202220       0.05322601 </v>
   <v>      -0.05543903       0.03310564       0.05315816 </v>
   <v>       0.00067506      -0.06201263       0.05407951 </v>
   <v>      -0.00031362       0.11964062       0.02154511 </v>
   <v>      -0.10199495      -0.06064063       0.02320639 </v>
   <v>       0.10214415      -0.06047872       0.02353325 </v>
   <v>      -0.04999093      -0.00235955       0.00655074 </v>
   <v>       0.04980204      -0.00210841       0.00655383 </v>
   <v>       0.02493262       0.04319883       0.00650460 </v>
   <v>      -0.00154490       0.00116080       0.01065295 </v>
   <v>       0.00219468       0.00060444       0.01065669 </v>
   <v>      -0.02487967       0.04242787       0.00647312 </v>
   <v>       0.02635808      -0.04190036       0.00646479 </v>
   <v>      -0.02731296      -0.04236461       0.00649406 </v>
  </varray>
  <varray name="stress" >
   <v>     -17.21835509       0.00184626      -0.00842959 </v>
   <v>       0.00184626     -17.21526501      -0.02420967 </v>
   <v>      -0.00842958      -0.02420966      -1.45248128 </v>
  </varray>
  <energy>
   <i name="e_fr_energy">   -127.08270445 </i>
   <i name="e_wo_entrp">   -127.08113726 </i>
   <i name="e_0_energy">   -127.08192085 </i>
  </energy>
  <time name="totalsc">   55.79   56.21</time>
 </calculation>
 <calculation>
  <scstep>
   <time name="dav">    5.93    5.97</time>
   <time name="total">    6.35    6.41</time>
   <energy>
    <i name="alphaZ">     58.01936780 </i>
    <i name="ewald">   4654.72533190 </i>
    <i name="hartreedc">  -6410.83453731 </i>
    <i name="XCdc">    180.29774318 </i>
    <i name="pawpsdc">   5690.17845911 </i>
    <i name="pawaedc">  -5694.56979379 </i>
    <i name="eentropy">     -0.00156714 </i>
    <i name="bandstr">   -506.58944668 </i>
    <i name="atom">   1903.26342058 </i>
    <i name="e_fr_energy">   -125.51102237 </i>
    <i name="e_wo_entrp">   -125.50945523 </i>
    <i name="e_0_energy">   -125.51023880 </i>
   </energy>
  </scstep>
  <scstep>
   <time name="dav">   12.26   12.34</time>
   <time name="total">   12.68   12.77</time>
   <energy>
    <i name="e_fr_energy">   -125.51210182 </i>
    <i name="e_wo_entrp">   -125.51053467 </i>
    <i name="e_0_energy">   -125.51131824 </i>
   </energy>
  </scstep>
  <scstep>
   <time name="dav">    9.22    9.28</time>
   <time name="total">    9.65    9.73</time>
   <energy>
    <i name="e_fr_energy">   -125.51205948 </i>
    <i name="e_wo_entrp">   -125.51049234 </i>
    <i name="e_0_energy">   -125.51127591 </i>
   </energy>
  </scstep>
  <scstep>
   <time name="dav">   12.23   12.30</time>
   <time name="total">   12.65   12.74</time>
   <energy>
    <i name="e_fr_energy">   -125.51207956 </i>
    <i name="e_wo_entrp">   -125.51051241 </i>
    <i name="e_0_energy">   -125.51129599 </i>
   </energy>
  </scstep>
  <scstep>
   <time name="dav">    9.33    9.39</time>
   <time name="total">    9.76    9.83</time>
   <energy>
    <i name="e_fr_energy">   -125.51208272 </i>
    <i name="e_wo_entrp">   -125.51051557 </i>
    <i name="e_0_energy">   -125.51129915 </i>
   </energy>
  </scstep>
  <scstep>
   <time name="dav">   11.17   11.24</time>
   <time name="total">   11.21   11.28</time>
   <energy>
    <i name="alphaZ">     58.01936780 </i>
    <i name="ewald">   4654.72533190 </i>
    <i name="hartreedc">  -6410.76972960 </i>
    <i name="XCdc">    180.29337776 </i>
    <i name="pawpsdc">   5704.51249544 </i>
    <i name="pawaedc">  -5708.90898028 </i>
    <i name="eentropy">     -0.00156715 </i>
    <i name="bandstr">   -506.64579947 </i>
    <i name="atom">   1903.26342058 </i>
    <i name="e_fr_energy">   -125.51208302 </i>
    <i name="e_wo_entrp">   -125.51051588 </i>
    <i name="e_0_energy">   -125.51129945 </i>
   </energy>
  </scstep>
  <structure>
   <crystal>
    <varray name="basis" >
     <v>       4.20715141       2.42900000       0.00000000 </v>
     <v>      -4.20715141       2.42900000       0.00000000 </v>
     <v>       0.00000000       0.00000000      15.00000000 </v>
    </varray>
    <i name="volume">    306.57512336 </i>
    <varray name="rec_basis" >
     <v>       0.11884526       0.20584603       0.00000000 </v>
     <v>      -0.11884526       0.20584603       0.00000000 </v>
     <v>       0.00000000       0.00000000       0.06666667 </v>
    </varray>
   </crystal>
   <varray name="positions" >
    <v>       0.00423384       0.00294598       0.11417524 </v>
    <v>       0.35856023       0.00265433       0.09919834 </v>
    <v>       0.00408696       0.35720398       0.09919829 </v>
    <v>       0.64981058       0.64832138       0.09922250 </v>
    <v>       0.32686234       0.32536566       0.10023050 </v>
    <v>       0.68156993       0.00281279       0.10025146 </v>
    <v>       0.00426400       0.68019451       0.10025665 </v>
    <v>       0.16695542       0.33300305       0.33747558 </v>
    <v>       0.33299635       0.16695395       0.33747967 </v>
    <v>       0.16603824       0.83305192       0.33748595 </v>
    <v>       0.33331283       0.66663384       0.33691859 </v>
    <v>       0.66663104       0.33332878       0.33691855 </v>
    <v>       0.83305537       0.16605190       0.33748522 </v>
    <v>       0.66697426       0.83393431       0.33747642 </v>
    <v>       0.83394263       0.66697762       0.33747303 </v>
   </varray>
  </structure>
  <varray name="forces" >
   <v>       0.00864192      -0.00929286      -0.22681269 </v>
   <v>      -0.06410780      -0.02792092      -0.05102242 </v>
   <v>       0.06578967      -0.02774889      -0.05063656 </v>
   <v>      -0.00290909       0.07215533      -0.05347806 </v>
   <v>      -0.00576193       0.05931590       0.11290477 </v>
   <v>      -0.04409966      -0.03201301       0.11138092 </v>
   <v>       0.04281953      -0.03340194       0.11058764 </v>
   <v>      -0.26682234      -0.00507120      -0.01755022 </v>
   <v>       0.26614201      -0.00350255      -0.01812238 </v>
   <v>       0.13866385       0.22696166      -0.01921919 </v>
   <v>      -0.00752601       0.00736289       0.07824216 </v>
   <v>       0.01177438       0.00428387       0.07826127 </v>
   <v>      -0.13769892       0.22272014      -0.01922513 </v>
   <v>       0.13421478      -0.22556144      -0.01794959 </v>
   <v>      -0.13912039      -0.22828699      -0.01736052 </v>
  </varray>
  <varray name="stress" >
   <v>     -16.05534029      -0.00654331       0.00265392 </v>
   <v>      -0.00654331     -16.03913344      -0.03052099 </v>
   <v>       0.00265390      -0.03052098      -1.51866608 </v>
  </varray>
  <energy>
   <i name="e_fr_energy">   -127.09616538 </i>
   <i name="e_wo_entrp">   -127.09459823 </i>
   <i name="e_0_energy">   -127.09538180 </i>
  </energy>
  <time name="totalsc">   67.42   67.91</time>
 </calculation>
 <calculation>
  <scstep>
   <time name="dav">    5.98    6.02</time>
   <time name="total">    6.39    6.45</time>
   <energy>
    <i name="alphaZ">     58.01936780 </i>
    <i name="ewald">   4654.38358486 </i>
    <i name="hartreedc">  -6410.32763025 </i>
    <i name="XCdc">    180.29991283 </i>
    <i name="pawpsdc">   5704.51306355 </i>
    <i name="pawaedc">  -5708.90954702 </i>
    <i name="eentropy">     -0.00156719 </i>
    <i name="bandstr">   -506.75706487 </i>
    <i name="atom">   1903.26342058 </i>
    <i name="e_fr_energy">   -125.51645971 </i>
    <i name="e_wo_entrp">   -125.51489252 </i>
    <i name="e_0_energy">   -125.51567611 </i>
   </energy>
  </scstep>
  <scstep>
   <time name="dav">   11.85   11.92</time>
   <time name="total">   12.27   12.36</time>
   <energy>
    <i name="e_fr_energy">   -125.51643863 </i>
    <i name="e_wo_entrp">   -125.51487144 </i>
    <i name="e_0_energy">   -125.51565503 </i>
   </energy>
  </scstep>
  <scstep>
   <time name="dav">    8.77    8.83</time>
   <time name="total">    9.20    9.28</time>
   <energy>
    <i name="e_fr_energy">   -125.51639746 </i>
    <i name="e_wo_entrp">   -125.51483027 </i>
    <i name="e_0_energy">   -125.51561386 </i>
   </energy>
  </scstep>
  <scstep>
   <time name="dav">   12.23   12.31</time>
   <time name="total">   12.66   12.75</time>
   <energy>
    <i name="e_fr_energy">   -125.51639876 </i>
    <i name="e_wo_entrp">   -125.51483157 </i>
    <i name="e_0_energy">   -125.51561516 </i>
   </energy>
  </scstep>
  <scstep>
   <time name="dav">    9.52    9.59</time>
   <time name="total">    9.55    9.62</time>
   <energy>
    <i name="alphaZ">     58.01936780 </i>
    <i name="ewald">   4654.38358486 </i>
    <i name="hartreedc">  -6410.34370124 </i>
    <i name="XCdc">    180.29896969 </i>
    <i name="pawpsdc">   5706.27502344 </i>
    <i name="pawaedc">  -5710.67221767 </i>
    <i name="eentropy">     -0.00156719 </i>
    <i name="bandstr">   -506.73927952 </i>
    <i name="atom">   1903.26342058 </i>
    <i name="e_fr_energy">   -125.51639925 </i>
    <i name="e_wo_entrp">   -125.51483206 </i>
    <i name="e_0_energy">   -125.51561566 </i>
   </energy>
  </scstep>
  <structure>
   <crystal>
    <varray name="basis" >
     <v>       4.20715141       2.42900000       0.00000000 </v>
     <v>      -4.20715141       2.42900000       0.00000000 </v>
     <v>       0.00000000       0.00000000      15.00000000 </v>
    </varray>
    <i name="volume">    306.57512336 </i>
    <varray name="rec_basis" >
     <v>       0.11884526       0.20584603       0.00000000 </v>
     <v>      -0.11884526       0.20584603       0.00000000 </v>
     <v>       0.00000000       0.00000000       0.06666667 </v>
    </varray>
   </crystal>
   <varray name="positions" >
    <v>       0.00423406       0.00294904       0.11345078 </v>
    <v>       0.35870338       0.00264956       0.09934052 </v>
    <v>       0.00408904       0.35735520       0.09934031 </v>
    <v>       0.64967748       0.64818076       0.09936700 </v>
    <v>       0.32703058       0.32553222       0.10028029 </v>
    <v>       0.68140572       0.00280453       0.10030545 </v>
    <v>       0.00425881       0.68003487       0.10031172 </v>
    <v>       0.16673472       0.33320195       0.33749355 </v>
    <v>       0.33319637       0.16673611       0.33749774 </v>
    <v>       0.16645561       0.83325454       0.33750404 </v>
    <v>       0.33331533       0.66664882       0.33693316 </v>
    <v>       0.66664475       0.33332433       0.33693313 </v>
    <v>       0.83325258       0.16646318       0.33750323 </v>
    <v>       0.66677452       0.83352050       0.33749424 </v>
    <v>       0.83352104       0.66677839       0.33749084 </v>
   </varray>
  </structure>
  <varray name="forces" >
   <v>       0.00849823      -0.00842693      -0.21147210 </v>
   <v>      -0.06971822      -0.03066748      -0.05303084 </v>
   <v>       0.07168032      -0.03122458      -0.05259262 </v>
   <v>      -0.00343238       0.07708082      -0.05579137 </v>
   <v>      -0.00582138       0.03418502       0.11100189 </v>
   <v>      -0.02365754      -0.01901893       0.10904265 </v>
   <v>       0.02281089      -0.02086950       0.10814675 </v>
   <v>      -0.09357165       0.00456089      -0.01819846 </v>
   <v>       0.09310645       0.00544340      -0.01878850 </v>
   <v>       0.05346202       0.07461168      -0.01986437 </v>
   <v>      -0.00215911       0.00320402       0.07896486 </v>
   <v>       0.00403028       0.00183707       0.07898305 </v>
   <v>      -0.05309554       0.07309695      -0.01985786 </v>
   <v>       0.04001820      -0.08139655      -0.01856923 </v>
   <v>      -0.04215059      -0.08241591      -0.01797385 </v>
  </varray>
  <varray name="stress" >
   <v>     -15.90909586      -0.00853878       0.00214617 </v>
   <v>      -0.00853878     -15.92688862      -0.02828298 </v>
   <v>       0.00214618      -0.02828298      -1.52165944 </v>
  </varray>
  <energy>
   <i name="e_fr_energy">   -127.10030094 </i>
   <i name="e_wo_entrp">   -127.09873375 </i>
   <i name="e_0_energy">   -127.09951735 </i>
  </energy>
  <time name="totalsc">   55.18   55.59</time>
 </calculation>
 <calculation>
  <scstep>
   <time name="dav">    5.93    5.98</time>
   <time name="total">    6.36    6.41</time>
   <energy>
    <i name="alphaZ">     58.01936780 </i>
    <i name="ewald">   4653.83418580 </i>
    <i name="hartreedc">  -6409.65684195 </i>
    <i name="XCdc">    180.30805807 </i>
    <i name="pawpsdc">   5706.45519006 </i>
    <i name="pawaedc">  -5710.85239205 </i>
    <i name="eentropy">     -0.00156714 </i>
    <i name="bandstr">   -506.88858219 </i>
    <i name="atom">   1903.26342058 </i>
    <i name="e_fr_energy">   -125.51916102 </i>
    <i name="e_wo_entrp">   -125.51759388 </i>
    <i name="e_0_energy">   -125.51837745 </i>
   </energy>
  </scstep>
  <scstep>
   <time name="dav">   12.19   12.26</time>
   <time name="total">   12.61   12.70</time>
   <energy>
    <i name="e_fr_energy">   -125.51911808 </i>
    <i name="e_wo_entrp">   -125.51755093 </i>
    <i name="e_0_energy">   -125.51833451 </i>
   </energy>
  </scstep>
  <scstep>
   <time name="dav">    9.54    9.61</time>
   <time name="total">    9.96   10.04</time>
   <energy>
    <i name="e_fr_energy">   -125.51902796 </i>
    <i name="e_wo_entrp">   -125.51746081 </i>
    <i name="e_0_energy">   -125.51824438 </i>
   </energy>
  </scstep>
  <scstep>
   <time name="dav">   10.67   10.73</time>
   <time name="total">   11.10   11.18</time>
   <energy>
    <i name="e_fr_energy">   -125.51903107 </i>
    <i name="e_wo_entrp">   -125.51746391 </i>
    <i name="e_0_energy">   -125.51824749 </i>
   </energy>
  </scstep>
  <scstep>
   <time name="dav">    9.44    9.51</time>
   <time name="total">    9.48    9.54</time>
   <energy>
    <i name="alphaZ">     58.01936780 </i>
    <i name="ewald">   4653.83418580 </i>
    <i name="hartreedc">  -6409.70974062 </i>
    <i name="XCdc">    180.30724309 </i>
    <i name="pawpsdc">   5709.13478574 </i>
    <i name="pawaedc">  -5713.53308099 </i>
    <i name="eentropy">     -0.00156715 </i>
    <i name="bandstr">   -506.83364589 </i>
    <i name="atom">   1903.26342058 </i>
    <i name="e_fr_energy">   -125.51903166 </i>
    <i name="e_wo_entrp">   -125.51746450 </i>
    <i name="e_0_energy">   -125.51824808 </i>
   </energy>
  </scstep>
  <structure>
   <crystal>
    <varray name="basis" >
     <v>       4.20715141       2.42900000       0.00000000 </v>
     <v>      -4.20715141       2.42900000       0.00000000 </v>
     <v>       0.00000000       0.00000000      15.00000000 </v>
    </varray>
    <i name="volume">    306.57512336 </i>
    <varray name="rec_basis" >
     <v>       0.11884526       0.20584603       0.00000000 </v>
     <v>      -0.11884526       0.20584603       0.00000000 </v>
     <v>       0.00000000       0.00000000       0.06666667 </v>
    </varray>
   </crystal>
   <varray name="positions" >
    <v>       0.00423439       0.00295359       0.11237379 </v>
    <v>       0.35891620       0.00264246       0.09955190 </v>
    <v>       0.00409212       0.35757999       0.09955143 </v>
    <v>       0.64947960       0.64797170       0.09958181 </v>
    <v>       0.32728070       0.32577984       0.10035430 </v>
    <v>       0.68116162       0.00279226       0.10038573 </v>
    <v>       0.00425110       0.67979756       0.10039358 </v>
    <v>       0.16640663       0.33349764       0.33752026 </v>
    <v>       0.33349374       0.16641226       0.33752459 </v>
    <v>       0.16707607       0.83355577       0.33753093 </v>
    <v>       0.33331906       0.66667109       0.33695481 </v>
    <v>       0.66666512       0.33331772       0.33695480 </v>
    <v>       0.83354576       0.16707458       0.33753000 </v>
    <v>       0.66647759       0.83290534       0.33752075 </v>
    <v>       0.83289429       0.66648221       0.33751732 </v>
   </varray>
  </structure>
  <varray name="forces" >
   <v>       0.00826665      -0.00710264      -0.19101814 </v>
   <v>      -0.08017697      -0.03595076      -0.05553229 </v>
   <v>       0.08254637      -0.03760610      -0.05502391 </v>
   <v>      -0.00420002       0.08680997      -0.05873086 </v>
   <v>      -0.00588388      -0.00523763       0.10842263 </v>
   <v>       0.00852993       0.00132509       0.10584293 </v>
   <v>      -0.00873690      -0.00122782       0.10479819 </v>
   <v>       0.15907527       0.01971946      -0.01915659 </v>
   <v>      -0.15923835       0.01957982      -0.01977351 </v>
   <v>      -0.07015382      -0.14803873      -0.02081694 </v>
   <v>       0.00590881      -0.00303515       0.08005758 </v>
   <v>      -0.00758874      -0.00182944       0.08007338 </v>
   <v>       0.06973359      -0.14563425      -0.02078894 </v>
   <v>      -0.09844068       0.12844023      -0.01947773 </v>
   <v>       0.10035874       0.12978794      -0.01887579 </v>
  </varray>
  <varray name="stress" >
   <v>     -15.65205602      -0.01101145       0.00143468 </v>
   <v>      -0.01101147     -15.72233466      -0.02502965 </v>
   <v>       0.00143469      -0.02502966      -1.54399893 </v>
  </varray>
  <energy>
   <i name="e_fr_energy">   -127.10265163 </i>
   <i name="e_wo_entrp">   -127.10108448 </i>
   <i name="e_0_energy">   -127.10186806 </i>
  </energy>
  <time name="totalsc">   54.63   55.03</time>
 </calculation>
 <calculation>
  <scstep>
   <time name="dav">    5.95    5.99</time>
   <time name="total">    6.38    6.43</time>
   <energy>
    <i name="alphaZ">     58.01936780 </i>
    <i name="ewald">   4653.67031742 </i>
    <i name="hartreedc">  -6409.42009821 </i>
    <i name="XCdc">    180.31553249 </i>
    <i name="pawpsdc">   5709.39120270 </i>
    <i name="pawaedc">  -5713.78950305 </i>
    <i name="eentropy">     -0.00156718 </i>
    <i name="bandstr">   -506.97058453 </i>
    <i name="atom">   1903.26342058 </i>
    <i name="e_fr_energy">   -125.52191200 </i>
    <i name="e_wo_entrp">   -125.52034482 </i>
    <i name="e_0_energy">   -125.52112841 </i>
   </energy>
  </scstep>
  <scstep>
   <time name="dav">   10.94   11.02</time>
   <time name="total">   11.37   11.45</time>
   <energy>
    <i name="e_fr_energy">   -125.52194618 </i>
    <i name="e_wo_entrp">   -125.52037900 </i>
    <i name="e_0_energy">   -125.52116259 </i>
   </energy>
  </scstep>
  <scstep>
   <time name="dav">    8.70    8.76</time>
   <time name="total">    9.13    9.20</time>
   <energy>
    <i name="e_fr_energy">   -125.52194314 </i>
    <i name="e_wo_entrp">   -125.52037596 </i>
    <i name="e_0_energy">   -125.52115955 </i>
   </energy>
  </scstep>
  <scstep>
   <time name="dav">   11.21   11.29</time>
   <time name="total">   11.24   11.33</time>
   <energy>
    <i name="alphaZ">     58.01936780 </i>
    <i name="ewald">   4653.67031742 </i>
    <i name="hartreedc">  -6409.51996530 </i>
    <i name="XCdc">    180.31469951 </i>
    <i name="pawpsdc">   5712.14804659 </i>
    <i name="pawaedc">  -5716.54729234 </i>
    <i name="eentropy">     -0.00156718 </i>
    <i name="bandstr">   -506.86897019 </i>
    <i name="atom">   1903.26342058 </i>
    <i name="e_fr_energy">   -125.52194312 </i>
    <i name="e_wo_entrp">   -125.52037595 </i>
    <i name="e_0_energy">   -125.52115953 </i>
   </energy>
  </scstep>
  <structure>
   <crystal>
    <varray name="basis" >
     <v>       4.20715141       2.42900000       0.00000000 </v>
     <v>      -4.20715141       2.42900000       0.00000000 </v>
     <v>       0.00000000       0.00000000      15.00000000 </v>
    </varray>
    <i name="volume">    306.57512336 </i>
    <varray name="rec_basis" >
     <v>       0.11884526       0.20584603       0.00000000 </v>
     <v>      -0.11884526       0.20584603       0.00000000 </v>
     <v>       0.00000000       0.00000000       0.06666667 </v>
    </varray>
   </crystal>
   <varray name="positions" >
    <v>       0.00422971       0.00293158       0.11154905 </v>
    <v>       0.35888072       0.00265960       0.09965047 </v>
    <v>       0.00411523       0.35754589       0.09965020 </v>
    <v>       0.64952923       0.64802430       0.09968043 </v>
    <v>       0.32742391       0.32593571       0.10047582 </v>
    <v>       0.68101727       0.00277678       0.10050953 </v>
    <v>       0.00423295       0.67965248       0.10051769 </v>
    <v>       0.16642934       0.33353688       0.33752446 </v>
    <v>       0.33353357       0.16643760       0.33752845 </v>
    <v>       0.16708027       0.83352419       0.33753412 </v>
    <v>       0.33332226       0.66667192       0.33702325 </v>
    <v>       0.66666522       0.33331881       0.33702325 </v>
    <v>       0.83351353       0.16707849       0.33753313 </v>
    <v>       0.66643646       0.83289771       0.33752459 </v>
    <v>       0.83288435       0.66644207       0.33752156 </v>
   </varray>
  </structure>
  <varray name="forces" >
   <v>       0.00657208      -0.00468587      -0.16485964 </v>
   <v>      -0.05848915      -0.02434415      -0.04137889 </v>
   <v>       0.06094686      -0.02701610      -0.04089363 </v>
   <v>      -0.00440034       0.06071595      -0.04455437 </v>
   <v>      -0.00490751      -0.01627848       0.08631354 </v>
   <v>       0.01512437       0.00778232       0.08345534 </v>
   <v>      -0.01449563       0.00481321       0.08239843 </v>
   <v>       0.16439357       0.00408739      -0.01576511 </v>
   <v>      -0.16422563       0.00319775      -0.01629891 </v>
   <v>      -0.08434181      -0.14103513      -0.01717502 </v>
   <v>       0.00447903      -0.00449406       0.06866997 </v>
   <v>      -0.00705039      -0.00259540       0.06867987 </v>
   <v>       0.08366664      -0.13849275      -0.01713370 </v>
   <v>      -0.08375758       0.13840124      -0.01598104 </v>
   <v>       0.08648551       0.13994407      -0.01547684 </v>
  </varray>
  <varray name="stress" >
   <v>     -15.47882663      -0.00965157      -0.00034493 </v>
   <v>      -0.00965156     -15.53034966      -0.02143568 </v>
   <v>      -0.00034490      -0.02143568      -1.52371318 </v>
  </varray>
  <energy>
   <i name="e_fr_energy">   -127.10530205 </i>
   <i name="e_wo_entrp">   -127.10373488 </i>
   <i name="e_0_energy">   -127.10451847 </i>
  </energy>
  <time name="totalsc">   43.23   43.56</time>
 </calculation>
 <calculation>
  <scstep>
   <time name="dav">    5.93    5.98</time>
   <time name="total">    6.36    6.41</time>
   <energy>
    <i name="alphaZ">     58.01936780 </i>
    <i name="ewald">   4652.91364771 </i>
    <i name="hartreedc">  -6408.44987951 </i>
    <i name="XCdc">    180.33539210 </i>
    <i name="pawpsdc">   5712.19088888 </i>
    <i name="pawaedc">  -5716.59013722 </i>
    <i name="eentropy">     -0.00156718 </i>
    <i name="bandstr">   -507.20893627 </i>
    <i name="atom">   1903.26342058 </i>
    <i name="e_fr_energy">   -125.52780311 </i>
    <i name="e_wo_entrp">   -125.52623593 </i>
    <i name="e_0_energy">   -125.52701952 </i>
   </energy>
  </scstep>
  <scstep>
   <time name="dav">   12.65   12.73</time>
   <time name="total">   13.08   13.17</time>
   <energy>
    <i name="e_fr_energy">   -125.52811883 </i>
    <i name="e_wo_entrp">   -125.52655165 </i>
    <i name="e_0_energy">   -125.52733524 </i>
   </energy>
  </scstep>
  <scstep>
   <time name="dav">    9.77    9.84</time>
   <time name="total">   10.20   10.28</time>
   <energy>
    <i name="e_fr_energy">   -125.52808806 </i>
    <i name="e_wo_entrp">   -125.52652087 </i>
    <i name="e_0_energy">   -125.52730447 </i>
   </energy>
  </scstep>
  <scstep>
   <time name="dav">   10.34   10.41</time>
   <time name="total">   10.77   10.84</time>
   <energy>
    <i name="e_fr_energy">   -125.52808641 </i>
    <i name="e_wo_entrp">   -125.52651923 </i>
    <i name="e_0_energy">   -125.52730282 </i>
   </energy>
  </scstep>
  <scstep>
   <time name="dav">    9.82    9.90</time>
   <time name="total">   10.24   10.33</time>
   <energy>
    <i name="e_fr_energy">   -125.52808333 </i>
    <i name="e_wo_entrp">   -125.52651615 </i>
    <i name="e_0_energy">   -125.52729974 </i>
   </energy>
  </scstep>
  <scstep>
   <time name="dav">   11.62   11.70</time>
   <time name="total">   11.66   11.73</time>
   <energy>
    <i name="alphaZ">     58.01936780 </i>
    <i name="ewald">   4652.91364771 </i>
    <i name="hartreedc">  -6408.81421997 </i>
    <i name="XCdc">    180.33273586 </i>
    <i name="pawpsdc">   5719.05866548 </i>
    <i name="pawaedc">  -5723.46027548 </i>
    <i name="eentropy">     -0.00156718 </i>
    <i name="bandstr">   -506.83985738 </i>
    <i name="atom">   1903.26342058 </i>
    <i name="e_fr_energy">   -125.52808257 </i>
    <i name="e_wo_entrp">   -125.52651539 </i>
    <i name="e_0_energy">   -125.52729898 </i>
   </energy>
  </scstep>
  <structure>
   <crystal>
    <varray name="basis" >
     <v>       4.20715141       2.42900000       0.00000000 </v>
     <v>      -4.20715141       2.42900000       0.00000000 </v>
     <v>       0.00000000       0.00000000      15.00000000 </v>
    </varray>
    <i name="volume">    306.57512336 </i>
    <varray name="rec_basis" >
     <v>       0.11884526       0.20584603       0.00000000 </v>
     <v>      -0.11884526       0.20584603       0.00000000 </v>
     <v>       0.00000000       0.00000000       0.06666667 </v>
    </varray>
   </crystal>
   <varray name="positions" >
    <v>       0.00421566       0.00286555       0.10907483 </v>
    <v>       0.35877429       0.00271103       0.09994620 </v>
    <v>       0.00418456       0.35744359       0.09994649 </v>
    <v>       0.64967809       0.64818209       0.09997629 </v>
    <v>       0.32785354       0.32640333       0.10084036 </v>
    <v>       0.68058423       0.00273033       0.10088092 </v>
    <v>       0.00417850       0.67921725       0.10089001 </v>
    <v>       0.16649747       0.33365459       0.33753704 </v>
    <v>       0.33365306       0.16651364       0.33754006 </v>
    <v>       0.16709284       0.83342946       0.33754367 </v>
    <v>       0.33333184       0.66667439       0.33722857 </v>
    <v>       0.66666551       0.33332210       0.33722862 </v>
    <v>       0.83341683       0.16709020       0.33754252 </v>
    <v>       0.66631307       0.83287480       0.33753613 </v>
    <v>       0.83285451       0.66632164       0.33753428 </v>
   </varray>
  </structure>
  <varray name="forces" >
   <v>       0.00140165       0.00273698      -0.09791706 </v>
   <v>      -0.00247886       0.00528191       0.00291838 </v>
   <v>       0.00550255      -0.00046257       0.00332970 </v>
   <v>      -0.00501883      -0.00699913      -0.00018815 </v>
   <v>      -0.00219750      -0.05945705       0.02194655 </v>
   <v>       0.04376040       0.03198387       0.01833278 </v>
   <v>      -0.04066636       0.02780903       0.01729486 </v>
   <v>       0.18267969      -0.04065561      -0.00563348 </v>
   <v>      -0.18151580      -0.04376164      -0.00591739 </v>
   <v>      -0.12631863      -0.12328098      -0.00631883 </v>
   <v>       0.00022970      -0.00888106       0.03470113 </v>
   <v>      -0.00546358      -0.00491935       0.03469417 </v>
[...]
       <r>     2.7056     1.0922    30.9029 </r>
       <r>     2.8118     0.5690    30.9633 </r>
       <r>     2.9181     0.8159    31.0500 </r>
       <r>     3.0243     1.3883    31.1976 </r>
       <r>     3.1306     1.4974    31.3567 </r>
       <r>     3.2369     1.2397    31.4884 </r>
       <r>     3.3431     1.3395    31.6307 </r>
       <r>     3.4494     1.2191    31.7603 </r>
       <r>     3.5556     2.3524    32.0102 </r>
       <r>     3.6619     3.3262    32.3637 </r>
       <r>     3.7682     3.1361    32.6969 </r>
       <r>     3.8744     2.8766    33.0026 </r>
       <r>     3.9807     2.8684    33.3074 </r>
       <r>     4.0869     3.5544    33.6851 </r>
       <r>     4.1932     3.1372    34.0184 </r>
       <r>     4.2994     2.8664    34.3230 </r>
       <r>     4.4057     3.0245    34.6444 </r>
       <r>     4.5120     2.7937    34.9412 </r>
       <r>     4.6182     2.4176    35.1981 </r>
       <r>     4.7245     3.6245    35.5833 </r>
       <r>     4.8307     3.4969    35.9548 </r>
       <r>     4.9370     2.5902    36.2301 </r>
       <r>     5.0433     3.0804    36.5574 </r>
       <r>     5.1495     3.4682    36.9259 </r>
       <r>     5.2558     2.9278    37.2370 </r>
       <r>     5.3620     2.7910    37.5336 </r>
       <r>     5.4683     3.0352    37.8561 </r>
       <r>     5.5746     3.3505    38.2121 </r>
       <r>     5.6808     2.6168    38.4902 </r>
       <r>     5.7871     2.9117    38.7996 </r>
       <r>     5.8933     2.7352    39.0902 </r>
       <r>     5.9996     2.6383    39.3706 </r>
       <r>     6.1058     2.0267    39.5859 </r>
       <r>     6.2121     2.3654    39.8373 </r>
       <r>     6.3184     2.9195    40.1475 </r>
       <r>     6.4246     2.9324    40.4591 </r>
       <r>     6.5309     3.3671    40.8169 </r>
       <r>     6.6371     3.6179    41.2013 </r>
       <r>     6.7434     4.2615    41.6541 </r>
       <r>     6.8497     3.3022    42.0050 </r>
       <r>     6.9559     3.1800    42.3429 </r>
       <r>     7.0622     3.2983    42.6934 </r>
       <r>     7.1684     2.7511    42.9857 </r>
       <r>     7.2747     2.4247    43.2434 </r>
       <r>     7.3810     2.6819    43.5283 </r>
       <r>     7.4872     2.9842    43.8454 </r>
       <r>     7.5935     3.0487    44.1694 </r>
       <r>     7.6997     3.7025    44.5628 </r>
       <r>     7.8060     4.3852    45.0288 </r>
       <r>     7.9122     3.4149    45.3916 </r>
       <r>     8.0185     4.0495    45.8219 </r>
       <r>     8.1248     4.4096    46.2905 </r>
       <r>     8.2310     4.0097    46.7166 </r>
       <r>     8.3373     4.8831    47.2354 </r>
       <r>     8.4435     3.6875    47.6273 </r>
       <r>     8.5498     1.7883    47.8173 </r>
       <r>     8.6561     0.8826    47.9111 </r>
       <r>     8.7623     0.4637    47.9603 </r>
       <r>     8.8686     0.3024    47.9925 </r>
       <r>     8.9748     0.0682    47.9997 </r>
       <r>     9.0811     0.0027    48.0000 </r>
       <r>     9.1874     0.0000    48.0000 </r>
       <r>     9.2936     0.0000    48.0000 </r>
       <r>     9.3999     0.0000    48.0000 </r>
       <r>     9.5061     0.0000    48.0000 </r>
       <r>     9.6124     0.0000    48.0000 </r>
       <r>     9.7186     0.0000    48.0000 </r>
       <r>     9.8249     0.0000    48.0000 </r>
       <r>     9.9312     0.0000    48.0000 </r>
       <r>    10.0374     0.0000    48.0000 </r>
       <r>    10.1437     0.0000    48.0000 </r>
       <r>    10.2499     0.0000    48.0000 </r>
      </set>
      <set comment="spin 2">
       <r>   -21.6277     0.0000     0.0000 </r>
       <r>   -21.5214     0.0000     0.0000 </r>
       <r>   -21.4152     0.0000     0.0000 </r>
       <r>   -21.3089     0.0000     0.0000 </r>
       <r>   -21.2026     0.0000     0.0000 </r>
       <r>   -21.0964     0.0000     0.0000 </r>
       <r>   -20.9901     0.0000     0.0000 </r>
       <r>   -20.8839     0.0000     0.0000 </r>
       <r>   -20.7776     0.0000     0.0000 </r>
       <r>   -20.6714     0.0000     0.0000 </r>
       <r>   -20.5651     0.0000     0.0000 </r>
       <r>   -20.4588     0.0000     0.0000 </r>
       <r>   -20.3526     0.0009     0.0001 </r>
       <r>   -20.2463     0.0352     0.0038 </r>
       <r>   -20.1401     0.2536     0.0308 </r>
       <r>   -20.0338     0.5326     0.0874 </r>
       <r>   -19.9275     0.5808     0.1491 </r>
       <r>   -19.8213     0.6336     0.2164 </r>
       <r>   -19.7150     0.5346     0.2732 </r>
       <r>   -19.6088     0.6901     0.3465 </r>
       <r>   -19.5025     0.5430     0.4042 </r>
       <r>   -19.3962     0.5457     0.4622 </r>
       <r>   -19.2900     0.7707     0.5441 </r>
       <r>   -19.1837     0.4925     0.5965 </r>
       <r>   -19.0775     0.4968     0.6492 </r>
       <r>   -18.9712     0.7839     0.7325 </r>
       <r>   -18.8650     0.6706     0.8038 </r>
       <r>   -18.7587     0.3831     0.8445 </r>
       <r>   -18.6524     0.5572     0.9037 </r>
       <r>   -18.5462     0.8874     0.9980 </r>
       <r>   -18.4399     0.5901     1.0607 </r>
       <r>   -18.3337     0.4879     1.1126 </r>
       <r>   -18.2274     0.3826     1.1532 </r>
       <r>   -18.1211     0.8444     1.2429 </r>
       <r>   -18.0149     0.8527     1.3335 </r>
       <r>   -17.9086     0.4591     1.3823 </r>
       <r>   -17.8024     0.4200     1.4270 </r>
       <r>   -17.6961     0.5264     1.4829 </r>
       <r>   -17.5899     0.7932     1.5672 </r>
       <r>   -17.4836     0.8912     1.6619 </r>
       <r>   -17.3773     0.8722     1.7546 </r>
       <r>   -17.2711     1.0504     1.8662 </r>
       <r>   -17.1648     1.3767     2.0125 </r>
       <r>   -17.0586     1.9275     2.2173 </r>
       <r>   -16.9523     2.1227     2.4428 </r>
       <r>   -16.8460     2.4817     2.7065 </r>
       <r>   -16.7398     2.6876     2.9921 </r>
       <r>   -16.6335     1.4764     3.1490 </r>
       <r>   -16.5273     0.3831     3.1897 </r>
       <r>   -16.4210     0.9022     3.2856 </r>
       <r>   -16.3147     1.0534     3.3975 </r>
       <r>   -16.2085     0.5909     3.4603 </r>
       <r>   -16.1022     0.5349     3.5171 </r>
       <r>   -15.9960     0.4974     3.5700 </r>
       <r>   -15.8897     0.4906     3.6221 </r>
       <r>   -15.7835     0.4669     3.6717 </r>
       <r>   -15.6772     1.0322     3.7814 </r>
       <r>   -15.5709     1.0426     3.8922 </r>
       <r>   -15.4647     0.5114     3.9465 </r>
       <r>   -15.3584     0.4986     3.9995 </r>
       <r>   -15.2522     0.4374     4.0460 </r>
       <r>   -15.1459     0.5945     4.1091 </r>
       <r>   -15.0396     0.8590     4.2004 </r>
       <r>   -14.9334     1.6962     4.3807 </r>
       <r>   -14.8271     2.4299     4.6389 </r>
       <r>   -14.7209     2.4259     4.8966 </r>
       <r>   -14.6146     2.0373     5.1131 </r>
       <r>   -14.5083     1.2425     5.2451 </r>
       <r>   -14.4021     1.1034     5.3624 </r>
       <r>   -14.2958     1.8661     5.5607 </r>
       <r>   -14.1896     2.0052     5.7737 </r>
       <r>   -14.0833     1.5845     5.9421 </r>
       <r>   -13.9771     1.3553     6.0861 </r>
       <r>   -13.8708     1.8888     6.2868 </r>
       <r>   -13.7645     2.4758     6.5499 </r>
       <r>   -13.6583     2.2975     6.7940 </r>
       <r>   -13.5520     2.1605     7.0236 </r>
       <r>   -13.4458     1.1156     7.1421 </r>
       <r>   -13.3395     0.7343     7.2201 </r>
       <r>   -13.2332     0.4527     7.2682 </r>
       <r>   -13.1270     0.4942     7.3208 </r>
       <r>   -13.0207     0.8627     7.4124 </r>
       <r>   -12.9145     0.9072     7.5088 </r>
       <r>   -12.8082     0.6192     7.5746 </r>
       <r>   -12.7019     0.8633     7.6664 </r>
       <r>   -12.5957     0.9334     7.7655 </r>
       <r>   -12.4894     0.7038     7.8403 </r>
       <r>   -12.3832     0.7133     7.9161 </r>
       <r>   -12.2769     0.4299     7.9618 </r>
       <r>   -12.1707     0.7639     8.0430 </r>
       <r>   -12.0644     1.0728     8.1570 </r>
       <r>   -11.9581     0.4594     8.2058 </r>
       <r>   -11.8519     0.4122     8.2496 </r>
       <r>   -11.7456     0.4377     8.2961 </r>
       <r>   -11.6394     0.7463     8.3754 </r>
       <r>   -11.5331     0.8747     8.4684 </r>
       <r>   -11.4268     0.5191     8.5235 </r>
       <r>   -11.3206     0.2385     8.5489 </r>
       <r>   -11.2143     0.5580     8.6081 </r>
       <r>   -11.1081     0.7444     8.6872 </r>
       <r>   -11.0018     0.6542     8.7568 </r>
       <r>   -10.8956     0.8947     8.8518 </r>
       <r>   -10.7893     0.9085     8.9484 </r>
       <r>   -10.6830     0.3954     8.9904 </r>
       <r>   -10.5768     1.0750     9.1046 </r>
       <r>   -10.4705     1.8309     9.2992 </r>
       <r>   -10.3643     1.9661     9.5081 </r>
       <r>   -10.2580     1.8544     9.7051 </r>
       <r>   -10.1517     2.0186     9.9196 </r>
       <r>   -10.0455     2.2881    10.1627 </r>
       <r>    -9.9392     2.0740    10.3831 </r>
       <r>    -9.8330     1.3186    10.5232 </r>
       <r>    -9.7267     1.2646    10.6576 </r>
       <r>    -9.6204     1.7496    10.8435 </r>
       <r>    -9.5142     1.5267    11.0058 </r>
       <r>    -9.4079     2.1543    11.2347 </r>
       <r>    -9.3017     2.4049    11.4902 </r>
       <r>    -9.1954     1.7068    11.6716 </r>
       <r>    -9.0892     1.1511    11.7939 </r>
       <r>    -8.9829     0.9792    11.8979 </r>
       <r>    -8.8766     2.2653    12.1386 </r>
       <r>    -8.7704     2.5686    12.4116 </r>
       <r>    -8.6641     1.6062    12.5823 </r>
       <r>    -8.5579     1.0574    12.6946 </r>
       <r>    -8.4516     1.6452    12.8694 </r>
       <r>    -8.3453     2.4813    13.1331 </r>
       <r>    -8.2391     2.0553    13.3515 </r>
       <r>    -8.1328     1.7138    13.5336 </r>
       <r>    -8.0266     2.3117    13.7792 </r>
       <r>    -7.9203     2.9790    14.0958 </r>
       <r>    -7.8140     3.2348    14.4395 </r>
       <r>    -7.7078     2.2825    14.6820 </r>
       <r>    -7.6015     1.3764    14.8283 </r>
       <r>    -7.4953     0.9467    14.9289 </r>
       <r>    -7.3890     2.1402    15.1563 </r>
       <r>    -7.2828     2.4040    15.4118 </r>
       <r>    -7.1765     1.7325    15.5959 </r>
       <r>    -7.0702     1.3426    15.7385 </r>
       <r>    -6.9640     1.9615    15.9469 </r>
       <r>    -6.8577     2.3781    16.1996 </r>
       <r>    -6.7515     2.5716    16.4729 </r>
       <r>    -6.6452     2.8455    16.7753 </r>
       <r>    -6.5389     2.3567    17.0257 </r>
       <r>    -6.4327     2.7056    17.3132 </r>
       <r>    -6.3264     2.3534    17.5632 </r>
       <r>    -6.2202     2.4125    17.8196 </r>
       <r>    -6.1139     3.4289    18.1839 </r>
       <r>    -6.0076     3.0750    18.5107 </r>
       <r>    -5.9014     3.8561    18.9204 </r>
       <r>    -5.7951     3.5947    19.3024 </r>
       <r>    -5.6889     2.4162    19.5591 </r>
       <r>    -5.5826     2.5784    19.8331 </r>
       <r>    -5.4764     4.2417    20.2838 </r>
       <r>    -5.3701     4.5460    20.7669 </r>
       <r>    -5.2638     2.5760    21.0406 </r>
       <r>    -5.1576     1.9885    21.2519 </r>
       <r>    -5.0513     1.3863    21.3992 </r>
       <r>    -4.9451     1.4971    21.5583 </r>
       <r>    -4.8388     1.7591    21.7452 </r>
       <r>    -4.7325     1.3290    21.8864 </r>
       <r>    -4.6263     0.9551    21.9879 </r>
       <r>    -4.5200     1.1697    22.1122 </r>
       <r>    -4.4138     2.2591    22.3522 </r>
       <r>    -4.3075     3.1007    22.6817 </r>
       <r>    -4.2012     2.7678    22.9758 </r>
       <r>    -4.0950     2.1483    23.2041 </r>
       <r>    -3.9887     2.4654    23.4661 </r>
       <r>    -3.8825     3.0694    23.7922 </r>
       <r>    -3.7762     2.4394    24.0514 </r>
       <r>    -3.6700     2.4853    24.3155 </r>
       <r>    -3.5637     2.5986    24.5916 </r>
       <r>    -3.4574     2.0729    24.8119 </r>
       <r>    -3.3512     1.6356    24.9857 </r>
       <r>    -3.2449     1.5562    25.1510 </r>
       <r>    -3.1387     2.2507    25.3902 </r>
       <r>    -3.0324     2.3003    25.6346 </r>
       <r>    -2.9261     1.5601    25.8004 </r>
       <r>    -2.8199     1.5691    25.9671 </r>
       <r>    -2.7136     1.0874    26.0827 </r>
       <r>    -2.6074     1.2089    26.2111 </r>
       <r>    -2.5011     2.1740    26.4421 </r>
       <r>    -2.3949     2.2348    26.6796 </r>
       <r>    -2.2886     0.6920    26.7531 </r>
       <r>    -2.1823     0.6626    26.8236 </r>
       <r>    -2.0761     1.2103    26.9522 </r>
       <r>    -1.9698     1.2078    27.0805 </r>
       <r>    -1.8636     1.3781    27.2269 </r>
       <r>    -1.7573     1.4253    27.3784 </r>
       <r>    -1.6510     1.3247    27.5191 </r>
       <r>    -1.5448     1.0785    27.6337 </r>
       <r>    -1.4385     0.4936    27.6862 </r>
       <r>    -1.3323     0.5218    27.7416 </r>
       <r>    -1.2260     0.5692    27.8021 </r>
       <r>    -1.1197     0.4113    27.8458 </r>
       <r>    -1.0135     0.6657    27.9165 </r>
       <r>    -0.9072     0.5233    27.9722 </r>
       <r>    -0.8010     0.1201    27.9849 </r>
       <r>    -0.6947     0.0111    27.9861 </r>
       <r>    -0.5885     0.0002    27.9861 </r>
       <r>    -0.4822     0.0022    27.9863 </r>
       <r>    -0.3759     0.0466    27.9913 </r>
       <r>    -0.2697     0.1420    28.0064 </r>
       <r>    -0.1634     0.0661    28.0134 </r>
       <r>    -0.0572     0.0045    28.0139 </r>
       <r>     0.0491     0.0000    28.0139 </r>
       <r>     0.1554     0.0010    28.0140 </r>
       <r>     0.2616     0.0497    28.0193 </r>
       <r>     0.3679     0.3371    28.0551 </r>
       <r>     0.4741     0.3462    28.0919 </r>
       <r>     0.5804     0.1504    28.1079 </r>
       <r>     0.6867     0.5374    28.1650 </r>
       <r>     0.7929     0.9225    28.2630 </r>
       <r>     0.8992     1.6930    28.4429 </r>
       <r>     1.0054     3.2088    28.7839 </r>
       <r>     1.1117     2.0860    29.0055 </r>
       <r>     1.2179     0.4088    29.0490 </r>
       <r>     1.3242     0.1328    29.0631 </r>
       <r>     1.4305     0.6637    29.1336 </r>
       <r>     1.5367     1.9634    29.3422 </r>
       <r>     1.6430     2.6371    29.6224 </r>
       <r>     1.7492     1.8460    29.8186 </r>
       <r>     1.8555     1.1796    29.9439 </r>
       <r>     1.9618     1.1254    30.0635 </r>
       <r>     2.0680     1.2249    30.1937 </r>
       <r>     2.1743     0.9040    30.2897 </r>
       <r>     2.2805     1.1940    30.4166 </r>
       <r>     2.3868     0.7212    30.4932 </r>
       <r>     2.4931     0.9642    30.5957 </r>
       <r>     2.5993     1.7986    30.7868 </r>
       <r>     2.7056     1.0922    30.9029 </r>
       <r>     2.8118     0.5690    30.9634 </r>
       <r>     2.9181     0.8160    31.0501 </r>
       <r>     3.0243     1.3884    31.1976 </r>
       <r>     3.1306     1.4973    31.3567 </r>
       <r>     3.2369     1.2398    31.4884 </r>
       <r>     3.3431     1.3395    31.6308 </r>
       <r>     3.4494     1.2191    31.7603 </r>
       <r>     3.5556     2.3524    32.0103 </r>
       <r>     3.6619     3.3262    32.3637 </r>
       <r>     3.7682     3.1362    32.6969 </r>
       <r>     3.8744     2.8766    33.0026 </r>
       <r>     3.9807     2.8684    33.3074 </r>
       <r>     4.0869     3.5544    33.6851 </r>
       <r>     4.1932     3.1372    34.0185 </r>
       <r>     4.2994     2.8664    34.3230 </r>
       <r>     4.4057     3.0245    34.6444 </r>
       <r>     4.5120     2.7937    34.9413 </r>
       <r>     4.6182     2.4178    35.1982 </r>
       <r>     4.7245     3.6247    35.5833 </r>
       <r>     4.8307     3.4968    35.9549 </r>
       <r>     4.9370     2.5902    36.2301 </r>
       <r>     5.0433     3.0806    36.5575 </r>
       <r>     5.1495     3.4680    36.9260 </r>
       <r>     5.2558     2.9278    37.2371 </r>
       <r>     5.3620     2.7909    37.5336 </r>
       <r>     5.4683     3.0353    37.8562 </r>
       <r>     5.5746     3.3504    38.2122 </r>
       <r>     5.6808     2.6171    38.4903 </r>
       <r>     5.7871     2.9116    38.7997 </r>
       <r>     5.8933     2.7349    39.0903 </r>
       <r>     5.9996     2.6383    39.3706 </r>
       <r>     6.1058     2.0268    39.5860 </r>
       <r>     6.2121     2.3658    39.8373 </r>
       <r>     6.3184     2.9193    40.1475 </r>
       <r>     6.4246     2.9324    40.4591 </r>
       <r>     6.5309     3.3671    40.8169 </r>
       <r>     6.6371     3.6182    41.2014 </r>
       <r>     6.7434     4.2617    41.6542 </r>
       <r>     6.8497     3.3022    42.0051 </r>
       <r>     6.9559     3.1802    42.3430 </r>
       <r>     7.0622     3.2979    42.6935 </r>
       <r>     7.1684     2.7508    42.9858 </r>
       <r>     7.2747     2.4246    43.2434 </r>
       <r>     7.3810     2.6827    43.5285 </r>
       <r>     7.4872     2.9838    43.8455 </r>
       <r>     7.5935     3.0484    44.1694 </r>
       <r>     7.6997     3.7028    44.5629 </r>
       <r>     7.8060     4.3853    45.0289 </r>
       <r>     7.9122     3.4150    45.3918 </r>
       <r>     8.0185     4.0499    45.8221 </r>
       <r>     8.1248     4.4089    46.2906 </r>
       <r>     8.2310     4.0094    46.7166 </r>
       <r>     8.3373     4.8831    47.2355 </r>
       <r>     8.4435     3.6872    47.6273 </r>
       <r>     8.5498     1.7881    47.8173 </r>
       <r>     8.6561     0.8825    47.9111 </r>
       <r>     8.7623     0.4637    47.9603 </r>
       <r>     8.8686     0.3024    47.9925 </r>
       <r>     8.9748     0.0682    47.9997 </r>
       <r>     9.0811     0.0027    48.0000 </r>
       <r>     9.1874     0.0000    48.0000 </r>
       <r>     9.2936     0.0000    48.0000 </r>
       <r>     9.3999     0.0000    48.0000 </r>
       <r>     9.5061     0.0000    48.0000 </r>
       <r>     9.6124     0.0000    48.0000 </r>
       <r>     9.7186     0.0000    48.0000 </r>
       <r>     9.8249     0.0000    48.0000 </r>
       <r>     9.9312     0.0000    48.0000 </r>
       <r>    10.0374     0.0000    48.0000 </r>
       <r>    10.1437     0.0000    48.0000 </r>
       <r>    10.2499     0.0000    48.0000 </r>
      </set>
     </set>
    </array>
   </total>
  </dos>
 </calculation>
 <structure name="finalpos" >
  <crystal>
   <varray name="basis" >
    <v>       4.20715141       2.42900000       0.00000000 </v>
    <v>      -4.20715141       2.42900000       0.00000000 </v>
    <v>       0.00000000       0.00000000      15.00000000 </v>
   </varray>
   <i name="volume">    306.57512336 </i>
   <varray name="rec_basis" >
    <v>       0.11884526       0.20584603       0.00000000 </v>
    <v>      -0.11884526       0.20584603       0.00000000 </v>
    <v>       0.00000000       0.00000000       0.06666667 </v>
   </varray>
  </crystal>
  <varray name="positions" >
   <v>       0.00441466       0.00293468       0.09971518 </v>
   <v>       0.35956451       0.00294019       0.10090638 </v>
   <v>       0.00442273       0.35808437       0.10090846 </v>
   <v>       0.64927521       0.64779287       0.10091380 </v>
   <v>       0.32798027       0.32649550       0.10070205 </v>
   <v>       0.68086808       0.00294568       0.10070959 </v>
   <v>       0.00442985       0.67938501       0.10071153 </v>
   <v>       0.16643855       0.33318925       0.33836020 </v>
   <v>       0.33312490       0.16650341       0.33836193 </v>
   <v>       0.16647719       0.83320960       0.33836446 </v>
   <v>       0.33312686       0.66652490       0.33825455 </v>
   <v>       0.66645972       0.33319027       0.33825461 </v>
   <v>       0.83314436       0.16654104       0.33836366 </v>
   <v>       0.66645994       0.83317241       0.33836040 </v>
   <v>       0.83310717       0.66652481       0.33835918 </v>
  </varray>
 </structure>
</modeling>
