   8   8   0   0
  0.4338553E+02  0.5169000E-09  0.5169000E-09  0.1500000E-08  0.5000000E-15
  1.000000000000000E-004
  CAR 
 BC3                                     
      9.52808887    -21.28548852  301     -3.47645526      1.00000000
    -21.285  0.0000E+00  0.0000E+00
    -21.183  0.0000E+00  0.0000E+00
    -21.080  0.0000E+00  0.0000E+00
    -20.977  0.0000E+00  0.0000E+00
    -20.875  0.0000E+00  0.0000E+00
    -20.772  0.0000E+00  0.0000E+00
    -20.669  0.0000E+00  0.0000E+00
    -20.567  0.0000E+00  0.0000E+00
    -20.464  0.2294E-18  0.2356E-19
    -20.361  0.1491E-13  0.1531E-14
    -20.258  0.1446E-09  0.1485E-10
    -20.156  0.1915E-06  0.1968E-07
    -20.053  0.3713E-04  0.3834E-05
    -19.950  0.1199E-02  0.1270E-03
    -19.848  0.8107E-02  0.9597E-03
    -19.745  0.1714E-01  0.2720E-02
    -19.642  0.2080E-01  0.4856E-02
    -19.539  0.2343E-01  0.7262E-02
    -19.437  0.2879E-01  0.1022E-01
    -19.334  0.3994E-01  0.1432E-01
    -19.231  0.3925E-01  0.1835E-01
    -19.129  0.1457E-01  0.1985E-01
    -19.026  0.1438E-02  0.2000E-01
    -18.923  0.2910E-04  0.2000E-01
    -18.820  0.9814E-07  0.2000E-01
    -18.718  0.4843E-10  0.2000E-01
    -18.615  0.3257E-14  0.2000E-01
    -18.512  0.0000E+00  0.2000E-01
    -18.410  0.0000E+00  0.2000E-01
    -18.307  0.0000E+00  0.2000E-01
    -18.204  0.1059E-18  0.2000E-01
    -18.101  0.8371E-14  0.2000E-01
    -17.999  0.9769E-10  0.2000E-01
    -17.896  0.1551E-06  0.2000E-01
    -17.793  0.3578E-04  0.2000E-01
    -17.691  0.1357E-02  0.2014E-01
    -17.588  0.1057E-01  0.2123E-01
    -17.485  0.2527E-01  0.2382E-01
    -17.382  0.3226E-01  0.2714E-01
    -17.280  0.2730E-01  0.2994E-01
    -17.177  0.1971E-01  0.3197E-01
    -17.074  0.1846E-01  0.3386E-01
    -16.972  0.1912E-01  0.3583E-01
    -16.869  0.2010E-01  0.3789E-01
    -16.766  0.2148E-01  0.4010E-01
    -16.663  0.2361E-01  0.4252E-01
    -16.561  0.2774E-01  0.4537E-01
    -16.458  0.3444E-01  0.4891E-01
    -16.355  0.3396E-01  0.5240E-01
    -16.253  0.2598E-01  0.5506E-01
    -16.150  0.2055E-01  0.5718E-01
    -16.047  0.1644E-01  0.5886E-01
    -15.944  0.9100E-02  0.5980E-01
    -15.842  0.1863E-02  0.5999E-01
    -15.739  0.8796E-04  0.6000E-01
    -15.636  0.7291E-06  0.6000E-01
    -15.534  0.9109E-09  0.6000E-01
    -15.431  0.1579E-12  0.6000E-01
    -15.328  0.3459E-17  0.6000E-01
    -15.225  0.0000E+00  0.6000E-01
    -15.123  0.0000E+00  0.6000E-01
    -15.020  0.0000E+00  0.6000E-01
    -14.917  0.0000E+00  0.6000E-01
    -14.815  0.0000E+00  0.6000E-01
    -14.712  0.9918E-16  0.6000E-01
    -14.609  0.2497E-11  0.6000E-01
    -14.507  0.8441E-08  0.6000E-01
    -14.404  0.4035E-05  0.6000E-01
    -14.301  0.2995E-03  0.6003E-01
    -14.198  0.4114E-02  0.6045E-01
    -14.096  0.1425E-01  0.6192E-01
    -13.993  0.2102E-01  0.6408E-01
    -13.890  0.2431E-01  0.6657E-01
    -13.788  0.2994E-01  0.6965E-01
    -13.685  0.3530E-01  0.7328E-01
    -13.582  0.2759E-01  0.7611E-01
    -13.479  0.1842E-01  0.7800E-01
    -13.377  0.1554E-01  0.7960E-01
    -13.274  0.1453E-01  0.8109E-01
    -13.171  0.1381E-01  0.8251E-01
    -13.069  0.1326E-01  0.8387E-01
    -12.966  0.1282E-01  0.8519E-01
    -12.863  0.1270E-01  0.8649E-01
    -12.760  0.1439E-01  0.8797E-01
    -12.658  0.1854E-01  0.8987E-01
    -12.555  0.2004E-01  0.9193E-01
    -12.452  0.1880E-01  0.9386E-01
    -12.350  0.1740E-01  0.9565E-01
    -12.247  0.1617E-01  0.9731E-01
    -12.144  0.1510E-01  0.9886E-01
    -12.041  0.1421E-01  0.1003E+00
    -11.939  0.1320E-01  0.1017E+00
    -11.836  0.1003E-01  0.1027E+00
    -11.733  0.5919E-02  0.1033E+00
    -11.631  0.4502E-02  0.1038E+00
    -11.528  0.4581E-02  0.1042E+00
    -11.425  0.4714E-02  0.1047E+00
    -11.322  0.4992E-02  0.1052E+00
    -11.220  0.6207E-02  0.1059E+00
    -11.117  0.7888E-02  0.1067E+00
    -11.014  0.8523E-02  0.1076E+00
    -10.912  0.1008E-01  0.1086E+00
    -10.809  0.1269E-01  0.1099E+00
    -10.706  0.1575E-01  0.1115E+00
    -10.603  0.1603E-01  0.1132E+00
    -10.501  0.1819E-01  0.1150E+00
    -10.398  0.1903E-01  0.1170E+00
    -10.295  0.2267E-01  0.1193E+00
    -10.193  0.2245E-01  0.1216E+00
    -10.090  0.1681E-01  0.1234E+00
     -9.987  0.1326E-01  0.1247E+00
     -9.884  0.1651E-01  0.1264E+00
     -9.782  0.2640E-01  0.1291E+00
     -9.679  0.2662E-01  0.1319E+00
     -9.576  0.2260E-01  0.1342E+00
     -9.474  0.2050E-01  0.1363E+00
     -9.371  0.1860E-01  0.1382E+00
     -9.268  0.1894E-01  0.1401E+00
     -9.165  0.1953E-01  0.1421E+00
     -9.063  0.2180E-01  0.1444E+00
     -8.960  0.2449E-01  0.1469E+00
     -8.857  0.2605E-01  0.1496E+00
     -8.755  0.2505E-01  0.1522E+00
     -8.652  0.2630E-01  0.1549E+00
     -8.549  0.3012E-01  0.1579E+00
     -8.446  0.2814E-01  0.1608E+00
     -8.344  0.2333E-01  0.1632E+00
     -8.241  0.2061E-01  0.1653E+00
     -8.138  0.1997E-01  0.1674E+00
     -8.036  0.2470E-01  0.1699E+00
     -7.933  0.3152E-01  0.1732E+00
     -7.830  0.3996E-01  0.1773E+00
     -7.728  0.4403E-01  0.1818E+00
     -7.625  0.4345E-01  0.1863E+00
     -7.522  0.3896E-01  0.1903E+00
     -7.419  0.2594E-01  0.1929E+00
     -7.317  0.1736E-01  0.1947E+00
     -7.214  0.1999E-01  0.1968E+00
     -7.111  0.2095E-01  0.1989E+00
     -7.009  0.1750E-01  0.2007E+00
     -6.906  0.1615E-01  0.2024E+00
     -6.803  0.1631E-01  0.2041E+00
     -6.700  0.1847E-01  0.2059E+00
     -6.598  0.2684E-01  0.2087E+00
     -6.495  0.4201E-01  0.2130E+00
     -6.392  0.6789E-01  0.2200E+00
     -6.290  0.7949E-01  0.2282E+00
     -6.187  0.5816E-01  0.2341E+00
     -6.084  0.3952E-01  0.2382E+00
     -5.981  0.2702E-01  0.2410E+00
     -5.879  0.2330E-01  0.2434E+00
     -5.776  0.2365E-01  0.2458E+00
     -5.673  0.2434E-01  0.2483E+00
     -5.571  0.2527E-01  0.2509E+00
     -5.468  0.2643E-01  0.2536E+00
     -5.365  0.2785E-01  0.2565E+00
     -5.262  0.2973E-01  0.2595E+00
     -5.160  0.3246E-01  0.2628E+00
     -5.057  0.3718E-01  0.2667E+00
     -4.954  0.4165E-01  0.2709E+00
     -4.852  0.4359E-01  0.2754E+00
     -4.749  0.4720E-01  0.2803E+00
     -4.646  0.4633E-01  0.2850E+00
     -4.543  0.3952E-01  0.2891E+00
     -4.441  0.2811E-01  0.2920E+00
     -4.338  0.1614E-01  0.2936E+00
     -4.235  0.1268E-01  0.2949E+00
     -4.133  0.1207E-01  0.2962E+00
     -4.030  0.1164E-01  0.2974E+00
     -3.927  0.1117E-01  0.2985E+00
     -3.824  0.9454E-02  0.2995E+00
     -3.722  0.4358E-02  0.2999E+00
     -3.619  0.6069E-03  0.3000E+00
     -3.516  0.1740E-04  0.3000E+00
     -3.414  0.4129E-06  0.3000E+00
     -3.311  0.4889E-04  0.3000E+00
     -3.208  0.1245E-02  0.3001E+00
     -3.105  0.6966E-02  0.3008E+00
     -3.003  0.1329E-01  0.3022E+00
     -2.900  0.1602E-01  0.3039E+00
     -2.797  0.1840E-01  0.3057E+00
     -2.695  0.2305E-01  0.3081E+00
     -2.592  0.2707E-01  0.3109E+00
     -2.489  0.2247E-01  0.3132E+00
     -2.386  0.1625E-01  0.3149E+00
     -2.284  0.1236E-01  0.3161E+00
     -2.181  0.1027E-01  0.3172E+00
     -2.078  0.8194E-02  0.3180E+00
     -1.976  0.6560E-02  0.3187E+00
     -1.873  0.4351E-02  0.3192E+00
     -1.770  0.3058E-02  0.3195E+00
     -1.668  0.2245E-02  0.3197E+00
     -1.565  0.1566E-02  0.3199E+00
     -1.462  0.9175E-03  0.3200E+00
     -1.359  0.4295E-03  0.3200E+00
     -1.257  0.5288E-03  0.3201E+00
     -1.154  0.1055E-02  0.3202E+00
     -1.051  0.1777E-02  0.3203E+00
     -0.949  0.2419E-02  0.3206E+00
     -0.846  0.3296E-02  0.3209E+00
     -0.743  0.3956E-02  0.3213E+00
     -0.640  0.5127E-02  0.3219E+00
     -0.538  0.5928E-02  0.3225E+00
     -0.435  0.7632E-02  0.3233E+00
     -0.332  0.9333E-02  0.3242E+00
     -0.230  0.1567E-01  0.3258E+00
     -0.127  0.2736E-01  0.3286E+00
     -0.024  0.2958E-01  0.3317E+00
      0.079  0.2175E-01  0.3339E+00
      0.181  0.1699E-01  0.3357E+00
      0.284  0.1471E-01  0.3372E+00
      0.387  0.1357E-01  0.3386E+00
      0.489  0.1452E-01  0.3401E+00
      0.592  0.1505E-01  0.3416E+00
      0.695  0.1374E-01  0.3430E+00
      0.798  0.1121E-01  0.3442E+00
      0.900  0.1393E-01  0.3456E+00
      1.003  0.1758E-01  0.3474E+00
      1.106  0.1885E-01  0.3493E+00
      1.208  0.1938E-01  0.3513E+00
      1.311  0.2010E-01  0.3534E+00
      1.414  0.2114E-01  0.3556E+00
      1.517  0.2270E-01  0.3579E+00
      1.619  0.2430E-01  0.3604E+00
      1.722  0.2371E-01  0.3628E+00
      1.825  0.2406E-01  0.3653E+00
      1.927  0.2774E-01  0.3681E+00
      2.030  0.3013E-01  0.3712E+00
      2.133  0.2990E-01  0.3743E+00
      2.236  0.3217E-01  0.3776E+00
      2.338  0.3632E-01  0.3813E+00
      2.441  0.3870E-01  0.3853E+00
      2.544  0.3885E-01  0.3893E+00
      2.646  0.3848E-01  0.3933E+00
      2.749  0.3854E-01  0.3972E+00
      2.852  0.3841E-01  0.4012E+00
      2.955  0.3806E-01  0.4051E+00
      3.057  0.3836E-01  0.4090E+00
      3.160  0.3784E-01  0.4129E+00
      3.263  0.3819E-01  0.4168E+00
      3.365  0.3777E-01  0.4207E+00
      3.468  0.3822E-01  0.4246E+00
      3.571  0.3768E-01  0.4285E+00
      3.674  0.3783E-01  0.4324E+00
      3.776  0.3819E-01  0.4363E+00
      3.879  0.3860E-01  0.4403E+00
      3.982  0.4099E-01  0.4445E+00
      4.084  0.3842E-01  0.4484E+00
      4.187  0.3337E-01  0.4519E+00
      4.290  0.3230E-01  0.4552E+00
      4.392  0.4357E-01  0.4596E+00
      4.495  0.4943E-01  0.4647E+00
      4.598  0.4714E-01  0.4696E+00
      4.701  0.4893E-01  0.4746E+00
      4.803  0.4882E-01  0.4796E+00
      4.906  0.5508E-01  0.4853E+00
      5.009  0.5869E-01  0.4913E+00
      5.111  0.6121E-01  0.4976E+00
      5.214  0.6608E-01  0.5044E+00
      5.317  0.7097E-01  0.5117E+00
      5.420  0.7514E-01  0.5194E+00
      5.522  0.8124E-01  0.5277E+00
      5.625  0.7540E-01  0.5355E+00
      5.728  0.5909E-01  0.5415E+00
      5.830  0.6733E-01  0.5484E+00
      5.933  0.7954E-01  0.5566E+00
      6.036  0.7738E-01  0.5646E+00
      6.139  0.7219E-01  0.5720E+00
      6.241  0.6752E-01  0.5789E+00
      6.344  0.7325E-01  0.5864E+00
      6.447  0.7477E-01  0.5941E+00
      6.549  0.6912E-01  0.6012E+00
      6.652  0.6316E-01  0.6077E+00
      6.755  0.6359E-01  0.6142E+00
      6.858  0.6921E-01  0.6213E+00
      6.960  0.6093E-01  0.6276E+00
      7.063  0.4539E-01  0.6323E+00
      7.166  0.2857E-01  0.6352E+00
      7.268  0.1389E-01  0.6366E+00
      7.371  0.9317E-02  0.6376E+00
      7.474  0.7083E-02  0.6383E+00
      7.577  0.4291E-02  0.6388E+00
      7.679  0.3402E-02  0.6391E+00
      7.782  0.2607E-02  0.6394E+00
      7.885  0.2044E-02  0.6396E+00
      7.987  0.2456E-02  0.6398E+00
      8.090  0.1295E-02  0.6400E+00
      8.193  0.2791E-03  0.6400E+00
      8.296  0.3479E-04  0.6400E+00
      8.398  0.1440E-05  0.6400E+00
      8.501  0.1027E-07  0.6400E+00
      8.604  0.1017E-10  0.6400E+00
      8.706  0.1307E-14  0.6400E+00
      8.809  0.1765E-19  0.6400E+00
      8.912  0.0000E+00  0.6400E+00
      9.015  0.0000E+00  0.6400E+00
      9.117  0.0000E+00  0.6400E+00
      9.220  0.0000E+00  0.6400E+00
      9.323  0.0000E+00  0.6400E+00
      9.425  0.0000E+00  0.6400E+00
      9.528  0.0000E+00  0.6400E+00
