  15  15   0   4
  0.2032071E+02  0.4844000E-09  0.4844000E-09  0.1500000E-08  0.5000000E-15
  1.000000000000000E-004
  CAR 
 Lattice                                 
     10.34292330    -21.70598972  301     -0.32103637      1.00000000
    -21.706  0.0000E+00  0.0000E+00  0.0000E+00  0.0000E+00
    -21.599  0.0000E+00  0.0000E+00  0.0000E+00  0.0000E+00
    -21.492  0.0000E+00  0.0000E+00  0.0000E+00  0.0000E+00
    -21.386  0.0000E+00  0.0000E+00  0.0000E+00  0.0000E+00
    -21.279  0.0000E+00  0.0000E+00  0.0000E+00  0.0000E+00
    -21.172  0.0000E+00  0.0000E+00  0.0000E+00  0.0000E+00
    -21.065  0.0000E+00  0.0000E+00  0.0000E+00  0.0000E+00
    -20.958  0.0000E+00  0.0000E+00  0.0000E+00  0.0000E+00
    -20.851  0.0000E+00  0.0000E+00  0.0000E+00  0.0000E+00
    -20.745  0.6726E-15  0.6727E-15  0.7186E-16  0.7186E-16
    -20.638  0.1168E-10  0.1168E-10  0.1247E-11  0.1247E-11
    -20.531  0.2429E-07  0.2429E-07  0.2596E-08  0.2596E-08
    -20.424  0.6663E-05  0.6663E-05  0.7144E-06  0.7144E-06
    -20.317  0.2695E-03  0.2695E-03  0.2950E-04  0.2950E-04
    -20.210  0.1970E-02  0.1970E-02  0.2399E-03  0.2399E-03
    -20.104  0.4146E-02  0.4146E-02  0.6828E-03  0.6828E-03
    -19.997  0.4512E-02  0.4512E-02  0.1165E-02  0.1165E-02
    -19.890  0.4931E-02  0.4931E-02  0.1692E-02  0.1692E-02
    -19.783  0.4147E-02  0.4147E-02  0.2135E-02  0.2135E-02
    -19.676  0.5375E-02  0.5375E-02  0.2709E-02  0.2709E-02
    -19.569  0.4213E-02  0.4213E-02  0.3159E-02  0.3159E-02
    -19.463  0.4240E-02  0.4240E-02  0.3612E-02  0.3612E-02
    -19.356  0.6003E-02  0.6003E-02  0.4253E-02  0.4253E-02
    -19.249  0.3814E-02  0.3814E-02  0.4661E-02  0.4661E-02
    -19.142  0.3863E-02  0.3863E-02  0.5073E-02  0.5073E-02
    -19.035  0.6105E-02  0.6105E-02  0.5725E-02  0.5725E-02
    -18.928  0.5209E-02  0.5209E-02  0.6282E-02  0.6282E-02
    -18.822  0.2962E-02  0.2962E-02  0.6598E-02  0.6598E-02
    -18.715  0.4343E-02  0.4343E-02  0.7062E-02  0.7062E-02
    -18.608  0.6910E-02  0.6910E-02  0.7801E-02  0.7801E-02
    -18.501  0.4569E-02  0.4569E-02  0.8289E-02  0.8289E-02
    -18.394  0.3794E-02  0.3794E-02  0.8694E-02  0.8694E-02
    -18.287  0.2961E-02  0.2961E-02  0.9010E-02  0.9010E-02
    -18.181  0.6594E-02  0.6594E-02  0.9715E-02  0.9715E-02
    -18.074  0.6619E-02  0.6619E-02  0.1042E-01  0.1042E-01
    -17.967  0.3548E-02  0.3548E-02  0.1080E-01  0.1080E-01
    -17.860  0.3270E-02  0.3270E-02  0.1115E-01  0.1115E-01
    -17.753  0.4089E-02  0.4089E-02  0.1159E-01  0.1159E-01
    -17.646  0.6181E-02  0.6181E-02  0.1225E-01  0.1225E-01
    -17.540  0.6770E-02  0.6770E-02  0.1297E-01  0.1297E-01
    -17.433  0.5504E-02  0.5504E-02  0.1356E-01  0.1356E-01
    -17.326  0.6389E-02  0.6389E-02  0.1424E-01  0.1424E-01
    -17.219  0.1009E-01  0.1009E-01  0.1532E-01  0.1532E-01
    -17.112  0.1453E-01  0.1453E-01  0.1687E-01  0.1687E-01
    -17.005  0.1556E-01  0.1556E-01  0.1853E-01  0.1853E-01
    -16.899  0.1691E-01  0.1691E-01  0.2034E-01  0.2034E-01
    -16.792  0.2066E-01  0.2066E-01  0.2255E-01  0.2255E-01
    -16.685  0.1673E-01  0.1673E-01  0.2434E-01  0.2434E-01
    -16.578  0.5291E-02  0.5291E-02  0.2490E-01  0.2490E-01
    -16.471  0.7187E-02  0.7187E-02  0.2567E-01  0.2567E-01
    -16.365  0.8201E-02  0.8201E-02  0.2654E-01  0.2654E-01
    -16.258  0.4573E-02  0.4573E-02  0.2703E-01  0.2703E-01
    -16.151  0.4151E-02  0.4151E-02  0.2748E-01  0.2748E-01
    -16.044  0.3854E-02  0.3854E-02  0.2789E-01  0.2789E-01
    -15.937  0.3825E-02  0.3825E-02  0.2830E-01  0.2830E-01
    -15.830  0.3607E-02  0.3607E-02  0.2868E-01  0.2868E-01
    -15.724  0.7988E-02  0.7988E-02  0.2954E-01  0.2954E-01
    -15.617  0.8134E-02  0.8134E-02  0.3040E-01  0.3040E-01
    -15.510  0.3956E-02  0.3956E-02  0.3083E-01  0.3083E-01
    -15.403  0.3862E-02  0.3862E-02  0.3124E-01  0.3124E-01
    -15.296  0.3348E-02  0.3348E-02  0.3160E-01  0.3160E-01
    -15.189  0.4588E-02  0.4588E-02  0.3209E-01  0.3209E-01
    -15.083  0.6111E-02  0.6111E-02  0.3274E-01  0.3274E-01
    -14.976  0.1044E-01  0.1044E-01  0.3386E-01  0.3386E-01
    -14.869  0.1667E-01  0.1667E-01  0.3564E-01  0.3564E-01
    -14.762  0.1821E-01  0.1821E-01  0.3758E-01  0.3758E-01
    -14.655  0.1749E-01  0.1749E-01  0.3945E-01  0.3945E-01
    -14.548  0.1134E-01  0.1134E-01  0.4066E-01  0.4066E-01
    -14.442  0.7603E-02  0.7603E-02  0.4147E-01  0.4147E-01
    -14.335  0.1457E-01  0.1457E-01  0.4303E-01  0.4303E-01
    -14.228  0.1561E-01  0.1561E-01  0.4470E-01  0.4470E-01
    -14.121  0.1108E-01  0.1108E-01  0.4588E-01  0.4588E-01
    -14.014  0.1079E-01  0.1079E-01  0.4703E-01  0.4703E-01
    -13.907  0.1220E-01  0.1220E-01  0.4834E-01  0.4834E-01
    -13.801  0.1953E-01  0.1953E-01  0.5042E-01  0.5042E-01
    -13.694  0.2000E-01  0.2000E-01  0.5256E-01  0.5256E-01
    -13.587  0.1822E-01  0.1822E-01  0.5451E-01  0.5451E-01
    -13.480  0.1141E-01  0.1141E-01  0.5573E-01  0.5573E-01
    -13.373  0.6907E-02  0.6907E-02  0.5647E-01  0.5647E-01
    -13.266  0.3272E-02  0.3272E-02  0.5682E-01  0.5682E-01
    -13.160  0.4020E-02  0.4020E-02  0.5724E-01  0.5724E-01
    -13.053  0.6786E-02  0.6786E-02  0.5797E-01  0.5797E-01
    -12.946  0.6929E-02  0.6929E-02  0.5871E-01  0.5871E-01
    -12.839  0.4815E-02  0.4815E-02  0.5922E-01  0.5922E-01
    -12.732  0.6663E-02  0.6663E-02  0.5994E-01  0.5994E-01
    -12.625  0.7053E-02  0.7053E-02  0.6069E-01  0.6069E-01
    -12.519  0.5611E-02  0.5611E-02  0.6129E-01  0.6129E-01
    -12.412  0.5382E-02  0.5382E-02  0.6186E-01  0.6186E-01
    -12.305  0.3368E-02  0.3368E-02  0.6222E-01  0.6222E-01
    -12.198  0.6252E-02  0.6252E-02  0.6289E-01  0.6289E-01
    -12.091  0.8045E-02  0.8045E-02  0.6375E-01  0.6375E-01
    -11.984  0.3441E-02  0.3441E-02  0.6412E-01  0.6412E-01
    -11.878  0.3346E-02  0.3346E-02  0.6448E-01  0.6448E-01
    -11.771  0.3378E-02  0.3378E-02  0.6484E-01  0.6484E-01
    -11.664  0.5858E-02  0.5858E-02  0.6546E-01  0.6546E-01
    -11.557  0.6797E-02  0.6797E-02  0.6619E-01  0.6619E-01
    -11.450  0.3906E-02  0.3906E-02  0.6661E-01  0.6661E-01
    -11.344  0.1840E-02  0.1840E-02  0.6680E-01  0.6680E-01
    -11.237  0.4682E-02  0.4682E-02  0.6730E-01  0.6730E-01
    -11.130  0.5815E-02  0.5815E-02  0.6792E-01  0.6792E-01
    -11.023  0.5201E-02  0.5201E-02  0.6848E-01  0.6848E-01
    -10.916  0.7734E-02  0.7734E-02  0.6931E-01  0.6931E-01
    -10.809  0.6086E-02  0.6086E-02  0.6996E-01  0.6996E-01
    -10.703  0.2441E-02  0.2441E-02  0.7022E-01  0.7022E-01
    -10.596  0.7837E-02  0.7837E-02  0.7105E-01  0.7105E-01
    -10.489  0.1246E-01  0.1246E-01  0.7238E-01  0.7238E-01
    -10.382  0.1536E-01  0.1536E-01  0.7403E-01  0.7403E-01
    -10.275  0.1503E-01  0.1503E-01  0.7563E-01  0.7563E-01
    -10.168  0.1444E-01  0.1444E-01  0.7717E-01  0.7717E-01
    -10.062  0.1786E-01  0.1786E-01  0.7908E-01  0.7908E-01
     -9.955  0.1878E-01  0.1878E-01  0.8109E-01  0.8109E-01
     -9.848  0.9841E-02  0.9841E-02  0.8214E-01  0.8214E-01
     -9.741  0.6681E-02  0.6681E-02  0.8285E-01  0.8285E-01
     -9.634  0.1402E-01  0.1402E-01  0.8435E-01  0.8435E-01
     -9.527  0.1560E-01  0.1560E-01  0.8602E-01  0.8602E-01
     -9.421  0.1634E-01  0.1634E-01  0.8776E-01  0.8776E-01
     -9.314  0.1539E-01  0.1539E-01  0.8941E-01  0.8941E-01
     -9.207  0.1418E-01  0.1418E-01  0.9092E-01  0.9092E-01
     -9.100  0.1063E-01  0.1063E-01  0.9206E-01  0.9206E-01
     -8.993  0.7488E-02  0.7488E-02  0.9286E-01  0.9286E-01
     -8.886  0.1530E-01  0.1530E-01  0.9449E-01  0.9449E-01
     -8.780  0.2067E-01  0.2067E-01  0.9670E-01  0.9670E-01
     -8.673  0.1560E-01  0.1560E-01  0.9837E-01  0.9837E-01
     -8.566  0.7661E-02  0.7661E-02  0.9918E-01  0.9918E-01
     -8.459  0.1050E-01  0.1050E-01  0.1003E+00  0.1003E+00
     -8.352  0.2084E-01  0.2084E-01  0.1025E+00  0.1025E+00
     -8.245  0.1910E-01  0.1910E-01  0.1046E+00  0.1046E+00
     -8.139  0.1150E-01  0.1150E-01  0.1058E+00  0.1058E+00
     -8.032  0.1598E-01  0.1598E-01  0.1075E+00  0.1075E+00
     -7.925  0.2492E-01  0.2492E-01  0.1102E+00  0.1102E+00
     -7.818  0.2442E-01  0.2442E-01  0.1128E+00  0.1128E+00
     -7.711  0.2062E-01  0.2062E-01  0.1150E+00  0.1150E+00
     -7.604  0.1019E-01  0.1019E-01  0.1161E+00  0.1161E+00
     -7.498  0.8403E-02  0.8403E-02  0.1170E+00  0.1170E+00
     -7.391  0.1883E-01  0.1883E-01  0.1190E+00  0.1190E+00
     -7.284  0.1781E-01  0.1781E-01  0.1209E+00  0.1209E+00
     -7.177  0.1162E-01  0.1162E-01  0.1221E+00  0.1221E+00
     -7.070  0.1134E-01  0.1134E-01  0.1233E+00  0.1233E+00
     -6.963  0.1707E-01  0.1707E-01  0.1252E+00  0.1252E+00
     -6.857  0.1790E-01  0.1790E-01  0.1271E+00  0.1271E+00
     -6.750  0.1964E-01  0.1964E-01  0.1292E+00  0.1292E+00
     -6.643  0.2093E-01  0.2093E-01  0.1314E+00  0.1314E+00
     -6.536  0.1871E-01  0.1871E-01  0.1334E+00  0.1334E+00
     -6.429  0.2018E-01  0.2018E-01  0.1356E+00  0.1356E+00
     -6.323  0.1697E-01  0.1697E-01  0.1374E+00  0.1374E+00
     -6.216  0.1827E-01  0.1827E-01  0.1393E+00  0.1393E+00
     -6.109  0.2607E-01  0.2607E-01  0.1421E+00  0.1421E+00
     -6.002  0.2282E-01  0.2282E-01  0.1445E+00  0.1445E+00
     -5.895  0.3138E-01  0.3138E-01  0.1479E+00  0.1479E+00
     -5.788  0.2851E-01  0.2851E-01  0.1509E+00  0.1509E+00
     -5.682  0.1600E-01  0.1600E-01  0.1527E+00  0.1527E+00
     -5.575  0.1832E-01  0.1832E-01  0.1546E+00  0.1546E+00
     -5.468  0.3275E-01  0.3275E-01  0.1581E+00  0.1581E+00
     -5.361  0.3584E-01  0.3584E-01  0.1619E+00  0.1619E+00
     -5.254  0.2374E-01  0.2374E-01  0.1645E+00  0.1645E+00
     -5.147  0.1699E-01  0.1699E-01  0.1663E+00  0.1663E+00
     -5.041  0.1050E-01  0.1050E-01  0.1674E+00  0.1674E+00
     -4.934  0.1020E-01  0.1020E-01  0.1685E+00  0.1685E+00
     -4.827  0.1439E-01  0.1439E-01  0.1700E+00  0.1700E+00
     -4.720  0.1128E-01  0.1128E-01  0.1712E+00  0.1712E+00
     -4.613  0.8161E-02  0.8161E-02  0.1721E+00  0.1721E+00
     -4.506  0.8992E-02  0.8992E-02  0.1731E+00  0.1731E+00
     -4.400  0.1593E-01  0.1593E-01  0.1748E+00  0.1748E+00
     -4.293  0.2222E-01  0.2222E-01  0.1772E+00  0.1772E+00
     -4.186  0.1828E-01  0.1828E-01  0.1791E+00  0.1791E+00
     -4.079  0.1911E-01  0.1911E-01  0.1811E+00  0.1811E+00
     -3.972  0.2230E-01  0.2230E-01  0.1835E+00  0.1835E+00
     -3.865  0.2400E-01  0.2400E-01  0.1861E+00  0.1861E+00
     -3.759  0.1829E-01  0.1829E-01  0.1880E+00  0.1880E+00
     -3.652  0.1787E-01  0.1787E-01  0.1900E+00  0.1900E+00
     -3.545  0.2034E-01  0.2034E-01  0.1921E+00  0.1921E+00
     -3.438  0.1581E-01  0.1581E-01  0.1938E+00  0.1938E+00
     -3.331  0.1400E-01  0.1400E-01  0.1953E+00  0.1953E+00
     -3.224  0.1323E-01  0.1323E-01  0.1967E+00  0.1967E+00
     -3.118  0.1712E-01  0.1712E-01  0.1986E+00  0.1986E+00
     -3.011  0.1826E-01  0.1826E-01  0.2005E+00  0.2005E+00
     -2.904  0.1192E-01  0.1192E-01  0.2018E+00  0.2018E+00
     -2.797  0.1185E-01  0.1185E-01  0.2030E+00  0.2030E+00
     -2.690  0.7453E-02  0.7453E-02  0.2038E+00  0.2038E+00
     -2.583  0.1017E-01  0.1017E-01  0.2049E+00  0.2049E+00
     -2.477  0.1980E-01  0.1980E-01  0.2070E+00  0.2070E+00
     -2.370  0.1411E-01  0.1411E-01  0.2085E+00  0.2085E+00
     -2.263  0.3999E-02  0.3999E-02  0.2090E+00  0.2090E+00
     -2.156  0.4574E-02  0.4574E-02  0.2095E+00  0.2095E+00
     -2.049  0.1010E-01  0.1010E-01  0.2105E+00  0.2105E+00
     -1.942  0.1030E-01  0.1030E-01  0.2116E+00  0.2116E+00
     -1.836  0.1121E-01  0.1121E-01  0.2128E+00  0.2128E+00
     -1.729  0.1163E-01  0.1163E-01  0.2141E+00  0.2141E+00
     -1.622  0.9493E-02  0.9493E-02  0.2151E+00  0.2151E+00
     -1.515  0.7136E-02  0.7136E-02  0.2159E+00  0.2159E+00
     -1.408  0.4626E-02  0.4626E-02  0.2164E+00  0.2164E+00
     -1.302  0.3884E-02  0.3884E-02  0.2168E+00  0.2168E+00
     -1.195  0.4041E-02  0.4041E-02  0.2172E+00  0.2172E+00
     -1.088  0.3960E-02  0.3960E-02  0.2176E+00  0.2176E+00
     -0.981  0.5858E-02  0.5858E-02  0.2182E+00  0.2182E+00
     -0.874  0.2957E-02  0.2957E-02  0.2186E+00  0.2186E+00
     -0.767  0.6411E-03  0.6411E-03  0.2186E+00  0.2186E+00
     -0.661  0.8196E-04  0.8195E-04  0.2186E+00  0.2186E+00
     -0.554  0.3151E-05  0.3151E-05  0.2186E+00  0.2186E+00
     -0.447  0.7641E-04  0.7641E-04  0.2186E+00  0.2186E+00
     -0.340  0.7238E-03  0.7238E-03  0.2187E+00  0.2187E+00
     -0.233  0.1011E-02  0.1011E-02  0.2188E+00  0.2188E+00
     -0.126  0.2132E-03  0.2132E-03  0.2189E+00  0.2189E+00
     -0.020  0.6178E-05  0.6178E-05  0.2189E+00  0.2189E+00
      0.087  0.2756E-06  0.2756E-06  0.2189E+00  0.2189E+00
      0.194  0.4638E-04  0.4638E-04  0.2189E+00  0.2189E+00
      0.301  0.1050E-02  0.1050E-02  0.2190E+00  0.2190E+00
      0.408  0.3315E-02  0.3315E-02  0.2193E+00  0.2193E+00
      0.515  0.1662E-02  0.1662E-02  0.2195E+00  0.2195E+00
      0.621  0.1192E-02  0.1192E-02  0.2196E+00  0.2196E+00
      0.728  0.3315E-02  0.3315E-02  0.2200E+00  0.2200E+00
      0.835  0.5464E-02  0.5464E-02  0.2206E+00  0.2206E+00
      0.942  0.1076E-01  0.1076E-01  0.2217E+00  0.2217E+00
      1.049  0.2476E-01  0.2476E-01  0.2244E+00  0.2244E+00
      1.156  0.1928E-01  0.1928E-01  0.2264E+00  0.2264E+00
      1.262  0.5853E-02  0.5853E-02  0.2271E+00  0.2271E+00
      1.369  0.3611E-02  0.3611E-02  0.2274E+00  0.2274E+00
      1.476  0.7849E-02  0.7849E-02  0.2283E+00  0.2283E+00
      1.583  0.1303E-01  0.1303E-01  0.2297E+00  0.2297E+00
      1.690  0.1928E-01  0.1928E-01  0.2317E+00  0.2317E+00
      1.797  0.1550E-01  0.1550E-01  0.2334E+00  0.2334E+00
      1.903  0.6821E-02  0.6821E-02  0.2341E+00  0.2341E+00
      2.010  0.6765E-02  0.6765E-02  0.2348E+00  0.2348E+00
      2.117  0.9916E-02  0.9916E-02  0.2359E+00  0.2359E+00
      2.224  0.7270E-02  0.7270E-02  0.2367E+00  0.2367E+00
      2.331  0.8279E-02  0.8279E-02  0.2376E+00  0.2376E+00
      2.438  0.7338E-02  0.7338E-02  0.2383E+00  0.2383E+00
      2.544  0.1022E-01  0.1022E-01  0.2394E+00  0.2394E+00
      2.651  0.1131E-01  0.1131E-01  0.2406E+00  0.2406E+00
      2.758  0.6843E-02  0.6843E-02  0.2414E+00  0.2414E+00
      2.865  0.4246E-02  0.4247E-02  0.2418E+00  0.2418E+00
      2.972  0.8696E-02  0.8700E-02  0.2428E+00  0.2428E+00
      3.079  0.1218E-01  0.1218E-01  0.2441E+00  0.2441E+00
      3.185  0.9486E-02  0.9485E-02  0.2451E+00  0.2451E+00
      3.292  0.9946E-02  0.9948E-02  0.2461E+00  0.2461E+00
      3.399  0.1008E-01  0.1007E-01  0.2472E+00  0.2472E+00
      3.506  0.1080E-01  0.1080E-01  0.2484E+00  0.2484E+00
      3.613  0.1604E-01  0.1605E-01  0.2501E+00  0.2501E+00
      3.719  0.2128E-01  0.2128E-01  0.2523E+00  0.2523E+00
      3.826  0.2430E-01  0.2431E-01  0.2549E+00  0.2549E+00
      3.933  0.2272E-01  0.2272E-01  0.2574E+00  0.2574E+00
      4.040  0.2321E-01  0.2321E-01  0.2598E+00  0.2598E+00
      4.147  0.2356E-01  0.2356E-01  0.2624E+00  0.2624E+00
      4.254  0.2647E-01  0.2647E-01  0.2652E+00  0.2652E+00
      4.360  0.2436E-01  0.2436E-01  0.2678E+00  0.2678E+00
      4.467  0.2320E-01  0.2320E-01  0.2703E+00  0.2703E+00
      4.574  0.2191E-01  0.2191E-01  0.2726E+00  0.2726E+00
      4.681  0.2119E-01  0.2120E-01  0.2749E+00  0.2749E+00
      4.788  0.2600E-01  0.2601E-01  0.2777E+00  0.2777E+00
      4.895  0.2393E-01  0.2394E-01  0.2802E+00  0.2802E+00
      5.001  0.2214E-01  0.2214E-01  0.2826E+00  0.2826E+00
      5.108  0.2516E-01  0.2517E-01  0.2853E+00  0.2853E+00
      5.215  0.2628E-01  0.2628E-01  0.2881E+00  0.2881E+00
      5.322  0.2372E-01  0.2372E-01  0.2906E+00  0.2906E+00
      5.429  0.2273E-01  0.2271E-01  0.2930E+00  0.2930E+00
      5.536  0.1966E-01  0.1966E-01  0.2951E+00  0.2951E+00
      5.642  0.2669E-01  0.2669E-01  0.2980E+00  0.2980E+00
      5.749  0.2418E-01  0.2420E-01  0.3006E+00  0.3006E+00
      5.856  0.2388E-01  0.2387E-01  0.3031E+00  0.3031E+00
      5.963  0.1960E-01  0.1958E-01  0.3052E+00  0.3052E+00
      6.070  0.2017E-01  0.2018E-01  0.3074E+00  0.3074E+00
      6.177  0.1516E-01  0.1516E-01  0.3090E+00  0.3090E+00
      6.283  0.1729E-01  0.1731E-01  0.3108E+00  0.3108E+00
      6.390  0.2391E-01  0.2392E-01  0.3134E+00  0.3134E+00
      6.497  0.2405E-01  0.2405E-01  0.3160E+00  0.3160E+00
      6.604  0.2436E-01  0.2436E-01  0.3186E+00  0.3186E+00
      6.711  0.2623E-01  0.2624E-01  0.3214E+00  0.3214E+00
      6.818  0.3131E-01  0.3133E-01  0.3247E+00  0.3247E+00
      6.924  0.2792E-01  0.2791E-01  0.3277E+00  0.3277E+00
      7.031  0.2514E-01  0.2515E-01  0.3304E+00  0.3304E+00
      7.138  0.2778E-01  0.2777E-01  0.3333E+00  0.3334E+00
      7.245  0.2207E-01  0.2206E-01  0.3357E+00  0.3357E+00
      7.352  0.1909E-01  0.1908E-01  0.3377E+00  0.3377E+00
      7.459  0.1868E-01  0.1872E-01  0.3397E+00  0.3397E+00
      7.565  0.2338E-01  0.2340E-01  0.3422E+00  0.3422E+00
      7.672  0.2468E-01  0.2466E-01  0.3449E+00  0.3449E+00
      7.779  0.2901E-01  0.2901E-01  0.3480E+00  0.3480E+00
      7.886  0.3430E-01  0.3429E-01  0.3516E+00  0.3516E+00
      7.993  0.2677E-01  0.2676E-01  0.3545E+00  0.3545E+00
      8.099  0.3019E-01  0.3021E-01  0.3577E+00  0.3577E+00
      8.206  0.3501E-01  0.3499E-01  0.3615E+00  0.3615E+00
      8.313  0.3276E-01  0.3276E-01  0.3650E+00  0.3650E+00
      8.420  0.3835E-01  0.3836E-01  0.3691E+00  0.3691E+00
      8.527  0.2876E-01  0.2874E-01  0.3721E+00  0.3721E+00
      8.634  0.1414E-01  0.1412E-01  0.3736E+00  0.3736E+00
      8.740  0.6128E-02  0.6122E-02  0.3743E+00  0.3743E+00
      8.847  0.3346E-02  0.3345E-02  0.3747E+00  0.3747E+00
      8.954  0.2639E-02  0.2639E-02  0.3749E+00  0.3749E+00
      9.061  0.5601E-03  0.5599E-03  0.3750E+00  0.3750E+00
      9.168  0.2064E-04  0.2063E-04  0.3750E+00  0.3750E+00
      9.275  0.1012E-06  0.1011E-06  0.3750E+00  0.3750E+00
      9.381  0.5755E-10  0.5749E-10  0.3750E+00  0.3750E+00
      9.488  0.3581E-14  0.3575E-14  0.3750E+00  0.3750E+00
      9.595  0.0000E+00  0.0000E+00  0.3750E+00  0.3750E+00
      9.702  0.0000E+00  0.0000E+00  0.3750E+00  0.3750E+00
      9.809  0.0000E+00  0.0000E+00  0.3750E+00  0.3750E+00
      9.916  0.0000E+00  0.0000E+00  0.3750E+00  0.3750E+00
     10.022  0.0000E+00  0.0000E+00  0.3750E+00  0.3750E+00
     10.129  0.0000E+00  0.0000E+00  0.3750E+00  0.3750E+00
     10.236  0.0000E+00  0.0000E+00  0.3750E+00  0.3750E+00
     10.343  0.0000E+00  0.0000E+00  0.3750E+00  0.3750E+00
