Lattice                                 
           1
     4.195027    2.422000    0.000000
    -4.195027    2.422000    0.000000
     0.000000    0.000000   15.000000
   B    C 
     4    11
Direct configuration=     1
   0.00415361  0.00267210  0.12034134
   0.35695335  0.00285503  0.09748893
   0.00423858  0.35550699  0.09749256
   0.65142295  0.65006557  0.09747688
   0.32808646  0.32671938  0.10030508
   0.68027775  0.00278085  0.10027562
   0.00416530  0.67883808  0.10026559
   0.08333267  0.41666633  0.33646667
   0.24999967  0.24999933  0.33646667
   0.08333267  0.91666633  0.33646667
   0.24999967  0.74999933  0.33646667
   0.58333267  0.41666633  0.33646667
   0.74999967  0.24999933  0.33646667
   0.58333267  0.91666633  0.33646667
   0.74999967  0.74999933  0.33646667
Direct configuration=     2
   0.00414284  0.00267113  0.11913424
   0.35570695  0.00282970  0.09781145
   0.00413888  0.35446538  0.09787257
   0.65258830  0.65107117  0.09784339
   0.32482110  0.32322092  0.10030032
   0.68392034  0.00285630  0.10032521
   0.00417247  0.68214867  0.10027678
   0.08331738  0.41677903  0.33646307
   0.25017700  0.25026334  0.33655988
   0.08349765  0.91679533  0.33645136
   0.25029815  0.74995675  0.33643628
   0.58328492  0.41664548  0.33642151
   0.74993324  0.25000267  0.33646135
   0.58309101  0.91661621  0.33653663
   0.74953711  0.74977858  0.33648530
Direct configuration=     3
   0.00414836  0.00267163  0.11975254
   0.35634539  0.00284268  0.09764625
   0.00418995  0.35499892  0.09767792
   0.65199138  0.65055608  0.09765565
   0.32649370  0.32501292  0.10030276
   0.68205451  0.00281765  0.10029981
   0.00416880  0.68045290  0.10027105
   0.08332521  0.41672131  0.33646491
   0.25008617  0.25012811  0.33651213
   0.08341314  0.91672925  0.33645920
   0.25014526  0.74997856  0.33645184
   0.58330938  0.41665616  0.33644464
   0.74996727  0.25000096  0.33646407
   0.58321479  0.91664188  0.33650079
   0.74977404  0.74989166  0.33647576
Direct configuration=     4
   0.00414829  0.00269717  0.11870037
   0.35681663  0.00280836  0.09794633
   0.00415756  0.35543750  0.09803544
   0.65162066  0.65001414  0.09799881
   0.32664115  0.32499006  0.10026700
   0.68204227  0.00285379  0.10031544
   0.00418163  0.68035490  0.10025030
   0.08328584  0.41665753  0.33646778
   0.24988852  0.24998640  0.33658595
   0.08321686  0.91664327  0.33645713
   0.24983675  0.75006224  0.33642741
   0.58331683  0.41667919  0.33641586
   0.74996845  0.25002931  0.33645881
   0.58339951  0.91675193  0.33656154
   0.75010637  0.75013488  0.33649117
