  15  15   1   4
  0.2033749E+02  0.4846000E-09  0.4846000E-09  0.1500000E-08  0.5000000E-15
  1.000000000000000E-004
  CAR 
 BS                                      
     10.37627175    -21.66319237  301     -0.28080754      1.00000000
    -21.663  0.0000E+00  0.0000E+00
    -21.556  0.0000E+00  0.0000E+00
    -21.450  0.0000E+00  0.0000E+00
    -21.343  0.0000E+00  0.0000E+00
    -21.236  0.0000E+00  0.0000E+00
    -21.129  0.0000E+00  0.0000E+00
    -21.022  0.0000E+00  0.0000E+00
    -20.916  0.0000E+00  0.0000E+00
    -20.809  0.0000E+00  0.0000E+00
    -20.702  0.1145E-11  0.1223E-12
    -20.595  0.2000E-07  0.2136E-08
    -20.488  0.3915E-04  0.4183E-05
    -20.382  0.9108E-02  0.9769E-03
    -20.275  0.2823E+00  0.3113E-01
    -20.168  0.1437E+01  0.1846E+00
    -20.061  0.1778E+01  0.3745E+00
    -19.954  0.1211E+01  0.5039E+00
    -19.848  0.9248E+00  0.6026E+00
    -19.741  0.7857E+00  0.6866E+00
    -19.634  0.6971E+00  0.7610E+00
    -19.527  0.6336E+00  0.8287E+00
    -19.420  0.5853E+00  0.8912E+00
    -19.314  0.5467E+00  0.9496E+00
    -19.207  0.5151E+00  0.1005E+01
    -19.100  0.4885E+00  0.1057E+01
    -18.993  0.4658E+00  0.1106E+01
    -18.886  0.4542E+00  0.1155E+01
    -18.780  0.7751E+00  0.1238E+01
    -18.673  0.2728E+01  0.1529E+01
    -18.566  0.3853E+01  0.1941E+01
    -18.459  0.2804E+01  0.2240E+01
    -18.352  0.2172E+01  0.2472E+01
    -18.246  0.1888E+01  0.2674E+01
    -18.139  0.1585E+01  0.2843E+01
    -18.032  0.1201E+01  0.2971E+01
    -17.925  0.1057E+01  0.3084E+01
    -17.818  0.1005E+01  0.3191E+01
    -17.712  0.9646E+00  0.3294E+01
    -17.605  0.9342E+00  0.3394E+01
    -17.498  0.1102E+01  0.3512E+01
    -17.391  0.2317E+01  0.3759E+01
    -17.284  0.3136E+01  0.4094E+01
    -17.178  0.2530E+01  0.4364E+01
    -17.071  0.2173E+01  0.4597E+01
    -16.964  0.2147E+01  0.4826E+01
    -16.857  0.3090E+01  0.5156E+01
    -16.750  0.5234E+01  0.5715E+01
    -16.644  0.3805E+01  0.6121E+01
    -16.537  0.1209E+01  0.6250E+01
    -16.430  0.7311E+00  0.6328E+01
    -16.323  0.7067E+00  0.6404E+01
    -16.216  0.6963E+00  0.6478E+01
    -16.110  0.6869E+00  0.6552E+01
    -16.003  0.6794E+00  0.6624E+01
    -15.896  0.7534E+00  0.6705E+01
    -15.789  0.1609E+01  0.6876E+01
    -15.682  0.2758E+01  0.7171E+01
    -15.576  0.2306E+01  0.7417E+01
    -15.469  0.1818E+01  0.7611E+01
    -15.362  0.1618E+01  0.7784E+01
    -15.255  0.1512E+01  0.7946E+01
    -15.149  0.1484E+01  0.8104E+01
    -15.042  0.2077E+01  0.8326E+01
    -14.935  0.3820E+01  0.8734E+01
    -14.828  0.4276E+01  0.9191E+01
    -14.721  0.5008E+01  0.9725E+01
    -14.615  0.4731E+01  0.1023E+02
    -14.508  0.3165E+01  0.1057E+02
    -14.401  0.2533E+01  0.1084E+02
    -14.294  0.2324E+01  0.1109E+02
    -14.187  0.2227E+01  0.1133E+02
    -14.081  0.2225E+01  0.1156E+02
    -13.974  0.2463E+01  0.1183E+02
    -13.867  0.4063E+01  0.1226E+02
    -13.760  0.6216E+01  0.1292E+02
    -13.653  0.5785E+01  0.1354E+02
    -13.547  0.5721E+01  0.1415E+02
    -13.440  0.4241E+01  0.1461E+02
    -13.333  0.2081E+01  0.1483E+02
    -13.226  0.1651E+01  0.1500E+02
    -13.119  0.1630E+01  0.1518E+02
    -13.013  0.1718E+01  0.1536E+02
    -12.906  0.1840E+01  0.1556E+02
    -12.799  0.1824E+01  0.1575E+02
    -12.692  0.1347E+01  0.1590E+02
    -12.585  0.1054E+01  0.1601E+02
    -12.479  0.1014E+01  0.1612E+02
    -12.372  0.9983E+00  0.1622E+02
    -12.265  0.9847E+00  0.1633E+02
    -12.158  0.9727E+00  0.1643E+02
    -12.051  0.9621E+00  0.1654E+02
    -11.945  0.9531E+00  0.1664E+02
    -11.838  0.9456E+00  0.1674E+02
    -11.731  0.9400E+00  0.1684E+02
    -11.624  0.9364E+00  0.1694E+02
    -11.517  0.9356E+00  0.1704E+02
    -11.411  0.9397E+00  0.1714E+02
    -11.304  0.1008E+01  0.1725E+02
    -11.197  0.1505E+01  0.1741E+02
    -11.090  0.2024E+01  0.1762E+02
    -10.983  0.1964E+01  0.1783E+02
    -10.877  0.1883E+01  0.1804E+02
    -10.770  0.1461E+01  0.1819E+02
    -10.663  0.2034E+01  0.1841E+02
    -10.556  0.2914E+01  0.1872E+02
    -10.449  0.3014E+01  0.1904E+02
    -10.343  0.3326E+01  0.1940E+02
    -10.236  0.3082E+01  0.1973E+02
    -10.129  0.2490E+01  0.1999E+02
    -10.022  0.1962E+01  0.2020E+02
     -9.915  0.2577E+01  0.2048E+02
     -9.809  0.2903E+01  0.2079E+02
     -9.702  0.2888E+01  0.2110E+02
     -9.595  0.3375E+01  0.2146E+02
     -9.488  0.4207E+01  0.2190E+02
     -9.381  0.4936E+01  0.2243E+02
     -9.275  0.4005E+01  0.2286E+02
     -9.168  0.3591E+01  0.2324E+02
     -9.061  0.3421E+01  0.2361E+02
     -8.954  0.2818E+01  0.2391E+02
     -8.847  0.2493E+01  0.2418E+02
     -8.741  0.2450E+01  0.2444E+02
     -8.634  0.2461E+01  0.2470E+02
     -8.527  0.2517E+01  0.2497E+02
     -8.420  0.2819E+01  0.2527E+02
     -8.313  0.4204E+01  0.2572E+02
     -8.207  0.5700E+01  0.2633E+02
     -8.100  0.5280E+01  0.2689E+02
     -7.993  0.4728E+01  0.2740E+02
     -7.886  0.5617E+01  0.2800E+02
     -7.779  0.8412E+01  0.2890E+02
     -7.673  0.7571E+01  0.2970E+02
     -7.566  0.3498E+01  0.3008E+02
     -7.459  0.2180E+01  0.3031E+02
     -7.352  0.1981E+01  0.3052E+02
     -7.245  0.1959E+01  0.3073E+02
     -7.139  0.2379E+01  0.3098E+02
     -7.032  0.4514E+01  0.3147E+02
     -6.925  0.6376E+01  0.3215E+02
     -6.818  0.7548E+01  0.3295E+02
     -6.711  0.6842E+01  0.3368E+02
     -6.605  0.5245E+01  0.3424E+02
     -6.498  0.5827E+01  0.3487E+02
     -6.391  0.6018E+01  0.3551E+02
     -6.284  0.5883E+01  0.3614E+02
     -6.177  0.6313E+01  0.3681E+02
     -6.071  0.5742E+01  0.3743E+02
     -5.964  0.5413E+01  0.3800E+02
     -5.857  0.5322E+01  0.3857E+02
     -5.750  0.4970E+01  0.3910E+02
     -5.643  0.5443E+01  0.3968E+02
     -5.537  0.6994E+01  0.4043E+02
     -5.430  0.8569E+01  0.4135E+02
     -5.323  0.7553E+01  0.4215E+02
     -5.216  0.4377E+01  0.4262E+02
     -5.109  0.2474E+01  0.4288E+02
     -5.003  0.1801E+01  0.4308E+02
     -4.896  0.1691E+01  0.4326E+02
     -4.789  0.1658E+01  0.4343E+02
     -4.682  0.1641E+01  0.4361E+02
     -4.575  0.1653E+01  0.4379E+02
     -4.469  0.2101E+01  0.4401E+02
     -4.362  0.3510E+01  0.4439E+02
     -4.255  0.3657E+01  0.4478E+02
     -4.148  0.3645E+01  0.4517E+02
     -4.041  0.4387E+01  0.4563E+02
     -3.935  0.5939E+01  0.4627E+02
     -3.828  0.5348E+01  0.4684E+02
     -3.721  0.3880E+01  0.4725E+02
     -3.614  0.3839E+01  0.4766E+02
     -3.507  0.4431E+01  0.4814E+02
     -3.401  0.4695E+01  0.4864E+02
     -3.294  0.5301E+01  0.4920E+02
     -3.187  0.5923E+01  0.4984E+02
     -3.080  0.6045E+01  0.5048E+02
     -2.974  0.6059E+01  0.5113E+02
     -2.867  0.5913E+01  0.5176E+02
     -2.760  0.5466E+01  0.5235E+02
     -2.653  0.3775E+01  0.5275E+02
     -2.546  0.1965E+01  0.5296E+02
     -2.440  0.1656E+01  0.5313E+02
     -2.333  0.1465E+01  0.5329E+02
     -2.226  0.1059E+01  0.5340E+02
     -2.119  0.1013E+01  0.5351E+02
     -2.012  0.1594E+01  0.5368E+02
     -1.906  0.2447E+01  0.5394E+02
     -1.799  0.2194E+01  0.5418E+02
     -1.692  0.1650E+01  0.5435E+02
     -1.585  0.1472E+01  0.5451E+02
     -1.478  0.1406E+01  0.5466E+02
     -1.372  0.1382E+01  0.5481E+02
     -1.265  0.1392E+01  0.5496E+02
     -1.158  0.1447E+01  0.5511E+02
     -1.051  0.1604E+01  0.5528E+02
     -0.944  0.2038E+01  0.5550E+02
     -0.838  0.2016E+01  0.5572E+02
     -0.731  0.8566E+00  0.5581E+02
     -0.624  0.4189E+00  0.5585E+02
     -0.517  0.3976E+00  0.5590E+02
     -0.410  0.4057E+00  0.5594E+02
     -0.304  0.4613E+00  0.5599E+02
     -0.197  0.4921E+00  0.5604E+02
     -0.090  0.4249E+00  0.5609E+02
      0.017  0.4072E+00  0.5613E+02
      0.124  0.4085E+00  0.5617E+02
      0.230  0.4120E+00  0.5622E+02
      0.337  0.4174E+00  0.5626E+02
      0.444  0.4256E+00  0.5631E+02
      0.551  0.4588E+00  0.5636E+02
      0.658  0.9425E+00  0.5646E+02
      0.764  0.2536E+01  0.5673E+02
      0.871  0.3780E+01  0.5713E+02
      0.978  0.4800E+01  0.5764E+02
      1.085  0.3402E+01  0.5801E+02
      1.192  0.1625E+01  0.5818E+02
      1.298  0.1607E+01  0.5835E+02
      1.405  0.1817E+01  0.5855E+02
      1.512  0.2141E+01  0.5878E+02
      1.619  0.3845E+01  0.5919E+02
      1.726  0.4259E+01  0.5964E+02
      1.832  0.3053E+01  0.5997E+02
      1.939  0.2495E+01  0.6023E+02
      2.046  0.2346E+01  0.6048E+02
      2.153  0.2587E+01  0.6076E+02
      2.260  0.2811E+01  0.6106E+02
      2.366  0.2681E+01  0.6135E+02
      2.473  0.2747E+01  0.6164E+02
      2.580  0.3212E+01  0.6198E+02
      2.687  0.3248E+01  0.6233E+02
      2.794  0.2042E+01  0.6255E+02
      2.900  0.2318E+01  0.6280E+02
      3.007  0.2647E+01  0.6308E+02
      3.114  0.2150E+01  0.6331E+02
      3.221  0.1878E+01  0.6351E+02
      3.328  0.1772E+01  0.6370E+02
      3.434  0.2205E+01  0.6393E+02
      3.541  0.3894E+01  0.6435E+02
      3.648  0.5347E+01  0.6492E+02
      3.755  0.6232E+01  0.6559E+02
      3.862  0.6017E+01  0.6623E+02
      3.968  0.5535E+01  0.6682E+02
      4.075  0.5703E+01  0.6743E+02
      4.182  0.5532E+01  0.6802E+02
      4.289  0.4315E+01  0.6848E+02
      4.396  0.4125E+01  0.6892E+02
      4.502  0.5558E+01  0.6951E+02
      4.609  0.7284E+01  0.7029E+02
      4.716  0.7401E+01  0.7108E+02
      4.823  0.5747E+01  0.7170E+02
      4.930  0.5330E+01  0.7227E+02
      5.036  0.7200E+01  0.7304E+02
      5.143  0.7923E+01  0.7388E+02
      5.250  0.5546E+01  0.7447E+02
      5.357  0.4037E+01  0.7490E+02
      5.464  0.4007E+01  0.7533E+02
      5.570  0.5140E+01  0.7588E+02
      5.677  0.5702E+01  0.7649E+02
      5.784  0.6073E+01  0.7714E+02
      5.891  0.5123E+01  0.7769E+02
      5.998  0.4540E+01  0.7817E+02
      6.104  0.5621E+01  0.7877E+02
      6.211  0.5494E+01  0.7936E+02
      6.318  0.4425E+01  0.7983E+02
      6.425  0.4343E+01  0.8029E+02
      6.532  0.5553E+01  0.8089E+02
      6.638  0.6635E+01  0.8160E+02
      6.745  0.7780E+01  0.8243E+02
      6.852  0.8303E+01  0.8331E+02
      6.959  0.8949E+01  0.8427E+02
      7.066  0.8582E+01  0.8519E+02
      7.172  0.6772E+01  0.8591E+02
      7.279  0.6727E+01  0.8663E+02
      7.386  0.6078E+01  0.8728E+02
      7.493  0.5087E+01  0.8782E+02
      7.600  0.6439E+01  0.8851E+02
      7.706  0.9101E+01  0.8948E+02
      7.813  0.8494E+01  0.9039E+02
      7.920  0.7129E+01  0.9115E+02
      8.027  0.5935E+01  0.9178E+02
      8.134  0.6029E+01  0.9243E+02
      8.240  0.5316E+01  0.9299E+02
      8.347  0.5702E+01  0.9360E+02
      8.454  0.7160E+01  0.9437E+02
      8.561  0.5954E+01  0.9500E+02
      8.668  0.3561E+01  0.9538E+02
      8.774  0.2772E+01  0.9568E+02
      8.881  0.2117E+01  0.9591E+02
      8.988  0.7888E+00  0.9599E+02
      9.095  0.9082E-01  0.9600E+02
      9.201  0.2096E-02  0.9600E+02
      9.308  0.7323E-05  0.9600E+02
      9.415  0.3311E-08  0.9600E+02
      9.522  0.1773E-12  0.9600E+02
      9.629  0.0000E+00  0.9600E+02
      9.735  0.0000E+00  0.9600E+02
      9.842  0.0000E+00  0.9600E+02
      9.949  0.0000E+00  0.9600E+02
     10.056  0.0000E+00  0.9600E+02
     10.163  0.0000E+00  0.9600E+02
     10.269  0.0000E+00  0.9600E+02
     10.376  0.0000E+00  0.9600E+02
     10.37627175    -21.66319237  301     -0.28080754      1.00000000
    -21.663  0.0000E+00  0.0000E+00  0.0000E+00  0.0000E+00  0.0000E+00  0.0000E+00  0.0000E+00  0.0000E+00  0.0000E+00
    -21.556  0.0000E+00  0.0000E+00  0.0000E+00  0.0000E+00  0.0000E+00  0.0000E+00  0.0000E+00  0.0000E+00  0.0000E+00
    -21.450  0.0000E+00  0.0000E+00  0.0000E+00  0.0000E+00  0.0000E+00  0.0000E+00  0.0000E+00  0.0000E+00  0.0000E+00
    -21.343  0.0000E+00  0.0000E+00  0.0000E+00  0.0000E+00  0.0000E+00  0.0000E+00  0.0000E+00  0.0000E+00  0.0000E+00
    -21.236  0.0000E+00  0.0000E+00  0.0000E+00  0.0000E+00  0.0000E+00  0.0000E+00  0.0000E+00  0.0000E+00  0.0000E+00
    -21.129  0.0000E+00  0.0000E+00  0.0000E+00  0.0000E+00  0.0000E+00  0.0000E+00  0.0000E+00  0.0000E+00  0.0000E+00
    -21.022  0.0000E+00  0.0000E+00  0.0000E+00  0.0000E+00  0.0000E+00  0.0000E+00  0.0000E+00  0.0000E+00  0.0000E+00
    -20.916  0.0000E+00  0.0000E+00  0.0000E+00  0.0000E+00  0.0000E+00  0.0000E+00  0.0000E+00  0.0000E+00  0.0000E+00
    -20.809  0.0000E+00  0.0000E+00  0.0000E+00  0.0000E+00  0.0000E+00  0.0000E+00  0.0000E+00  0.0000E+00  0.0000E+00
    -20.702  0.4832E-16  0.1185E-19  0.2355E-17  0.1836E-20  0.0000E+00  0.0000E+00  0.0000E+00  0.0000E+00  0.0000E+00
    -20.595  0.8439E-12  0.2597E-15  0.4113E-13  0.4024E-16  0.0000E+00  0.0000E+00  0.0000E+00  0.0000E+00  0.0000E+00
    -20.488  0.1652E-08  0.6719E-12  0.8048E-10  0.1040E-12  0.0000E+00  0.0000E+00  0.0000E+00  0.0000E+00  0.0000E+00
    -20.382  0.3843E-06  0.2230E-09  0.1872E-07  0.3452E-10  0.0000E+00  0.0000E+00  0.0000E+00  0.0000E+00  0.0000E+00
    -20.275  0.1191E-04  0.1108E-07  0.5800E-06  0.1716E-08  0.0000E+00  0.0000E+00  0.0000E+00  0.0000E+00  0.0000E+00
    -20.168  0.6067E-04  0.1082E-06  0.2948E-05  0.1675E-07  0.0000E+00  0.0000E+00  0.0000E+00  0.0000E+00  0.0000E+00
    -20.061  0.7522E-04  0.3195E-06  0.3630E-05  0.4947E-07  0.0000E+00  0.0000E+00  0.0000E+00  0.0000E+00  0.0000E+00
    -19.954  0.5145E-04  0.4988E-06  0.2441E-05  0.7717E-07  0.0000E+00  0.0000E+00  0.0000E+00  0.0000E+00  0.0000E+00
    -19.848  0.3953E-04  0.6240E-06  0.1834E-05  0.9654E-07  0.0000E+00  0.0000E+00  0.0000E+00  0.0000E+00  0.0000E+00
    -19.741  0.3384E-04  0.7236E-06  0.1531E-05  0.1120E-06  0.0000E+00  0.0000E+00  0.0000E+00  0.0000E+00  0.0000E+00
    -19.634  0.3030E-04  0.8087E-06  0.1335E-05  0.1253E-06  0.0000E+00  0.0000E+00  0.0000E+00  0.0000E+00  0.0000E+00
    -19.527  0.2785E-04  0.8843E-06  0.1195E-05  0.1371E-06  0.0000E+00  0.0000E+00  0.0000E+00  0.0000E+00  0.0000E+00
    -19.420  0.2607E-04  0.9536E-06  0.1087E-05  0.1477E-06  0.0000E+00  0.0000E+00  0.0000E+00  0.0000E+00  0.0000E+00
    -19.314  0.2473E-04  0.1017E-05  0.1000E-05  0.1574E-06  0.0000E+00  0.0000E+00  0.0000E+00  0.0000E+00  0.0000E+00
    -19.207  0.2373E-04  0.1075E-05  0.9283E-06  0.1664E-06  0.0000E+00  0.0000E+00  0.0000E+00  0.0000E+00  0.0000E+00
    -19.100  0.2299E-04  0.1127E-05  0.8683E-06  0.1743E-06  0.0000E+00  0.0000E+00  0.0000E+00  0.0000E+00  0.0000E+00
    -18.993  0.2247E-04  0.1176E-05  0.8179E-06  0.1816E-06  0.0000E+00  0.0000E+00  0.0000E+00  0.0000E+00  0.0000E+00
    -18.886  0.2263E-04  0.1243E-05  0.7877E-06  0.1955E-06  0.0000E+00  0.0000E+00  0.0000E+00  0.0000E+00  0.0000E+00
    -18.780  0.4152E-04  0.2190E-05  0.1331E-05  0.5147E-06  0.0000E+00  0.0000E+00  0.0000E+00  0.0000E+00  0.0000E+00
    -18.673  0.1497E-03  0.7672E-05  0.4591E-05  0.2456E-05  0.0000E+00  0.0000E+00  0.0000E+00  0.0000E+00  0.0000E+00
    -18.566  0.2119E-03  0.1111E-04  0.6340E-05  0.3891E-05  0.0000E+00  0.0000E+00  0.0000E+00  0.0000E+00  0.0000E+00
    -18.459  0.1599E-03  0.8411E-05  0.4532E-05  0.3245E-05  0.0000E+00  0.0000E+00  0.0000E+00  0.0000E+00  0.0000E+00
    -18.352  0.1312E-03  0.6767E-05  0.3464E-05  0.2875E-05  0.0000E+00  0.0000E+00  0.0000E+00  0.0000E+00  0.0000E+00
    -18.246  0.1217E-03  0.5853E-05  0.2983E-05  0.3003E-05  0.0000E+00  0.0000E+00  0.0000E+00  0.0000E+00  0.0000E+00
    -18.139  0.1074E-03  0.4158E-05  0.2439E-05  0.3684E-05  0.0000E+00  0.0000E+00  0.0000E+00  0.0000E+00  0.0000E+00
    -18.032  0.8745E-04  0.2413E-05  0.1798E-05  0.3839E-05  0.0000E+00  0.0000E+00  0.0000E+00  0.0000E+00  0.0000E+00
    -17.925  0.8635E-04  0.2044E-05  0.1579E-05  0.3669E-05  0.0000E+00  0.0000E+00  0.0000E+00  0.0000E+00  0.0000E+00
    -17.818  0.9302E-04  0.2041E-05  0.1497E-05  0.3562E-05  0.0000E+00  0.0000E+00  0.0000E+00  0.0000E+00  0.0000E+00
    -17.712  0.1061E-03  0.2023E-05  0.1433E-05  0.3482E-05  0.0000E+00  0.0000E+00  0.0000E+00  0.0000E+00  0.0000E+00
    -17.605  0.9780E-03  0.2231E-05  0.1500E-05  0.3457E-05  0.0000E+00  0.0000E+00  0.0000E+00  0.0000E+00  0.0000E+00
    -17.498  0.3914E-01  0.2097E-04  0.6769E-05  0.6313E-05  0.0000E+00  0.0000E+00  0.0000E+00  0.0000E+00  0.0000E+00
    -17.391  0.2785E+00  0.2486E-03  0.4009E-04  0.4151E-04  0.0000E+00  0.0000E+00  0.0000E+00  0.0000E+00  0.0000E+00
    -17.284  0.4453E+00  0.8625E-03  0.6356E-04  0.1365E-03  0.0000E+00  0.0000E+00  0.0000E+00  0.0000E+00  0.0000E+00
    -17.178  0.3404E+00  0.1378E-02  0.4950E-04  0.2158E-03  0.0000E+00  0.0000E+00  0.0000E+00  0.0000E+00  0.0000E+00
    -17.071  0.2838E+00  0.1595E-02  0.4191E-04  0.2489E-03  0.0000E+00  0.0000E+00  0.0000E+00  0.0000E+00  0.0000E+00
    -16.964  0.2958E+00  0.1605E-02  0.4284E-04  0.2509E-03  0.0000E+00  0.0000E+00  0.0000E+00  0.0000E+00  0.0000E+00
    -16.857  0.5386E+00  0.1381E-02  0.7733E-04  0.2317E-03  0.0000E+00  0.0000E+00  0.0000E+00  0.0000E+00  0.0000E+00
    -16.750  0.1080E+01  0.8288E-03  0.1551E-03  0.2401E-03  0.0000E+00  0.0000E+00  0.0000E+00  0.0000E+00  0.0000E+00
    -16.644  0.7494E+00  0.2581E-03  0.1074E-03  0.1344E-03  0.0000E+00  0.0000E+00  0.0000E+00  0.0000E+00  0.0000E+00
    -16.537  0.1183E+00  0.3178E-04  0.1730E-04  0.2165E-04  0.0000E+00  0.0000E+00  0.0000E+00  0.0000E+00  0.0000E+00
    -16.430  0.3318E-02  0.8055E-05  0.9580E-06  0.5452E-05  0.0000E+00  0.0000E+00  0.0000E+00  0.0000E+00  0.0000E+00
    -16.323  0.6236E-04  0.7408E-05  0.5186E-06  0.5052E-05  0.0000E+00  0.0000E+00  0.0000E+00  0.0000E+00  0.0000E+00
    -16.216  0.2623E-04  0.7378E-05  0.5170E-06  0.5106E-05  0.0000E+00  0.0000E+00  0.0000E+00  0.0000E+00  0.0000E+00
    -16.110  0.1511E-04  0.7463E-05  0.5090E-06  0.5226E-05  0.0000E+00  0.0000E+00  0.0000E+00  0.0000E+00  0.0000E+00
    -16.003  0.9287E-05  0.7643E-05  0.4971E-06  0.5416E-05  0.0000E+00  0.0000E+00  0.0000E+00  0.0000E+00  0.0000E+00
    -15.896  0.6832E-05  0.8337E-05  0.5364E-06  0.6847E-05  0.0000E+00  0.0000E+00  0.0000E+00  0.0000E+00  0.0000E+00
    -15.789  0.1310E-04  0.1361E-04  0.1099E-05  0.2002E-04  0.0000E+00  0.0000E+00  0.0000E+00  0.0000E+00  0.0000E+00
    -15.682  0.1840E-04  0.2220E-04  0.1863E-05  0.3847E-04  0.0000E+00  0.0000E+00  0.0000E+00  0.0000E+00  0.0000E+00
    -15.576  0.7606E-05  0.2247E-04  0.1533E-05  0.3373E-04  0.0000E+00  0.0000E+00  0.0000E+00  0.0000E+00  0.0000E+00
    -15.469  0.2221E-05  0.2117E-04  0.1160E-05  0.2801E-04  0.0000E+00  0.0000E+00  0.0000E+00  0.0000E+00  0.0000E+00
    -15.362  0.1209E-05  0.2125E-04  0.9772E-06  0.2656E-04  0.0000E+00  0.0000E+00  0.0000E+00  0.0000E+00  0.0000E+00
    -15.255  0.9866E-06  0.3739E-04  0.8501E-06  0.3188E-04  0.0000E+00  0.0000E+00  0.0000E+00  0.0000E+00  0.0000E+00
    -15.149  0.6890E-05  0.2304E-02  0.7454E-06  0.7896E-03  0.0000E+00  0.0000E+00  0.0000E+00  0.0000E+00  0.0000E+00
    -15.042  0.2051E-03  0.4735E-01  0.6799E-06  0.1583E-01  0.0000E+00  0.0000E+00  0.0000E+00  0.0000E+00  0.0000E+00
    -14.935  0.1483E-02  0.1735E+00  0.7835E-06  0.5779E-01  0.0000E+00  0.0000E+00  0.0000E+00  0.0000E+00  0.0000E+00
    -14.828  0.4295E-02  0.1952E+00  0.1115E-05  0.6007E-01  0.0000E+00  0.0000E+00  0.0000E+00  0.0000E+00  0.0000E+00
    -14.721  0.9906E-02  0.2172E+00  0.1858E-05  0.4825E-01  0.0000E+00  0.0000E+00  0.0000E+00  0.0000E+00  0.0000E+00
    -14.615  0.1410E-01  0.2056E+00  0.2393E-05  0.7512E-01  0.0000E+00  0.0000E+00  0.0000E+00  0.0000E+00  0.0000E+00
    -14.508  0.1445E-01  0.1194E+00  0.2409E-05  0.1130E+00  0.0000E+00  0.0000E+00  0.0000E+00  0.0000E+00  0.0000E+00
    -14.401  0.1462E-01  0.8769E-01  0.2434E-05  0.1167E+00  0.0000E+00  0.0000E+00  0.0000E+00  0.0000E+00  0.0000E+00
    -14.294  0.1471E-01  0.8356E-01  0.2439E-05  0.1149E+00  0.0000E+00  0.0000E+00  0.0000E+00  0.0000E+00  0.0000E+00
    -14.187  0.1450E-01  0.8413E-01  0.2413E-05  0.1174E+00  0.0000E+00  0.0000E+00  0.0000E+00  0.0000E+00  0.0000E+00
    -14.081  0.1403E-01  0.8851E-01  0.2377E-05  0.1265E+00  0.0000E+00  0.0000E+00  0.0000E+00  0.0000E+00  0.0000E+00
    -13.974  0.1338E-01  0.1007E+00  0.2339E-05  0.1549E+00  0.0000E+00  0.0000E+00  0.0000E+00  0.0000E+00  0.0000E+00
    -13.867  0.1288E-01  0.1385E+00  0.3281E-05  0.2572E+00  0.0000E+00  0.0000E+00  0.0000E+00  0.0000E+00  0.0000E+00
    -13.760  0.1132E-01  0.1710E+00  0.5020E-05  0.3334E+00  0.0000E+00  0.0000E+00  0.0000E+00  0.0000E+00  0.0000E+00
    -13.653  0.8071E-02  0.1799E+00  0.4013E-05  0.3138E+00  0.0000E+00  0.0000E+00  0.0000E+00  0.0000E+00  0.0000E+00
    -13.547  0.4609E-02  0.2293E+00  0.2603E-05  0.3788E+00  0.0000E+00  0.0000E+00  0.0000E+00  0.0000E+00  0.0000E+00
    -13.440  0.1366E-02  0.1574E+00  0.1783E-05  0.2529E+00  0.0000E+00  0.0000E+00  0.0000E+00  0.0000E+00  0.0000E+00
    -13.333  0.1268E-03  0.2526E-01  0.1340E-05  0.3947E-01  0.0000E+00  0.0000E+00  0.0000E+00  0.0000E+00  0.0000E+00
    -13.226  0.9103E-05  0.6998E-03  0.1150E-05  0.1065E-02  0.0000E+00  0.0000E+00  0.0000E+00  0.0000E+00  0.0000E+00
    -13.119  0.5394E-05  0.2738E-04  0.1026E-05  0.3873E-04  0.0000E+00  0.0000E+00  0.0000E+00  0.0000E+00  0.0000E+00
    -13.013  0.4446E-05  0.1330E-04  0.9306E-06  0.1851E-04  0.0000E+00  0.0000E+00  0.0000E+00  0.0000E+00  0.0000E+00
    -12.906  0.3885E-05  0.8167E-05  0.8669E-06  0.1091E-04  0.0000E+00  0.0000E+00  0.0000E+00  0.0000E+00  0.0000E+00
    -12.799  0.3433E-05  0.5312E-05  0.7854E-06  0.6973E-05  0.0000E+00  0.0000E+00  0.0000E+00  0.0000E+00  0.0000E+00
    -12.692  0.2814E-05  0.3249E-05  0.5942E-06  0.4810E-05  0.0000E+00  0.0000E+00  0.0000E+00  0.0000E+00  0.0000E+00
    -12.585  0.2438E-05  0.2040E-05  0.4851E-06  0.3492E-05  0.0000E+00  0.0000E+00  0.0000E+00  0.0000E+00  0.0000E+00
    -12.479  0.2269E-05  0.1417E-05  0.4529E-06  0.2641E-05  0.0000E+00  0.0000E+00  0.0000E+00  0.0000E+00  0.0000E+00
    -12.372  0.2140E-05  0.1039E-05  0.4296E-06  0.2073E-05  0.0000E+00  0.0000E+00  0.0000E+00  0.0000E+00  0.0000E+00
    -12.265  0.2030E-05  0.8036E-06  0.4072E-06  0.1687E-05  0.0000E+00  0.0000E+00  0.0000E+00  0.0000E+00  0.0000E+00
    -12.158  0.1934E-05  0.6612E-06  0.3857E-06  0.1421E-05  0.0000E+00  0.0000E+00  0.0000E+00  0.0000E+00  0.0000E+00
    -12.051  0.1850E-05  0.5806E-06  0.3655E-06  0.1239E-05  0.0000E+00  0.0000E+00  0.0000E+00  0.0000E+00  0.0000E+00
    -11.945  0.1775E-05  0.5423E-06  0.3458E-06  0.1115E-05  0.0000E+00  0.0000E+00  0.0000E+00  0.0000E+00  0.0000E+00
    -11.838  0.1709E-05  0.5337E-06  0.3263E-06  0.1034E-05  0.0000E+00  0.0000E+00  0.0000E+00  0.0000E+00  0.0000E+00
    -11.731  0.1650E-05  0.5464E-06  0.3082E-06  0.9874E-06  0.0000E+00  0.0000E+00  0.0000E+00  0.0000E+00  0.0000E+00
    -11.624  0.1598E-05  0.5749E-06  0.2908E-06  0.9680E-06  0.0000E+00  0.0000E+00  0.0000E+00  0.0000E+00  0.0000E+00
    -11.517  0.1553E-05  0.6155E-06  0.2734E-06  0.9723E-06  0.0000E+00  0.0000E+00  0.0000E+00  0.0000E+00  0.0000E+00
    -11.411  0.1518E-05  0.6665E-06  0.2575E-06  0.9993E-06  0.0000E+00  0.0000E+00  0.0000E+00  0.0000E+00  0.0000E+00
    -11.304  0.1722E-05  0.7280E-06  0.3277E-06  0.1050E-05  0.0000E+00  0.0000E+00  0.0000E+00  0.0000E+00  0.0000E+00
    -11.197  0.3587E-05  0.8044E-06  0.1014E-05  0.1129E-05  0.0000E+00  0.0000E+00  0.0000E+00  0.0000E+00  0.0000E+00
    -11.090  0.5396E-05  0.9067E-06  0.1655E-05  0.1246E-05  0.0000E+00  0.0000E+00  0.0000E+00  0.0000E+00  0.0000E+00
    -10.983  0.4550E-05  0.1091E-05  0.1251E-05  0.1474E-05  0.0000E+00  0.0000E+00  0.0000E+00  0.0000E+00  0.0000E+00
    -10.877  0.6715E-04  0.1297E-04  0.9297E-06  0.3688E-04  0.0000E+00  0.0000E+00  0.0000E+00  0.0000E+00  0.0000E+00
    -10.770  0.3861E-02  0.7196E-03  0.1361E-05  0.2156E-02  0.0000E+00  0.0000E+00  0.0000E+00  0.0000E+00  0.0000E+00
    -10.663  0.3539E-01  0.6647E-02  0.6136E-05  0.1992E-01  0.0000E+00  0.0000E+00  0.0000E+00  0.0000E+00  0.0000E+00
    -10.556  0.7615E-01  0.1300E-01  0.1190E-04  0.3879E-01  0.0000E+00  0.0000E+00  0.0000E+00  0.0000E+00  0.0000E+00
    -10.449  0.1459E+00  0.1159E-01  0.1912E-04  0.3185E-01  0.0000E+00  0.0000E+00  0.0000E+00  0.0000E+00  0.0000E+00
    -10.343  0.2330E+00  0.1331E-01  0.2828E-04  0.2669E-01  0.0000E+00  0.0000E+00  0.0000E+00  0.0000E+00  0.0000E+00
    -10.236  0.2015E+00  0.1754E-01  0.2376E-04  0.2602E-01  0.0000E+00  0.0000E+00  0.0000E+00  0.0000E+00  0.0000E+00
    -10.129  0.1354E+00  0.1733E-01  0.1574E-04  0.2278E-01  0.0000E+00  0.0000E+00  0.0000E+00  0.0000E+00  0.0000E+00
    -10.022  0.6499E-01  0.1424E-01  0.7605E-05  0.2890E-01  0.0000E+00  0.0000E+00  0.0000E+00  0.0000E+00  0.0000E+00
     -9.915  0.4577E-01  0.1489E-01  0.5324E-05  0.7968E-01  0.0000E+00  0.0000E+00  0.0000E+00  0.0000E+00  0.0000E+00
     -9.809  0.4082E-01  0.1724E-01  0.4667E-05  0.1032E+00  0.0000E+00  0.0000E+00  0.0000E+00  0.0000E+00  0.0000E+00
     -9.702  0.4204E-01  0.2603E-01  0.4493E-05  0.9273E-01  0.0000E+00  0.0000E+00  0.0000E+00  0.0000E+00  0.0000E+00
     -9.595  0.4770E-01  0.4050E-01  0.4670E-05  0.1014E+00  0.0000E+00  0.0000E+00  0.0000E+00  0.0000E+00  0.0000E+00
     -9.488  0.4390E-01  0.5770E-01  0.4407E-05  0.1079E+00  0.0000E+00  0.0000E+00  0.0000E+00  0.0000E+00  0.0000E+00
     -9.381  0.3839E-01  0.8699E-01  0.4004E-05  0.1003E+00  0.0000E+00  0.0000E+00  0.0000E+00  0.0000E+00  0.0000E+00
     -9.275  0.3434E-01  0.9148E-01  0.3380E-05  0.8201E-01  0.0000E+00  0.0000E+00  0.0000E+00  0.0000E+00  0.0000E+00
     -9.168  0.3121E-01  0.1225E+00  0.2912E-05  0.6800E-01  0.0000E+00  0.0000E+00  0.0000E+00  0.0000E+00  0.0000E+00
     -9.061  0.2638E-01  0.1601E+00  0.2352E-05  0.4020E-01  0.0000E+00  0.0000E+00  0.0000E+00  0.0000E+00  0.0000E+00
     -8.954  0.1639E-01  0.1217E+00  0.1254E-05  0.2999E-01  0.0000E+00  0.0000E+00  0.0000E+00  0.0000E+00  0.0000E+00
     -8.847  0.1145E-01  0.9653E-01  0.7257E-06  0.3066E-01  0.0000E+00  0.0000E+00  0.0000E+00  0.0000E+00  0.0000E+00
     -8.741  0.1033E-01  0.9917E-01  0.6542E-06  0.3249E-01  0.0000E+00  0.0000E+00  0.0000E+00  0.0000E+00  0.0000E+00
     -8.634  0.9484E-02  0.1067E+00  0.7355E-06  0.3507E-01  0.0000E+00  0.0000E+00  0.0000E+00  0.0000E+00  0.0000E+00
     -8.527  0.8603E-02  0.1183E+00  0.2627E-04  0.3896E-01  0.0000E+00  0.0000E+00  0.0000E+00  0.0000E+00  0.0000E+00
     -8.420  0.7721E-02  0.1387E+00  0.1023E-02  0.4568E-01  0.0000E+00  0.0000E+00  0.0000E+00  0.0000E+00  0.0000E+00
     -8.313  0.1207E-01  0.1867E+00  0.6487E-02  0.6157E-01  0.0000E+00  0.0000E+00  0.0000E+00  0.0000E+00  0.0000E+00
     -8.207  0.5122E-01  0.2375E+00  0.9357E-02  0.7935E-01  0.0000E+00  0.0000E+00  0.0000E+00  0.0000E+00  0.0000E+00
     -8.100  0.8540E-01  0.1390E+00  0.6579E-02  0.4998E-01  0.0000E+00  0.0000E+00  0.0000E+00  0.0000E+00  0.0000E+00
     -7.993  0.6788E-01  0.6882E-01  0.4990E-02  0.2934E-01  0.0000E+00  0.0000E+00  0.0000E+00  0.0000E+00  0.0000E+00
     -7.886  0.5754E-01  0.7971E-01  0.4279E-02  0.3713E-01  0.0000E+00  0.0000E+00  0.0000E+00  0.0000E+00  0.0000E+00
     -7.779  0.5318E-01  0.5559E-01  0.3857E-02  0.5851E-01  0.0000E+00  0.0000E+00  0.0000E+00  0.0000E+00  0.0000E+00
     -7.673  0.4675E-01  0.2841E-01  0.3578E-02  0.7185E-01  0.0000E+00  0.0000E+00  0.0000E+00  0.0000E+00  0.0000E+00
     -7.566  0.1646E-01  0.9474E-02  0.3383E-02  0.2803E-01  0.0000E+00  0.0000E+00  0.0000E+00  0.0000E+00  0.0000E+00
     -7.459  0.1147E-02  0.8294E-03  0.3251E-02  0.2697E-02  0.0000E+00  0.0000E+00  0.0000E+00  0.0000E+00  0.0000E+00
     -7.352  0.1695E-04  0.2156E-03  0.3168E-02  0.9577E-03  0.0000E+00  0.0000E+00  0.0000E+00  0.0000E+00  0.0000E+00
     -7.245  0.7713E-05  0.2414E-03  0.3126E-02  0.1098E-02  0.0000E+00  0.0000E+00  0.0000E+00  0.0000E+00  0.0000E+00
     -7.139  0.1081E-04  0.2725E-03  0.3124E-02  0.1235E-02  0.0000E+00  0.0000E+00  0.0000E+00  0.0000E+00  0.0000E+00
     -7.032  0.1480E-04  0.3063E-03  0.3170E-02  0.1361E-02  0.0000E+00  0.0000E+00  0.0000E+00  0.0000E+00  0.0000E+00
     -6.925  0.1942E-04  0.3424E-03  0.4435E-02  0.1482E-02  0.0000E+00  0.0000E+00  0.0000E+00  0.0000E+00  0.0000E+00
     -6.818  0.3394E-04  0.3836E-03  0.3630E-01  0.1604E-02  0.0000E+00  0.0000E+00  0.0000E+00  0.0000E+00  0.0000E+00
     -6.711  0.9020E-04  0.4331E-03  0.1585E+00  0.1734E-02  0.0000E+00  0.0000E+00  0.0000E+00  0.0000E+00  0.0000E+00
     -6.605  0.2560E-03  0.5097E-03  0.1998E+00  0.1887E-02  0.0000E+00  0.0000E+00  0.0000E+00  0.0000E+00  0.0000E+00
     -6.498  0.4499E-03  0.8083E-03  0.1644E+00  0.2141E-02  0.0000E+00  0.0000E+00  0.0000E+00  0.0000E+00  0.0000E+00
     -6.391  0.3729E-03  0.1822E-02  0.1350E+00  0.2666E-02  0.0000E+00  0.0000E+00  0.0000E+00  0.0000E+00  0.0000E+00
     -6.284  0.3628E-03  0.6648E-02  0.1197E+00  0.4596E-02  0.0000E+00  0.0000E+00  0.0000E+00  0.0000E+00  0.0000E+00
     -6.177  0.5319E-03  0.1767E-01  0.1175E+00  0.8858E-02  0.0000E+00  0.0000E+00  0.0000E+00  0.0000E+00  0.0000E+00
     -6.071  0.1293E-02  0.2691E-01  0.1221E+00  0.1200E-01  0.0000E+00  0.0000E+00  0.0000E+00  0.0000E+00  0.0000E+00
     -5.964  0.4638E-02  0.4069E-01  0.1184E+00  0.1378E-01  0.0000E+00  0.0000E+00  0.0000E+00  0.0000E+00  0.0000E+00
     -5.857  0.6263E-02  0.4902E-01  0.1004E+00  0.1677E-01  0.0000E+00  0.0000E+00  0.0000E+00  0.0000E+00  0.0000E+00
     -5.750  0.4518E-02  0.4081E-01  0.8825E-01  0.2908E-01  0.0000E+00  0.0000E+00  0.0000E+00  0.0000E+00  0.0000E+00
     -5.643  0.4452E-02  0.2410E-01  0.1505E+00  0.5180E-01  0.0000E+00  0.0000E+00  0.0000E+00  0.0000E+00  0.0000E+00
     -5.537  0.8607E-02  0.1691E-01  0.3275E+00  0.6731E-01  0.0000E+00  0.0000E+00  0.0000E+00  0.0000E+00  0.0000E+00
     -5.430  0.3355E-01  0.2190E-01  0.3536E+00  0.8709E-01  0.0000E+00  0.0000E+00  0.0000E+00  0.0000E+00  0.0000E+00
     -5.323  0.5942E-01  0.2324E-01  0.1726E+00  0.7853E-01  0.0000E+00  0.0000E+00  0.0000E+00  0.0000E+00  0.0000E+00
     -5.216  0.2284E-01  0.9330E-02  0.1806E+00  0.2144E-01  0.0000E+00  0.0000E+00  0.0000E+00  0.0000E+00  0.0000E+00
     -5.109  0.3493E-02  0.4064E-02  0.8553E-01  0.2735E-02  0.0000E+00  0.0000E+00  0.0000E+00  0.0000E+00  0.0000E+00
     -5.003  0.2158E-02  0.3914E-02  0.1224E-01  0.1860E-02  0.0000E+00  0.0000E+00  0.0000E+00  0.0000E+00  0.0000E+00