<?xml version="1.0" encoding="ISO-8859-1"?>
<modeling>
 <generator>
  <i name="program" type="string">vasp </i>
  <i name="version" type="string">6.3.2  </i>
  <i name="subversion" type="string">27Jun22 (build Dec 22 2022 13:13:19) complex                          parallel </i>
  <i name="platform" type="string">LinuxIFC </i>
  <i name="date" type="string">2023 08 23 </i>
  <i name="time" type="string">00:58:09 </i>
 </generator>
 <incar>
  <i type="string" name="SYSTEM">Lattice</i>
  <i type="int" name="ISTART">     0</i>
  <i type="string" name="PREC">Accurate</i>
  <i type="string" name="ALGO">Normal</i>
  <i type="int" name="ISPIN">     2</i>
  <i type="int" name="ICHARG">     2</i>
  <i type="int" name="NELM">    64</i>
  <i type="int" name="IBRION">     2</i>
  <i name="EDIFF">      0.00000100</i>
  <i name="EDIFFG">     -0.00100000</i>
  <i type="int" name="NSW">   128</i>
  <i type="int" name="ISIF">     2</i>
  <i name="ENCUT">    450.00000000</i>
  <i name="POTIM">      0.50000000</i>
  <i type="int" name="ISMEAR">     0</i>
  <i name="SIGMA">      0.10000000</i>
  <i type="logical" name="LWAVE"> F  </i>
  <i type="logical" name="LCHARG"> F  </i>
  <i type="string" name="GGA">PE</i>
  <i type="int" name="IVDW">    12</i>
 </incar>
 <primitive_cell>
  <structure name="primitive_cell" >
   <crystal>
    <varray name="basis" >
     <v>       4.18983090       2.41900000       0.00000000 </v>
     <v>      -4.18983090       2.41900000       0.00000000 </v>
     <v>       0.00000000       0.00000000      15.00000000 </v>
    </varray>
    <i name="volume">    304.05602867 </i>
    <varray name="rec_basis" >
     <v>       0.11933656       0.20669698       0.00000000 </v>
     <v>      -0.11933656       0.20669698       0.00000000 </v>
     <v>       0.00000000       0.00000000       0.06666667 </v>
    </varray>
   </crystal>
   <varray name="positions" >
    <v>       0.00415361       0.00267210       0.12034134 </v>
    <v>       0.35695335       0.00285503       0.09748893 </v>
    <v>       0.00423858       0.35550699       0.09749256 </v>
    <v>       0.65142295       0.65006557       0.09747688 </v>
    <v>       0.32808646       0.32671938       0.10030508 </v>
    <v>       0.68027775       0.00278085       0.10027562 </v>
    <v>       0.00416530       0.67883808       0.10026559 </v>
    <v>       0.99999933       0.49999967       0.33373333 </v>
    <v>       0.16666633       0.33333267       0.33373333 </v>
    <v>       0.99999933       0.99999967       0.33373333 </v>
    <v>       0.16666633       0.83333267       0.33373333 </v>
    <v>       0.49999933       0.49999967       0.33373333 </v>
    <v>       0.66666633       0.33333267       0.33373333 </v>
    <v>       0.49999933       0.99999967       0.33373333 </v>
    <v>       0.66666633       0.83333267       0.33373333 </v>
   </varray>
  </structure>
  <varray name="primitive_index" >
   <v type="int" >        1 </v>
   <v type="int" >        2 </v>
   <v type="int" >        3 </v>
   <v type="int" >        4 </v>
   <v type="int" >        5 </v>
   <v type="int" >        6 </v>
   <v type="int" >        7 </v>
   <v type="int" >        8 </v>
   <v type="int" >        9 </v>
   <v type="int" >       10 </v>
   <v type="int" >       11 </v>
   <v type="int" >       12 </v>
   <v type="int" >       13 </v>
   <v type="int" >       14 </v>
   <v type="int" >       15 </v>
  </varray>
 </primitive_cell>
 <kpoints>
  <generation param="Gamma">
   <v type="int" name="divisions">      12       12        1 </v>
   <v name="usershift">      0.00000000       0.00000000       0.00000000 </v>
   <v name="genvec1">      0.08333333      -0.00000000       0.00000000 </v>
   <v name="genvec2">     -0.00000000       0.08333333       0.00000000 </v>
   <v name="genvec3">      0.00000000       0.00000000       1.00000000 </v>
   <v name="shift">      0.00000000       0.00000000       0.00000000 </v>
  </generation>
  <varray name="kpointlist" >
   <v>       0.00000000       0.00000000       0.00000000 </v>
   <v>       0.08333333      -0.00000000       0.00000000 </v>
   <v>      -0.00000000       0.08333333       0.00000000 </v>
   <v>      -0.08333333       0.08333333       0.00000000 </v>
   <v>       0.16666667       0.00000000       0.00000000 </v>
   <v>       0.00000000       0.16666667       0.00000000 </v>
   <v>      -0.16666667       0.16666667       0.00000000 </v>
   <v>       0.25000000       0.00000000       0.00000000 </v>
   <v>       0.00000000       0.25000000       0.00000000 </v>
   <v>      -0.25000000       0.25000000       0.00000000 </v>
   <v>       0.33333333       0.00000000       0.00000000 </v>
   <v>       0.00000000       0.33333333       0.00000000 </v>
   <v>      -0.33333333       0.33333333       0.00000000 </v>
   <v>       0.41666667       0.00000000       0.00000000 </v>
   <v>      -0.00000000       0.41666667       0.00000000 </v>
   <v>      -0.41666667       0.41666667       0.00000000 </v>
   <v>       0.50000000       0.00000000       0.00000000 </v>
   <v>       0.00000000       0.50000000       0.00000000 </v>
   <v>       0.50000000       0.50000000       0.00000000 </v>
   <v>       0.08333333       0.08333333       0.00000000 </v>
   <v>      -0.08333333       0.16666667       0.00000000 </v>
   <v>      -0.16666667       0.08333333       0.00000000 </v>
   <v>       0.16666667       0.08333333       0.00000000 </v>
   <v>      -0.08333333       0.25000000       0.00000000 </v>
   <v>      -0.25000000       0.16666667       0.00000000 </v>
   <v>      -0.16666667       0.25000000       0.00000000 </v>
   <v>       0.08333333       0.16666667       0.00000000 </v>
   <v>       0.25000000      -0.08333333       0.00000000 </v>
   <v>       0.25000000       0.08333333       0.00000000 </v>
   <v>      -0.08333333       0.33333333       0.00000000 </v>
   <v>      -0.33333333       0.25000000       0.00000000 </v>
   <v>      -0.25000000       0.33333333       0.00000000 </v>
   <v>       0.08333333       0.25000000       0.00000000 </v>
   <v>       0.33333333      -0.08333333       0.00000000 </v>
   <v>       0.33333333       0.08333333       0.00000000 </v>
   <v>      -0.08333333       0.41666667       0.00000000 </v>
   <v>      -0.41666667       0.33333333       0.00000000 </v>
   <v>      -0.33333333       0.41666667       0.00000000 </v>
   <v>       0.08333333       0.33333333       0.00000000 </v>
   <v>       0.41666667      -0.08333333       0.00000000 </v>
   <v>       0.41666667       0.08333333       0.00000000 </v>
   <v>      -0.08333333       0.50000000       0.00000000 </v>
   <v>       0.50000000       0.41666667       0.00000000 </v>
   <v>      -0.41666667       0.50000000       0.00000000 </v>
   <v>       0.08333333       0.41666667       0.00000000 </v>
   <v>       0.50000000      -0.08333333       0.00000000 </v>
   <v>       0.16666667       0.16666667       0.00000000 </v>
   <v>      -0.16666667       0.33333333       0.00000000 </v>
   <v>      -0.33333333       0.16666667       0.00000000 </v>
   <v>       0.25000000       0.16666667       0.00000000 </v>
   <v>      -0.16666667       0.41666667       0.00000000 </v>
   <v>      -0.41666667       0.25000000       0.00000000 </v>
   <v>      -0.25000000       0.41666667       0.00000000 </v>
   <v>       0.16666667       0.25000000       0.00000000 </v>
   <v>       0.41666667      -0.16666667       0.00000000 </v>
   <v>       0.33333333       0.16666667       0.00000000 </v>
   <v>      -0.16666667       0.50000000       0.00000000 </v>
   <v>       0.50000000       0.33333333       0.00000000 </v>
   <v>      -0.33333333       0.50000000       0.00000000 </v>
   <v>       0.16666667       0.33333333       0.00000000 </v>
   <v>       0.50000000      -0.16666667       0.00000000 </v>
   <v>       0.41666667       0.16666667       0.00000000 </v>
   <v>      -0.16666667      -0.41666667       0.00000000 </v>
   <v>       0.41666667       0.41666667       0.00000000 </v>
   <v>       0.25000000       0.25000000       0.00000000 </v>
   <v>      -0.25000000       0.50000000       0.00000000 </v>
   <v>       0.50000000       0.25000000       0.00000000 </v>
   <v>       0.33333333       0.25000000       0.00000000 </v>
   <v>      -0.25000000      -0.41666667       0.00000000 </v>
   <v>       0.41666667       0.33333333       0.00000000 </v>
   <v>      -0.33333333      -0.41666667       0.00000000 </v>
   <v>       0.25000000       0.33333333       0.00000000 </v>
   <v>      -0.41666667      -0.25000000       0.00000000 </v>
   <v>       0.33333333       0.33333333       0.00000000 </v>
  </varray>
  <varray name="weights" >
   <v>       0.00694444 </v>
   <v>       0.01388889 </v>
   <v>       0.01388889 </v>
   <v>       0.01388889 </v>
   <v>       0.01388889 </v>
   <v>       0.01388889 </v>
   <v>       0.01388889 </v>
   <v>       0.01388889 </v>
   <v>       0.01388889 </v>
   <v>       0.01388889 </v>
   <v>       0.01388889 </v>
   <v>       0.01388889 </v>
   <v>       0.01388889 </v>
   <v>       0.01388889 </v>
   <v>       0.01388889 </v>
   <v>       0.01388889 </v>
   <v>       0.00694444 </v>
   <v>       0.00694444 </v>
   <v>       0.00694444 </v>
   <v>       0.01388889 </v>
   <v>       0.01388889 </v>
   <v>       0.01388889 </v>
   <v>       0.01388889 </v>
   <v>       0.01388889 </v>
   <v>       0.01388889 </v>
   <v>       0.01388889 </v>
   <v>       0.01388889 </v>
   <v>       0.01388889 </v>
   <v>       0.01388889 </v>
   <v>       0.01388889 </v>
   <v>       0.01388889 </v>
   <v>       0.01388889 </v>
   <v>       0.01388889 </v>
   <v>       0.01388889 </v>
   <v>       0.01388889 </v>
   <v>       0.01388889 </v>
   <v>       0.01388889 </v>
   <v>       0.01388889 </v>
   <v>       0.01388889 </v>
   <v>       0.01388889 </v>
   <v>       0.01388889 </v>
   <v>       0.01388889 </v>
   <v>       0.01388889 </v>
   <v>       0.01388889 </v>
   <v>       0.01388889 </v>
   <v>       0.01388889 </v>
   <v>       0.01388889 </v>
   <v>       0.01388889 </v>
   <v>       0.01388889 </v>
   <v>       0.01388889 </v>
   <v>       0.01388889 </v>
   <v>       0.01388889 </v>
   <v>       0.01388889 </v>
   <v>       0.01388889 </v>
   <v>       0.01388889 </v>
   <v>       0.01388889 </v>
   <v>       0.01388889 </v>
   <v>       0.01388889 </v>
   <v>       0.01388889 </v>
   <v>       0.01388889 </v>
   <v>       0.01388889 </v>
   <v>       0.01388889 </v>
   <v>       0.01388889 </v>
   <v>       0.01388889 </v>
   <v>       0.01388889 </v>
   <v>       0.01388889 </v>
   <v>       0.01388889 </v>
   <v>       0.01388889 </v>
   <v>       0.01388889 </v>
   <v>       0.01388889 </v>
   <v>       0.01388889 </v>
   <v>       0.01388889 </v>
   <v>       0.01388889 </v>
   <v>       0.01388889 </v>
  </varray>
 </kpoints>
 <parameters>
  <separator name="general" >
   <i type="string" name="SYSTEM">Lattice</i>
   <i type="logical" name="LCOMPAT"> F  </i>
  </separator>
  <separator name="electronic" >
   <i type="string" name="PREC">accura</i>
   <i name="ENMAX">    450.00000000</i>
   <i name="ENAUG">    644.87300000</i>
   <i name="EDIFF">      0.00000100</i>
   <i type="int" name="IALGO">    38</i>
   <i type="int" name="IWAVPR">    11</i>
   <i type="int" name="NBANDS">    48</i>
   <i type="int" name="NBANDSLOW">    -1</i>
   <i type="int" name="NBANDSHIGH">    -1</i>
   <i name="NELECT">     56.00000000</i>
   <i type="int" name="TURBO">     0</i>
   <i type="int" name="IRESTART">     0</i>
   <i type="int" name="NREBOOT">     0</i>
   <i type="int" name="NMIN">     0</i>
   <i name="EREF">      0.00000000</i>
   <separator name="electronic smearing" >
    <i type="int" name="ISMEAR">     0</i>
    <i name="SIGMA">      0.10000000</i>
    <i name="KSPACING">      0.50000000</i>
    <i type="logical" name="KGAMMA"> T  </i>
    <i type="logical" name="KBLOWUP"> T  </i>
   </separator>
   <separator name="electronic projectors" >
    <i type="logical" name="LREAL"> F  </i>
    <v name="ROPT">      0.00000000      0.00000000</v>
    <i type="int" name="LMAXPAW">  -100</i>
    <i type="int" name="LMAXMIX">     2</i>
    <i type="logical" name="NLSPLINE"> F  </i>
   </separator>
   <separator name="electronic startup" >
    <i type="int" name="ISTART">     0</i>
    <i type="int" name="ICHARG">     2</i>
    <i type="int" name="INIWAV">     1</i>
   </separator>
   <separator name="electronic spin" >
    <i type="int" name="ISPIN">     2</i>
    <i type="logical" name="LNONCOLLINEAR"> F  </i>
    <v name="MAGMOM">      1.00000000      1.00000000      1.00000000      1.00000000      1.00000000      1.00000000      1.00000000      1.00000000      1.00000000      1.00000000      1.00000000      1.00000000      1.00000000      1.00000000      1.00000000</v>
    <i name="NUPDOWN">     -1.00000000</i>
    <i type="logical" name="LSORBIT"> F  </i>
    <v name="SAXIS">      0.00000000      0.00000000      1.00000000</v>
    <i type="logical" name="LSPIRAL"> F  </i>
    <v name="QSPIRAL">      0.00000000      0.00000000      0.00000000</v>
    <i type="logical" name="LZEROZ"> F  </i>
   </separator>
   <separator name="electronic exchange-correlation" >
    <i type="logical" name="LASPH"> F  </i>
    <i type="logical" name="LMETAGGA"> F  </i>
   </separator>
   <separator name="electronic convergence" >
    <i type="int" name="NELM">    64</i>
    <i type="int" name="NELMDL">    -5</i>
    <i type="int" name="NELMIN">     2</i>
    <i name="ENINI">    450.00000000</i>
    <separator name="electronic convergence detail" >
     <i type="logical" name="LDIAG"> T  </i>
     <i type="logical" name="LSUBROT"> F  </i>
     <i name="WEIMIN">      0.00100000</i>
     <i name="EBREAK">      0.00000001</i>
     <i name="DEPER">      0.30000000</i>
     <i type="int" name="NRMM">     4</i>
     <i name="TIME">      0.40000000</i>
    </separator>
   </separator>
   <separator name="electronic mixer" >
    <i name="AMIX">      0.40000000</i>
    <i name="BMIX">      1.00000000</i>
    <i name="AMIN">      0.10000000</i>
    <i name="AMIX_MAG">      1.60000000</i>
    <i name="BMIX_MAG">      1.00000000</i>
    <separator name="electronic mixer details" >
     <i type="int" name="IMIX">     4</i>
     <i type="logical" name="MIXFIRST"> F  </i>
     <i type="int" name="MAXMIX">   -45</i>
     <i name="WC">    100.00000000</i>
     <i type="int" name="INIMIX">     1</i>
     <i type="int" name="MIXPRE">     1</i>
     <i type="int" name="MREMOVE">     5</i>
    </separator>
   </separator>
   <separator name="electronic dipolcorrection" >
    <i type="logical" name="LDIPOL"> F  </i>
    <i type="logical" name="LMONO"> F  </i>
    <i type="int" name="IDIPOL">     0</i>
    <i name="EPSILON">      1.00000000</i>
    <v name="DIPOL">   -100.00000000   -100.00000000   -100.00000000</v>
    <i name="EFIELD">      0.00000000</i>
   </separator>
  </separator>
  <separator name="grids" >
   <i type="int" name="NGX">    36</i>
   <i type="int" name="NGY">    36</i>
   <i type="int" name="NGZ">   108</i>
   <i type="int" name="NGXF">    72</i>
   <i type="int" name="NGYF">    72</i>
   <i type="int" name="NGZF">   216</i>
   <i type="logical" name="ADDGRID"> F  </i>
  </separator>
  <separator name="ionic" >
   <i type="int" name="NSW">   128</i>
   <i type="int" name="IBRION">     2</i>
   <i type="int" name="MDALGO">     0</i>
   <i type="int" name="ISIF">     2</i>
   <i name="PSTRESS">      0.00000000</i>
   <i name="EDIFFG">     -0.00100000</i>
   <i type="int" name="NFREE">     1</i>
   <i name="POTIM">      0.50000000</i>
   <i name="SMASS">     -3.00000000</i>
   <i name="SCALEE">      1.00000000</i>
  </separator>
  <separator name="ionic md" >
   <i name="TEBEG">      0.00010000</i>
   <i name="TEEND">      0.00010000</i>
   <i type="int" name="NBLOCK">     1</i>
   <i type="int" name="KBLOCK">   128</i>
   <i type="int" name="NPACO">   256</i>
   <i name="APACO">     10.00000000</i>
  </separator>
  <separator name="symmetry" >
   <i type="int" name="ISYM">     2</i>
   <i name="SYMPREC">      0.00001000</i>
  </separator>
  <separator name="dos" >
   <i type="int" name="LORBIT">     0</i>
   <v name="RWIGS">     -1.00000000     -1.00000000</v>
   <i type="int" name="NEDOS">   301</i>
   <i name="EMIN">     10.00000000</i>
   <i name="EMAX">    -10.00000000</i>
   <i name="EFERMI">      0.00000000</i>
  </separator>
  <separator name="writing" >
   <i type="int" name="NWRITE">     2</i>
   <i type="logical" name="LWAVE"> F  </i>
   <i type="logical" name="LDOWNSAMPLE"> F  </i>
   <i type="logical" name="LCHARG"> F  </i>
   <i type="logical" name="LPARD"> F  </i>
   <i type="logical" name="LVTOT"> F  </i>
   <i type="logical" name="LVHAR"> F  </i>
   <i type="logical" name="LELF"> F  </i>
   <i type="logical" name="LOPTICS"> F  </i>
   <v name="STM">      0.00000000      0.00000000      0.00000000      0.00000000      0.00000000      0.00000000      0.00000000</v>
  </separator>
  <separator name="performance" >
   <i type="int" name="NPAR">    48</i>
   <i type="int" name="NSIM">     4</i>
   <i type="int" name="NBLK">    -1</i>
   <i type="logical" name="LPLANE"> T  </i>
   <i type="logical" name="LSCALAPACK"> T  </i>
   <i type="logical" name="LSCAAWARE"> F  </i>
   <i type="logical" name="LSCALU"> F  </i>
   <i type="logical" name="LASYNC"> F  </i>
   <i type="logical" name="LORBITALREAL"> F  </i>
  </separator>
  <separator name="miscellaneous" >
   <i type="int" name="IDIOT">     3</i>
   <i type="int" name="PHON_NSTRUCT">    -1</i>
   <i type="logical" name="LMUSIC"> F  </i>
   <v name="POMASS">     10.81100000     12.01100000</v>
   <v name="DARWINR">      0.00000000      0.00000000</v>
   <v name="DARWINV">      1.00000000      1.00000000</v>
   <i type="logical" name="LCORR"> T  </i>
  </separator>
  <i type="logical" name="GGA_COMPAT"> T  </i>
  <i type="logical" name="LBERRY"> F  </i>
  <i type="int" name="ICORELEVEL">     0</i>
  <i type="logical" name="LDAU"> F  </i>
  <i type="int" name="I_CONSTRAINED_M">     0</i>
  <separator name="electronic exchange-correlation" >
   <i type="string" name="GGA">PE</i>
   <i type="int" name="VOSKOWN">     0</i>
   <i type="logical" name="LHFCALC"> F  </i>
   <i type="string" name="PRECFOCK"></i>
   <i type="logical" name="LSYMGRAD"> F  </i>
   <i type="logical" name="LHFONE"> F  </i>
   <i type="logical" name="LRHFCALC"> F  </i>
   <i type="logical" name="LTHOMAS"> F  </i>
   <i type="logical" name="LMODELHF"> F  </i>
   <i type="logical" name="LFOCKACE"> F  </i>
   <i name="ENCUT4O">     -1.00000000</i>
   <i type="int" name="EXXOEP">     0</i>
   <i type="int" name="FOURORBIT">     0</i>
   <i name="AEXX">      0.00000000</i>
   <i name="HFALPHA">      0.00000000</i>
   <i name="MCALPHA">      0.00000000</i>
   <i name="ALDAX">      1.00000000</i>
   <i name="AGGAX">      1.00000000</i>
   <i name="ALDAC">      1.00000000</i>
   <i name="AGGAC">      1.00000000</i>
   <i type="int" name="NKREDX">     1</i>
   <i type="int" name="NKREDY">     1</i>
   <i type="int" name="NKREDZ">     1</i>
   <i type="logical" name="SHIFTRED"> F  </i>
   <i type="logical" name="ODDONLY"> F  </i>
   <i type="logical" name="EVENONLY"> F  </i>
   <i type="int" name="LMAXFOCK">     0</i>
   <i type="int" name="NMAXFOCKAE">     0</i>
   <i type="logical" name="LFOCKAEDFT"> F  </i>
   <i name="HFSCREEN">      0.00000000</i>
   <i name="HFSCREENC">      0.00000000</i>
   <i type="int" name="NBANDSGWLOW">     0</i>
  </separator>
  <separator name="vdW DFT" >
   <i type="logical" name="LUSE_VDW"> F  </i>
   <i name="Zab_VDW">     -0.84910000</i>
   <i name="PARAM1">      0.12340000</i>
   <i name="PARAM2">      1.00000000</i>
   <i name="PARAM3">      0.00000000</i>
  </separator>
  <separator name="model GW" >
   <i type="int" name="MODEL_GW">     0</i>
   <i name="MODEL_EPS0">     12.16224115</i>
   <i name="MODEL_ALPHA">      1.00000000</i>
  </separator>
  <separator name="linear response parameters" >
   <i type="logical" name="LEPSILON"> F  </i>
   <i type="logical" name="LRPA"> F  </i>
   <i type="logical" name="LNABLA"> F  </i>
   <i type="logical" name="LVEL"> F  </i>
   <i name="CSHIFT">      0.10000000</i>
   <i name="OMEGAMAX">     -1.00000000</i>
   <i name="DEG_THRESHOLD">      0.00200000</i>
   <i name="RTIME">     -0.10000000</i>
   <i name="WPLASMAI">      0.00000000</i>
   <v name="DFIELD">      0.00000000      0.00000000      0.00000000</v>
   <v name="WPLASMA">      0.00000000      0.00000000      0.00000000      0.00000000      0.00000000      0.00000000      0.00000000      0.00000000      0.00000000</v>
  </separator>
  <separator name="orbital magnetization" >
   <i type="logical" name="NUCIND"> F  </i>
   <v name="MAGPOS">      0.00000000      0.00000000      0.00000000</v>
   <i type="logical" name="LNICSALL"> T  </i>
   <i type="logical" name="ORBITALMAG"> F  </i>
   <i type="logical" name="LMAGBLOCH"> F  </i>
   <i type="logical" name="LCHIMAG"> F  </i>
   <i type="logical" name="LGAUGE"> T  </i>
   <i type="int" name="MAGATOM">     0</i>
   <v name="MAGDIPOL">      0.00000000      0.00000000      0.00000000</v>
   <v name="AVECCONST">      0.00000000      0.00000000      0.00000000</v>
  </separator>
  <separator name="response functions" >
   <i type="logical" name="LFINITE_TEMPERATURE"> F  </i>
   <i type="logical" name="LADDER"> F  </i>
   <i type="logical" name="LRPAFORCE"> F  </i>
   <i type="logical" name="LFXC"> F  </i>
   <i type="logical" name="LHARTREE"> T  </i>
   <i type="int" name="IBSE">     0</i>
   <v type="int" name="KPOINT">    -1     0     0     0</v>
   <i type="logical" name="LTCTC"> F  </i>
   <i type="logical" name="LTCTE"> F  </i>
   <i type="logical" name="LTETE"> F  </i>
   <i type="logical" name="LTRIPLET"> F  </i>
   <i type="logical" name="LFXCEPS"> F  </i>
   <i type="logical" name="LFXHEG"> F  </i>
   <i type="int" name="NATURALO">     2</i>
   <i type="logical" name="LHOLEGF"> F  </i>
   <i type="logical" name="L2ORDER"> F  </i>
   <i type="logical" name="LDMP1"> F  </i>
   <i type="logical" name="LMP2LT"> F  </i>
   <i type="logical" name="LSMP2LT"> F  </i>
   <i type="logical" name="LGWLF"> F  </i>
   <i name="ENCUTGW">     -2.00000000</i>
   <i name="ENCUTGWSOFT">     -2.00000000</i>
   <i name="ENCUTLF">     -1.00000000</i>
   <i type="logical" name="LESF_SPLINES"> F  </i>
   <i type="int" name="LMAXMP2">    -1</i>
   <i name="SCISSOR">      0.00000000</i>
   <i type="int" name="NOMEGA">     0</i>
   <i type="int" name="NOMEGAR">     0</i>
   <i type="int" name="NBANDSGW">    -1</i>
   <i type="int" name="NBANDSO">    -1</i>
   <i type="int" name="NBANDSV">    -1</i>
   <i type="int" name="NELMGW">     1</i>
   <i type="int" name="NELMHF">     1</i>
   <i type="int" name="DIM">     3</i>
   <i type="int" name="IESPILON">     4</i>
   <i type="int" name="ANTIRES">     0</i>
   <i name="OMEGAMAX">    -30.00000000</i>
   <i name="OMEGAMIN">    -30.00000000</i>
   <i name="OMEGATL">   -200.00000000</i>
   <i type="int" name="OMEGAGRID">     0</i>
   <i name="CSHIFT">     -0.10000000</i>
   <i type="logical" name="LSELFENERGY"> F  </i>
   <i type="logical" name="LSPECTRAL"> F  </i>
   <i type="logical" name="LSPECTRALGW"> F  </i>
   <i type="logical" name="LSINGLES"> F  </i>
   <i type="logical" name="LFERMIGW"> F  </i>
   <i type="logical" name="ODDONLYGW"> F  </i>
   <i type="logical" name="EVENONLYGW"> F  </i>
   <i type="int" name="NKREDLFX">     1</i>
   <i type="int" name="NKREDLFY">     1</i>
   <i type="int" name="NKREDLFZ">     1</i>
   <i type="int" name="MAXMEM">  2800</i>
   <i type="int" name="TELESCOPE">     0</i>
   <i type="int" name="NTAUPAR">    -1</i>
   <i type="int" name="NOMEGAPAR">    -1</i>
   <i name="DAMP_NEWTON">      0.80000001</i>
   <i name="LAMBDA">      1.00000000</i>
  </separator>
  <separator name="External order field" >
   <i name="OFIELD_KAPPA">      0.00000000</i>
   <v name="OFIELD_K">      0.00000000      0.00000000      0.00000000</v>
   <i name="OFIELD_Q6_NEAR">      0.00000000</i>
   <i name="OFIELD_Q6_FAR">      0.00000000</i>
   <i name="OFIELD_A">      0.00000000</i>
  </separator>
  <separator name="optional k-points parameters" >
   <i type="int" name="KPOINTS_OPT_MODE">     1</i>
   <i type="logical" name="LKPOINTS_OPT"> F  </i>
  </separator>
  <separator name="solvation model" >
   <i type="logical" name="LSOL"> F  </i>
  </separator>
 </parameters>
 <atominfo>
  <atoms>      15 </atoms>
  <types>       2 </types>
  <array name="atoms" >
   <dimension dim="1">ion</dimension>
   <field type="string">element</field>
   <field type="int">atomtype</field>
   <set>
    <rc><c>B </c><c>   1</c></rc>
    <rc><c>B </c><c>   1</c></rc>
    <rc><c>B </c><c>   1</c></rc>
    <rc><c>B </c><c>   1</c></rc>
    <rc><c>C </c><c>   2</c></rc>
    <rc><c>C </c><c>   2</c></rc>
    <rc><c>C </c><c>   2</c></rc>
    <rc><c>C </c><c>   2</c></rc>
    <rc><c>C </c><c>   2</c></rc>
    <rc><c>C </c><c>   2</c></rc>
    <rc><c>C </c><c>   2</c></rc>
    <rc><c>C </c><c>   2</c></rc>
    <rc><c>C </c><c>   2</c></rc>
    <rc><c>C </c><c>   2</c></rc>
    <rc><c>C </c><c>   2</c></rc>
   </set>
  </array>
  <array name="atomtypes" >
   <dimension dim="1">type</dimension>
   <field type="int">atomspertype</field>
   <field type="string">element</field>
   <field>mass</field>
   <field>valence</field>
   <field type="string">pseudopotential</field>
   <set>
    <rc><c>   4</c><c>B </c><c>     10.81100000</c><c>      3.00000000</c><c>  PAW_PBE B 06Sep2000                   </c></rc>
    <rc><c>  11</c><c>C </c><c>     12.01100000</c><c>      4.00000000</c><c>  PAW_PBE C 08Apr2002                   </c></rc>
   </set>
  </array>
 </atominfo>
 <structure name="initialpos" >
  <crystal>
   <varray name="basis" >
    <v>       4.18983090       2.41900000       0.00000000 </v>
    <v>      -4.18983090       2.41900000       0.00000000 </v>
    <v>       0.00000000       0.00000000      15.00000000 </v>
   </varray>
   <i name="volume">    304.05602867 </i>
   <varray name="rec_basis" >
    <v>       0.11933656       0.20669698       0.00000000 </v>
    <v>      -0.11933656       0.20669698       0.00000000 </v>
    <v>       0.00000000       0.00000000       0.06666667 </v>
   </varray>
  </crystal>
  <varray name="positions" >
   <v>       0.00415361       0.00267210       0.12034134 </v>
   <v>       0.35695335       0.00285503       0.09748893 </v>
   <v>       0.00423858       0.35550699       0.09749256 </v>
   <v>       0.65142295       0.65006557       0.09747688 </v>
   <v>       0.32808646       0.32671938       0.10030508 </v>
   <v>       0.68027775       0.00278085       0.10027562 </v>
   <v>       0.00416530       0.67883808       0.10026559 </v>
   <v>       0.99999933       0.49999967       0.33373333 </v>
   <v>       0.16666633       0.33333267       0.33373333 </v>
   <v>       0.99999933       0.99999967       0.33373333 </v>
   <v>       0.16666633       0.83333267       0.33373333 </v>
   <v>       0.49999933       0.49999967       0.33373333 </v>
   <v>       0.66666633       0.33333267       0.33373333 </v>
   <v>       0.49999933       0.99999967       0.33373333 </v>
   <v>       0.66666633       0.83333267       0.33373333 </v>
  </varray>
 </structure>
 <calculation>
  <scstep>
   <time name="dav">    5.50    5.56</time>
   <time name="total">    5.55    5.61</time>
   <energy>
    <i name="alphaZ">     58.50005645 </i>
    <i name="ewald">   4804.00238854 </i>
    <i name="hartreedc">  -6358.92988923 </i>
    <i name="XCdc">    175.29143942 </i>
    <i name="pawpsdc">   1365.87943566 </i>
    <i name="pawaedc">  -1368.52100941 </i>
    <i name="eentropy">     -0.01793341 </i>
    <i name="bandstr">   -376.58714484 </i>
    <i name="atom">   1903.26342058 </i>
    <i name="e_fr_energy">    202.88076376 </i>
    <i name="e_wo_entrp">    202.89869717 </i>
    <i name="e_0_energy">    202.88973046 </i>
   </energy>
  </scstep>
  <scstep>
   <time name="dav">    7.84    7.90</time>
   <time name="total">    7.84    7.90</time>
   <energy>
    <i name="e_fr_energy">   -116.37693747 </i>
    <i name="e_wo_entrp">   -116.37592212 </i>
    <i name="e_0_energy">   -116.37642980 </i>
   </energy>
  </scstep>
  <scstep>
   <time name="dav">   11.24   11.32</time>
   <time name="total">   11.24   11.32</time>
   <energy>
    <i name="e_fr_energy">   -129.47131496 </i>
    <i name="e_wo_entrp">   -129.46815018 </i>
    <i name="e_0_energy">   -129.46973257 </i>
   </energy>
  </scstep>
  <scstep>
   <time name="dav">    8.18    8.24</time>
   <time name="total">    8.18    8.24</time>
   <energy>
    <i name="e_fr_energy">   -129.49387128 </i>
    <i name="e_wo_entrp">   -129.49070538 </i>
    <i name="e_0_energy">   -129.49228833 </i>
   </energy>
  </scstep>
  <scstep>
   <time name="dav">   10.79   10.87</time>
   <time name="total">   11.06   11.15</time>
   <energy>
    <i name="e_fr_energy">   -129.49393343 </i>
    <i name="e_wo_entrp">   -129.49076746 </i>
    <i name="e_0_energy">   -129.49235044 </i>
   </energy>
  </scstep>
  <scstep>
   <time name="dav">   10.59   11.45</time>
   <time name="total">   10.86   11.78</time>
   <energy>
    <i name="e_fr_energy">    -92.17521995 </i>
    <i name="e_wo_entrp">    -92.16929838 </i>
    <i name="e_0_energy">    -92.17225917 </i>
   </energy>
  </scstep>
  <scstep>
   <time name="dav">    8.96    9.34</time>
   <time name="total">    9.25    9.65</time>
   <energy>
    <i name="e_fr_energy">   -100.62828595 </i>
    <i name="e_wo_entrp">   -100.62272740 </i>
    <i name="e_0_energy">   -100.62550668 </i>
   </energy>
  </scstep>
  <scstep>
   <time name="dav">   10.32   10.39</time>
   <time name="total">   10.61   10.69</time>
   <energy>
    <i name="e_fr_energy">   -110.47424552 </i>
    <i name="e_wo_entrp">   -110.47423109 </i>
    <i name="e_0_energy">   -110.47423831 </i>
   </energy>
  </scstep>
  <scstep>
   <time name="dav">    7.89    7.94</time>
   <time name="total">    8.18    8.24</time>
   <energy>
    <i name="e_fr_energy">   -117.31889253 </i>
    <i name="e_wo_entrp">   -117.31888799 </i>
    <i name="e_0_energy">   -117.31889026 </i>
   </energy>
  </scstep>
  <scstep>
   <time name="dav">    9.94   10.01</time>
   <time name="total">   10.24   10.32</time>
   <energy>
    <i name="e_fr_energy">   -123.65174234 </i>
    <i name="e_wo_entrp">   -123.65106592 </i>
    <i name="e_0_energy">   -123.65140413 </i>
   </energy>
  </scstep>
  <scstep>
   <time name="dav">   10.74   10.81</time>
   <time name="total">   11.04   11.11</time>
   <energy>
    <i name="e_fr_energy">   -125.27206115 </i>
    <i name="e_wo_entrp">   -125.27089020 </i>
    <i name="e_0_energy">   -125.27147567 </i>
   </energy>
  </scstep>
  <scstep>
   <time name="dav">    7.60    7.65</time>
   <time name="total">    7.90    7.96</time>
   <energy>
    <i name="e_fr_energy">   -125.43011834 </i>
    <i name="e_wo_entrp">   -125.42863982 </i>
    <i name="e_0_energy">   -125.42937908 </i>
   </energy>
  </scstep>
  <scstep>
   <time name="dav">    7.43    7.48</time>
   <time name="total">    7.72    7.79</time>
   <energy>
    <i name="e_fr_energy">   -125.46487285 </i>
    <i name="e_wo_entrp">   -125.46333883 </i>
    <i name="e_0_energy">   -125.46410584 </i>
   </energy>
  </scstep>
  <scstep>
   <time name="dav">    8.10    8.15</time>
   <time name="total">    8.40    8.46</time>
   <energy>
    <i name="e_fr_energy">   -125.48788275 </i>
    <i name="e_wo_entrp">   -125.48634400 </i>
    <i name="e_0_energy">   -125.48711338 </i>
   </energy>
  </scstep>
  <scstep>
   <time name="dav">    7.41    7.45</time>
   <time name="total">    7.71    7.76</time>
   <energy>
    <i name="e_fr_energy">   -125.49462687 </i>
    <i name="e_wo_entrp">   -125.49308757 </i>
    <i name="e_0_energy">   -125.49385722 </i>
   </energy>
  </scstep>
  <scstep>
   <time name="dav">    6.52    6.56</time>
   <time name="total">    6.81    6.86</time>
   <energy>
    <i name="e_fr_energy">   -125.49663410 </i>
    <i name="e_wo_entrp">   -125.49509484 </i>
    <i name="e_0_energy">   -125.49586447 </i>
   </energy>
  </scstep>
  <scstep>
   <time name="dav">    7.50    7.54</time>
   <time name="total">    7.79    7.85</time>
   <energy>
    <i name="e_fr_energy">   -125.49789542 </i>
    <i name="e_wo_entrp">   -125.49635618 </i>
    <i name="e_0_energy">   -125.49712580 </i>
   </energy>
  </scstep>
  <scstep>
   <time name="dav">    6.71    6.75</time>
   <time name="total">    7.00    7.06</time>
   <energy>
    <i name="e_fr_energy">   -125.49866986 </i>
    <i name="e_wo_entrp">   -125.49713064 </i>
    <i name="e_0_energy">   -125.49790025 </i>
   </energy>
  </scstep>
  <scstep>
   <time name="dav">    8.44    8.51</time>
   <time name="total">    8.74    8.81</time>
   <energy>
    <i name="e_fr_energy">   -125.49909645 </i>
    <i name="e_wo_entrp">   -125.49755724 </i>
    <i name="e_0_energy">   -125.49832684 </i>
   </energy>
  </scstep>
  <scstep>
   <time name="dav">    8.95    9.01</time>
   <time name="total">    9.25    9.32</time>
   <energy>
    <i name="e_fr_energy">   -125.49913139 </i>
    <i name="e_wo_entrp">   -125.49759217 </i>
    <i name="e_0_energy">   -125.49836178 </i>
   </energy>
  </scstep>
  <scstep>
   <time name="dav">    8.45    8.50</time>
   <time name="total">    8.74    8.80</time>
   <energy>
    <i name="e_fr_energy">   -125.49915726 </i>
    <i name="e_wo_entrp">   -125.49761802 </i>
    <i name="e_0_energy">   -125.49838764 </i>
   </energy>
  </scstep>
  <scstep>
   <time name="dav">    9.08    9.13</time>
   <time name="total">    9.38    9.46</time>
   <energy>
    <i name="e_fr_energy">   -125.49918104 </i>
    <i name="e_wo_entrp">   -125.49764179 </i>
    <i name="e_0_energy">   -125.49841142 </i>
   </energy>
  </scstep>
  <scstep>
   <time name="dav">    8.75    8.80</time>
   <time name="total">    9.04    9.10</time>
   <energy>
    <i name="e_fr_energy">   -125.49919237 </i>
    <i name="e_wo_entrp">   -125.49765312 </i>
    <i name="e_0_energy">   -125.49842274 </i>
   </energy>
  </scstep>
  <scstep>
   <time name="dav">    9.61    9.67</time>
   <time name="total">    9.91    9.97</time>
   <energy>
    <i name="e_fr_energy">   -125.49919477 </i>
    <i name="e_wo_entrp">   -125.49765552 </i>
    <i name="e_0_energy">   -125.49842514 </i>
   </energy>
  </scstep>
  <scstep>
   <time name="dav">    8.54    8.59</time>
   <time name="total">    8.83    8.90</time>
   <energy>
    <i name="e_fr_energy">   -125.49919579 </i>
    <i name="e_wo_entrp">   -125.49765653 </i>
    <i name="e_0_energy">   -125.49842616 </i>
   </energy>
  </scstep>
  <scstep>
   <time name="dav">    9.01    9.07</time>
   <time name="total">    9.05    9.11</time>
   <energy>
    <i name="alphaZ">     58.50005645 </i>
    <i name="ewald">   4804.00238854 </i>
    <i name="hartreedc">  -6561.95586111 </i>
    <i name="XCdc">    180.69547986 </i>
    <i name="pawpsdc">   5781.94368172 </i>
    <i name="pawaedc">  -5786.37254162 </i>
    <i name="eentropy">     -0.00153925 </i>
    <i name="bandstr">   -505.57428144 </i>
    <i name="atom">   1903.26342058 </i>
    <i name="e_fr_energy">   -125.49919629 </i>
    <i name="e_wo_entrp">   -125.49765703 </i>
    <i name="e_0_energy">   -125.49842666 </i>
   </energy>
  </scstep>
  <structure>
   <crystal>
    <varray name="basis" >
     <v>       4.18983090       2.41900000       0.00000000 </v>
     <v>      -4.18983090       2.41900000       0.00000000 </v>
     <v>       0.00000000       0.00000000      15.00000000 </v>
    </varray>
    <i name="volume">    304.05602867 </i>
    <varray name="rec_basis" >
     <v>       0.11933656       0.20669698       0.00000000 </v>
     <v>      -0.11933656       0.20669698       0.00000000 </v>
     <v>       0.00000000       0.00000000       0.06666667 </v>
    </varray>
   </crystal>
   <varray name="positions" >
    <v>       0.00415361       0.00267210       0.12034134 </v>
    <v>       0.35695335       0.00285503       0.09748893 </v>
    <v>       0.00423858       0.35550699       0.09749256 </v>
    <v>       0.65142295       0.65006557       0.09747688 </v>
    <v>       0.32808646       0.32671938       0.10030508 </v>
    <v>       0.68027775       0.00278085       0.10027562 </v>
    <v>       0.00416530       0.67883808       0.10026559 </v>
    <v>       0.99999933       0.49999967       0.33373333 </v>
    <v>       0.16666633       0.33333267       0.33373333 </v>
    <v>       0.99999933       0.99999967       0.33373333 </v>
    <v>       0.16666633       0.83333267       0.33373333 </v>
    <v>       0.49999933       0.49999967       0.33373333 </v>
    <v>       0.66666633       0.33333267       0.33373333 </v>
    <v>       0.49999933       0.99999967       0.33373333 </v>
    <v>       0.66666633       0.83333267       0.33373333 </v>
   </varray>
  </structure>
  <varray name="forces" >
   <v>      -0.00473420       0.00548161      -0.32973100 </v>
   <v>      -0.10685208      -0.04402951       0.10227524 </v>
   <v>       0.08663569      -0.07805310       0.10180609 </v>
   <v>       0.02259301       0.11433867       0.10334506 </v>
   <v>       0.02984275      -0.34030452      -0.00312133 </v>
   <v>       0.27809795       0.19306169      -0.00068961 </v>
   <v>      -0.30589643       0.14871302       0.00014249 </v>
   <v>       0.01307492       0.00525945       0.00267678 </v>
   <v>      -0.03519377       0.04118600       0.02098979 </v>
   <v>       0.00051047      -0.00031421      -0.03148783 </v>
   <v>       0.05273333       0.00943856       0.02188387 </v>
   <v>      -0.01076490       0.01012981       0.00357007 </v>
   <v>      -0.00046122       0.00025443      -0.01508615 </v>
   <v>      -0.00166975      -0.01385981       0.00253286 </v>
   <v>      -0.01791579      -0.05130211       0.02089368 </v>
  </varray>
  <varray name="stress" >
   <v>       1.68442680       0.01655046      -0.00222320 </v>
   <v>       0.01655048       1.70616616       0.02480132 </v>
   <v>      -0.00222318       0.02480130      -2.25597260 </v>
  </varray>
  <energy>
   <i name="e_fr_energy">   -127.10394791 </i>
   <i name="e_wo_entrp">   -127.10240866 </i>
   <i name="e_0_energy">   -127.10317829 </i>
  </energy>
  <time name="totalsc">  235.03  237.95</time>
 </calculation>
 <calculation>
  <scstep>
   <time name="dav">    5.48    5.51</time>
   <time name="total">    5.77    5.82</time>
   <energy>
    <i name="alphaZ">     58.50005645 </i>
    <i name="ewald">   4807.33925652 </i>
    <i name="hartreedc">  -6563.97966290 </i>
    <i name="XCdc">    180.77031992 </i>
    <i name="pawpsdc">   5781.95034099 </i>
    <i name="pawaedc">  -5786.37920378 </i>
    <i name="eentropy">     -0.00154343 </i>
    <i name="bandstr">   -506.96925229 </i>
    <i name="atom">   1903.26342058 </i>
    <i name="e_fr_energy">   -125.50626796 </i>
    <i name="e_wo_entrp">   -125.50472453 </i>
    <i name="e_0_energy">   -125.50549624 </i>
   </energy>
  </scstep>
  <scstep>
   <time name="dav">   10.71   10.78</time>
   <time name="total">   11.01   11.08</time>
   <energy>
    <i name="e_fr_energy">   -125.49829825 </i>
    <i name="e_wo_entrp">   -125.49675467 </i>
    <i name="e_0_energy">   -125.49752646 </i>
   </energy>
  </scstep>
  <scstep>
   <time name="dav">    8.92    8.97</time>
   <time name="total">    9.22    9.28</time>
   <energy>
    <i name="e_fr_energy">   -125.49736300 </i>
    <i name="e_wo_entrp">   -125.49581930 </i>
    <i name="e_0_energy">   -125.49659115 </i>
   </energy>
  </scstep>
  <scstep>
   <time name="dav">   10.65   10.71</time>
   <time name="total">   10.94   11.02</time>
   <energy>
    <i name="e_fr_energy">   -125.49732084 </i>
    <i name="e_wo_entrp">   -125.49577736 </i>
    <i name="e_0_energy">   -125.49654910 </i>
   </energy>
  </scstep>
  <scstep>
   <time name="dav">   10.18   10.25</time>
   <time name="total">   10.47   10.55</time>
   <energy>
    <i name="e_fr_energy">   -125.49732339 </i>
    <i name="e_wo_entrp">   -125.49577997 </i>
    <i name="e_0_energy">   -125.49655168 </i>
   </energy>
  </scstep>
  <scstep>
   <time name="dav">    8.70    8.75</time>
   <time name="total">    8.74    8.80</time>
   <energy>
    <i name="alphaZ">     58.50005645 </i>
    <i name="ewald">   4807.33925652 </i>
    <i name="hartreedc">  -6564.68521551 </i>
    <i name="XCdc">    180.78620216 </i>
    <i name="pawpsdc">   5806.99077315 </i>
    <i name="pawaedc">  -5811.42769768 </i>
    <i name="eentropy">     -0.00154343 </i>
    <i name="bandstr">   -506.26257574 </i>
    <i name="atom">   1903.26342058 </i>
    <i name="e_fr_energy">   -125.49732351 </i>
    <i name="e_wo_entrp">   -125.49578008 </i>
    <i name="e_0_energy">   -125.49655180 </i>
   </energy>
  </scstep>
  <structure>
   <crystal>
    <varray name="basis" >
     <v>       4.18983090       2.41900000       0.00000000 </v>
     <v>      -4.18983090       2.41900000       0.00000000 </v>
     <v>       0.00000000       0.00000000      15.00000000 </v>
    </varray>
    <i name="volume">    304.05602867 </i>
    <varray name="rec_basis" >
     <v>       0.11933656       0.20669698       0.00000000 </v>
     <v>      -0.11933656       0.20669698       0.00000000 </v>
     <v>       0.00000000       0.00000000       0.06666667 </v>
    </varray>
   </crystal>
   <varray name="positions" >
    <v>       0.00418101       0.00275402       0.11928086 </v>
    <v>       0.35589915       0.00303114       0.09781787 </v>
    <v>       0.00395903       0.35422991       0.09781999 </v>
    <v>       0.65269316       0.65107564       0.09780925 </v>
    <v>       0.32486489       0.32315418       0.10029504 </v>
    <v>       0.68380393       0.00310495       0.10027340 </v>
    <v>       0.00388713       0.68208207       0.10026605 </v>
    <v>       0.00012705       0.49997684       0.33374194 </v>
    <v>       0.16687441       0.33394597       0.33380084 </v>
    <v>       0.99999914       0.99999359       0.33363206 </v>
    <v>       0.16706404       0.83312319       0.33380372 </v>
    <v>       0.50003837       0.50016265       0.33374482 </v>
    <v>       0.66666622       0.33333786       0.33368481 </v>
    <v>       0.49985152       0.99987107       0.33374148 </v>
    <v>       0.66605163       0.83292425       0.33380053 </v>
   </varray>
  </structure>
  <varray name="forces" >
   <v>      -0.00100026      -0.00076068      -0.12279184 </v>
   <v>       0.23791092       0.13477122       0.05444739 </v>
   <v>      -0.23947713       0.13783133       0.05405751 </v>
   <v>       0.00092878      -0.27149006       0.05519557 </v>
   <v>      -0.00458491       0.55963853      -0.02340486 </v>
   <v>      -0.47859120      -0.28477195      -0.02152863 </v>
   <v>       0.48450751      -0.27606942      -0.02126612 </v>
   <v>      -0.05629126      -0.02374518       0.01017173 </v>
   <v>       0.12649868      -0.14104642      -0.00103663 </v>
   <v>      -0.00192989       0.00133503       0.00683372 </v>
   <v>      -0.18343515      -0.03580059      -0.00084976 </v>
   <v>       0.04749432      -0.04155342       0.01034411 </v>
   <v>       0.00203183      -0.00038605      -0.00913542 </v>
   <v>       0.00616661       0.06036624       0.01008896 </v>
   <v>       0.05977116       0.18168141      -0.00112572 </v>
  </varray>
  <varray name="stress" >
   <v>       4.20603554       0.00140089       0.00386612 </v>
   <v>       0.00140089       4.20684072       0.01581532 </v>
   <v>       0.00386613       0.01581529      -1.90197043 </v>
  </varray>
  <energy>
   <i name="e_fr_energy">   -127.10154730 </i>
   <i name="e_wo_entrp">   -127.10000387 </i>
   <i name="e_0_energy">   -127.10077559 </i>
  </energy>
  <time name="totalsc">   60.85   61.29</time>
 </calculation>
 <calculation>
  <scstep>
   <time name="dav">    5.47    5.51</time>
   <time name="total">    5.76    5.81</time>
   <energy>
    <i name="alphaZ">     58.50005645 </i>
    <i name="ewald">   4805.49349000 </i>
    <i name="hartreedc">  -6563.55617702 </i>
    <i name="XCdc">    180.74431407 </i>
    <i name="pawpsdc">   5806.94547361 </i>
    <i name="pawaedc">  -5811.38237302 </i>
    <i name="eentropy">     -0.00154130 </i>
    <i name="bandstr">   -505.51471297 </i>
    <i name="atom">   1903.26342058 </i>
    <i name="e_fr_energy">   -125.50804960 </i>
    <i name="e_wo_entrp">   -125.50650830 </i>
    <i name="e_0_energy">   -125.50727895 </i>
   </energy>
  </scstep>
  <scstep>
   <time name="dav">   10.79   10.86</time>
   <time name="total">   11.09   11.16</time>
   <energy>
    <i name="e_fr_energy">   -125.50566012 </i>
    <i name="e_wo_entrp">   -125.50411896 </i>
    <i name="e_0_energy">   -125.50488954 </i>
   </energy>
  </scstep>
  <scstep>
   <time name="dav">    9.58    9.64</time>
   <time name="total">    9.87    9.95</time>
   <energy>
    <i name="e_fr_energy">   -125.50539370 </i>
    <i name="e_wo_entrp">   -125.50385263 </i>
    <i name="e_0_energy">   -125.50462316 </i>
   </energy>
  </scstep>
  <scstep>
   <time name="dav">    9.22    9.27</time>
   <time name="total">    9.51    9.57</time>
   <energy>
    <i name="e_fr_energy">   -125.50538188 </i>
    <i name="e_wo_entrp">   -125.50384065 </i>
    <i name="e_0_energy">   -125.50461127 </i>
   </energy>
  </scstep>
  <scstep>
   <time name="dav">    9.45    9.51</time>
   <time name="total">    9.48    9.54</time>
   <energy>
    <i name="alphaZ">     58.50005645 </i>
    <i name="ewald">   4805.49349000 </i>
    <i name="hartreedc">  -6563.19792562 </i>
    <i name="XCdc">    180.73589430 </i>
    <i name="pawpsdc">   5792.76197294 </i>
    <i name="pawaedc">  -5797.19423343 </i>
    <i name="eentropy">     -0.00154123 </i>
    <i name="bandstr">   -505.86651662 </i>
    <i name="atom">   1903.26342058 </i>
    <i name="e_fr_energy">   -125.50538264 </i>
    <i name="e_wo_entrp">   -125.50384141 </i>
    <i name="e_0_energy">   -125.50461203 </i>
   </energy>
  </scstep>
  <structure>
   <crystal>
    <varray name="basis" >
     <v>       4.18983090       2.41900000       0.00000000 </v>
     <v>      -4.18983090       2.41900000       0.00000000 </v>
     <v>       0.00000000       0.00000000      15.00000000 </v>
    </varray>
    <i name="volume">    304.05602867 </i>
    <varray name="rec_basis" >
     <v>       0.11933656       0.20669698       0.00000000 </v>
     <v>      -0.11933656       0.20669698       0.00000000 </v>
     <v>       0.00000000       0.00000000       0.06666667 </v>
    </varray>
   </crystal>
   <varray name="positions" >
    <v>       0.00416617       0.00270965       0.11985523 </v>
    <v>       0.35647012       0.00293576       0.09763971 </v>
    <v>       0.00411044       0.35492160       0.09764265 </v>
    <v>       0.65200520       0.65052857       0.09762923 </v>
    <v>       0.32660974       0.32508515       0.10030048 </v>
    <v>       0.68189409       0.00292941       0.10027460 </v>
    <v>       0.00403779       0.68032507       0.10026580 </v>
    <v>       0.00005788       0.49998920       0.33373728 </v>
    <v>       0.16676171       0.33361380       0.33376428 </v>
    <v>       0.99999924       0.99999688       0.33368691 </v>
    <v>       0.16684864       0.83323665       0.33376560 </v>
    <v>       0.50001723       0.50007438       0.33373860 </v>
    <v>       0.66666628       0.33333505       0.33371109 </v>
    <v>       0.49993158       0.99994072       0.33373707 </v>
    <v>       0.66638456       0.83314545       0.33376414 </v>
   </varray>
  </structure>
  <varray name="forces" >
   <v>      -0.00314095       0.00283050      -0.23411376 </v>
   <v>       0.05370184       0.03997792       0.08033958 </v>
   <v>      -0.06598392       0.02194526       0.07990914 </v>
   <v>       0.01324370      -0.06583780       0.08127157 </v>
   <v>       0.01473758       0.07063842      -0.01263613 </v>
   <v>      -0.06781496      -0.02457180      -0.01049515 </v>
   <v>       0.05495207      -0.04579458      -0.00995252 </v>
   <v>      -0.01837234      -0.00790981       0.00612730 </v>
   <v>       0.03862611      -0.04237041       0.01094689 </v>
   <v>      -0.00061274       0.00044145      -0.01401712 </v>
   <v>      -0.05538970      -0.01104379       0.01151615 </v>
   <v>       0.01565419      -0.01330704       0.00669003 </v>
   <v>       0.00067787      -0.00003774      -0.01244974 </v>
   <v>       0.00185858       0.01980123       0.00601096 </v>
   <v>       0.01786267       0.05523818       0.01085282 </v>
  </varray>
  <varray name="stress" >
   <v>       2.72149497       0.00955785       0.00043808 </v>
   <v>       0.00955787       2.73099277       0.02111137 </v>
   <v>       0.00043807       0.02111138      -2.07925008 </v>
  </varray>
  <energy>
   <i name="e_fr_energy">   -127.10989219 </i>
   <i name="e_wo_entrp">   -127.10835095 </i>
   <i name="e_0_energy">   -127.10912157 </i>
  </energy>
  <time name="totalsc">   50.41   50.77</time>
 </calculation>
 <calculation>
  <scstep>
   <time name="dav">    5.47    5.50</time>
   <time name="total">    5.77    5.81</time>
   <energy>
    <i name="alphaZ">     58.50005645 </i>
    <i name="ewald">   4805.67815387 </i>
    <i name="hartreedc">  -6563.15482204 </i>
    <i name="XCdc">    180.75179005 </i>
    <i name="pawpsdc">   5792.76470713 </i>
    <i name="pawaedc">  -5797.19697458 </i>
    <i name="eentropy">     -0.00154385 </i>
    <i name="bandstr">   -506.11416112 </i>
    <i name="atom">   1903.26342058 </i>
    <i name="e_fr_energy">   -125.50937350 </i>
    <i name="e_wo_entrp">   -125.50782966 </i>
    <i name="e_0_energy">   -125.50860158 </i>
   </energy>
  </scstep>
  <scstep>
   <time name="dav">   11.74   11.81</time>
   <time name="total">   12.03   12.11</time>
   <energy>
    <i name="e_fr_energy">   -125.50937973 </i>
    <i name="e_wo_entrp">   -125.50783643 </i>
    <i name="e_0_energy">   -125.50860808 </i>
   </energy>
  </scstep>
  <scstep>
   <time name="dav">    9.05    9.11</time>
   <time name="total">    9.35    9.41</time>
   <energy>
    <i name="e_fr_energy">   -125.50936659 </i>
    <i name="e_wo_entrp">   -125.50782359 </i>
    <i name="e_0_energy">   -125.50859509 </i>
   </energy>
  </scstep>
  <scstep>
   <time name="dav">   10.67   10.73</time>
   <time name="total">   10.96   11.04</time>
   <energy>
    <i name="e_fr_energy">   -125.50936696 </i>
    <i name="e_wo_entrp">   -125.50782389 </i>
    <i name="e_0_energy">   -125.50859543 </i>
   </energy>
  </scstep>
  <scstep>
   <time name="dav">    9.33    9.39</time>
   <time name="total">    9.37    9.42</time>
   <energy>
    <i name="alphaZ">     58.50005645 </i>
    <i name="ewald">   4805.67815387 </i>
    <i name="hartreedc">  -6563.15772044 </i>
    <i name="XCdc">    180.75193608 </i>
    <i name="pawpsdc">   5797.37779902 </i>
    <i name="pawaedc">  -5801.81169594 </i>
    <i name="eentropy">     -0.00154307 </i>
    <i name="bandstr">   -506.10977418 </i>
    <i name="atom">   1903.26342058 </i>
    <i name="e_fr_energy">   -125.50936763 </i>
    <i name="e_wo_entrp">   -125.50782456 </i>
    <i name="e_0_energy">   -125.50859610 </i>
   </energy>
  </scstep>
  <structure>
   <crystal>
    <varray name="basis" >
     <v>       4.18983090       2.41900000       0.00000000 </v>
     <v>      -4.18983090       2.41900000       0.00000000 </v>
     <v>       0.00000000       0.00000000      15.00000000 </v>
    </varray>
    <i name="volume">    304.05602867 </i>
    <varray name="rec_basis" >
     <v>       0.11933656       0.20669698       0.00000000 </v>
     <v>      -0.11933656       0.20669698       0.00000000 </v>
     <v>       0.00000000       0.00000000       0.06666667 </v>
    </varray>
   </crystal>
   <varray name="positions" >
    <v>       0.00418045       0.00276659       0.11898132 </v>
    <v>       0.35689993       0.00304918       0.09793293 </v>
    <v>       0.00391345       0.35521155       0.09793434 </v>
    <v>       0.65173037       0.65006809       0.09792578 </v>
    <v>       0.32669823       0.32495670       0.10026232 </v>
    <v>       0.68200090       0.00312095       0.10024408 </v>
    <v>       0.00385958       0.68025532       0.10023734 </v>
    <v>      -0.00008237       0.50000883       0.33375650 </v>
    <v>       0.16662300       0.33315590       0.33380856 </v>
    <v>       0.99999999       0.00000279       0.33362737 </v>
    <v>       0.16654205       0.83338279       0.33381206 </v>
    <v>       0.49998672       0.49990682       0.33375997 </v>
    <v>       0.66666940       0.33333222       0.33366612 </v>
    <v>       0.50008895       0.00008268       0.33375586 </v>
    <v>       0.66685001       0.83346690       0.33380809 </v>
   </varray>
  </structure>
  <varray name="forces" >
   <v>      -0.00027125      -0.00010162      -0.21601687 </v>
   <v>       0.04296402       0.02174208       0.04552405 </v>
   <v>      -0.04145748       0.02648367       0.04530675 </v>
   <v>      -0.00120107      -0.04748779       0.04596212 </v>
   <v>      -0.00652311       0.08964696       0.01653938 </v>
   <v>      -0.07282800      -0.05119612       0.01800272 </v>
   <v>       0.07899983      -0.03987012       0.01823396 </v>
   <v>       0.05040999       0.02339323       0.00689830 </v>
   <v>      -0.08807607       0.08497356      -0.00003203 </v>
   <v>       0.00209322      -0.00010289       0.00824202 </v>
   <v>       0.11571624       0.03046121       0.00000491 </v>
   <v>      -0.04314080       0.03552452       0.00691660 </v>
   <v>      -0.00181745       0.00010518      -0.00232684 </v>
   <v>      -0.00361698      -0.05366795       0.00682690 </v>
   <v>      -0.03125108      -0.11990393      -0.00008198 </v>
  </varray>
  <varray name="stress" >
   <v>       3.08696684       0.01293405       0.00489781 </v>
   <v>       0.01293408       3.11247731       0.01494622 </v>
   <v>       0.00489780       0.01494621      -2.02379619 </v>
  </varray>
  <energy>
   <i name="e_fr_energy">   -127.11377916 </i>
   <i name="e_wo_entrp">   -127.11223609 </i>
   <i name="e_0_energy">   -127.11300763 </i>
  </energy>
  <time name="totalsc">   52.19   52.55</time>
 </calculation>
 <calculation>
  <scstep>
   <time name="dav">    5.55    5.59</time>
   <time name="total">    5.85    5.90</time>
   <energy>
    <i name="alphaZ">     58.50005645 </i>
    <i name="ewald">   4805.84482003 </i>
    <i name="hartreedc">  -6563.04515656 </i>
    <i name="XCdc">    180.77066309 </i>
    <i name="pawpsdc">   5797.51572780 </i>
    <i name="pawaedc">  -5801.94963589 </i>
    <i name="eentropy">     -0.00154604 </i>
    <i name="bandstr">   -506.40966641 </i>
    <i name="atom">   1903.26342058 </i>
    <i name="e_fr_energy">   -125.51131696 </i>
    <i name="e_wo_entrp">   -125.50977092 </i>
    <i name="e_0_energy">   -125.51054394 </i>
   </energy>
  </scstep>
  <scstep>
   <time name="dav">   10.65   10.71</time>
   <time name="total">   10.94   11.01</time>
   <energy>
    <i name="e_fr_energy">   -125.51133834 </i>
    <i name="e_wo_entrp">   -125.50979298 </i>
    <i name="e_0_energy">   -125.51056566 </i>
   </energy>
  </scstep>
  <scstep>
   <time name="dav">    8.72    8.78</time>
   <time name="total">    9.02    9.09</time>
   <energy>
    <i name="e_fr_energy">   -125.51131881 </i>
    <i name="e_wo_entrp">   -125.50977383 </i>
    <i name="e_0_energy">   -125.51054632 </i>
   </energy>
  </scstep>
  <scstep>
   <time name="dav">   10.83   10.90</time>
   <time name="total">   11.13   11.20</time>
   <energy>
    <i name="e_fr_energy">   -125.51131910 </i>
    <i name="e_wo_entrp">   -125.50977399 </i>
    <i name="e_0_energy">   -125.51054654 </i>
   </energy>
  </scstep>
  <scstep>
   <time name="dav">    8.67    8.72</time>
   <time name="total">    8.97    9.03</time>
   <energy>
    <i name="e_fr_energy">   -125.51132016 </i>
    <i name="e_wo_entrp">   -125.50977506 </i>
    <i name="e_0_energy">   -125.51054761 </i>
   </energy>
  </scstep>
  <scstep>
   <time name="dav">    9.66    9.72</time>
   <time name="total">    9.69    9.75</time>
   <energy>
    <i name="alphaZ">     58.50005645 </i>
    <i name="ewald">   4805.84482003 </i>
    <i name="hartreedc">  -6563.03255341 </i>
    <i name="XCdc">    180.77073095 </i>
    <i name="pawpsdc">   5803.23107967 </i>
    <i name="pawaedc">  -5807.66698818 </i>
    <i name="eentropy">     -0.00154505 </i>
    <i name="bandstr">   -506.42034139 </i>
    <i name="atom">   1903.26342058 </i>
    <i name="e_fr_energy">   -125.51132036 </i>
    <i name="e_wo_entrp">   -125.50977531 </i>
    <i name="e_0_energy">   -125.51054784 </i>
   </energy>
  </scstep>
  <structure>
   <crystal>
    <varray name="basis" >
     <v>       4.18983090       2.41900000       0.00000000 </v>
     <v>      -4.18983090       2.41900000       0.00000000 </v>
     <v>       0.00000000       0.00000000      15.00000000 </v>
    </varray>
    <i name="volume">    304.05602867 </i>
    <varray name="rec_basis" >
     <v>       0.11933656       0.20669698       0.00000000 </v>
     <v>      -0.11933656       0.20669698       0.00000000 </v>
     <v>       0.00000000       0.00000000       0.06666667 </v>
    </varray>
   </crystal>
   <varray name="positions" >
    <v>       0.00419858       0.00283890       0.11787137 </v>
    <v>       0.35744583       0.00319323       0.09830534 </v>
    <v>       0.00366326       0.35557983       0.09830482 </v>
    <v>       0.65138132       0.64948324       0.09830242 </v>
    <v>       0.32681062       0.32479356       0.10021386 </v>
    <v>       0.68213656       0.00336423       0.10020532 </v>
    <v>       0.00363324       0.68016673       0.10020120 </v>
    <v>      -0.00026051       0.50003375       0.33378090 </v>
    <v>       0.16644683       0.33257434       0.33386481 </v>
    <v>       0.00000093       0.00001030       0.33355176 </v>
    <v>       0.16615266       0.83356840       0.33387108 </v>
    <v>       0.49994798       0.49969402       0.33378713 </v>
    <v>       0.66667337       0.33332864       0.33360901 </v>
    <v>       0.50028883       0.00026299       0.33377973 </v>
    <v>       0.66744117       0.83387517       0.33386392 </v>
   </varray>
  </structure>
  <varray name="forces" >
   <v>       0.00345456      -0.00397324      -0.19733121 </v>
   <v>       0.02592175      -0.00216413       0.00276289 </v>
   <v>      -0.00830064       0.02955298       0.00282373 </v>
   <v>      -0.01835688      -0.02099371       0.00255948 </v>
   <v>      -0.03172833       0.11105581       0.05356242 </v>
   <v>      -0.07747151      -0.08213144       0.05420306 </v>
   <v>       0.10617750      -0.03210127       0.05405932 </v>
   <v>       0.13627671       0.06345085       0.00799491 </v>
   <v>      -0.24814516       0.24836030      -0.01372575 </v>
   <v>       0.00560060      -0.00080266       0.03566196 </v>
   <v>       0.33397394       0.08172305      -0.01436679 </v>
   <v>      -0.11730586       0.09603912       0.00731268 </v>
   <v>      -0.00500696       0.00029139       0.01022358 </v>
   <v>      -0.00961916      -0.14592041       0.00797680 </v>
   <v>      -0.09547055      -0.34238665      -0.01371709 </v>
  </varray>
  <varray name="stress" >
   <v>       3.56490516       0.01709567       0.01017810 </v>
   <v>       0.01709569       3.60782288       0.00803045 </v>
   <v>       0.01017810       0.00803045      -1.93913984 </v>
  </varray>
  <energy>
   <i name="e_fr_energy">   -127.11558597 </i>
   <i name="e_wo_entrp">   -127.11404092 </i>
   <i name="e_0_energy">   -127.11481345 </i>
  </energy>
  <time name="totalsc">   60.29   60.72</time>
 </calculation>
 <calculation>
  <scstep>
   <time name="dav">    5.51    5.55</time>
   <time name="total">    5.81    5.86</time>
   <energy>
    <i name="alphaZ">     58.50005645 </i>
    <i name="ewald">   4805.85284538 </i>
    <i name="hartreedc">  -6562.99372002 </i>
    <i name="XCdc">    180.77363214 </i>
    <i name="pawpsdc">   5803.29159370 </i>
    <i name="pawaedc">  -5807.72750255 </i>
    <i name="eentropy">     -0.00154537 </i>
    <i name="bandstr">   -506.47125799 </i>
    <i name="atom">   1903.26342058 </i>
    <i name="e_fr_energy">   -125.51247769 </i>
    <i name="e_wo_entrp">   -125.51093233 </i>
    <i name="e_0_energy">   -125.51170501 </i>
   </energy>
  </scstep>
  <scstep>
   <time name="dav">   10.21   10.27</time>
   <time name="total">   10.50   10.58</time>
   <energy>
    <i name="e_fr_energy">   -125.51247998 </i>
    <i name="e_wo_entrp">   -125.51093467 </i>
    <i name="e_0_energy">   -125.51170732 </i>
   </energy>
  </scstep>
  <scstep>
   <time name="dav">    8.09    8.15</time>
   <time name="total">    8.38    8.45</time>
   <energy>
    <i name="e_fr_energy">   -125.51247950 </i>
    <i name="e_wo_entrp">   -125.51093418 </i>
    <i name="e_0_energy">   -125.51170684 </i>
   </energy>
  </scstep>
  <scstep>
   <time name="dav">    9.82    9.88</time>
   <time name="total">    9.86    9.91</time>
   <energy>
    <i name="alphaZ">     58.50005645 </i>
    <i name="ewald">   4805.85284538 </i>
    <i name="hartreedc">  -6562.98109637 </i>
    <i name="XCdc">    180.77338215 </i>
    <i name="pawpsdc">   5804.19320413 </i>
    <i name="pawaedc">  -5808.62942097 </i>
    <i name="eentropy">     -0.00154529 </i>
    <i name="bandstr">   -506.48332578 </i>
    <i name="atom">   1903.26342058 </i>
    <i name="e_fr_energy">   -125.51247971 </i>
    <i name="e_wo_entrp">   -125.51093442 </i>
    <i name="e_0_energy">   -125.51170707 </i>
   </energy>
  </scstep>
  <structure>
   <crystal>
    <varray name="basis" >
     <v>       4.18983090       2.41900000       0.00000000 </v>
     <v>      -4.18983090       2.41900000       0.00000000 </v>
     <v>       0.00000000       0.00000000      15.00000000 </v>
    </varray>
    <i name="volume">    304.05602867 </i>
    <varray name="rec_basis" >
     <v>       0.11933656       0.20669698       0.00000000 </v>
     <v>      -0.11933656       0.20669698       0.00000000 </v>
     <v>       0.00000000       0.00000000       0.06666667 </v>
    </varray>
   </crystal>
   <varray name="positions" >
    <v>       0.00420100       0.00284945       0.11763834 </v>
    <v>       0.35755196       0.00321184       0.09837415 </v>
    <v>       0.00362864       0.35566320       0.09837329 </v>
    <v>       0.65130273       0.64937105       0.09837198 </v>
    <v>       0.32687373       0.32482285       0.10021287 </v>
    <v>       0.68210338       0.00339179       0.10020620 </v>
    <v>       0.00360504       0.68010768       0.10020255 </v>
    <v>      -0.00022813       0.50003136       0.33378657 </v>
    <v>       0.16646260       0.33264687       0.33387311 </v>
    <v>       0.00000222       0.00000983       0.33354313 </v>
    <v>       0.16620688       0.83355162       0.33387980 </v>
    <v>       0.49995383       0.49972993       0.33379319 </v>
    <v>       0.66667290       0.33332944       0.33360003 </v>
    <v>       0.50025617       0.00023182       0.33378529 </v>
    <v>       0.66736771       0.83381860       0.33387215 </v>
   </varray>
  </structure>
  <varray name="forces" >
   <v>       0.00394955      -0.00440881      -0.19433895 </v>
   <v>       0.01987058      -0.00744435      -0.00351258 </v>
   <v>      -0.00002465       0.02772643      -0.00339212 </v>
   <v>      -0.02074770      -0.01327637      -0.00383006 </v>
   <v>      -0.03487318       0.10328551       0.05901050 </v>
   <v>      -0.06925165      -0.08069301       0.05947115 </v>
   <v>       0.10077990      -0.02594542       0.05926869 </v>
   <v>       0.12134071       0.05640495       0.00757374 </v>
   <v>      -0.22491635       0.22836738      -0.01524921 </v>
   <v>       0.00481573      -0.00094638       0.03915804 </v>
   <v>       0.30571456       0.07289123      -0.01598581 </v>
   <v>      -0.10471607       0.08570093       0.00678854 </v>
   <v>      -0.00434458       0.00041891       0.01269887 </v>
   <v>      -0.00873529      -0.13020261       0.00756588 </v>
   <v>      -0.08886158      -0.31187840      -0.01522666 </v>
  </varray>
  <varray name="stress" >
   <v>       3.63147990       0.01406864       0.01079170 </v>
   <v>       0.01406864       3.66692233       0.00733103 </v>
   <v>       0.01079168       0.00733108      -1.92374833 </v>
  </varray>
  <energy>
   <i name="e_fr_energy">   -127.11672276 </i>
   <i name="e_wo_entrp">   -127.11517747 </i>
   <i name="e_0_energy">   -127.11595011 </i>
  </energy>
  <time name="totalsc">   39.26   39.54</time>
 </calculation>
 <calculation>
  <scstep>
   <time name="dav">    5.48    5.51</time>
   <time name="total">    5.77    5.82</time>
   <energy>
    <i name="alphaZ">     58.50005645 </i>
    <i name="ewald">   4805.85707095 </i>
    <i name="hartreedc">  -6562.86148217 </i>
    <i name="XCdc">    180.78195083 </i>
    <i name="pawpsdc">   5804.20787046 </i>
    <i name="pawaedc">  -5808.64409373 </i>
    <i name="eentropy">     -0.00154619 </i>
    <i name="bandstr">   -506.61867658 </i>
    <i name="atom">   1903.26342058 </i>
    <i name="e_fr_energy">   -125.51542941 </i>
    <i name="e_wo_entrp">   -125.51388322 </i>
    <i name="e_0_energy">   -125.51465632 </i>
   </energy>
  </scstep>
  <scstep>
   <time name="dav">    9.94   10.00</time>
   <time name="total">   10.23   10.30</time>
   <energy>
    <i name="e_fr_energy">   -125.51544843 </i>
    <i name="e_wo_entrp">   -125.51390241 </i>
    <i name="e_0_energy">   -125.51467542 </i>
   </energy>
  </scstep>
  <scstep>
   <time name="dav">    7.87    7.92</time>
   <time name="total">    8.16    8.22</time>
   <energy>
    <i name="e_fr_energy">   -125.51544270 </i>
    <i name="e_wo_entrp">   -125.51389664 </i>
    <i name="e_0_energy">   -125.51466967 </i>
   </energy>
  </scstep>
  <scstep>
   <time name="dav">   11.18   11.25</time>
   <time name="total">   11.47   11.55</time>
   <energy>
    <i name="e_fr_energy">   -125.51544285 </i>
    <i name="e_wo_entrp">   -125.51389686 </i>
    <i name="e_0_energy">   -125.51466985 </i>
   </energy>
  </scstep>
  <scstep>
   <time name="dav">    8.08    8.13</time>
   <time name="total">    8.11    8.16</time>
   <energy>
    <i name="alphaZ">     58.50005645 </i>
    <i name="ewald">   4805.85707095 </i>
    <i name="hartreedc">  -6562.84896172 </i>
    <i name="XCdc">    180.78143261 </i>
    <i name="pawpsdc">   5806.83230592 </i>
    <i name="pawaedc">  -5811.26945752 </i>
    <i name="eentropy">     -0.00154595 </i>
    <i name="bandstr">   -506.62976448 </i>
    <i name="atom">   1903.26342058 </i>
    <i name="e_fr_energy">   -125.51544316 </i>
    <i name="e_wo_entrp">   -125.51389721 </i>
    <i name="e_0_energy">   -125.51467018 </i>
   </energy>
  </scstep>
  <structure>
   <crystal>
    <varray name="basis" >
     <v>       4.18983090       2.41900000       0.00000000 </v>
     <v>      -4.18983090       2.41900000       0.00000000 </v>
     <v>       0.00000000       0.00000000      15.00000000 </v>
    </varray>
    <i name="volume">    304.05602867 </i>
    <varray name="rec_basis" >
     <v>       0.11933656       0.20669698       0.00000000 </v>
     <v>      -0.11933656       0.20669698       0.00000000 </v>
     <v>       0.00000000       0.00000000       0.06666667 </v>
    </varray>
   </crystal>
   <varray name="positions" >
    <v>       0.00420828       0.00288110       0.11693926 </v>
    <v>       0.35787037       0.00326769       0.09858060 </v>
    <v>       0.00352479       0.35591333       0.09857869 </v>
    <v>       0.65106698       0.64903449       0.09858066 </v>
    <v>       0.32706308       0.32491070       0.10020990 </v>
    <v>       0.68200384       0.00347445       0.10020886 </v>
    <v>       0.00352043       0.67993054       0.10020659 </v>
    <v>      -0.00013102       0.50002417       0.33380356 </v>
    <v>       0.16650991       0.33286447       0.33389803 </v>
    <v>       0.00000608       0.00000842       0.33351727 </v>
    <v>       0.16636951       0.83350126       0.33390595 </v>
    <v>       0.49997138       0.49983766       0.33381140 </v>
    <v>       0.66667152       0.33333183       0.33357308 </v>
    <v>       0.50015820       0.00013833       0.33380198 </v>
    <v>       0.66714732       0.83364890       0.33389684 </v>
   </varray>
  </structure>
  <varray name="forces" >
   <v>       0.00546237      -0.00574769      -0.18623938 </v>
   <v>       0.00076014      -0.02358903      -0.02210186 </v>
   <v>       0.02553914       0.02161145      -0.02181128 </v>
   <v>      -0.02773314       0.01080146      -0.02275921 </v>
   <v>      -0.04397836       0.07932117       0.07541031 </v>
   <v>      -0.04412302      -0.07575149       0.07535339 </v>
   <v>       0.08377153      -0.00737347       0.07499150 </v>
   <v>       0.07687907       0.03554155       0.00629633 </v>
   <v>      -0.15576460       0.16905124      -0.01986202 </v>
   <v>       0.00249183      -0.00139230       0.04976423 </v>
   <v>       0.22176449       0.04652341      -0.02088427 </v>
   <v>      -0.06733630       0.05486253       0.00520310 </v>
   <v>      -0.00237381       0.00080797       0.02012112 </v>
   <v>      -0.00601752      -0.08350501       0.00631627 </v>
   <v>      -0.06934181      -0.22116179      -0.01979822 </v>
  </varray>
  <varray name="stress" >
   <v>       3.83355517       0.00527636       0.01261952 </v>
   <v>       0.00527638       3.84758914       0.00526082 </v>
   <v>       0.01261955       0.00526080      -1.90244575 </v>
  </varray>
  <energy>
   <i name="e_fr_energy">   -127.11961614 </i>
   <i name="e_wo_entrp">   -127.11807018 </i>
   <i name="e_0_energy">   -127.11884316 </i>
  </energy>
  <time name="totalsc">   48.45   48.79</time>
 </calculation>
 <calculation>
  <scstep>
   <time name="dav">    5.46    5.50</time>
   <time name="total">    5.75    5.80</time>
   <energy>
    <i name="alphaZ">     58.50005645 </i>
    <i name="ewald">   4805.77562487 </i>
    <i name="hartreedc">  -6562.54273913 </i>
    <i name="XCdc">    180.79710532 </i>
    <i name="pawpsdc">   5806.80256189 </i>
    <i name="pawaedc">  -5811.23971291 </i>
    <i name="eentropy">     -0.00154763 </i>
    <i name="bandstr">   -506.87382579 </i>
    <i name="atom">   1903.26342058 </i>
    <i name="e_fr_energy">   -125.51905636 </i>
    <i name="e_wo_entrp">   -125.51750873 </i>
    <i name="e_0_energy">   -125.51828255 </i>
   </energy>
  </scstep>
  <scstep>
   <time name="dav">   10.44   10.50</time>
   <time name="total">   10.73   10.80</time>
   <energy>
    <i name="e_fr_energy">   -125.51913336 </i>
    <i name="e_wo_entrp">   -125.51758610 </i>
    <i name="e_0_energy">   -125.51835973 </i>
   </energy>
  </scstep>
  <scstep>
   <time name="dav">    8.46    8.51</time>
   <time name="total">    8.75    8.82</time>
   <energy>
    <i name="e_fr_energy">   -125.51910763 </i>
    <i name="e_wo_entrp">   -125.51756028 </i>
    <i name="e_0_energy">   -125.51833395 </i>
   </energy>
  </scstep>
  <scstep>
   <time name="dav">   10.84   10.90</time>
   <time name="total">   11.13   11.20</time>
   <energy>
    <i name="e_fr_energy">   -125.51910784 </i>
    <i name="e_wo_entrp">   -125.51756060 </i>
    <i name="e_0_energy">   -125.51833422 </i>
   </energy>
  </scstep>
  <scstep>
   <time name="dav">    9.40    9.46</time>
   <time name="total">    9.43    9.49</time>
   <energy>
    <i name="alphaZ">     58.50005645 </i>
    <i name="ewald">   4805.77562487 </i>
    <i name="hartreedc">  -6562.52940840 </i>
    <i name="XCdc">    180.79628179 </i>
    <i name="pawpsdc">   5811.63625734 </i>
    <i name="pawaedc">  -5816.07515090 </i>
    <i name="eentropy">     -0.00154717 </i>
    <i name="bandstr">   -506.88464327 </i>
    <i name="atom">   1903.26342058 </i>
    <i name="e_fr_energy">   -125.51910873 </i>
    <i name="e_wo_entrp">   -125.51756156 </i>
    <i name="e_0_energy">   -125.51833515 </i>
   </energy>
  </scstep>
  <structure>
   <crystal>
    <varray name="basis" >
     <v>       4.18983090       2.41900000       0.00000000 </v>
     <v>      -4.18983090       2.41900000       0.00000000 </v>
     <v>       0.00000000       0.00000000      15.00000000 </v>
    </varray>
    <i name="volume">    304.05602867 </i>
    <varray name="rec_basis" >
     <v>       0.11933656       0.20669698       0.00000000 </v>
     <v>      -0.11933656       0.20669698       0.00000000 </v>
     <v>       0.00000000       0.00000000       0.06666667 </v>
    </varray>
   </crystal>
   <varray name="positions" >
    <v>       0.00422282       0.00294440       0.11554108 </v>
    <v>       0.35850719       0.00337937       0.09899348 </v>
    <v>       0.00331709       0.35641358       0.09898950 </v>
    <v>       0.65059547       0.64836135       0.09899803 </v>
    <v>       0.32744177       0.32508641       0.10020397 </v>
    <v>       0.68180476       0.00363979       0.10021418 </v>
    <v>       0.00335122       0.67957625       0.10021467 </v>
    <v>       0.00006322       0.50000979       0.33383754 </v>
    <v>       0.16660453       0.33329966       0.33394785 </v>
    <v>       0.00001380       0.00000561       0.33346553 </v>
    <v>       0.16669477       0.83340054       0.33395826 </v>
    <v>       0.50000648       0.50005314       0.33384780 </v>
    <v>       0.66666874       0.33333662       0.33351920 </v>
    <v>       0.49996225      -0.00004867       0.33383536 </v>
    <v>       0.66670655       0.83330948       0.33394621 </v>
   </varray>
  </structure>
  <varray name="forces" >
   <v>       0.00853635      -0.00849955      -0.17459295 </v>
   <v>      -0.04092741      -0.05745817      -0.05767102 </v>
   <v>       0.07952076       0.00703562      -0.05703898 </v>
   <v>      -0.04119668       0.06268419      -0.05899677 </v>
   <v>      -0.06168340       0.02840477       0.10810983 </v>
   <v>       0.00864484      -0.06396816       0.10702094 </v>
   <v>       0.04680515       0.03111574       0.10635852 </v>
   <v>      -0.01283545      -0.00614053       0.00375103 </v>
   <v>      -0.01699353       0.05119057      -0.02913948 </v>
   <v>      -0.00208940      -0.00225595       0.07096730 </v>
   <v>       0.05427192      -0.00691548      -0.03072438 </v>
   <v>       0.00781565      -0.00754182       0.00205053 </v>
   <v>       0.00154456       0.00157869       0.03507251 </v>
   <v>      -0.00018818       0.01049429       0.00382909 </v>
   <v>      -0.03122517      -0.03972421      -0.02899616 </v>
  </varray>
  <varray name="stress" >
   <v>       4.23515163      -0.01214529       0.01578408 </v>
   <v>      -0.01214529       4.20540430       0.00181475 </v>
   <v>       0.01578406       0.00181472      -1.87893414 </v>
  </varray>
  <energy>
   <i name="e_fr_energy">   -127.12313127 </i>
   <i name="e_wo_entrp">   -127.12158410 </i>
   <i name="e_0_energy">   -127.12235769 </i>
  </energy>
  <time name="totalsc">   50.50   50.85</time>
 </calculation>
 <calculation>
  <scstep>
   <time name="dav">    5.48    5.52</time>
   <time name="total">    5.77    5.82</time>
   <energy>
    <i name="alphaZ">     58.50005645 </i>
    <i name="ewald">   4805.24907810 </i>
    <i name="hartreedc">  -6561.64126236 </i>
    <i name="XCdc">    180.82155743 </i>
    <i name="pawpsdc">   5811.58446622 </i>
    <i name="pawaedc">  -5816.02335947 </i>
    <i name="eentropy">     -0.00154998 </i>
    <i name="bandstr">   -507.26984164 </i>
    <i name="atom">   1903.26342058 </i>
    <i name="e_fr_energy">   -125.51743469 </i>
    <i name="e_wo_entrp">   -125.51588471 </i>
    <i name="e_0_energy">   -125.51665970 </i>
   </energy>
  </scstep>
  <scstep>
   <time name="dav">   11.24   11.30</time>
   <time name="total">   11.53   11.61</time>
   <energy>
    <i name="e_fr_energy">   -125.51777639 </i>
    <i name="e_wo_entrp">   -125.51622720 </i>
    <i name="e_0_energy">   -125.51700180 </i>
   </energy>
  </scstep>
  <scstep>
   <time name="dav">    9.14    9.20</time>
   <time name="total">    9.43    9.50</time>
   <energy>
    <i name="e_fr_energy">   -125.51766946 </i>
    <i name="e_wo_entrp">   -125.51612006 </i>
    <i name="e_0_energy">   -125.51689476 </i>
   </energy>
  </scstep>
  <scstep>
   <time name="dav">   11.05   11.11</time>
   <time name="total">   11.34   11.42</time>
   <energy>
    <i name="e_fr_energy">   -125.51767338 </i>
    <i name="e_wo_entrp">   -125.51612413 </i>
    <i name="e_0_energy">   -125.51689875 </i>
   </energy>
  </scstep>
  <scstep>
   <time name="dav">    9.40    9.46</time>
   <time name="total">    9.69    9.76</time>
   <energy>
    <i name="e_fr_energy">   -125.51767730 </i>
    <i name="e_wo_entrp">   -125.51612817 </i>
    <i name="e_0_energy">   -125.51690273 </i>
   </energy>
  </scstep>
  <scstep>
   <time name="dav">    9.88    9.94</time>
   <time name="total">    9.92    9.98</time>
   <energy>
    <i name="alphaZ">     58.50005645 </i>
    <i name="ewald">   4805.24907810 </i>
    <i name="hartreedc">  -6561.61379667 </i>
    <i name="XCdc">    180.82025057 </i>
    <i name="pawpsdc">   5819.43143285 </i>
    <i name="pawaedc">  -5823.87335509 </i>
    <i name="eentropy">     -0.00154913 </i>
    <i name="bandstr">   -507.29321456 </i>
    <i name="atom">   1903.26342058 </i>
    <i name="e_fr_energy">   -125.51767692 </i>
    <i name="e_wo_entrp">   -125.51612779 </i>
    <i name="e_0_energy">   -125.51690235 </i>
   </energy>
  </scstep>
  <structure>
   <crystal>
    <varray name="basis" >
     <v>       4.18983090       2.41900000       0.00000000 </v>
     <v>      -4.18983090       2.41900000       0.00000000 </v>
     <v>       0.00000000       0.00000000      15.00000000 </v>
    </varray>
    <i name="volume">    304.05602867 </i>
    <varray name="rec_basis" >
     <v>       0.11933656       0.20669698       0.00000000 </v>
     <v>      -0.11933656       0.20669698       0.00000000 </v>
     <v>       0.00000000       0.00000000       0.06666667 </v>
    </varray>
   </crystal>
   <varray name="positions" >
    <v>       0.00425192       0.00307099       0.11274473 </v>
    <v>       0.35978082       0.00360275       0.09981925 </v>
    <v>       0.00290169       0.35741409       0.09981112 </v>
    <v>       0.64965246       0.64701508       0.09983276 </v>
    <v>       0.32819916       0.32543783       0.10019209 </v>
    <v>       0.68140660       0.00397047       0.10022481 </v>
    <v>       0.00301279       0.67886766       0.10023084 </v>
    <v>       0.00045169       0.49998104       0.33390551 </v>
    <v>       0.16679377       0.33417005       0.33404750 </v>
    <v>       0.00002923      -0.00000003       0.33336206 </v>
    <v>       0.16734529       0.83319911       0.33406289 </v>
    <v>       0.50007669       0.50048408       0.33392062 </v>
    <v>       0.66666320       0.33334621       0.33341143 </v>
    <v>       0.49957036      -0.00042266       0.33390211 </v>
    <v>       0.66582500       0.83263065       0.33404495 </v>
   </varray>
  </structure>
  <varray name="forces" >
   <v>       0.01476731      -0.01419814      -0.16462264 </v>
   <v>      -0.13907398      -0.13152993      -0.12339871 </v>
   <v>       0.19946726      -0.03221255      -0.12208503 </v>
   <v>      -0.06574740       0.18206866      -0.12598880 </v>
   <v>      -0.09416052      -0.08623661       0.17263735 </v>
   <v>       0.12451791      -0.03156567       0.16955789 </v>
   <v>      -0.04004924       0.11304592       0.16837688 </v>
   <v>      -0.19503030      -0.08957918      -0.00141578 </v>
   <v>       0.26214922      -0.18205977      -0.04793684 </v>
   <v>      -0.01096215      -0.00389505       0.11333256 </v>
   <v>      -0.27949099      -0.11608967      -0.05061348 </v>
   <v>       0.15973084      -0.13476532      -0.00429181 </v>
[...]
   <v>      -0.01342182      -0.00418830       0.00505470 </v>
   <v>       0.01078056      -0.00893169       0.00522228 </v>
   <v>       0.00335279       0.01400375       0.00450550 </v>
   <v>      -0.00368675       0.00143721      -0.00666697 </v>
   <v>       0.00024702      -0.00488709      -0.00878264 </v>
   <v>       0.00308805       0.00109530      -0.00920499 </v>
   <v>      -0.00525538       0.02815595       0.01389074 </v>
   <v>       0.01170091       0.01364364      -0.00343330 </v>
   <v>       0.00177646       0.00126803       0.00537286 </v>
   <v>       0.00404434      -0.02145992      -0.00321156 </v>
   <v>      -0.01765338      -0.01808251       0.01416475 </v>
   <v>      -0.00179958      -0.00108675      -0.00956982 </v>
   <v>       0.02842430      -0.00524430       0.01396535 </v>
   <v>      -0.02104627       0.00327279      -0.00338619 </v>
  </varray>
  <varray name="stress" >
   <v>       6.22821157       0.01159708       0.00336695 </v>
   <v>       0.01159706       6.25078083       0.00980318 </v>
   <v>       0.00336695       0.00980320      -1.64415771 </v>
  </varray>
  <energy>
   <i name="e_fr_energy">   -127.13469616 </i>
   <i name="e_wo_entrp">   -127.13313985 </i>
   <i name="e_0_energy">   -127.13391800 </i>
  </energy>
  <time name="totalsc">   29.82   30.03</time>
 </calculation>
 <calculation>
  <scstep>
   <time name="dav">    5.47    5.51</time>
   <time name="total">    5.76    5.81</time>
   <energy>
    <i name="alphaZ">     58.50005645 </i>
    <i name="ewald">   4804.92126902 </i>
    <i name="hartreedc">  -6561.69151350 </i>
    <i name="XCdc">    180.87597056 </i>
    <i name="pawpsdc">   5838.26282252 </i>
    <i name="pawaedc">  -5842.71107813 </i>
    <i name="eentropy">     -0.00155645 </i>
    <i name="bandstr">   -506.95218834 </i>
    <i name="atom">   1903.26342058 </i>
    <i name="e_fr_energy">   -125.53279730 </i>
    <i name="e_wo_entrp">   -125.53124085 </i>
    <i name="e_0_energy">   -125.53201908 </i>
   </energy>
  </scstep>
  <scstep>
   <time name="dav">   11.14   11.20</time>
   <time name="total">   11.44   11.51</time>
   <energy>
    <i name="e_fr_energy">   -125.53279784 </i>
    <i name="e_wo_entrp">   -125.53124141 </i>
    <i name="e_0_energy">   -125.53201963 </i>
   </energy>
  </scstep>
  <scstep>
   <time name="dav">    6.03    6.07</time>
   <time name="total">    6.06    6.10</time>
   <energy>
    <i name="alphaZ">     58.50005645 </i>
    <i name="ewald">   4804.92126902 </i>
    <i name="hartreedc">  -6561.67962991 </i>
    <i name="XCdc">    180.87587133 </i>
    <i name="pawpsdc">   5838.30793691 </i>
    <i name="pawaedc">  -5842.75620173 </i>
    <i name="eentropy">     -0.00155643 </i>
    <i name="bandstr">   -506.96396413 </i>
    <i name="atom">   1903.26342058 </i>
    <i name="e_fr_energy">   -125.53279791 </i>
    <i name="e_wo_entrp">   -125.53124148 </i>
    <i name="e_0_energy">   -125.53201970 </i>
   </energy>
  </scstep>
  <structure>
   <crystal>
    <varray name="basis" >
     <v>       4.18983090       2.41900000       0.00000000 </v>
     <v>      -4.18983090       2.41900000       0.00000000 </v>
     <v>       0.00000000       0.00000000      15.00000000 </v>
    </varray>
    <i name="volume">    304.05602867 </i>
    <varray name="rec_basis" >
     <v>       0.11933656       0.20669698       0.00000000 </v>
     <v>      -0.11933656       0.20669698       0.00000000 </v>
     <v>       0.00000000       0.00000000       0.06666667 </v>
    </varray>
   </crystal>
   <varray name="positions" >
    <v>       0.00414195       0.00272041       0.10640773 </v>
    <v>       0.35925009       0.00303152       0.10059729 </v>
    <v>       0.00388775       0.35758014       0.10059720 </v>
    <v>       0.64932633       0.64767890       0.10059719 </v>
    <v>       0.32793246       0.32617019       0.10119971 </v>
    <v>       0.68076242       0.00313651       0.10121702 </v>
    <v>       0.00380366       0.67899879       0.10121694 </v>
    <v>       0.00003074       0.49997912       0.33394463 </v>
    <v>       0.16667697       0.33340013       0.33400789 </v>
    <v>       0.00001737       0.00001251       0.33394484 </v>
    <v>       0.16676878       0.83337021       0.33401162 </v>
    <v>       0.50005399       0.50006482       0.33394624 </v>
    <v>       0.66669685       0.33334950       0.33387387 </v>
    <v>       0.49996630      -0.00000141       0.33394275 </v>
    <v>       0.66664501       0.83327600       0.33400775 </v>
   </varray>
  </structure>
  <varray name="forces" >
   <v>      -0.00272015       0.00431603      -0.01906923 </v>
   <v>      -0.01188428      -0.00413017       0.00091569 </v>
   <v>       0.01184708      -0.00784203       0.00100565 </v>
   <v>       0.00239423       0.01234072       0.00054019 </v>
   <v>      -0.00687082      -0.00715485      -0.00221733 </v>
   <v>       0.00642244      -0.00397289      -0.00382792 </v>
   <v>       0.00060738       0.00598898      -0.00415543 </v>
   <v>      -0.00587050       0.00988535       0.00891240 </v>
   <v>       0.00504561       0.00661050       0.00149564 </v>
   <v>       0.00265774       0.00225209       0.00056324 </v>
   <v>       0.00079679      -0.01385980       0.00169850 </v>
   <v>       0.00079668      -0.00923694       0.00919913 </v>
   <v>      -0.00291013      -0.00207263      -0.00548793 </v>
   <v>       0.01391724       0.00640004       0.00892633 </v>
   <v>      -0.01422931       0.00047561       0.00150106 </v>
  </varray>
  <varray name="stress" >
   <v>       6.22597223       0.01731374       0.00237648 </v>
   <v>       0.01731373       6.26051981       0.01124408 </v>
   <v>       0.00237650       0.01124410      -1.64928934 </v>
  </varray>
  <energy>
   <i name="e_fr_energy">   -127.13475299 </i>
   <i name="e_wo_entrp">   -127.13319657 </i>
   <i name="e_0_energy">   -127.13397478 </i>
  </energy>
  <time name="totalsc">   27.96   28.16</time>
 </calculation>
 <calculation>
  <scstep>
   <time name="dav">    5.46    5.50</time>
   <time name="total">    5.75    5.80</time>
   <energy>
    <i name="alphaZ">     58.50005645 </i>
    <i name="ewald">   4804.24604516 </i>
    <i name="hartreedc">  -6561.00324465 </i>
    <i name="XCdc">    180.87588766 </i>
    <i name="pawpsdc">   5838.32511241 </i>
    <i name="pawaedc">  -5842.77338648 </i>
    <i name="eentropy">     -0.00155658 </i>
    <i name="bandstr">   -506.96526668 </i>
    <i name="atom">   1903.26342058 </i>
    <i name="e_fr_energy">   -125.53293214 </i>
    <i name="e_wo_entrp">   -125.53137555 </i>
    <i name="e_0_energy">   -125.53215384 </i>
   </energy>
  </scstep>
  <scstep>
   <time name="dav">    9.42    9.47</time>
   <time name="total">    9.71    9.77</time>
   <energy>
    <i name="e_fr_energy">   -125.53293319 </i>
    <i name="e_wo_entrp">   -125.53137662 </i>
    <i name="e_0_energy">   -125.53215490 </i>
   </energy>
  </scstep>
  <scstep>
   <time name="dav">    7.50    7.54</time>
   <time name="total">    7.53    7.57</time>
   <energy>
    <i name="alphaZ">     58.50005645 </i>
    <i name="ewald">   4804.24604516 </i>
    <i name="hartreedc">  -6560.98688379 </i>
    <i name="XCdc">    180.87575055 </i>
    <i name="pawpsdc">   5838.36694345 </i>
    <i name="pawaedc">  -5842.81522965 </i>
    <i name="eentropy">     -0.00155656 </i>
    <i name="bandstr">   -506.98147944 </i>
    <i name="atom">   1903.26342058 </i>
    <i name="e_fr_energy">   -125.53293325 </i>
    <i name="e_wo_entrp">   -125.53137669 </i>
    <i name="e_0_energy">   -125.53215497 </i>
   </energy>
  </scstep>
  <structure>
   <crystal>
    <varray name="basis" >
     <v>       4.18983090       2.41900000       0.00000000 </v>
     <v>      -4.18983090       2.41900000       0.00000000 </v>
     <v>       0.00000000       0.00000000      15.00000000 </v>
    </varray>
    <i name="volume">    304.05602867 </i>
    <varray name="rec_basis" >
     <v>       0.11933656       0.20669698       0.00000000 </v>
     <v>      -0.11933656       0.20669698       0.00000000 </v>
     <v>       0.00000000       0.00000000       0.06666667 </v>
    </varray>
   </crystal>
   <varray name="positions" >
    <v>       0.00412606       0.00268314       0.10628713 </v>
    <v>       0.35925015       0.00305695       0.10063187 </v>
    <v>       0.00386803       0.35756225       0.10063282 </v>
    <v>       0.64934273       0.64768532       0.10062937 </v>
    <v>       0.32800109       0.32620003       0.10118186 </v>
    <v>       0.68074588       0.00317895       0.10119150 </v>
    <v>       0.00376411       0.67894592       0.10118985 </v>
    <v>       0.00008494       0.50002862       0.33396888 </v>
    <v>       0.16670358       0.33340538       0.33400457 </v>
    <v>       0.00001485       0.00001186       0.33396703 </v>
    <v>       0.16675279       0.83334806       0.33400840 </v>
    <v>       0.50000209       0.50007199       0.33397061 </v>
    <v>       0.66670140       0.33335087       0.33387656 </v>
    <v>       0.49995705      -0.00005731       0.33396746 </v>
    <v>       0.66664592       0.83329530       0.33400476 </v>
   </varray>
  </structure>
  <varray name="forces" >
   <v>      -0.00556155       0.00864959      -0.02063816 </v>
   <v>      -0.00998175      -0.00413964      -0.00452747 </v>
   <v>       0.01337053      -0.00645270      -0.00453861 </v>
   <v>       0.00109935       0.01026762      -0.00465699 </v>
   <v>      -0.01108722      -0.01848789       0.00348518 </v>
   <v>       0.01462731      -0.00279511       0.00255081 </v>
   <v>      -0.00266745       0.01250261       0.00235823 </v>
   <v>      -0.00634881      -0.01315707       0.00249048 </v>
   <v>      -0.00378946      -0.00205634       0.00794206 </v>
   <v>       0.00379018       0.00352671      -0.00575342 </v>
   <v>      -0.00291473      -0.00410695       0.00812405 </v>
   <v>       0.02399338       0.00223016       0.00279402 </v>
   <v>      -0.00434006      -0.00331941       0.00003846 </v>
   <v>      -0.00448354       0.02088904       0.00243427 </v>
   <v>      -0.00570618      -0.00355062       0.00789709 </v>
  </varray>
  <varray name="stress" >
   <v>       6.22455188       0.02383658       0.00119630 </v>
   <v>       0.02383660       6.27149710       0.01305540 </v>
   <v>       0.00119628       0.01305541      -1.65614176 </v>
  </varray>
  <energy>
   <i name="e_fr_energy">   -127.13478113 </i>
   <i name="e_wo_entrp">   -127.13322457 </i>
   <i name="e_0_energy">   -127.13400285 </i>
  </energy>
  <time name="totalsc">   27.70   27.89</time>
 </calculation>
 <calculation>
  <scstep>
   <time name="dav">    5.56    5.60</time>
   <time name="total">    5.85    5.90</time>
   <energy>
    <i name="alphaZ">     58.50005645 </i>
    <i name="ewald">   4803.67656589 </i>
    <i name="hartreedc">  -6560.40098668 </i>
    <i name="XCdc">    180.87658742 </i>
    <i name="pawpsdc">   5838.38914674 </i>
    <i name="pawaedc">  -5842.83744586 </i>
    <i name="eentropy">     -0.00155662 </i>
    <i name="bandstr">   -506.99887613 </i>
    <i name="atom">   1903.26342058 </i>
    <i name="e_fr_energy">   -125.53308821 </i>
    <i name="e_wo_entrp">   -125.53153159 </i>
    <i name="e_0_energy">   -125.53230990 </i>
   </energy>
  </scstep>
  <scstep>
   <time name="dav">    8.03    8.07</time>
   <time name="total">    8.32    8.37</time>
   <energy>
    <i name="e_fr_energy">   -125.53308829 </i>
    <i name="e_wo_entrp">   -125.53153167 </i>
    <i name="e_0_energy">   -125.53230998 </i>
   </energy>
  </scstep>
  <scstep>
   <time name="dav">    7.52    7.56</time>
   <time name="total">    7.55    7.60</time>
   <energy>
    <i name="alphaZ">     58.50005645 </i>
    <i name="ewald">   4803.67656589 </i>
    <i name="hartreedc">  -6560.40110630 </i>
    <i name="XCdc">    180.87662409 </i>
    <i name="pawpsdc">   5838.74626311 </i>
    <i name="pawaedc">  -5843.19464839 </i>
    <i name="eentropy">     -0.00155663 </i>
    <i name="bandstr">   -506.99870701 </i>
    <i name="atom">   1903.26342058 </i>
    <i name="e_fr_energy">   -125.53308821 </i>
    <i name="e_wo_entrp">   -125.53153158 </i>
    <i name="e_0_energy">   -125.53230990 </i>
   </energy>
  </scstep>
  <structure>
   <crystal>
    <varray name="basis" >
     <v>       4.18983090       2.41900000       0.00000000 </v>
     <v>      -4.18983090       2.41900000       0.00000000 </v>
     <v>       0.00000000       0.00000000      15.00000000 </v>
    </varray>
    <i name="volume">    304.05602867 </i>
    <varray name="rec_basis" >
     <v>       0.11933656       0.20669698       0.00000000 </v>
     <v>      -0.11933656       0.20669698       0.00000000 </v>
     <v>       0.00000000       0.00000000       0.06666667 </v>
    </varray>
   </crystal>
   <varray name="positions" >
    <v>       0.00413417       0.00269915       0.10618745 </v>
    <v>       0.35921688       0.00307871       0.10064913 </v>
    <v>       0.00385964       0.35750312       0.10065073 </v>
    <v>       0.64938990       0.64772183       0.10064494 </v>
    <v>       0.32796138       0.32617850       0.10117419 </v>
    <v>       0.68075428       0.00316834       0.10117791 </v>
    <v>       0.00377563       0.67895926       0.10117505 </v>
    <v>       0.00006310       0.50002843       0.33398713 </v>
    <v>       0.16670636       0.33340918       0.33401106 </v>
    <v>       0.00003246       0.00001595       0.33397502 </v>
    <v>       0.16672307       0.83332571       0.33401515 </v>
    <v>       0.50002291       0.50003749       0.33398926 </v>
    <v>       0.66668473       0.33334902       0.33387832 </v>
    <v>       0.50001268      -0.00001418       0.33398593 </v>
    <v>       0.66662348       0.83330681       0.33401140 </v>
   </varray>
  </structure>
  <varray name="forces" >
   <v>      -0.00365355       0.00528906      -0.02013581 </v>
   <v>      -0.00084580      -0.00152948      -0.00683454 </v>
   <v>       0.00284878      -0.00056388      -0.00693926 </v>
   <v>       0.00075213       0.00117353      -0.00672726 </v>
   <v>      -0.00887894      -0.00660271       0.00511530 </v>
   <v>       0.00788190      -0.00632691       0.00475461 </v>
   <v>       0.00170412       0.00802883       0.00472133 </v>
   <v>       0.00147638      -0.00892800      -0.00056815 </v>
   <v>      -0.00294144      -0.00152367       0.01007418 </v>
   <v>      -0.00287734      -0.00229646      -0.00656716 </v>
   <v>       0.00264891       0.00994785       0.01022576 </v>
   <v>       0.00029811       0.00497009      -0.00033757 </v>
   <v>       0.00321486       0.00241548       0.00381156 </v>
   <v>      -0.01102351      -0.00314992      -0.00062065 </v>
   <v>       0.00939539      -0.00090381       0.01002768 </v>
  </varray>
  <varray name="stress" >
   <v>       6.27932533      -0.00242770       0.00198103 </v>
   <v>      -0.00242772       6.26581362       0.01160726 </v>
   <v>       0.00198103       0.01160725      -1.65980274 </v>
  </varray>
  <energy>
   <i name="e_fr_energy">   -127.13482295 </i>
   <i name="e_wo_entrp">   -127.13326632 </i>
   <i name="e_0_energy">   -127.13404464 </i>
  </energy>
  <time name="totalsc">   26.39   26.59</time>
 </calculation>
 <calculation>
  <scstep>
   <time name="dav">    5.48    5.51</time>
   <time name="total">    5.77    5.82</time>
   <energy>
    <i name="alphaZ">     58.50005645 </i>
    <i name="ewald">   4803.26906074 </i>
    <i name="hartreedc">  -6559.98301078 </i>
    <i name="XCdc">    180.87720130 </i>
    <i name="pawpsdc">   5838.78840078 </i>
    <i name="pawaedc">  -5843.23680237 </i>
    <i name="eentropy">     -0.00155644 </i>
    <i name="bandstr">   -507.00994890 </i>
    <i name="atom">   1903.26342058 </i>
    <i name="e_fr_energy">   -125.53317864 </i>
    <i name="e_wo_entrp">   -125.53162220 </i>
    <i name="e_0_energy">   -125.53240042 </i>
   </energy>
  </scstep>
  <scstep>
   <time name="dav">    7.62    7.66</time>
   <time name="total">    7.91    7.97</time>
   <energy>
    <i name="e_fr_energy">   -125.53317875 </i>
    <i name="e_wo_entrp">   -125.53162230 </i>
    <i name="e_0_energy">   -125.53240052 </i>
   </energy>
  </scstep>
  <scstep>
   <time name="dav">    7.30    7.34</time>
   <time name="total">    7.33    7.38</time>
   <energy>
    <i name="alphaZ">     58.50005645 </i>
    <i name="ewald">   4803.26906074 </i>
    <i name="hartreedc">  -6559.98496118 </i>
    <i name="XCdc">    180.87723271 </i>
    <i name="pawpsdc">   5839.02914804 </i>
    <i name="pawaedc">  -5843.47761349 </i>
    <i name="eentropy">     -0.00155646 </i>
    <i name="bandstr">   -507.00796613 </i>
    <i name="atom">   1903.26342058 </i>
    <i name="e_fr_energy">   -125.53317875 </i>
    <i name="e_wo_entrp">   -125.53162229 </i>
    <i name="e_0_energy">   -125.53240052 </i>
   </energy>
  </scstep>
  <structure>
   <crystal>
    <varray name="basis" >
     <v>       4.18983090       2.41900000       0.00000000 </v>
     <v>      -4.18983090       2.41900000       0.00000000 </v>
     <v>       0.00000000       0.00000000      15.00000000 </v>
    </varray>
    <i name="volume">    304.05602867 </i>
    <varray name="rec_basis" >
     <v>       0.11933656       0.20669698       0.00000000 </v>
     <v>      -0.11933656       0.20669698       0.00000000 </v>
     <v>       0.00000000       0.00000000       0.06666667 </v>
    </varray>
   </crystal>
   <varray name="positions" >
    <v>       0.00413996       0.00271059       0.10611617 </v>
    <v>       0.35919309       0.00309427       0.10066147 </v>
    <v>       0.00385365       0.35746084       0.10066353 </v>
    <v>       0.64942364       0.64774794       0.10065608 </v>
    <v>       0.32793298       0.32616311       0.10116871 </v>
    <v>       0.68076029       0.00316075       0.10116820 </v>
    <v>       0.00378386       0.67896880       0.10116446 </v>
    <v>       0.00004748       0.50002830       0.33400018 </v>
    <v>       0.16670835       0.33341190       0.33401570 </v>
    <v>       0.00004505       0.00001887       0.33398073 </v>
    <v>       0.16670182       0.83330973       0.33401997 </v>
    <v>       0.50003780       0.50001282       0.33400260 </v>
    <v>       0.66667281       0.33334769       0.33387958 </v>
    <v>       0.50005245       0.00001666       0.33399915 </v>
    <v>       0.66660743       0.83331504       0.33401616 </v>
   </varray>
  </structure>
  <varray name="forces" >
   <v>      -0.00229665       0.00294726      -0.01978139 </v>
   <v>       0.00552118       0.00020144      -0.00846923 </v>
   <v>      -0.00430317       0.00362124      -0.00865362 </v>
   <v>       0.00035448      -0.00521654      -0.00820017 </v>
   <v>      -0.00757285       0.00129059       0.00631624 </v>
   <v>       0.00350379      -0.00863939       0.00634828 </v>
   <v>       0.00461056       0.00528190       0.00639013 </v>
   <v>       0.00666434      -0.00675105      -0.00275302 </v>
   <v>      -0.00221448      -0.00143955       0.01163712 </v>
   <v>      -0.00766600      -0.00647371      -0.00719322 </v>
   <v>       0.00631350       0.02005563       0.01173316 </v>
   <v>      -0.01572169       0.00696218      -0.00257513 </v>
   <v>       0.00855769       0.00647665       0.00645974 </v>
   <v>      -0.01620944      -0.01955812      -0.00282568 </v>
   <v>       0.02045873       0.00124148       0.01156678 </v>
  </varray>
  <varray name="stress" >
   <v>       6.32542326      -0.02432740       0.00241067 </v>
   <v>      -0.02432741       6.25982823       0.01058924 </v>
   <v>       0.00241066       0.01058921      -1.66292150 </v>
  </varray>
  <energy>
   <i name="e_fr_energy">   -127.13483254 </i>
   <i name="e_wo_entrp">   -127.13327608 </i>
   <i name="e_0_energy">   -127.13405431 </i>
  </energy>
  <time name="totalsc">   25.71   25.89</time>
 </calculation>
 <calculation>
  <scstep>
