  16  16   0  16
  0.2010308E+02  0.4976000E-09  0.4976000E-09  0.1500000E-08  0.5000000E-15
  1.000000000000000E-004
  CAR 
 Lattice                                 
      9.52483487    -21.07607045  301     -0.21428989      1.00000000
    -21.076  0.0000E+00  0.0000E+00  0.0000E+00  0.0000E+00
    -20.974  0.0000E+00  0.0000E+00  0.0000E+00  0.0000E+00
    -20.872  0.0000E+00  0.0000E+00  0.0000E+00  0.0000E+00
    -20.770  0.0000E+00  0.0000E+00  0.0000E+00  0.0000E+00
    -20.668  0.0000E+00  0.0000E+00  0.0000E+00  0.0000E+00
    -20.566  0.0000E+00  0.0000E+00  0.0000E+00  0.0000E+00
    -20.464  0.0000E+00  0.0000E+00  0.0000E+00  0.0000E+00
    -20.362  0.0000E+00  0.0000E+00  0.0000E+00  0.0000E+00
    -20.260  0.1181E-18  0.1181E-18  0.1205E-19  0.1205E-19
    -20.158  0.6630E-14  0.6630E-14  0.6763E-15  0.6763E-15
    -20.056  0.5098E-10  0.5098E-10  0.5200E-11  0.5201E-11
    -19.954  0.5742E-07  0.5743E-07  0.5863E-08  0.5863E-08
    -19.852  0.1025E-04  0.1025E-04  0.1051E-05  0.1051E-05
    -19.750  0.3183E-03  0.3183E-03  0.3352E-04  0.3352E-04
    -19.648  0.2080E-02  0.2080E-02  0.2457E-03  0.2457E-03
    -19.546  0.4291E-02  0.4291E-02  0.6834E-03  0.6834E-03
    -19.444  0.4753E-02  0.4753E-02  0.1168E-02  0.1168E-02
    -19.342  0.5112E-02  0.5112E-02  0.1690E-02  0.1690E-02
    -19.240  0.4434E-02  0.4434E-02  0.2142E-02  0.2142E-02
    -19.138  0.5545E-02  0.5545E-02  0.2708E-02  0.2708E-02
    -19.036  0.4452E-02  0.4452E-02  0.3162E-02  0.3162E-02
    -18.934  0.4522E-02  0.4522E-02  0.3623E-02  0.3623E-02
    -18.832  0.6164E-02  0.6164E-02  0.4252E-02  0.4252E-02
    -18.730  0.4051E-02  0.4051E-02  0.4665E-02  0.4665E-02
    -18.628  0.4146E-02  0.4146E-02  0.5088E-02  0.5088E-02
    -18.526  0.6317E-02  0.6317E-02  0.5732E-02  0.5732E-02
    -18.424  0.5404E-02  0.5404E-02  0.6283E-02  0.6283E-02
    -18.322  0.3180E-02  0.3180E-02  0.6608E-02  0.6608E-02
    -18.220  0.4682E-02  0.4682E-02  0.7085E-02  0.7085E-02
    -18.118  0.7085E-02  0.7085E-02  0.7808E-02  0.7808E-02
    -18.016  0.4826E-02  0.4826E-02  0.8300E-02  0.8300E-02
    -17.914  0.3912E-02  0.3912E-02  0.8699E-02  0.8699E-02
    -17.812  0.3318E-02  0.3318E-02  0.9038E-02  0.9038E-02
    -17.710  0.6909E-02  0.6909E-02  0.9743E-02  0.9743E-02
    -17.608  0.6789E-02  0.6789E-02  0.1044E-01  0.1044E-01
    -17.506  0.3711E-02  0.3711E-02  0.1081E-01  0.1081E-01
    -17.404  0.3512E-02  0.3512E-02  0.1117E-01  0.1117E-01
    -17.302  0.4382E-02  0.4382E-02  0.1162E-01  0.1162E-01
    -17.200  0.6591E-02  0.6591E-02  0.1229E-01  0.1229E-01
    -17.098  0.6932E-02  0.6932E-02  0.1300E-01  0.1300E-01
    -16.996  0.4875E-02  0.4875E-02  0.1350E-01  0.1350E-01
    -16.894  0.2563E-02  0.2563E-02  0.1376E-01  0.1376E-01
    -16.792  0.3704E-02  0.3704E-02  0.1413E-01  0.1413E-01
    -16.690  0.6962E-02  0.6962E-02  0.1485E-01  0.1485E-01
    -16.588  0.6749E-02  0.6749E-02  0.1553E-01  0.1553E-01
    -16.486  0.5624E-02  0.5624E-02  0.1611E-01  0.1611E-01
    -16.384  0.4644E-02  0.4644E-02  0.1658E-01  0.1658E-01
    -16.282  0.3343E-02  0.3343E-02  0.1692E-01  0.1692E-01
    -16.180  0.2615E-02  0.2615E-02  0.1719E-01  0.1719E-01
    -16.078  0.8856E-02  0.8856E-02  0.1809E-01  0.1809E-01
    -15.976  0.1159E-01  0.1159E-01  0.1927E-01  0.1927E-01
    -15.874  0.1065E-01  0.1065E-01  0.2036E-01  0.2036E-01
    -15.772  0.1064E-01  0.1064E-01  0.2145E-01  0.2145E-01
    -15.670  0.1061E-01  0.1061E-01  0.2253E-01  0.2253E-01
    -15.568  0.1041E-01  0.1041E-01  0.2359E-01  0.2359E-01
    -15.466  0.1150E-01  0.1150E-01  0.2476E-01  0.2476E-01
    -15.364  0.1708E-01  0.1708E-01  0.2651E-01  0.2651E-01
    -15.262  0.1550E-01  0.1550E-01  0.2809E-01  0.2809E-01
    -15.160  0.1452E-01  0.1452E-01  0.2957E-01  0.2957E-01
    -15.058  0.1071E-01  0.1071E-01  0.3066E-01  0.3066E-01
    -14.956  0.8743E-02  0.8743E-02  0.3155E-01  0.3155E-01
    -14.854  0.6593E-02  0.6593E-02  0.3222E-01  0.3222E-01
    -14.752  0.8512E-02  0.8512E-02  0.3309E-01  0.3309E-01
    -14.650  0.1135E-01  0.1135E-01  0.3425E-01  0.3425E-01
    -14.548  0.1120E-01  0.1120E-01  0.3539E-01  0.3539E-01
    -14.446  0.1288E-01  0.1288E-01  0.3671E-01  0.3671E-01
    -14.344  0.1097E-01  0.1097E-01  0.3783E-01  0.3783E-01
    -14.242  0.9248E-02  0.9248E-02  0.3877E-01  0.3877E-01
    -14.140  0.9312E-02  0.9312E-02  0.3972E-01  0.3972E-01
    -14.038  0.1383E-01  0.1383E-01  0.4113E-01  0.4113E-01
    -13.936  0.9906E-02  0.9906E-02  0.4214E-01  0.4214E-01
    -13.834  0.4559E-02  0.4559E-02  0.4261E-01  0.4261E-01
    -13.732  0.2532E-02  0.2532E-02  0.4286E-01  0.4286E-01
    -13.630  0.4903E-02  0.4903E-02  0.4336E-01  0.4336E-01
    -13.528  0.6531E-02  0.6531E-02  0.4403E-01  0.4403E-01
    -13.426  0.6502E-02  0.6502E-02  0.4469E-01  0.4469E-01
    -13.324  0.7106E-02  0.7106E-02  0.4542E-01  0.4542E-01
    -13.222  0.7127E-02  0.7127E-02  0.4615E-01  0.4615E-01
    -13.120  0.7332E-02  0.7332E-02  0.4689E-01  0.4689E-01
    -13.018  0.6845E-02  0.6845E-02  0.4759E-01  0.4759E-01
    -12.916  0.5630E-02  0.5630E-02  0.4817E-01  0.4817E-01
    -12.814  0.8229E-02  0.8229E-02  0.4901E-01  0.4901E-01
    -12.712  0.1170E-01  0.1170E-01  0.5020E-01  0.5020E-01
    -12.610  0.1210E-01  0.1210E-01  0.5143E-01  0.5143E-01
    -12.508  0.1345E-01  0.1345E-01  0.5281E-01  0.5281E-01
    -12.406  0.1527E-01  0.1527E-01  0.5436E-01  0.5436E-01
    -12.304  0.1297E-01  0.1297E-01  0.5569E-01  0.5569E-01
    -12.202  0.1640E-01  0.1640E-01  0.5736E-01  0.5736E-01
    -12.100  0.1508E-01  0.1508E-01  0.5890E-01  0.5890E-01
    -11.998  0.1611E-01  0.1611E-01  0.6054E-01  0.6054E-01
    -11.896  0.1818E-01  0.1818E-01  0.6240E-01  0.6240E-01
    -11.794  0.1138E-01  0.1138E-01  0.6356E-01  0.6356E-01
    -11.692  0.7179E-02  0.7179E-02  0.6429E-01  0.6429E-01
    -11.590  0.5185E-02  0.5185E-02  0.6482E-01  0.6482E-01
    -11.488  0.6318E-02  0.6318E-02  0.6546E-01  0.6546E-01
    -11.386  0.6521E-02  0.6521E-02  0.6613E-01  0.6613E-01
    -11.284  0.5296E-02  0.5296E-02  0.6667E-01  0.6667E-01
    -11.182  0.4529E-02  0.4529E-02  0.6713E-01  0.6713E-01
    -11.080  0.4332E-02  0.4332E-02  0.6757E-01  0.6757E-01
    -10.978  0.4912E-02  0.4912E-02  0.6807E-01  0.6807E-01
    -10.876  0.9496E-02  0.9496E-02  0.6904E-01  0.6904E-01
    -10.774  0.1220E-01  0.1220E-01  0.7028E-01  0.7028E-01
    -10.672  0.1192E-01  0.1192E-01  0.7150E-01  0.7150E-01
    -10.570  0.1427E-01  0.1427E-01  0.7296E-01  0.7296E-01
    -10.468  0.1589E-01  0.1589E-01  0.7458E-01  0.7458E-01
    -10.366  0.1075E-01  0.1075E-01  0.7567E-01  0.7567E-01
    -10.264  0.9885E-02  0.9885E-02  0.7668E-01  0.7668E-01
    -10.162  0.9890E-02  0.9890E-02  0.7769E-01  0.7769E-01
    -10.060  0.1018E-01  0.1018E-01  0.7873E-01  0.7873E-01
     -9.958  0.7647E-02  0.7648E-02  0.7951E-01  0.7951E-01
     -9.856  0.1102E-01  0.1102E-01  0.8063E-01  0.8063E-01
     -9.754  0.9885E-02  0.9885E-02  0.8164E-01  0.8164E-01
     -9.652  0.1301E-01  0.1301E-01  0.8297E-01  0.8297E-01
     -9.550  0.1826E-01  0.1826E-01  0.8483E-01  0.8483E-01
     -9.448  0.1131E-01  0.1131E-01  0.8598E-01  0.8598E-01
     -9.346  0.1560E-01  0.1560E-01  0.8758E-01  0.8758E-01
     -9.244  0.1940E-01  0.1940E-01  0.8955E-01  0.8955E-01
     -9.142  0.1425E-01  0.1425E-01  0.9101E-01  0.9101E-01
     -9.040  0.8375E-02  0.8375E-02  0.9186E-01  0.9186E-01
     -8.938  0.1521E-01  0.1521E-01  0.9341E-01  0.9341E-01
     -8.836  0.2460E-01  0.2460E-01  0.9592E-01  0.9592E-01
     -8.734  0.1211E-01  0.1211E-01  0.9716E-01  0.9716E-01
     -8.632  0.5128E-02  0.5128E-02  0.9768E-01  0.9768E-01
     -8.530  0.1388E-01  0.1388E-01  0.9910E-01  0.9910E-01
     -8.428  0.1833E-01  0.1833E-01  0.1010E+00  0.1010E+00
     -8.326  0.1425E-01  0.1425E-01  0.1024E+00  0.1024E+00
     -8.224  0.1473E-01  0.1473E-01  0.1039E+00  0.1039E+00
     -8.122  0.1352E-01  0.1352E-01  0.1053E+00  0.1053E+00
     -8.020  0.1148E-01  0.1148E-01  0.1065E+00  0.1065E+00
     -7.918  0.1352E-01  0.1352E-01  0.1079E+00  0.1079E+00
     -7.816  0.1872E-01  0.1872E-01  0.1098E+00  0.1098E+00
     -7.714  0.2393E-01  0.2393E-01  0.1122E+00  0.1122E+00
     -7.612  0.1773E-01  0.1773E-01  0.1140E+00  0.1140E+00
     -7.510  0.1243E-01  0.1243E-01  0.1153E+00  0.1153E+00
     -7.408  0.1304E-01  0.1304E-01  0.1166E+00  0.1166E+00
     -7.306  0.1698E-01  0.1698E-01  0.1183E+00  0.1183E+00
     -7.204  0.1968E-01  0.1968E-01  0.1203E+00  0.1203E+00
     -7.102  0.1704E-01  0.1704E-01  0.1221E+00  0.1221E+00
     -7.000  0.1887E-01  0.1887E-01  0.1240E+00  0.1240E+00
     -6.898  0.1803E-01  0.1803E-01  0.1259E+00  0.1259E+00
     -6.796  0.2106E-01  0.2106E-01  0.1280E+00  0.1280E+00
     -6.694  0.2814E-01  0.2814E-01  0.1309E+00  0.1309E+00
     -6.592  0.3543E-01  0.3543E-01  0.1345E+00  0.1345E+00
     -6.490  0.3529E-01  0.3529E-01  0.1381E+00  0.1381E+00
     -6.388  0.1982E-01  0.1982E-01  0.1401E+00  0.1401E+00
     -6.286  0.1641E-01  0.1641E-01  0.1418E+00  0.1418E+00
     -6.184  0.1833E-01  0.1833E-01  0.1436E+00  0.1436E+00
     -6.082  0.1778E-01  0.1778E-01  0.1455E+00  0.1455E+00
     -5.980  0.1717E-01  0.1717E-01  0.1472E+00  0.1472E+00
     -5.878  0.1344E-01  0.1344E-01  0.1486E+00  0.1486E+00
     -5.776  0.1744E-01  0.1744E-01  0.1504E+00  0.1504E+00
     -5.674  0.2038E-01  0.2038E-01  0.1524E+00  0.1524E+00
     -5.572  0.1260E-01  0.1260E-01  0.1537E+00  0.1537E+00
     -5.470  0.7915E-02  0.7915E-02  0.1545E+00  0.1545E+00
     -5.368  0.1362E-01  0.1362E-01  0.1559E+00  0.1559E+00
     -5.266  0.2140E-01  0.2140E-01  0.1581E+00  0.1581E+00
     -5.164  0.1657E-01  0.1657E-01  0.1598E+00  0.1598E+00
     -5.062  0.1137E-01  0.1137E-01  0.1610E+00  0.1610E+00
     -4.960  0.1428E-01  0.1428E-01  0.1624E+00  0.1624E+00
     -4.858  0.2032E-01  0.2032E-01  0.1645E+00  0.1645E+00
     -4.756  0.1299E-01  0.1299E-01  0.1658E+00  0.1658E+00
     -4.654  0.7638E-02  0.7638E-02  0.1666E+00  0.1666E+00
     -4.552  0.1534E-01  0.1534E-01  0.1682E+00  0.1682E+00
     -4.450  0.2010E-01  0.2010E-01  0.1702E+00  0.1702E+00
     -4.348  0.2235E-01  0.2235E-01  0.1725E+00  0.1725E+00
     -4.246  0.2233E-01  0.2233E-01  0.1748E+00  0.1748E+00
     -4.144  0.1809E-01  0.1809E-01  0.1766E+00  0.1766E+00
     -4.042  0.1983E-01  0.1983E-01  0.1786E+00  0.1786E+00
     -3.940  0.2472E-01  0.2472E-01  0.1812E+00  0.1812E+00
     -3.838  0.2852E-01  0.2852E-01  0.1841E+00  0.1841E+00
     -3.736  0.2679E-01  0.2679E-01  0.1868E+00  0.1868E+00
     -3.634  0.2175E-01  0.2176E-01  0.1890E+00  0.1890E+00
     -3.532  0.1986E-01  0.1986E-01  0.1910E+00  0.1910E+00
     -3.430  0.1695E-01  0.1695E-01  0.1928E+00  0.1928E+00
     -3.328  0.1269E-01  0.1269E-01  0.1941E+00  0.1941E+00
     -3.226  0.7863E-02  0.7863E-02  0.1949E+00  0.1949E+00
     -3.124  0.8294E-02  0.8294E-02  0.1957E+00  0.1957E+00
     -3.022  0.1521E-01  0.1521E-01  0.1973E+00  0.1973E+00
     -2.920  0.1613E-01  0.1613E-01  0.1989E+00  0.1989E+00
     -2.818  0.1179E-01  0.1179E-01  0.2001E+00  0.2001E+00
     -2.716  0.1144E-01  0.1144E-01  0.2013E+00  0.2013E+00
     -2.614  0.1130E-01  0.1130E-01  0.2024E+00  0.2024E+00
     -2.512  0.1145E-01  0.1145E-01  0.2036E+00  0.2036E+00
     -2.410  0.1622E-01  0.1622E-01  0.2053E+00  0.2053E+00
     -2.308  0.1287E-01  0.1287E-01  0.2066E+00  0.2066E+00
     -2.206  0.9544E-02  0.9544E-02  0.2075E+00  0.2075E+00
     -2.104  0.9874E-02  0.9874E-02  0.2085E+00  0.2085E+00
     -2.002  0.7836E-02  0.7836E-02  0.2093E+00  0.2093E+00
     -1.900  0.5284E-02  0.5284E-02  0.2099E+00  0.2099E+00
     -1.798  0.6007E-02  0.6007E-02  0.2105E+00  0.2105E+00
     -1.695  0.9602E-02  0.9602E-02  0.2115E+00  0.2115E+00
     -1.593  0.9862E-02  0.9862E-02  0.2125E+00  0.2125E+00
     -1.491  0.9141E-02  0.9141E-02  0.2134E+00  0.2134E+00
     -1.389  0.6394E-02  0.6394E-02  0.2141E+00  0.2141E+00
     -1.287  0.5224E-02  0.5224E-02  0.2146E+00  0.2146E+00
     -1.185  0.4802E-02  0.4802E-02  0.2151E+00  0.2151E+00
     -1.083  0.5829E-02  0.5829E-02  0.2157E+00  0.2157E+00
     -0.981  0.8162E-02  0.8162E-02  0.2165E+00  0.2165E+00
     -0.879  0.5888E-02  0.5888E-02  0.2171E+00  0.2171E+00
     -0.777  0.2971E-02  0.2971E-02  0.2174E+00  0.2174E+00
     -0.675  0.1280E-02  0.1280E-02  0.2176E+00  0.2176E+00
     -0.573  0.1306E-02  0.1306E-02  0.2177E+00  0.2177E+00
     -0.471  0.3519E-02  0.3519E-02  0.2180E+00  0.2180E+00
     -0.369  0.3135E-02  0.3135E-02  0.2184E+00  0.2184E+00
     -0.267  0.2036E-02  0.2036E-02  0.2186E+00  0.2186E+00
     -0.165  0.3972E-02  0.3972E-02  0.2190E+00  0.2190E+00
     -0.063  0.4869E-02  0.4869E-02  0.2195E+00  0.2195E+00
      0.039  0.3445E-02  0.3445E-02  0.2198E+00  0.2198E+00
      0.141  0.3525E-02  0.3525E-02  0.2202E+00  0.2202E+00
      0.243  0.8282E-02  0.8282E-02  0.2210E+00  0.2210E+00
      0.345  0.1220E-01  0.1220E-01  0.2223E+00  0.2223E+00
      0.447  0.1135E-01  0.1135E-01  0.2234E+00  0.2234E+00
      0.549  0.9213E-02  0.9213E-02  0.2244E+00  0.2244E+00
      0.651  0.3472E-02  0.3472E-02  0.2247E+00  0.2247E+00
      0.753  0.5762E-02  0.5762E-02  0.2253E+00  0.2253E+00
      0.855  0.1219E-01  0.1219E-01  0.2266E+00  0.2266E+00
      0.957  0.6866E-02  0.6866E-02  0.2273E+00  0.2273E+00
      1.059  0.1871E-02  0.1871E-02  0.2274E+00  0.2274E+00
      1.161  0.4923E-02  0.4923E-02  0.2279E+00  0.2279E+00
      1.263  0.1393E-01  0.1393E-01  0.2294E+00  0.2294E+00
      1.365  0.2060E-01  0.2060E-01  0.2315E+00  0.2315E+00
      1.467  0.1567E-01  0.1567E-01  0.2331E+00  0.2331E+00
      1.569  0.1185E-01  0.1185E-01  0.2343E+00  0.2343E+00
      1.671  0.7448E-02  0.7448E-02  0.2350E+00  0.2350E+00
      1.773  0.8572E-02  0.8572E-02  0.2359E+00  0.2359E+00
      1.875  0.1286E-01  0.1286E-01  0.2372E+00  0.2372E+00
      1.977  0.1144E-01  0.1144E-01  0.2384E+00  0.2384E+00
      2.079  0.1246E-01  0.1246E-01  0.2397E+00  0.2397E+00
      2.181  0.1260E-01  0.1260E-01  0.2409E+00  0.2409E+00
      2.283  0.1052E-01  0.1052E-01  0.2420E+00  0.2420E+00
      2.385  0.8360E-02  0.8360E-02  0.2429E+00  0.2429E+00
      2.487  0.5680E-02  0.5680E-02  0.2435E+00  0.2435E+00
      2.589  0.9500E-02  0.9500E-02  0.2444E+00  0.2444E+00
      2.691  0.1393E-01  0.1393E-01  0.2458E+00  0.2458E+00
      2.793  0.1438E-01  0.1438E-01  0.2473E+00  0.2473E+00
      2.895  0.1335E-01  0.1335E-01  0.2487E+00  0.2487E+00
      2.997  0.1295E-01  0.1296E-01  0.2500E+00  0.2500E+00
      3.099  0.1243E-01  0.1243E-01  0.2513E+00  0.2513E+00
      3.201  0.1651E-01  0.1652E-01  0.2529E+00  0.2529E+00
      3.303  0.1617E-01  0.1617E-01  0.2546E+00  0.2546E+00
      3.405  0.1216E-01  0.1216E-01  0.2558E+00  0.2558E+00
      3.507  0.1716E-01  0.1716E-01  0.2576E+00  0.2576E+00
      3.609  0.2709E-01  0.2709E-01  0.2603E+00  0.2603E+00
      3.711  0.2143E-01  0.2143E-01  0.2625E+00  0.2625E+00
      3.813  0.1596E-01  0.1596E-01  0.2642E+00  0.2642E+00
      3.915  0.1978E-01  0.1978E-01  0.2662E+00  0.2662E+00
      4.017  0.2632E-01  0.2632E-01  0.2689E+00  0.2689E+00
      4.119  0.2059E-01  0.2058E-01  0.2710E+00  0.2710E+00
      4.221  0.1772E-01  0.1772E-01  0.2728E+00  0.2728E+00
      4.323  0.2109E-01  0.2109E-01  0.2749E+00  0.2749E+00
      4.425  0.2273E-01  0.2273E-01  0.2772E+00  0.2772E+00
      4.527  0.2382E-01  0.2382E-01  0.2797E+00  0.2797E+00
      4.629  0.1895E-01  0.1895E-01  0.2816E+00  0.2816E+00
      4.731  0.1920E-01  0.1921E-01  0.2836E+00  0.2836E+00
      4.833  0.2556E-01  0.2557E-01  0.2862E+00  0.2862E+00
      4.935  0.3140E-01  0.3139E-01  0.2894E+00  0.2894E+00
      5.037  0.2585E-01  0.2586E-01  0.2920E+00  0.2920E+00
      5.139  0.2834E-01  0.2835E-01  0.2949E+00  0.2949E+00
      5.241  0.2156E-01  0.2155E-01  0.2971E+00  0.2971E+00
      5.343  0.1914E-01  0.1915E-01  0.2991E+00  0.2991E+00
      5.445  0.2627E-01  0.2628E-01  0.3017E+00  0.3017E+00
      5.547  0.2896E-01  0.2895E-01  0.3047E+00  0.3047E+00
      5.649  0.2528E-01  0.2527E-01  0.3073E+00  0.3073E+00
      5.751  0.2383E-01  0.2384E-01  0.3097E+00  0.3097E+00
      5.853  0.2531E-01  0.2531E-01  0.3123E+00  0.3123E+00
      5.955  0.2295E-01  0.2294E-01  0.3146E+00  0.3146E+00
      6.057  0.2870E-01  0.2871E-01  0.3175E+00  0.3175E+00
      6.159  0.2850E-01  0.2849E-01  0.3205E+00  0.3205E+00
      6.261  0.1782E-01  0.1782E-01  0.3223E+00  0.3223E+00
      6.363  0.1515E-01  0.1515E-01  0.3238E+00  0.3238E+00
      6.465  0.2138E-01  0.2139E-01  0.3260E+00  0.3260E+00
      6.567  0.3110E-01  0.3111E-01  0.3292E+00  0.3292E+00
      6.669  0.3013E-01  0.3012E-01  0.3322E+00  0.3322E+00
      6.771  0.2492E-01  0.2492E-01  0.3348E+00  0.3348E+00
      6.873  0.2174E-01  0.2174E-01  0.3370E+00  0.3370E+00
      6.975  0.2737E-01  0.2737E-01  0.3398E+00  0.3398E+00
      7.077  0.2980E-01  0.2981E-01  0.3428E+00  0.3428E+00
      7.179  0.3738E-01  0.3739E-01  0.3466E+00  0.3466E+00
      7.281  0.4196E-01  0.4196E-01  0.3509E+00  0.3509E+00
      7.383  0.3670E-01  0.3669E-01  0.3547E+00  0.3547E+00
      7.485  0.2888E-01  0.2887E-01  0.3576E+00  0.3576E+00
      7.587  0.2546E-01  0.2546E-01  0.3602E+00  0.3602E+00
      7.689  0.3325E-01  0.3327E-01  0.3636E+00  0.3636E+00
      7.791  0.3320E-01  0.3321E-01  0.3670E+00  0.3670E+00
      7.893  0.3165E-01  0.3165E-01  0.3702E+00  0.3702E+00
      7.995  0.2592E-01  0.2591E-01  0.3729E+00  0.3729E+00
      8.097  0.1363E-01  0.1362E-01  0.3743E+00  0.3743E+00
      8.199  0.6164E-02  0.6147E-02  0.3749E+00  0.3749E+00
      8.301  0.1125E-02  0.1114E-02  0.3750E+00  0.3750E+00
      8.403  0.4086E-04  0.4011E-04  0.3750E+00  0.3750E+00
      8.505  0.2325E-06  0.2262E-06  0.3750E+00  0.3750E+00
      8.607  0.1891E-09  0.1826E-09  0.3750E+00  0.3750E+00
      8.709  0.2108E-13  0.2023E-13  0.3750E+00  0.3750E+00
      8.811  0.1181E-18  0.1181E-18  0.3750E+00  0.3750E+00
      8.913  0.0000E+00  0.0000E+00  0.3750E+00  0.3750E+00
      9.015  0.0000E+00  0.0000E+00  0.3750E+00  0.3750E+00
      9.117  0.0000E+00  0.0000E+00  0.3750E+00  0.3750E+00
      9.219  0.0000E+00  0.0000E+00  0.3750E+00  0.3750E+00
      9.321  0.0000E+00  0.0000E+00  0.3750E+00  0.3750E+00
      9.423  0.0000E+00  0.0000E+00  0.3750E+00  0.3750E+00
      9.525  0.0000E+00  0.0000E+00  0.3750E+00  0.3750E+00
