Lattice                                 
           1
     4.309342    2.488000    0.000000
    -4.309342    2.488000    0.000000
     0.000000    0.000000   15.000000
   B    C 
     8     8
Direct configuration=     1
   0.66888689  0.00000000  0.10000000
   0.33111211  0.00000000  0.10000000
   0.00000000  0.33111211  0.10000000
   0.00000000  0.66888689  0.10000000
   0.33111211  0.33111211  0.10000000
   0.66888689  0.66888689  0.10000000
   0.66666600  0.33333300  0.09922189
   0.33333300  0.66666600  0.10077811
   0.33333267  0.16666633  0.47060000
   0.49999967  0.99999933  0.47060000
   0.33333267  0.66666633  0.47060000
   0.49999967  0.49999933  0.47060000
   0.83333267  0.16666633  0.47060000
   0.99999967  0.99999933  0.47060000
   0.83333267  0.66666633  0.47060000
   0.99999967  0.49999933  0.47060000
Direct configuration=     2
   0.67065963  0.00000001  0.10002571
   0.32933938  0.00000001  0.10002571
  -0.00000001  0.32933937  0.10002571
  -0.00000001  0.67065962  0.10002571
   0.32933938  0.32933937  0.10002571
   0.67065963  0.67065962  0.10002571
   0.66666600  0.33333300  0.09924284
   0.33333300  0.66666600  0.10081433
   0.33332659  0.16666330  0.47057384
   0.50000087  0.00000173  0.47057332
   0.33333267  0.66666633  0.47057266
   0.50000087  0.49999813  0.47057332
   0.83333570  0.16666330  0.47057384
   0.99999967  0.99999933  0.47057444
   0.83333570  0.66667241  0.47057384
   0.99999727  0.49999813  0.47057332
Direct configuration=     3
   0.66979209  0.00000000  0.10001313
   0.33020691  0.00000000  0.10001313
  -0.00000000  0.33020691  0.10001313
  -0.00000000  0.66979209  0.10001313
   0.33020691  0.33020691  0.10001313
   0.66979209  0.66979209  0.10001313
   0.66666600  0.33333300  0.09923259
   0.33333300  0.66666600  0.10079661
   0.33332957  0.16666478  0.47058664
   0.50000028  0.00000056  0.47058637
   0.33333267  0.66666633  0.47058604
   0.50000028  0.49999872  0.47058637
   0.83333422  0.16666478  0.47058664
   0.99999967  0.99999933  0.47058695
   0.83333422  0.66666943  0.47058664
   0.99999844  0.49999872  0.47058637
Direct configuration=     4
   0.66979741  0.00000000  0.10001320
   0.33020159  0.00000000  0.10001320
  -0.00000000  0.33020159  0.10001320
  -0.00000000  0.66979741  0.10001320
   0.33020159  0.33020159  0.10001320
   0.66979741  0.66979741  0.10001320
   0.66666600  0.33333300  0.09923265
   0.33333300  0.66666600  0.10079672
   0.33332955  0.16666477  0.47058656
   0.50000028  0.00000057  0.47058629
   0.33333267  0.66666633  0.47058596
   0.50000028  0.49999872  0.47058629
   0.83333423  0.16666477  0.47058656
   0.99999967  0.99999933  0.47058687
   0.83333423  0.66666945  0.47058656
   0.99999843  0.49999872  0.47058629
Direct configuration=     5
   0.66979526  0.00000000  0.10001317
   0.33020374  0.00000000  0.10001317
  -0.00000000  0.33020374  0.10001317
  -0.00000000  0.66979526  0.10001317
   0.33020374  0.33020374  0.10001317
   0.66979526  0.66979526  0.10001317
   0.66666600  0.33333300  0.09923263
   0.33333300  0.66666600  0.10079667
   0.33332955  0.16666478  0.47058660
   0.50000028  0.00000056  0.47058633
   0.33333267  0.66666633  0.47058599
   0.50000028  0.49999872  0.47058633
   0.83333422  0.16666478  0.47058660
   0.99999967  0.99999933  0.47058690
   0.83333422  0.66666945  0.47058660
   0.99999844  0.49999872  0.47058633
Direct configuration=     6
   0.66979368  0.00000000  0.10001315
   0.33020533  0.00000000  0.10001315
  -0.00000000  0.33020532  0.10001315
  -0.00000000  0.66979367  0.10001315
   0.33020533  0.33020532  0.10001315
   0.66979368  0.66979367  0.10001315
   0.66666600  0.33333300  0.09923261
   0.33333300  0.66666600  0.10079664
   0.33332956  0.16666478  0.47058662
   0.50000028  0.00000056  0.47058635
   0.33333267  0.66666633  0.47058602
   0.50000028  0.49999872  0.47058635
   0.83333422  0.16666478  0.47058662
   0.99999967  0.99999933  0.47058693
   0.83333422  0.66666944  0.47058662
   0.99999844  0.49999872  0.47058635
Direct configuration=     7
   0.66979289  0.00000000  0.10001314
   0.33020612  0.00000000  0.10001314
  -0.00000000  0.33020611  0.10001314
  -0.00000000  0.66979288  0.10001314
   0.33020612  0.33020611  0.10001314
   0.66979289  0.66979288  0.10001314
   0.66666600  0.33333300  0.09923260
   0.33333300  0.66666600  0.10079662
   0.33332956  0.16666478  0.47058663
   0.50000028  0.00000056  0.47058636
   0.33333267  0.66666633  0.47058603
   0.50000028  0.49999872  0.47058636
   0.83333422  0.16666478  0.47058663
   0.99999967  0.99999933  0.47058694
   0.83333422  0.66666944  0.47058663
   0.99999844  0.49999872  0.47058636
Direct configuration=     8
   0.66979286 -0.00000002  0.10003656
   0.33020612 -0.00000002  0.10003656
   0.00000002  0.33020614  0.10003656
   0.00000002  0.66979288  0.10003656
   0.33020612  0.33020614  0.10003656
   0.66979286  0.66979288  0.10003656
   0.66666600  0.33333300  0.09925455
   0.33333300  0.66666600  0.10082585
   0.33333411  0.16666706  0.47056286
   0.49999936 -0.00000128  0.47056221
   0.33333267  0.66666633  0.47056145
   0.49999936  0.49999964  0.47056221
   0.83333194  0.16666706  0.47056286
   0.99999967  0.99999933  0.47056356
   0.83333194  0.66666489  0.47056286
   0.00000028  0.49999964  0.47056221
Direct configuration=     9
   0.66979279 -0.00000007  0.10010684
   0.33020613 -0.00000007  0.10010684
   0.00000007  0.33020621  0.10010684
   0.00000007  0.66979287  0.10010684
   0.33020613  0.33020621  0.10010684
   0.66979279  0.66979287  0.10010684
   0.66666600  0.33333300  0.09932040
   0.33333300  0.66666600  0.10091351
   0.33334775  0.16667388  0.47049155
   0.49999659 -0.00000681  0.47048974
   0.33333267  0.66666633  0.47048772
   0.49999659  0.50000241  0.47048974
   0.83332512  0.16667388  0.47049155
   0.99999967  0.99999933  0.47049342
   0.83332512  0.66665125  0.47049155
   0.00000581  0.50000241  0.47048974
Direct configuration=    10
   0.66979265 -0.00000019  0.10024740
   0.33020616 -0.00000019  0.10024740
   0.00000019  0.33020635  0.10024740
   0.00000019  0.66979284  0.10024740
   0.33020616  0.33020635  0.10024740
   0.66979265  0.66979284  0.10024740
   0.66666600  0.33333300  0.09945210
   0.33333300  0.66666600  0.10108884
   0.33337504  0.16668752  0.47034893
   0.49999107 -0.00001787  0.47034482
   0.33333267  0.66666633  0.47034025
   0.49999107  0.50000793  0.47034482
   0.83331148  0.16668752  0.47034893
   0.99999967  0.99999933  0.47035313
   0.83331148  0.66662396  0.47034893
   0.00001687  0.50000793  0.47034482
Direct configuration=    11
   0.66979237 -0.00000042  0.10052852
   0.33020621 -0.00000042  0.10052852
   0.00000042  0.33020663  0.10052852
   0.00000042  0.66979279  0.10052852
   0.33020621  0.33020663  0.10052852
   0.66979237  0.66979279  0.10052852
   0.66666600  0.33333300  0.09971551
   0.33333300  0.66666600  0.10143951
   0.33342962  0.16671481  0.47006369
   0.49998001 -0.00003998  0.47005496
   0.33333267  0.66666633  0.47004533
   0.49998001  0.50001899  0.47005496
   0.83328419  0.16671481  0.47006369
   0.99999967  0.99999933  0.47007256
   0.83328419  0.66656938  0.47006369
   0.00003898  0.50001899  0.47005496
Direct configuration=    12
   0.66979180 -0.00000089  0.10109076
   0.33020631 -0.00000089  0.10109076
   0.00000089  0.33020720  0.10109076
   0.00000089  0.66979269  0.10109076
   0.33020631  0.33020720  0.10109076
   0.66979180  0.66979269  0.10109076
   0.66666600  0.33333300  0.10024233
   0.33333300  0.66666600  0.10214083
   0.33353877  0.16676938  0.46949322
   0.49995790 -0.00008420  0.46947525
   0.33333267  0.66666633  0.46945547
   0.49995790  0.50004110  0.46947525
   0.83322962  0.16676938  0.46949322
   0.99999967  0.99999933  0.46951142
   0.83322962  0.66646023  0.46949322
   0.00008320  0.50004110  0.46947525
Direct configuration=    13
   0.66979068 -0.00000182  0.10221523
   0.33020651 -0.00000182  0.10221523
   0.00000182  0.33020832  0.10221523
   0.00000182  0.66979249  0.10221523
   0.33020651  0.33020832  0.10221523
   0.66979068  0.66979249  0.10221523
   0.66666600  0.33333300  0.10129596
   0.33333300  0.66666600  0.10354348
   0.33375707  0.16687853  0.46835226
   0.49991368 -0.00017265  0.46831584
   0.33333267  0.66666633  0.46827575
   0.49991368  0.50008532  0.46831584
   0.83312047  0.16687853  0.46835226
   0.99999967  0.99999933  0.46838913
   0.83312047  0.66624193  0.46835226
   0.00017165  0.50008532  0.46831584
Direct configuration=    14
   0.66978842 -0.00000368  0.10446417
   0.33020690 -0.00000368  0.10446417
   0.00000368  0.33021058  0.10446417
   0.00000368  0.66979210  0.10446417
   0.33020690  0.33021058  0.10446417
   0.66978842  0.66979210  0.10446417
   0.66666600  0.33333300  0.10340322
   0.33333300  0.66666600  0.10634879
   0.33419367  0.16709683  0.46607035
   0.49982523 -0.00034954  0.46599700
   0.33333267  0.66666633  0.46591632
   0.49982523  0.50017377  0.46599700
   0.83290217  0.16709683  0.46607035
   0.99999967  0.99999933  0.46614456
   0.83290217  0.66580533  0.46607035
   0.00034854  0.50017377  0.46599700
Direct configuration=    15
   0.66978391 -0.00000739  0.10896206
   0.33020770 -0.00000739  0.10896206
   0.00000739  0.33021509  0.10896206
   0.00000739  0.66979130  0.10896206
   0.33020770  0.33021509  0.10896206
   0.66978391  0.66979130  0.10896206
   0.66666600  0.33333300  0.10761774
   0.33333300  0.66666600  0.11195939
   0.33506687  0.16753343  0.46150654
   0.49964833 -0.00070333  0.46135933
   0.33333267  0.66666633  0.46119746
   0.49964833  0.50035067  0.46135933
   0.83246557  0.16753343  0.46150654
   0.99999967  0.99999933  0.46165542
   0.83246557  0.66493213  0.46150654
   0.00070233  0.50035067  0.46135933
Direct configuration=    16
   0.66977489 -0.00001483  0.11795784
   0.33020928 -0.00001483  0.11795784
   0.00001483  0.33022411  0.11795784
   0.00001483  0.66978972  0.11795784
   0.33020928  0.33022411  0.11795784
   0.66977489  0.66978972  0.11795784
   0.66666600  0.33333300  0.11604678
   0.33333300  0.66666600  0.12318061
   0.33681327  0.16840663  0.45237891
   0.49929455 -0.00141091  0.45208400
   0.33333267  0.66666633  0.45175973
   0.49929455  0.50070445  0.45208400
   0.83159237  0.16840663  0.45237891
   0.99999967  0.99999933  0.45267713
   0.83159237  0.66318573  0.45237891
   0.00140991  0.50070445  0.45208400
Direct configuration=    17
   0.66977489 -0.00001483  0.11795875
   0.33020928 -0.00001483  0.11795875
   0.00001483  0.33022411  0.11795875
   0.00001483  0.66978972  0.11795875
   0.33020928  0.33022411  0.11795875
   0.66977489  0.66978972  0.11795875
   0.66666600  0.33333300  0.11604763
   0.33333300  0.66666600  0.12318174
   0.33681333  0.16840667  0.45237798
   0.49929453 -0.00141093  0.45208306
   0.33333267  0.66666633  0.45175878
   0.49929453  0.50070447  0.45208306
   0.83159233  0.16840667  0.45237798
   0.99999967  0.99999933  0.45267623
   0.83159233  0.66318567  0.45237798
   0.00140993  0.50070447  0.45208306
Direct configuration=    18
   0.66977488 -0.00001484  0.11796147
   0.33020928 -0.00001484  0.11796147
   0.00001484  0.33022412  0.11796147
   0.00001484  0.66978972  0.11796147
   0.33020928  0.33022412  0.11796147
   0.66977488  0.66978972  0.11796147
   0.66666600  0.33333300  0.11605018
   0.33333300  0.66666600  0.12318513
   0.33681353  0.16840677  0.45237522
   0.49929449 -0.00141101  0.45208025
   0.33333267  0.66666633  0.45175593
   0.49929449  0.50070451  0.45208025
   0.83159223  0.16840677  0.45237522
   0.99999967  0.99999933  0.45267350
   0.83159223  0.66318547  0.45237522
   0.00141001  0.50070451  0.45208025
Direct configuration=    19
   0.66977486 -0.00001485  0.11796692
   0.33020929 -0.00001485  0.11796692
   0.00001485  0.33022414  0.11796692
   0.00001485  0.66978971  0.11796692
   0.33020929  0.33022414  0.11796692
   0.66977486  0.66978971  0.11796692
   0.66666600  0.33333300  0.11605528
   0.33333300  0.66666600  0.12319192
   0.33681394  0.16840697  0.45236969
   0.49929442 -0.00141117  0.45207464
   0.33333267  0.66666633  0.45175023
   0.49929442  0.50070458  0.45207464
   0.83159203  0.16840697  0.45236969
   0.99999967  0.99999933  0.45266806
   0.83159203  0.66318506  0.45236969
   0.00141017  0.50070458  0.45207464
Direct configuration=    20
   0.66977483 -0.00001487  0.11797782
   0.33020929 -0.00001487  0.11797782
   0.00001487  0.33022417  0.11797782
   0.00001487  0.66978971  0.11797782
   0.33020929  0.33022417  0.11797782
   0.66977483  0.66978971  0.11797782
   0.66666600  0.33333300  0.11606547
   0.33333300  0.66666600  0.12320549
   0.33681474  0.16840737  0.45235863
   0.49929426 -0.00141148  0.45206342
   0.33333267  0.66666633  0.45173883
   0.49929426  0.50070474  0.45206342
   0.83159163  0.16840737  0.45235863
   0.99999967  0.99999933  0.45265716
   0.83159163  0.66318426  0.45235863
   0.00141048  0.50070474  0.45206342
Direct configuration=    21
   0.66977477 -0.00001492  0.11799961
   0.33020931 -0.00001492  0.11799961
   0.00001492  0.33022423  0.11799961
   0.00001492  0.66978969  0.11799961
   0.33020931  0.33022423  0.11799961
   0.66977477  0.66978969  0.11799961
   0.66666600  0.33333300  0.11608586
   0.33333300  0.66666600  0.12323265
   0.33681636  0.16840818  0.45233651
   0.49929395 -0.00141210  0.45204097
   0.33333267  0.66666633  0.45171602
   0.49929395  0.50070505  0.45204097
   0.83159082  0.16840818  0.45233651
   0.99999967  0.99999933  0.45263537
   0.83159082  0.66318264  0.45233651
   0.00141110  0.50070505  0.45204097
Direct configuration=    22
   0.66977465 -0.00001502  0.11804320
   0.33020933 -0.00001502  0.11804320
   0.00001502  0.33022435  0.11804320
   0.00001502  0.66978967  0.11804320
   0.33020933  0.33022435  0.11804320
   0.66977465  0.66978967  0.11804320
   0.66666600  0.33333300  0.11612664
   0.33333300  0.66666600  0.12328695
   0.33681959  0.16840979  0.45229227
   0.49929333 -0.00141334  0.45199607
   0.33333267  0.66666633  0.45167040
   0.49929333  0.50070567  0.45199607
   0.83158921  0.16840979  0.45229227
   0.99999967  0.99999933  0.45259179
   0.83158921  0.66317941  0.45229227
   0.00141234  0.50070567  0.45199607
Direct configuration=    23
   0.66977440 -0.00001522  0.11813037
   0.33020938 -0.00001522  0.11813037
   0.00001522  0.33022460  0.11813037
   0.00001522  0.66978962  0.11813037
   0.33020938  0.33022460  0.11813037
   0.66977440  0.66978962  0.11813037
   0.66666600  0.33333300  0.11620819
   0.33333300  0.66666600  0.12339555
   0.33682604  0.16841302  0.45220380
   0.49929209 -0.00141583  0.45190627
   0.33333267  0.66666633  0.45157917
   0.49929209  0.50070691  0.45190627
   0.83158598  0.16841302  0.45220380
   0.99999967  0.99999933  0.45250463
   0.83158598  0.66317296  0.45220380
   0.00141483  0.50070691  0.45190627
Direct configuration=    24
   0.66977392 -0.00001561  0.11830472
   0.33020947 -0.00001561  0.11830472
   0.00001561  0.33022508  0.11830472
   0.00001561  0.66978953  0.11830472
   0.33020947  0.33022508  0.11830472
   0.66977392  0.66978953  0.11830472
   0.66666600  0.33333300  0.11637129
   0.33333300  0.66666600  0.12361276
   0.33683895  0.16841948  0.45202685
   0.49928960 -0.00142080  0.45172668
   0.33333267  0.66666633  0.45139672
   0.49928960  0.50070940  0.45172668
   0.83157952  0.16841948  0.45202685
   0.99999967  0.99999933  0.45233031
   0.83157952  0.66316005  0.45202685
   0.00141980  0.50070940  0.45172668
Direct configuration=    25
   0.66977294 -0.00001639  0.11865341
   0.33020967 -0.00001639  0.11865341
   0.00001639  0.33022606  0.11865341
   0.00001639  0.66978933  0.11865341
   0.33020967  0.33022606  0.11865341
   0.66977294  0.66978933  0.11865341
   0.66666600  0.33333300  0.11669751
   0.33333300  0.66666600  0.12404717
   0.33686478  0.16843239  0.45167296
   0.49928463 -0.00143074  0.45136750
   0.33333267  0.66666633  0.45103180
   0.49928463  0.50071437  0.45136750
   0.83156661  0.16843239  0.45167296
   0.99999967  0.99999933  0.45198167
   0.83156661  0.66313422  0.45167296
   0.00142974  0.50071437  0.45136750
Direct configuration=    26
   0.66977098 -0.00001796  0.11935080
   0.33021005 -0.00001796  0.11935080
   0.00001796  0.33022802  0.11935080
   0.00001796  0.66978895  0.11935080
   0.33021005  0.33022802  0.11935080
   0.66977098  0.66978895  0.11935080
   0.66666600  0.33333300  0.11734993
   0.33333300  0.66666600  0.12491601
   0.33691642  0.16845821  0.45096516
   0.49927469 -0.00145062  0.45064913
   0.33333267  0.66666633  0.45030196
   0.49927469  0.50072431  0.45064913
   0.83154079  0.16845821  0.45096516
   0.99999967  0.99999933  0.45128440
   0.83154079  0.66308258  0.45096516
   0.00144962  0.50072431  0.45064913
Direct configuration=    27
   0.66976707 -0.00002110  0.12074559
   0.33021083 -0.00002110  0.12074559
   0.00002110  0.33023193  0.12074559
   0.00002110  0.66978817  0.12074559
   0.33021083  0.33023193  0.12074559
   0.66976707  0.66978817  0.12074559
   0.66666600  0.33333300  0.11865477
   0.33333300  0.66666600  0.12665367
   0.33701971  0.16850986  0.44954958
   0.49925481 -0.00149038  0.44921239
   0.33333267  0.66666633  0.44884228
   0.49925481  0.50074419  0.44921239
   0.83148914  0.16850986  0.44954958
   0.99999967  0.99999933  0.44988985
   0.83148914  0.66297929  0.44954958
   0.00148938  0.50074419  0.44921239
Direct configuration=    28
   0.66975925 -0.00002738  0.12353515
   0.33021237 -0.00002738  0.12353515
   0.00002738  0.33023975  0.12353515
   0.00002738  0.66978663  0.12353515
   0.33021237  0.33023975  0.12353515
   0.66975925  0.66978663  0.12353515
   0.66666600  0.33333300  0.12126446
   0.33333300  0.66666600  0.13012899
   0.33722630  0.16861315  0.44671841
   0.49921504 -0.00156991  0.44633892
   0.33333267  0.66666633  0.44592294
   0.49921504  0.50078396  0.44633892
   0.83138585  0.16861315  0.44671841
   0.99999967  0.99999933  0.44710074
   0.83138585  0.66277270  0.44671841
   0.00156891  0.50078396  0.44633892
Direct configuration=    29
   0.66974360 -0.00003994  0.12911427
   0.33021546 -0.00003994  0.12911427
   0.00003994  0.33025540  0.12911427
   0.00003994  0.66978354  0.12911427
   0.33021546  0.33025540  0.12911427
   0.66974360  0.66978354  0.12911427
   0.66666600  0.33333300  0.12648385
   0.33333300  0.66666600  0.13707964
   0.33763946  0.16881973  0.44105607
   0.49913551 -0.00172897  0.44059198
   0.33333267  0.66666633  0.44008424
   0.49913551  0.50086349  0.44059198
   0.83117927  0.16881973  0.44105607
   0.99999967  0.99999933  0.44152253
   0.83117927  0.66235954  0.44105607
   0.00172797  0.50086349  0.44059198
Direct configuration=    30
   0.66971231 -0.00006505  0.14027251
   0.33022164 -0.00006505  0.14027251
   0.00006505  0.33028669  0.14027251
   0.00006505  0.66977736  0.14027251
   0.33022164  0.33028669  0.14027251
   0.66971231  0.66977736  0.14027251
   0.66666600  0.33333300  0.13692261
   0.33333300  0.66666600  0.15098094
   0.33846579  0.16923290  0.42973139
   0.49897646 -0.00204709  0.42909809
   0.33333267  0.66666633  0.42840684
   0.49897646  0.50102254  0.42909809
   0.83076610  0.16923290  0.42973139
   0.99999967  0.99999933  0.43036611
   0.83076610  0.66153321  0.42973139
   0.00204609  0.50102254  0.42909809
Direct configuration=    31
   0.66964973 -0.00011527  0.16258900
   0.33023400 -0.00011527  0.16258900
   0.00011527  0.33034927  0.16258900
   0.00011527  0.66976500  0.16258900
   0.33023400  0.33034927  0.16258900
   0.66964973  0.66976500  0.16258900
   0.66666600  0.33333300  0.15780014
   0.33333300  0.66666600  0.17878353
   0.34011845  0.17005922  0.40708203
   0.49865834 -0.00268332  0.40611032
   0.33333267  0.66666633  0.40505205
   0.49865834  0.50134066  0.40611032
   0.82993978  0.17005922  0.40708203
   0.99999967  0.99999933  0.40805326
   0.82993978  0.65988055  0.40708203
   0.00268232  0.50134066  0.40611032
