 vasp.6.3.2 27Jun22 (build May 31 2023 12:07:17) complex                        
  
 executed on             LinuxIFC date 2024.04.12  17:40:15
 running  128 mpi-ranks, on    4 nodes
 distrk:  each k-point on  128 cores,    1 groups
 distr:  one band on NCORE=  16 cores,    8 groups


--------------------------------------------------------------------------------------------------------


 INCAR:
   SYSTEM = Dielectric_function
   ISTART = 1
   ICHARG = 2
   PREC = Accurate
   ENCUT = 450
   ALGO = Damped
   EDIFF = 1E-8
   NEDOS = 4000
   ISMEAR = 0
   SIGMA = 0.01
   GGA = PE
   LHFCALC = .TRUE.
   AEXX = 0.25
   HFSCREEN = 0.2
   LOPTICS = .TRUE.
   CSHIFT = 0.1
   NBANDS = 128
   NCORE = 16
   LREAL = .FALSE.

 POTCAR:    PAW_PBE B 06Sep2000                   
 POTCAR:    PAW_PBE C 08Apr2002                   
 POTCAR:    PAW_PBE B 06Sep2000                   
   SHA256 =  a32ced30f5ae56fd4d10b4325ff17eb3e4e38ee0f4288bc219fb012fddfa6e97 B/POTCAR              
   COPYR  = (c) Copyright 06Sep2000 Georg Kresse                                                    
   COPYR  = This file is part of the software VASP. Any use, copying, and all other rights are regul
   COPYR  = If you do not have a valid VASP license, you may not use, copy or distribute this file. 
   VRHFIN =B: s2p1                                                                                  
   LEXCH  = PE                                                                                      
   EATOM  =    71.1703 eV,    5.2309 Ry                                                             
                                                                                                    
   TITEL  = PAW_PBE B 06Sep2000                                                                     
   LULTRA =        F    use ultrasoft PP ?                                                          
   IUNSCR =        1    unscreen: 0-lin 1-nonlin 2-no                                               
   RPACOR =    1.200    partial core radius                                                         
   POMASS =   10.811; ZVAL   =    3.000    mass and valenz                                          
   RCORE  =    1.700    outmost cutoff radius                                                       
   RWIGS  =    1.710; RWIGS  =    0.905    wigner-seitz radius (au A)                               
   ENMAX  =  318.614; ENMIN  =  238.960 eV                                                          
   ICORE  =        2    local potential                                                             
   LCOR   =        T    correct aug charges                                                         
   LPAW   =        T    paw PP                                                                      
   EAUG   =  535.514                                                                                
   DEXC   =    0.000                                                                                
   RMAX   =    1.732    core radius for proj-oper                                                   
   RAUG   =    1.300    factor for augmentation sphere                                              
   RDEP   =    1.757    radius for radial grids                                                     
   RDEPT  =    1.436    core radius for aug-charge                                                  
                                                                                                    
   Atomic configuration                                                                             
    4 entries                                                                                       
     n  l   j            E        occ.                                                              
     1  0  0.50      -180.5896   2.0000                                                             
     2  0  0.50        -9.4431   2.0000                                                             
     2  1  0.50        -3.6068   1.0000                                                             
     3  2  1.50        -4.0817   0.0000                                                             
   Description                                                                                      
     l       E           TYP  RCUT    TYP  RCUT                                                     
     0     -9.4430752     23  1.500                                                                 
     0      0.8675899     23  1.500                                                                 
     1     -3.6067955     23  1.700                                                                 
     1      6.1086146     23  1.700                                                                 
     2     -4.0817478      7  1.700                                                                 
  local pseudopotential read in
  partial core-charges read in
  partial kinetic energy density read in
  atomic valenz-charges read in
  non local Contribution for L=           0  read in
    real space projection operators read in
  non local Contribution for L=           0  read in
    real space projection operators read in
  non local Contribution for L=           1  read in
    real space projection operators read in
  non local Contribution for L=           1  read in
    real space projection operators read in
    PAW grid and wavefunctions read in
 
   number of l-projection  operators is LMAX  =           4
   number of lm-projection operators is LMMAX =           8
 
 POTCAR:    PAW_PBE C 08Apr2002                   
   SHA256 =  253f7b50bb8d59471dbedb8285d89021f4a42ed1a2c5d38a03a736e69125dd95 C/POTCAR              
   COPYR  = (c) Copyright 08Apr2002 Georg Kresse                                                    
   COPYR  = This file is part of the software VASP. Any use, copying, and all other rights are regul
   COPYR  = If you do not have a valid VASP license, you may not use, copy or distribute this file. 
   VRHFIN =C: s2p2                                                                                  
   LEXCH  = PE                                                                                      
   EATOM  =   147.1560 eV,   10.8157 Ry                                                             
                                                                                                    
   TITEL  = PAW_PBE C 08Apr2002                                                                     
   LULTRA =        F    use ultrasoft PP ?                                                          
   IUNSCR =        1    unscreen: 0-lin 1-nonlin 2-no                                               
   RPACOR =    1.200    partial core radius                                                         
   POMASS =   12.011; ZVAL   =    4.000    mass and valenz                                          
   RCORE  =    1.500    outmost cutoff radius                                                       
   RWIGS  =    1.630; RWIGS  =    0.863    wigner-seitz radius (au A)                               
   ENMAX  =  400.000; ENMIN  =  300.000 eV                                                          
   ICORE  =        2    local potential                                                             
   LCOR   =        T    correct aug charges                                                         
   LPAW   =        T    paw PP                                                                      
   EAUG   =  644.873                                                                                
   DEXC   =    0.000                                                                                
   RMAX   =    1.529    core radius for proj-oper                                                   
   RAUG   =    1.300    factor for augmentation sphere                                              
   RDEP   =    1.501    radius for radial grids                                                     
   RDEPT  =    1.300    core radius for aug-charge                                                  
                                                                                                    
   Atomic configuration                                                                             
    4 entries                                                                                       
     n  l   j            E        occ.                                                              
     1  0  0.50      -273.3789   2.0000                                                             
     2  0  0.50       -13.7508   2.0000                                                             
     2  1  0.50        -5.2854   2.0000                                                             
     3  2  1.50        -5.4423   0.0000                                                             
   Description                                                                                      
     l       E           TYP  RCUT    TYP  RCUT                                                     
     0    -13.7508458     23  1.200                                                                 
     0     -8.2022199     23  1.200                                                                 
     1     -5.2854383     23  1.500                                                                 
     1     34.0145650     23  1.500                                                                 
     2     -5.4423304      7  1.500                                                                 
  local pseudopotential read in
  partial core-charges read in
  partial kinetic energy density read in
  atomic valenz-charges read in
  non local Contribution for L=           0  read in
    real space projection operators read in
  non local Contribution for L=           0  read in
    real space projection operators read in
  non local Contribution for L=           1  read in
    real space projection operators read in
  non local Contribution for L=           1  read in
    real space projection operators read in
    PAW grid and wavefunctions read in
 
   number of l-projection  operators is LMAX  =           4
   number of lm-projection operators is LMMAX =           8
 
  PAW_PBE B 06Sep2000                   :
 energy of atom  1       EATOM=  -71.1703
 kinetic energy error for atom=    0.0015 (will be added to EATOM!!)
  PAW_PBE C 08Apr2002                   :
 energy of atom  2       EATOM= -147.1560
 kinetic energy error for atom=    0.0116 (will be added to EATOM!!)
 
 
 POSCAR: Graphene-B4C3 Top with lattice parameter
  positions in direct lattice
  velocities in cartesian coordinates
 exchange correlation table for  LEXCH =        8
   RHO(1)=    0.500       N(1)  =     2000
   RHO(2)=  100.500       N(2)  =     4000
 


--------------------------------------------------------------------------------------------------------


 ion  position               nearest neighbor table
   1  0.004  0.003  0.102-   5 1.57   6 1.57   7 1.57   3 1.72   2 1.72   4 1.72
   2  0.359  0.003  0.101-   6 1.56   5 1.65   7 1.65   1 1.72
   3  0.004  0.358  0.101-   7 1.56   6 1.65   5 1.65   1 1.72
   4  0.649  0.648  0.101-   5 1.56   7 1.65   6 1.65   1 1.72
   5  0.328  0.326  0.101-   4 1.56   1 1.57   2 1.65   3 1.65
   6  0.681  0.003  0.101-   2 1.56   1 1.57   3 1.65   4 1.65
   7  0.004  0.679  0.101-   3 1.56   1 1.57   4 1.65   2 1.65
   8  0.000  0.500  0.335-   9 1.40  11 1.40  13 1.40
   9  0.167  0.333  0.335-   8 1.40  12 1.40  10 1.40
  10  0.000  0.000  0.335-  11 1.40   9 1.40  15 1.40
  11  0.167  0.833  0.335-  14 1.40   8 1.40  10 1.40
  12  0.500  0.500  0.335-  15 1.40   9 1.40  13 1.40
  13  0.667  0.333  0.335-  12 1.40   8 1.40  14 1.40
  14  0.500  0.000  0.335-  11 1.40  15 1.40  13 1.40
  15  0.667  0.833  0.335-  12 1.40  14 1.40  10 1.40
 
  LATTYP: Found a hexagonal cell.
 ALAT       =     4.8460000000
 C/A-ratio  =     3.0953363599
  
  Lattice vectors:
  
 A1 = (   4.1967591067,   2.4230000000,   0.0000000000)
 A2 = (  -4.1967591067,   2.4230000000,   0.0000000000)
 A3 = (   0.0000000000,   0.0000000000,  15.0000000000)


Analysis of symmetry for initial positions (statically):
=====================================================================
 Subroutine PRICEL returns:
 Original cell was already a primitive cell.
 

 Routine SETGRP: Setting up the symmetry group for a 
 hexagonal supercell.


 Subroutine GETGRP returns: Found  1 space group operations
 (whereof  1 operations were pure point group operations)
 out of a pool of 24 trial point group operations.


The static configuration has the point symmetry C_1 .


Analysis of symmetry for dynamics (positions and initial velocities):
=====================================================================
 Subroutine PRICEL returns:
 Original cell was already a primitive cell.
 

 Routine SETGRP: Setting up the symmetry group for a 
 hexagonal supercell.


 Subroutine GETGRP returns: Found  1 space group operations
 (whereof  1 operations were pure point group operations)
 out of a pool of 24 trial point group operations.


The dynamic configuration has the point symmetry C_1 .


 Subroutine INISYM returns: Found  1 space group operations
 (whereof  1 operations are pure point group operations),
 and found     1 'primitive' translations


----------------------------------------------------------------------------------------

                                     Primitive cell                                     

  volume of cell :     305.0624

  direct lattice vectors                    reciprocal lattice vectors
     4.196759107  2.423000000  0.000000000     0.119139552  0.206355757  0.000000000
    -4.196759107  2.423000000  0.000000000    -0.119139552  0.206355757  0.000000000
     0.000000000  0.000000000 15.000000000     0.000000000  0.000000000  0.066666667

  length of vectors
     4.846000000  4.846000000 15.000000000     0.238279104  0.238279104  0.066666667

  position of ions in fractional coordinates (direct lattice)
     0.004056526  0.002697343  0.101501060
     0.359245494  0.002978704  0.100711409
     0.003767832  0.357599513  0.100712169
     0.649148177  0.647506274  0.100708602
     0.327784757  0.326144145  0.100730862
     0.680601878  0.002974890  0.100730542
     0.003770558  0.678959212  0.100727858
     0.000132595  0.500063036  0.335115331
     0.166783864  0.333452843  0.335150012
     0.000115386  0.000071038  0.335075930
     0.166825953  0.833402697  0.335153906
     0.500125878  0.500099855  0.335118110
     0.666781160  0.333405941  0.335013099
     0.500087443  0.000053650  0.335113676
     0.666733165  0.833358192  0.335150101

  ion indices of the primitive-cell ions
   primitive index   ion index
                 1           1
                 2           2
                 3           3
                 4           4
                 5           5
                 6           6
                 7           7
                 8           8
                 9           9
                10          10
                11          11
                12          12
                13          13
                14          14
                15          15

----------------------------------------------------------------------------------------

 
 
 KPOINTS: k-points                                

Automatic generation of k-mesh.
 Grid dimensions read from file:
 generate k-points for:   17   17    1

 Generating k-lattice:

  Cartesian coordinates                     Fractional coordinates (reciprocal lattice)
     0.007008209  0.012138574  0.000000000     0.058823529  0.000000000  0.000000000
    -0.007008209  0.012138574  0.000000000     0.000000000  0.058823529  0.000000000
     0.000000000  0.000000000  0.066666667     0.000000000  0.000000000  1.000000000

  Length of vectors
     0.014016418  0.014016418  0.066666667

  Shift w.r.t. Gamma in fractional coordinates (k-lattice)
     0.000000000  0.000000000  0.000000000

 
 Subroutine IBZKPT returns following result:
 ===========================================
 
 Found    145 irreducible k-points:
 
 Following reciprocal coordinates:
            Coordinates               Weight
  0.000000  0.000000  0.000000      1.000000
  0.058824 -0.000000  0.000000      2.000000
 -0.000000  0.058824  0.000000      2.000000
 -0.058824  0.058824  0.000000      2.000000
  0.117647  0.000000  0.000000      2.000000
  0.000000  0.117647  0.000000      2.000000
 -0.117647  0.117647  0.000000      2.000000
  0.176471  0.000000  0.000000      2.000000
  0.000000  0.176471  0.000000      2.000000
 -0.176471  0.176471  0.000000      2.000000
  0.235294  0.000000  0.000000      2.000000
  0.000000  0.235294  0.000000      2.000000
 -0.235294  0.235294  0.000000      2.000000
  0.294118 -0.000000  0.000000      2.000000
 -0.000000  0.294118  0.000000      2.000000
 -0.294118  0.294118  0.000000      2.000000
  0.352941 -0.000000  0.000000      2.000000
 -0.000000  0.352941  0.000000      2.000000
 -0.352941  0.352941  0.000000      2.000000
  0.411765 -0.000000  0.000000      2.000000
 -0.000000  0.411765  0.000000      2.000000
 -0.411765  0.411765  0.000000      2.000000
  0.470588  0.000000  0.000000      2.000000
  0.000000  0.470588  0.000000      2.000000
 -0.470588  0.470588  0.000000      2.000000
  0.058824  0.058824  0.000000      2.000000
 -0.058824  0.117647  0.000000      2.000000
 -0.117647  0.058824  0.000000      2.000000
  0.117647  0.058824  0.000000      2.000000
 -0.058824  0.176471  0.000000      2.000000
 -0.176471  0.117647  0.000000      2.000000
 -0.117647  0.176471  0.000000      2.000000
  0.058824  0.117647  0.000000      2.000000
  0.176471 -0.058824  0.000000      2.000000
  0.176471  0.058824  0.000000      2.000000
 -0.058824  0.235294  0.000000      2.000000
 -0.235294  0.176471  0.000000      2.000000
 -0.176471  0.235294  0.000000      2.000000
  0.058824  0.176471  0.000000      2.000000
  0.235294 -0.058824  0.000000      2.000000
  0.235294  0.058824  0.000000      2.000000
 -0.058824  0.294118  0.000000      2.000000
 -0.294118  0.235294  0.000000      2.000000
 -0.235294  0.294118  0.000000      2.000000
  0.058824  0.235294  0.000000      2.000000
  0.294118 -0.058824  0.000000      2.000000
  0.294118  0.058824  0.000000      2.000000
 -0.058824  0.352941  0.000000      2.000000
 -0.352941  0.294118  0.000000      2.000000
 -0.294118  0.352941  0.000000      2.000000
  0.058824  0.294118  0.000000      2.000000
  0.352941 -0.058824  0.000000      2.000000
  0.352941  0.058824  0.000000      2.000000
 -0.058824  0.411765  0.000000      2.000000
 -0.411765  0.352941  0.000000      2.000000
 -0.352941  0.411765  0.000000      2.000000
  0.058824  0.352941  0.000000      2.000000
  0.411765 -0.058824  0.000000      2.000000
  0.411765  0.058824  0.000000      2.000000
 -0.058824  0.470588  0.000000      2.000000
 -0.470588  0.411765  0.000000      2.000000
 -0.411765  0.470588  0.000000      2.000000
  0.058824  0.411765  0.000000      2.000000
  0.470588 -0.058824  0.000000      2.000000
  0.470588  0.058824  0.000000      2.000000
 -0.058824 -0.470588  0.000000      2.000000
  0.470588  0.470588  0.000000      2.000000
  0.117647  0.117647  0.000000      2.000000
 -0.117647  0.235294  0.000000      2.000000
 -0.235294  0.117647  0.000000      2.000000
  0.176471  0.117647  0.000000      2.000000
 -0.117647  0.294118  0.000000      2.000000
 -0.294118  0.176471  0.000000      2.000000
 -0.176471  0.294118  0.000000      2.000000
  0.117647  0.176471  0.000000      2.000000
  0.294118 -0.117647  0.000000      2.000000
  0.235294  0.117647  0.000000      2.000000
 -0.117647  0.352941  0.000000      2.000000
 -0.352941  0.235294  0.000000      2.000000
 -0.235294  0.352941  0.000000      2.000000
  0.117647  0.235294  0.000000      2.000000
  0.352941 -0.117647  0.000000      2.000000
  0.294118  0.117647  0.000000      2.000000
 -0.117647  0.411765  0.000000      2.000000
 -0.411765  0.294118  0.000000      2.000000
 -0.294118  0.411765  0.000000      2.000000
  0.117647  0.294118  0.000000      2.000000
  0.411765 -0.117647  0.000000      2.000000
  0.352941  0.117647  0.000000      2.000000
 -0.117647  0.470588  0.000000      2.000000
 -0.470588  0.352941  0.000000      2.000000
 -0.352941  0.470588  0.000000      2.000000
  0.117647  0.352941  0.000000      2.000000
  0.470588 -0.117647  0.000000      2.000000
  0.411765  0.117647  0.000000      2.000000
 -0.117647 -0.470588  0.000000      2.000000
  0.470588  0.411765  0.000000      2.000000
 -0.411765 -0.470588  0.000000      2.000000
  0.117647  0.411765  0.000000      2.000000
 -0.470588 -0.117647  0.000000      2.000000
  0.176471  0.176471  0.000000      2.000000
 -0.176471  0.352941  0.000000      2.000000
 -0.352941  0.176471  0.000000      2.000000
  0.235294  0.176471  0.000000      2.000000
 -0.176471  0.411765  0.000000      2.000000
 -0.411765  0.235294  0.000000      2.000000
 -0.235294  0.411765  0.000000      2.000000
  0.176471  0.235294  0.000000      2.000000
  0.411765 -0.176471  0.000000      2.000000
  0.294118  0.176471  0.000000      2.000000
 -0.176471  0.470588  0.000000      2.000000
 -0.470588  0.294118  0.000000      2.000000
 -0.294118  0.470588  0.000000      2.000000
  0.176471  0.294118  0.000000      2.000000
  0.470588 -0.176471  0.000000      2.000000
  0.352941  0.176471  0.000000      2.000000
 -0.176471 -0.470588  0.000000      2.000000
  0.470588  0.352941  0.000000      2.000000
 -0.352941 -0.470588  0.000000      2.000000
  0.176471  0.352941  0.000000      2.000000
 -0.470588 -0.176471  0.000000      2.000000
  0.411765  0.176471  0.000000      2.000000
 -0.176471 -0.411765  0.000000      2.000000
  0.411765  0.411765  0.000000      2.000000
  0.235294  0.235294  0.000000      2.000000
 -0.235294  0.470588  0.000000      2.000000
 -0.470588  0.235294  0.000000      2.000000
  0.294118  0.235294  0.000000      2.000000
 -0.235294 -0.470588  0.000000      2.000000
  0.470588  0.294118  0.000000      2.000000
 -0.294118 -0.470588  0.000000      2.000000
  0.235294  0.294118  0.000000      2.000000
 -0.470588 -0.235294  0.000000      2.000000
  0.352941  0.235294  0.000000      2.000000
 -0.235294 -0.411765  0.000000      2.000000
  0.411765  0.352941  0.000000      2.000000
 -0.352941 -0.411765  0.000000      2.000000
  0.235294  0.352941  0.000000      2.000000
 -0.411765 -0.235294  0.000000      2.000000
  0.294118  0.294118  0.000000      2.000000
 -0.294118 -0.411765  0.000000      2.000000
  0.411765  0.294118  0.000000      2.000000
  0.352941  0.294118  0.000000      2.000000
 -0.294118 -0.352941  0.000000      2.000000
  0.352941  0.352941  0.000000      2.000000
 
 Following cartesian coordinates:
            Coordinates               Weight
  0.000000  0.000000  0.000000      1.000000
  0.007008  0.012139  0.000000      2.000000
 -0.007008  0.012139  0.000000      2.000000
 -0.014016  0.000000  0.000000      2.000000
  0.014016  0.024277  0.000000      2.000000
 -0.014016  0.024277  0.000000      2.000000
 -0.028033  0.000000  0.000000      2.000000
  0.021025  0.036416  0.000000      2.000000
 -0.021025  0.036416  0.000000      2.000000
 -0.042049  0.000000  0.000000      2.000000
  0.028033  0.048554  0.000000      2.000000
 -0.028033  0.048554  0.000000      2.000000
 -0.056066  0.000000  0.000000      2.000000
  0.035041  0.060693  0.000000      2.000000
 -0.035041  0.060693  0.000000      2.000000
 -0.070082  0.000000  0.000000      2.000000
  0.042049  0.072831  0.000000      2.000000
 -0.042049  0.072831  0.000000      2.000000
 -0.084099  0.000000  0.000000      2.000000
  0.049057  0.084970  0.000000      2.000000
 -0.049057  0.084970  0.000000      2.000000
 -0.098115  0.000000  0.000000      2.000000
  0.056066  0.097109  0.000000      2.000000
 -0.056066  0.097109  0.000000      2.000000
 -0.112131  0.000000  0.000000      2.000000
  0.000000  0.024277  0.000000      2.000000
 -0.021025  0.012139  0.000000      2.000000
 -0.021025 -0.012139  0.000000      2.000000
  0.007008  0.036416  0.000000      2.000000
 -0.028033  0.024277  0.000000      2.000000
 -0.035041 -0.012139  0.000000      2.000000
 -0.035041  0.012139  0.000000      2.000000
 -0.007008  0.036416  0.000000      2.000000
  0.028033  0.024277  0.000000      2.000000
  0.014016  0.048554  0.000000      2.000000
 -0.035041  0.036416  0.000000      2.000000
 -0.049057 -0.012139  0.000000      2.000000
 -0.049057  0.012139  0.000000      2.000000
 -0.014016  0.048554  0.000000      2.000000
  0.035041  0.036416  0.000000      2.000000
  0.021025  0.060693  0.000000      2.000000
 -0.042049  0.048554  0.000000      2.000000
 -0.063074 -0.012139  0.000000      2.000000
 -0.063074  0.012139  0.000000      2.000000
 -0.021025  0.060693  0.000000      2.000000
  0.042049  0.048554  0.000000      2.000000
  0.028033  0.072831  0.000000      2.000000
 -0.049057  0.060693  0.000000      2.000000
 -0.077090 -0.012139  0.000000      2.000000
 -0.077090  0.012139  0.000000      2.000000
 -0.028033  0.072831  0.000000      2.000000
  0.049057  0.060693  0.000000      2.000000
  0.035041  0.084970  0.000000      2.000000
 -0.056066  0.072831  0.000000      2.000000
 -0.091107 -0.012139  0.000000      2.000000
 -0.091107  0.012139  0.000000      2.000000
 -0.035041  0.084970  0.000000      2.000000
  0.056066  0.072831  0.000000      2.000000
  0.042049  0.097109  0.000000      2.000000
 -0.063074  0.084970  0.000000      2.000000
 -0.105123 -0.012139  0.000000      2.000000
 -0.105123  0.012139  0.000000      2.000000
 -0.042049  0.097109  0.000000      2.000000
  0.063074  0.084970  0.000000      2.000000
  0.049057  0.109247  0.000000      2.000000
  0.049057 -0.109247  0.000000      2.000000
  0.000000  0.194217  0.000000      2.000000
  0.000000  0.048554  0.000000      2.000000
 -0.042049  0.024277  0.000000      2.000000
 -0.042049 -0.024277  0.000000      2.000000
  0.007008  0.060693  0.000000      2.000000
 -0.049057  0.036416  0.000000      2.000000
 -0.056066 -0.024277  0.000000      2.000000
 -0.056066  0.024277  0.000000      2.000000
 -0.007008  0.060693  0.000000      2.000000
  0.049057  0.036416  0.000000      2.000000
  0.014016  0.072831  0.000000      2.000000
 -0.056066  0.048554  0.000000      2.000000
 -0.070082 -0.024277  0.000000      2.000000
 -0.070082  0.024277  0.000000      2.000000
 -0.014016  0.072831  0.000000      2.000000
  0.056066  0.048554  0.000000      2.000000
  0.021025  0.084970  0.000000      2.000000
 -0.063074  0.060693  0.000000      2.000000
 -0.084099 -0.024277  0.000000      2.000000
 -0.084099  0.024277  0.000000      2.000000
 -0.021025  0.084970  0.000000      2.000000
  0.063074  0.060693  0.000000      2.000000
  0.028033  0.097109  0.000000      2.000000
 -0.070082  0.072831  0.000000      2.000000
 -0.098115 -0.024277  0.000000      2.000000
 -0.098115  0.024277  0.000000      2.000000
 -0.028033  0.097109  0.000000      2.000000
  0.070082  0.072831  0.000000      2.000000
  0.035041  0.109247  0.000000      2.000000
  0.042049 -0.121386  0.000000      2.000000
  0.007008  0.182079  0.000000      2.000000
  0.007008 -0.182079  0.000000      2.000000
 -0.035041  0.109247  0.000000      2.000000
 -0.042049 -0.121386  0.000000      2.000000
  0.000000  0.072831  0.000000      2.000000
 -0.063074  0.036416  0.000000      2.000000
 -0.063074 -0.036416  0.000000      2.000000
  0.007008  0.084970  0.000000      2.000000
 -0.070082  0.048554  0.000000      2.000000
 -0.077090 -0.036416  0.000000      2.000000
 -0.077090  0.036416  0.000000      2.000000
 -0.007008  0.084970  0.000000      2.000000
  0.070082  0.048554  0.000000      2.000000
  0.014016  0.097109  0.000000      2.000000
 -0.077090  0.060693  0.000000      2.000000
 -0.091107 -0.036416  0.000000      2.000000
 -0.091107  0.036416  0.000000      2.000000
 -0.014016  0.097109  0.000000      2.000000
  0.077090  0.060693  0.000000      2.000000
  0.021025  0.109247  0.000000      2.000000
  0.035041 -0.133524  0.000000      2.000000
  0.014016  0.169940  0.000000      2.000000
  0.014016 -0.169940  0.000000      2.000000
 -0.021025  0.109247  0.000000      2.000000
 -0.035041 -0.133524  0.000000      2.000000
  0.028033  0.121386  0.000000      2.000000
  0.028033 -0.121386  0.000000      2.000000
 -0.000000  0.169940  0.000000      2.000000
  0.000000  0.097109  0.000000      2.000000
 -0.084099  0.048554  0.000000      2.000000
 -0.084099 -0.048554  0.000000      2.000000
  0.007008  0.109247  0.000000      2.000000
  0.028033 -0.145663  0.000000      2.000000
  0.021025  0.157801  0.000000      2.000000
  0.021025 -0.157801  0.000000      2.000000
 -0.007008  0.109247  0.000000      2.000000
 -0.028033 -0.145663  0.000000      2.000000
  0.014016  0.121386  0.000000      2.000000
  0.021025 -0.133524  0.000000      2.000000
  0.007008  0.157801  0.000000      2.000000
  0.007008 -0.157801  0.000000      2.000000
 -0.014016  0.121386  0.000000      2.000000
 -0.021025 -0.133524  0.000000      2.000000
  0.000000  0.121386  0.000000      2.000000
  0.014016 -0.145663  0.000000      2.000000
  0.014016  0.145663  0.000000      2.000000
  0.007008  0.133524  0.000000      2.000000
  0.007008 -0.133524  0.000000      2.000000
  0.000000  0.145663  0.000000      2.000000
 
 
 Subroutine IBZKPT_HF returns following result:
 ==============================================
 
 Found    289 k-points in 1st BZ
 the following    289 k-points will be used (e.g. in the exchange kernel)
 Following reciprocal coordinates:   # in IRBZ
  0.000000  0.000000  0.000000    0.00346021   1 t-inv F
  0.058824 -0.000000  0.000000    0.00346021   2 t-inv F
 -0.000000  0.058824  0.000000    0.00346021   3 t-inv F
 -0.058824  0.058824  0.000000    0.00346021   4 t-inv F
  0.117647  0.000000  0.000000    0.00346021   5 t-inv F
  0.000000  0.117647  0.000000    0.00346021   6 t-inv F
 -0.117647  0.117647  0.000000    0.00346021   7 t-inv F
  0.176471  0.000000  0.000000    0.00346021   8 t-inv F
  0.000000  0.176471  0.000000    0.00346021   9 t-inv F
 -0.176471  0.176471  0.000000    0.00346021  10 t-inv F
  0.235294  0.000000  0.000000    0.00346021  11 t-inv F
  0.000000  0.235294  0.000000    0.00346021  12 t-inv F
 -0.235294  0.235294  0.000000    0.00346021  13 t-inv F
  0.294118 -0.000000  0.000000    0.00346021  14 t-inv F
 -0.000000  0.294118  0.000000    0.00346021  15 t-inv F
 -0.294118  0.294118  0.000000    0.00346021  16 t-inv F
  0.352941 -0.000000  0.000000    0.00346021  17 t-inv F
 -0.000000  0.352941  0.000000    0.00346021  18 t-inv F
 -0.352941  0.352941  0.000000    0.00346021  19 t-inv F
  0.411765 -0.000000  0.000000    0.00346021  20 t-inv F
 -0.000000  0.411765  0.000000    0.00346021  21 t-inv F
 -0.411765  0.411765  0.000000    0.00346021  22 t-inv F
  0.470588  0.000000  0.000000    0.00346021  23 t-inv F
  0.000000  0.470588  0.000000    0.00346021  24 t-inv F
 -0.470588  0.470588  0.000000    0.00346021  25 t-inv F
  0.058824  0.058824  0.000000    0.00346021  26 t-inv F
 -0.058824  0.117647  0.000000    0.00346021  27 t-inv F
 -0.117647  0.058824  0.000000    0.00346021  28 t-inv F
  0.117647  0.058824  0.000000    0.00346021  29 t-inv F
 -0.058824  0.176471  0.000000    0.00346021  30 t-inv F
 -0.176471  0.117647  0.000000    0.00346021  31 t-inv F
 -0.117647  0.176471  0.000000    0.00346021  32 t-inv F
  0.058824  0.117647  0.000000    0.00346021  33 t-inv F
  0.176471 -0.058824  0.000000    0.00346021  34 t-inv F
  0.176471  0.058824  0.000000    0.00346021  35 t-inv F
 -0.058824  0.235294  0.000000    0.00346021  36 t-inv F
 -0.235294  0.176471  0.000000    0.00346021  37 t-inv F
 -0.176471  0.235294  0.000000    0.00346021  38 t-inv F
  0.058824  0.176471  0.000000    0.00346021  39 t-inv F
  0.235294 -0.058824  0.000000    0.00346021  40 t-inv F
  0.235294  0.058824  0.000000    0.00346021  41 t-inv F
 -0.058824  0.294118  0.000000    0.00346021  42 t-inv F
 -0.294118  0.235294  0.000000    0.00346021  43 t-inv F
 -0.235294  0.294118  0.000000    0.00346021  44 t-inv F
  0.058824  0.235294  0.000000    0.00346021  45 t-inv F
  0.294118 -0.058824  0.000000    0.00346021  46 t-inv F
  0.294118  0.058824  0.000000    0.00346021  47 t-inv F
 -0.058824  0.352941  0.000000    0.00346021  48 t-inv F
 -0.352941  0.294118  0.000000    0.00346021  49 t-inv F
 -0.294118  0.352941  0.000000    0.00346021  50 t-inv F
  0.058824  0.294118  0.000000    0.00346021  51 t-inv F
  0.352941 -0.058824  0.000000    0.00346021  52 t-inv F
  0.352941  0.058824  0.000000    0.00346021  53 t-inv F
 -0.058824  0.411765  0.000000    0.00346021  54 t-inv F
 -0.411765  0.352941  0.000000    0.00346021  55 t-inv F
 -0.352941  0.411765  0.000000    0.00346021  56 t-inv F
  0.058824  0.352941  0.000000    0.00346021  57 t-inv F
  0.411765 -0.058824  0.000000    0.00346021  58 t-inv F
  0.411765  0.058824  0.000000    0.00346021  59 t-inv F
 -0.058824  0.470588  0.000000    0.00346021  60 t-inv F
 -0.470588  0.411765  0.000000    0.00346021  61 t-inv F
 -0.411765  0.470588  0.000000    0.00346021  62 t-inv F
  0.058824  0.411765  0.000000    0.00346021  63 t-inv F
  0.470588 -0.058824  0.000000    0.00346021  64 t-inv F
  0.470588  0.058824  0.000000    0.00346021  65 t-inv F
 -0.058824 -0.470588  0.000000    0.00346021  66 t-inv F
  0.470588  0.470588  0.000000    0.00346021  67 t-inv F
  0.117647  0.117647  0.000000    0.00346021  68 t-inv F
 -0.117647  0.235294  0.000000    0.00346021  69 t-inv F
 -0.235294  0.117647  0.000000    0.00346021  70 t-inv F
  0.176471  0.117647  0.000000    0.00346021  71 t-inv F
 -0.117647  0.294118  0.000000    0.00346021  72 t-inv F
 -0.294118  0.176471  0.000000    0.00346021  73 t-inv F
 -0.176471  0.294118  0.000000    0.00346021  74 t-inv F
  0.117647  0.176471  0.000000    0.00346021  75 t-inv F
  0.294118 -0.117647  0.000000    0.00346021  76 t-inv F
  0.235294  0.117647  0.000000    0.00346021  77 t-inv F
 -0.117647  0.352941  0.000000    0.00346021  78 t-inv F
 -0.352941  0.235294  0.000000    0.00346021  79 t-inv F
 -0.235294  0.352941  0.000000    0.00346021  80 t-inv F
  0.117647  0.235294  0.000000    0.00346021  81 t-inv F
  0.352941 -0.117647  0.000000    0.00346021  82 t-inv F
  0.294118  0.117647  0.000000    0.00346021  83 t-inv F
 -0.117647  0.411765  0.000000    0.00346021  84 t-inv F
 -0.411765  0.294118  0.000000    0.00346021  85 t-inv F
 -0.294118  0.411765  0.000000    0.00346021  86 t-inv F
  0.117647  0.294118  0.000000    0.00346021  87 t-inv F
  0.411765 -0.117647  0.000000    0.00346021  88 t-inv F
  0.352941  0.117647  0.000000    0.00346021  89 t-inv F
 -0.117647  0.470588  0.000000    0.00346021  90 t-inv F
 -0.470588  0.352941  0.000000    0.00346021  91 t-inv F
 -0.352941  0.470588  0.000000    0.00346021  92 t-inv F
  0.117647  0.352941  0.000000    0.00346021  93 t-inv F
  0.470588 -0.117647  0.000000    0.00346021  94 t-inv F
  0.411765  0.117647  0.000000    0.00346021  95 t-inv F
 -0.117647 -0.470588  0.000000    0.00346021  96 t-inv F
  0.470588  0.411765  0.000000    0.00346021  97 t-inv F
 -0.411765 -0.470588  0.000000    0.00346021  98 t-inv F
  0.117647  0.411765  0.000000    0.00346021  99 t-inv F
 -0.470588 -0.117647  0.000000    0.00346021 100 t-inv F
  0.176471  0.176471  0.000000    0.00346021 101 t-inv F
 -0.176471  0.352941  0.000000    0.00346021 102 t-inv F
 -0.352941  0.176471  0.000000    0.00346021 103 t-inv F
  0.235294  0.176471  0.000000    0.00346021 104 t-inv F
 -0.176471  0.411765  0.000000    0.00346021 105 t-inv F
 -0.411765  0.235294  0.000000    0.00346021 106 t-inv F
 -0.235294  0.411765  0.000000    0.00346021 107 t-inv F
  0.176471  0.235294  0.000000    0.00346021 108 t-inv F
  0.411765 -0.176471  0.000000    0.00346021 109 t-inv F
  0.294118  0.176471  0.000000    0.00346021 110 t-inv F
 -0.176471  0.470588  0.000000    0.00346021 111 t-inv F
 -0.470588  0.294118  0.000000    0.00346021 112 t-inv F
 -0.294118  0.470588  0.000000    0.00346021 113 t-inv F
  0.176471  0.294118  0.000000    0.00346021 114 t-inv F
  0.470588 -0.176471  0.000000    0.00346021 115 t-inv F
  0.352941  0.176471  0.000000    0.00346021 116 t-inv F
 -0.176471 -0.470588  0.000000    0.00346021 117 t-inv F
  0.470588  0.352941  0.000000    0.00346021 118 t-inv F
 -0.352941 -0.470588  0.000000    0.00346021 119 t-inv F
  0.176471  0.352941  0.000000    0.00346021 120 t-inv F
 -0.470588 -0.176471  0.000000    0.00346021 121 t-inv F
  0.411765  0.176471  0.000000    0.00346021 122 t-inv F
 -0.176471 -0.411765  0.000000    0.00346021 123 t-inv F
  0.411765  0.411765  0.000000    0.00346021 124 t-inv F
  0.235294  0.235294  0.000000    0.00346021 125 t-inv F
 -0.235294  0.470588  0.000000    0.00346021 126 t-inv F
 -0.470588  0.235294  0.000000    0.00346021 127 t-inv F
  0.294118  0.235294  0.000000    0.00346021 128 t-inv F
 -0.235294 -0.470588  0.000000    0.00346021 129 t-inv F
  0.470588  0.294118  0.000000    0.00346021 130 t-inv F
 -0.294118 -0.470588  0.000000    0.00346021 131 t-inv F
  0.235294  0.294118  0.000000    0.00346021 132 t-inv F
 -0.470588 -0.235294  0.000000    0.00346021 133 t-inv F
  0.352941  0.235294  0.000000    0.00346021 134 t-inv F
 -0.235294 -0.411765  0.000000    0.00346021 135 t-inv F
  0.411765  0.352941  0.000000    0.00346021 136 t-inv F
 -0.352941 -0.411765  0.000000    0.00346021 137 t-inv F
  0.235294  0.352941  0.000000    0.00346021 138 t-inv F
 -0.411765 -0.235294  0.000000    0.00346021 139 t-inv F
  0.294118  0.294118  0.000000    0.00346021 140 t-inv F
 -0.294118 -0.411765  0.000000    0.00346021 141 t-inv F
  0.411765  0.294118  0.000000    0.00346021 142 t-inv F
  0.352941  0.294118  0.000000    0.00346021 143 t-inv F
 -0.294118 -0.352941  0.000000    0.00346021 144 t-inv F
  0.352941  0.352941  0.000000    0.00346021 145 t-inv F
 -0.058824  0.000000  0.000000    0.00346021   2 t-inv T
  0.000000 -0.058824  0.000000    0.00346021   3 t-inv T
  0.058824 -0.058824  0.000000    0.00346021   4 t-inv T
 -0.117647  0.000000  0.000000    0.00346021   5 t-inv T
  0.000000 -0.117647  0.000000    0.00346021   6 t-inv T
  0.117647 -0.117647  0.000000    0.00346021   7 t-inv T
 -0.176471  0.000000  0.000000    0.00346021   8 t-inv T
  0.000000 -0.176471  0.000000    0.00346021   9 t-inv T
  0.176471 -0.176471  0.000000    0.00346021  10 t-inv T
 -0.235294  0.000000  0.000000    0.00346021  11 t-inv T
  0.000000 -0.235294  0.000000    0.00346021  12 t-inv T
  0.235294 -0.235294  0.000000    0.00346021  13 t-inv T
 -0.294118  0.000000  0.000000    0.00346021  14 t-inv T
  0.000000 -0.294118  0.000000    0.00346021  15 t-inv T
  0.294118 -0.294118  0.000000    0.00346021  16 t-inv T
 -0.352941  0.000000  0.000000    0.00346021  17 t-inv T
  0.000000 -0.352941  0.000000    0.00346021  18 t-inv T
  0.352941 -0.352941  0.000000    0.00346021  19 t-inv T
 -0.411765  0.000000  0.000000    0.00346021  20 t-inv T
  0.000000 -0.411765  0.000000    0.00346021  21 t-inv T
  0.411765 -0.411765  0.000000    0.00346021  22 t-inv T
 -0.470588  0.000000  0.000000    0.00346021  23 t-inv T
  0.000000 -0.470588  0.000000    0.00346021  24 t-inv T
  0.470588 -0.470588  0.000000    0.00346021  25 t-inv T
 -0.058824 -0.058824  0.000000    0.00346021  26 t-inv T
  0.058824 -0.117647  0.000000    0.00346021  27 t-inv T
  0.117647 -0.058824  0.000000    0.00346021  28 t-inv T
 -0.117647 -0.058824  0.000000    0.00346021  29 t-inv T
  0.058824 -0.176471  0.000000    0.00346021  30 t-inv T
  0.176471 -0.117647  0.000000    0.00346021  31 t-inv T
  0.117647 -0.176471  0.000000    0.00346021  32 t-inv T
 -0.058824 -0.117647  0.000000    0.00346021  33 t-inv T
 -0.176471  0.058824  0.000000    0.00346021  34 t-inv T
 -0.176471 -0.058824  0.000000    0.00346021  35 t-inv T
  0.058824 -0.235294  0.000000    0.00346021  36 t-inv T
  0.235294 -0.176471  0.000000    0.00346021  37 t-inv T
  0.176471 -0.235294  0.000000    0.00346021  38 t-inv T
 -0.058824 -0.176471  0.000000    0.00346021  39 t-inv T
 -0.235294  0.058824  0.000000    0.00346021  40 t-inv T
 -0.235294 -0.058824  0.000000    0.00346021  41 t-inv T
  0.058824 -0.294118  0.000000    0.00346021  42 t-inv T
  0.294118 -0.235294  0.000000    0.00346021  43 t-inv T
  0.235294 -0.294118  0.000000    0.00346021  44 t-inv T
 -0.058824 -0.235294  0.000000    0.00346021  45 t-inv T
 -0.294118  0.058824  0.000000    0.00346021  46 t-inv T
 -0.294118 -0.058824  0.000000    0.00346021  47 t-inv T
  0.058824 -0.352941  0.000000    0.00346021  48 t-inv T
  0.352941 -0.294118  0.000000    0.00346021  49 t-inv T
  0.294118 -0.352941  0.000000    0.00346021  50 t-inv T
 -0.058824 -0.294118  0.000000    0.00346021  51 t-inv T
 -0.352941  0.058824  0.000000    0.00346021  52 t-inv T
 -0.352941 -0.058824  0.000000    0.00346021  53 t-inv T
  0.058824 -0.411765  0.000000    0.00346021  54 t-inv T
  0.411765 -0.352941  0.000000    0.00346021  55 t-inv T
  0.352941 -0.411765  0.000000    0.00346021  56 t-inv T
 -0.058824 -0.352941  0.000000    0.00346021  57 t-inv T
 -0.411765  0.058824  0.000000    0.00346021  58 t-inv T
 -0.411765 -0.058824  0.000000    0.00346021  59 t-inv T
  0.058824 -0.470588  0.000000    0.00346021  60 t-inv T
  0.470588 -0.411765  0.000000    0.00346021  61 t-inv T
  0.411765 -0.470588  0.000000    0.00346021  62 t-inv T
 -0.058824 -0.411765  0.000000    0.00346021  63 t-inv T
 -0.470588  0.058824  0.000000    0.00346021  64 t-inv T
 -0.470588 -0.058824  0.000000    0.00346021  65 t-inv T
  0.058824  0.470588  0.000000    0.00346021  66 t-inv T
 -0.470588 -0.470588  0.000000    0.00346021  67 t-inv T
 -0.117647 -0.117647  0.000000    0.00346021  68 t-inv T
  0.117647 -0.235294  0.000000    0.00346021  69 t-inv T
  0.235294 -0.117647  0.000000    0.00346021  70 t-inv T
 -0.176471 -0.117647  0.000000    0.00346021  71 t-inv T
  0.117647 -0.294118  0.000000    0.00346021  72 t-inv T
  0.294118 -0.176471  0.000000    0.00346021  73 t-inv T
  0.176471 -0.294118  0.000000    0.00346021  74 t-inv T
 -0.117647 -0.176471  0.000000    0.00346021  75 t-inv T
 -0.294118  0.117647  0.000000    0.00346021  76 t-inv T
 -0.235294 -0.117647  0.000000    0.00346021  77 t-inv T
  0.117647 -0.352941  0.000000    0.00346021  78 t-inv T
  0.352941 -0.235294  0.000000    0.00346021  79 t-inv T
  0.235294 -0.352941  0.000000    0.00346021  80 t-inv T
 -0.117647 -0.235294  0.000000    0.00346021  81 t-inv T
 -0.352941  0.117647  0.000000    0.00346021  82 t-inv T
 -0.294118 -0.117647  0.000000    0.00346021  83 t-inv T
  0.117647 -0.411765  0.000000    0.00346021  84 t-inv T
  0.411765 -0.294118  0.000000    0.00346021  85 t-inv T
  0.294118 -0.411765  0.000000    0.00346021  86 t-inv T
 -0.117647 -0.294118  0.000000    0.00346021  87 t-inv T
 -0.411765  0.117647  0.000000    0.00346021  88 t-inv T
 -0.352941 -0.117647  0.000000    0.00346021  89 t-inv T
  0.117647 -0.470588  0.000000    0.00346021  90 t-inv T
  0.470588 -0.352941  0.000000    0.00346021  91 t-inv T
  0.352941 -0.470588  0.000000    0.00346021  92 t-inv T
 -0.117647 -0.352941  0.000000    0.00346021  93 t-inv T
 -0.470588  0.117647  0.000000    0.00346021  94 t-inv T
 -0.411765 -0.117647  0.000000    0.00346021  95 t-inv T
  0.117647  0.470588  0.000000    0.00346021  96 t-inv T
 -0.470588 -0.411765  0.000000    0.00346021  97 t-inv T
  0.411765  0.470588  0.000000    0.00346021  98 t-inv T
 -0.117647 -0.411765  0.000000    0.00346021  99 t-inv T
  0.470588  0.117647  0.000000    0.00346021 100 t-inv T
 -0.176471 -0.176471  0.000000    0.00346021 101 t-inv T
  0.176471 -0.352941  0.000000    0.00346021 102 t-inv T
  0.352941 -0.176471  0.000000    0.00346021 103 t-inv T
 -0.235294 -0.176471  0.000000    0.00346021 104 t-inv T
  0.176471 -0.411765  0.000000    0.00346021 105 t-inv T
  0.411765 -0.235294  0.000000    0.00346021 106 t-inv T
  0.235294 -0.411765  0.000000    0.00346021 107 t-inv T
 -0.176471 -0.235294  0.000000    0.00346021 108 t-inv T
 -0.411765  0.176471  0.000000    0.00346021 109 t-inv T
 -0.294118 -0.176471  0.000000    0.00346021 110 t-inv T
  0.176471 -0.470588  0.000000    0.00346021 111 t-inv T
  0.470588 -0.294118  0.000000    0.00346021 112 t-inv T
  0.294118 -0.470588  0.000000    0.00346021 113 t-inv T
 -0.176471 -0.294118  0.000000    0.00346021 114 t-inv T
 -0.470588  0.176471  0.000000    0.00346021 115 t-inv T
 -0.352941 -0.176471  0.000000    0.00346021 116 t-inv T
  0.176471  0.470588  0.000000    0.00346021 117 t-inv T
 -0.470588 -0.352941  0.000000    0.00346021 118 t-inv T
  0.352941  0.470588  0.000000    0.00346021 119 t-inv T
 -0.176471 -0.352941  0.000000    0.00346021 120 t-inv T
  0.470588  0.176471  0.000000    0.00346021 121 t-inv T
 -0.411765 -0.176471  0.000000    0.00346021 122 t-inv T
  0.176471  0.411765  0.000000    0.00346021 123 t-inv T
 -0.411765 -0.411765  0.000000    0.00346021 124 t-inv T
 -0.235294 -0.235294  0.000000    0.00346021 125 t-inv T
  0.235294 -0.470588  0.000000    0.00346021 126 t-inv T
  0.470588 -0.235294  0.000000    0.00346021 127 t-inv T
 -0.294118 -0.235294  0.000000    0.00346021 128 t-inv T
  0.235294  0.470588  0.000000    0.00346021 129 t-inv T
 -0.470588 -0.294118  0.000000    0.00346021 130 t-inv T
  0.294118  0.470588  0.000000    0.00346021 131 t-inv T
 -0.235294 -0.294118  0.000000    0.00346021 132 t-inv T
  0.470588  0.235294  0.000000    0.00346021 133 t-inv T
 -0.352941 -0.235294  0.000000    0.00346021 134 t-inv T
  0.235294  0.411765  0.000000    0.00346021 135 t-inv T
 -0.411765 -0.352941  0.000000    0.00346021 136 t-inv T
  0.352941  0.411765  0.000000    0.00346021 137 t-inv T
 -0.235294 -0.352941  0.000000    0.00346021 138 t-inv T
  0.411765  0.235294  0.000000    0.00346021 139 t-inv T
 -0.294118 -0.294118  0.000000    0.00346021 140 t-inv T
  0.294118  0.411765  0.000000    0.00346021 141 t-inv T
 -0.411765 -0.294118  0.000000    0.00346021 142 t-inv T
 -0.352941 -0.294118  0.000000    0.00346021 143 t-inv T
  0.294118  0.352941  0.000000    0.00346021 144 t-inv T
 -0.352941 -0.352941  0.000000    0.00346021 145 t-inv T


--------------------------------------------------------------------------------------------------------




 Dimension of arrays:
   k-points           NKPTS =    145   k-points in BZ     NKDIM =    289   number of bands    NBANDS=    128
   number of dos      NEDOS =   4000   number of ions     NIONS =     15
   non local maximal  LDIM  =      4   non local SUM 2l+1 LMDIM =      8
   total plane-waves  NPLWV = 139968
   max r-space proj   IRMAX =      1   max aug-charges    IRDMAX=   7354
   dimension x,y,z NGX =    36 NGY =   36 NGZ =  108
   dimension x,y,z NGXF=    72 NGYF=   72 NGZF=  216
   support grid    NGXF=    72 NGYF=   72 NGZF=  216
   ions per type =               4  11
   NGX,Y,Z   is equivalent  to a cutoff of  12.35, 12.35, 11.97 a.u.
   NGXF,Y,Z  is equivalent  to a cutoff of  24.70, 24.70, 23.94 a.u.

 SYSTEM =  Dielectric_function                     
 POSCAR =  Graphene-B4C3 Top with lattice parameter

 Startparameter for this run:
   NWRITE =      2    write-flag & timer
   PREC   = accura    normal or accurate (medium, high low for compatibility)
   ISTART =      1    job   : 0-new  1-cont  2-samecut
   ICHARG =      2    charge: 1-file 2-atom 10-const
   ISPIN  =      1    spin polarized calculation?
   LNONCOLLINEAR =      F non collinear calculations
   LSORBIT =      F    spin-orbit coupling
   INIWAV =      1    electr: 0-lowe 1-rand  2-diag
   LASPH  =      F    aspherical Exc in radial PAW
 Electronic Relaxation 1
   ENCUT  =  450.0 eV  33.07 Ry    5.75 a.u.   8.38  8.38 25.95*2*pi/ulx,y,z
   ENINI  =  450.0     initial cutoff
   ENAUG  =  644.9 eV  augmentation charge cutoff
   NELM   =     60;   NELMIN=  2; NELMDL=  0     # of ELM steps 
   EDIFF  = 0.1E-07   stopping-criterion for ELM
   LREAL  =      F    real-space projection
   NLSPLINE    = F    spline interpolate recip. space projectors
   LCOMPAT=      F    compatible to vasp.4.4
   GGA_COMPAT  = T    GGA compatible to vasp.4.4-vasp.4.6
   LMAXPAW     = -100 max onsite density
   LMAXMIX     =    2 max onsite mixed and CHGCAR
   VOSKOWN=      0    Vosko Wilk Nusair interpolation
   ROPT   =    0.00000   0.00000
 Ionic relaxation
   EDIFFG = 0.1E-06   stopping-criterion for IOM
   NSW    =      0    number of steps for IOM
   NBLOCK =      1;   KBLOCK =      1    inner block; outer block 
   IBRION =     -1    ionic relax: 0-MD 1-quasi-New 2-CG
   NFREE  =      0    steps in history (QN), initial steepest desc. (CG)
   ISIF   =      0    stress and relaxation
   IWAVPR =     10    prediction:  0-non 1-charg 2-wave 3-comb
   ISYM   =      3    0-nonsym 1-usesym 2-fastsym
   LCORR  =      T    Harris-Foulkes like correction to forces

   POTIM  = 0.5000    time-step for ionic-motion
   TEIN   =    0.0    initial temperature
   TEBEG  =    0.0;   TEEND  =   0.0 temperature during run
   SMASS  =  -3.00    Nose mass-parameter (am)
   estimated Nose-frequenzy (Omega)   =  0.10E-29 period in steps = 0.13E+47 mass=  -0.537E-27a.u.
   SCALEE = 1.0000    scale energy and forces
   NPACO  =    256;   APACO  = 10.0  distance and # of slots for P.C.
   PSTRESS=    0.0 pullay stress

  Mass of Ions in am
   POMASS =  10.81 12.01
  Ionic Valenz
   ZVAL   =   3.00  4.00
  Atomic Wigner-Seitz radii
   RWIGS  =  -1.00 -1.00
  virtual crystal weights 
   VCA    =   1.00  1.00
   NELECT =      56.0000    total number of electrons
   NUPDOWN=      -1.0000    fix difference up-down

 DOS related values:
   EMIN   =  10.00;   EMAX   =-10.00  energy-range for DOS
   EFERMI =   0.00;   METHOD = LEGACY      
   ISMEAR =     0;   SIGMA  =   0.01  broadening in eV -4-tet -1-fermi 0-gaus

 Electronic relaxation 2 (details)
   IALGO  =     53    algorithm
   LDIAG  =      T    sub-space diagonalisation (order eigenvalues)
   LSUBROT=      F    optimize rotation matrix (better conditioning)
   TURBO    =      0    0=normal 1=particle mesh
   IRESTART =      0    0=no restart 2=restart with 2 vectors
   NREBOOT  =      0    no. of reboots
   NMIN     =      0    reboot dimension
   EREF     =   0.00    reference energy to select bands
   IMIX   =      4    mixing-type and parameters
     AMIX     =   0.40;   BMIX     =  1.00
     AMIX_MAG =   1.60;   BMIX_MAG =  1.00
     AMIN     =   0.10
     WC   =   100.;   INIMIX=   1;  MIXPRE=   1;  MAXMIX= -45

 Intra band minimization:
   WEIMIN = 0.0000     energy-eigenvalue tresh-hold
   EBREAK =  0.20E-10  absolut break condition
   DEPER  =   0.30     relativ break condition  

   TIME   =   0.40     timestep for ELM

  volume/ion in A,a.u.               =      20.34       137.24
  Fermi-wavevector in a.u.,A,eV,Ry     =   0.930411  1.758221 11.778070  0.865664
  Thomas-Fermi vector in A             =   2.056796
 
 Write flags
   LWAVE        =      T    write WAVECAR
   LDOWNSAMPLE  =      F    k-point downsampling of WAVECAR
   LCHARG       =      T    write CHGCAR
   LVTOT        =      F    write LOCPOT, total local potential
   LVHAR        =      F    write LOCPOT, Hartree potential only
   LELF         =      F    write electronic localiz. function (ELF)
   LORBIT       =      0    0 simple, 1 ext, 2 COOP (PROOUT), +10 PAW based schemes


 Dipole corrections
   LMONO  =      F    monopole corrections only (constant potential shift)
   LDIPOL =      F    correct potential (dipole corrections)
   IDIPOL =      0    1-x, 2-y, 3-z, 4-all directions 
   EPSILON=  1.0000000 bulk dielectric constant

 Exchange correlation treatment:
   GGA     =    PE    GGA type
   LEXCH   =     8    internal setting for exchange type
   LIBXC   =     F    Libxc                    
   VOSKOWN =     0    Vosko Wilk Nusair interpolation
   EXXOEP  =     0    0=HF, 1=EXX-LHF (local Hartree Fock) 2=EXX OEP
   LHFCALC =     T    Hartree Fock is set to
   LSYMGRAD=     F    symmetrize gradient (conserves proper symmetry)
   PRECFOCK=normal    Normal, Fast or Accurate (Low or Medium for compatibility)
   LRHFCALC=     F    long range Hartree Fock
   LRSCOR  =     F    long range correlation only (use DFT for short range part)
   LTHOMAS =     F    Thomas Fermi screening in HF
   LMODELHF=     F    short range full HF, long range fraction AEXX
   FOCKCORR=     1    mode to apply convergence corrections
   LFOCKACE=     T    use Adeptively-Compressed-Exchange operator
   ENCUT4O =  -1.0   cutoff for four orbital integrals eV
   LMAXFOCK=     4    L truncation for augmentation on plane wave grid
   LMAXFOCKAE=  -1    L truncation for all-electron charge restoration on plane wave grid
   NMAXFOCKAE=   1    number of basis functions for all-electron charge restoration
   LFOCKAEDFT=     F  apply the AE augmentation even for DFT
   NKREDX  =     1    reduce k-point grid by
   NKREDY  =     1    reduce k-point grid by
   NKREDZ  =     1    reduce k-point grid by
   SHIFTRED=     F    shift reduced grid of Gamma
   HFKIDENT=     F    idential grid for each k-point
   ODDONLY =     F    use only odd q-grid points
   EVENONLY=     F    use only even q-grid points
   HFALPHA =   -1.0000 decay constant for conv. correction
   MCALPHA =    0.0000 extent of test-charge in conv. correction in multipole expansion
   AEXX    =    0.2500 exact exchange contribution
   HFSCREEN=    0.2000 screening length (either q_TF or 0.3 A-1)
   HFSCREENC=   0.2000 screening length for correlation (either q_TF or 0.3 A-1)
   HFRCUT  =    0.0000 spherical cutoff for potential kernel
   ALDAX   =    0.7500 LDA exchange part
   AGGAX   =    0.7500 GGA exchange part
   ALDAC   =    1.0000 LDA correlation
   AGGAC   =    1.0000 GGA correlation
   ENCUTFOCK=  -1.0 apply spherical cutoff to Coloumb kernel
   NBANDSGWLOW=     1    first orbital included in HF term
   NBLOCK_FOCK=    64    blocking factor in FOCK_ACC

 Linear response parameters
   LEPSILON=     F    determine dielectric tensor
   LRPA    =     F    only Hartree local field effects (RPA)
   LNABLA  =     F    use nabla operator in PAW spheres
   LVEL    =     F    velocity operator in full k-point grid
   CSHIFT  =0.1000    complex shift for real part using Kramers Kronig
   OMEGAMAX=  -1.0    maximum frequency
   DEG_THRESHOLD= 0.2000000E-02 threshold for treating states as degnerate
   RTIME   =   -0.100 relaxation time in fs
  (WPLASMAI=    0.000 imaginary part of plasma frequency in eV, 0.658/RTIME)
   DFIELD  = 0.0000000 0.0000000 0.0000000 field for delta impulse in time
 
  Optional k-point grid parameters
   LKPOINTS_OPT  =     F    use optional k-point grid
   KPOINTS_OPT_MODE=     1    mode for optional k-point grid
 
 Orbital magnetization related:
   ORBITALMAG=     F  switch on orbital magnetization
   LCHIMAG   =     F  perturbation theory with respect to B field
   DQ        =  0.001000  dq finite difference perturbation B field
   LLRAUG    =     F  two centre corrections for induced B field
   LBONE     =     F  B-component reconstruction in AE one-centre
   LVGVCALC  =     T  calculate vGv susceptibility
   LVGVAPPL  =     F  apply vGv susceptibility instead of pGv for G=0

 Random number generation:
   RANDOM_GENERATOR = DEFAULT
   PCG_SEED         = not used


--------------------------------------------------------------------------------------------------------


 Static calculation
 charge density and potential will be updated during run
 non-spin polarized calculation
 Conjugate gradient for all bands (Freysoldt, et al. PRB 79, 241103 (2009))
 perform sub-space diagonalisation
    before iterative eigenvector-optimisation
 modified Broyden-mixing scheme, WC =      100.0
 initial mixing is a Kerker type mixing with AMIX =  0.4000 and BMIX =      1.0000
 Hartree-type preconditioning will be used
 using additional bands          100
 reciprocal scheme for non local part
 use partial core corrections
 no Harris-corrections to forces 
 use gradient corrections 
 use of overlap-Matrix (Vanderbilt PP)
 Gauss-broadening in eV      SIGMA  =   0.01


--------------------------------------------------------------------------------------------------------


  energy-cutoff  :      450.00
  volume of cell :      305.06
      direct lattice vectors                 reciprocal lattice vectors
     4.196759107  2.423000000  0.000000000     0.119139552  0.206355757  0.000000000
    -4.196759107  2.423000000  0.000000000    -0.119139552  0.206355757  0.000000000
     0.000000000  0.000000000 15.000000000     0.000000000  0.000000000  0.066666667

  length of vectors
     4.846000000  4.846000000 15.000000000     0.238279104  0.238279104  0.066666667


 
 old parameters found on file WAVECAR:
  energy-cutoff  :      450.00
  volume of cell :      305.06
      direct lattice vectors                 reciprocal lattice vectors
     4.196759107  2.423000000  0.000000000     0.119139552  0.206355757  0.000000000
    -4.196759107  2.423000000  0.000000000    -0.119139552  0.206355757  0.000000000
     0.000000000  0.000000000 15.000000000     0.000000000  0.000000000  0.066666667

  length of vectors

 
 k-points in units of 2pi/SCALE and weight: k-points                                
   0.00000000  0.00000000  0.00000000       0.003
   0.00700821  0.01213857  0.00000000       0.007
  -0.00700821  0.01213857  0.00000000       0.007
  -0.01401642  0.00000000  0.00000000       0.007
   0.01401642  0.02427715  0.00000000       0.007
  -0.01401642  0.02427715  0.00000000       0.007
  -0.02803284  0.00000000  0.00000000       0.007
   0.02102463  0.03641572  0.00000000       0.007
  -0.02102463  0.03641572  0.00000000       0.007
  -0.04204925  0.00000000  0.00000000       0.007
   0.02803284  0.04855430  0.00000000       0.007
  -0.02803284  0.04855430  0.00000000       0.007
  -0.05606567  0.00000000  0.00000000       0.007
   0.03504104  0.06069287  0.00000000       0.007
  -0.03504104  0.06069287  0.00000000       0.007
  -0.07008209  0.00000000  0.00000000       0.007
   0.04204925  0.07283144  0.00000000       0.007
  -0.04204925  0.07283144  0.00000000       0.007
  -0.08409851  0.00000000  0.00000000       0.007
   0.04905746  0.08497002  0.00000000       0.007
  -0.04905746  0.08497002  0.00000000       0.007
  -0.09811493  0.00000000  0.00000000       0.007
   0.05606567  0.09710859  0.00000000       0.007
  -0.05606567  0.09710859  0.00000000       0.007
  -0.11213134  0.00000000  0.00000000       0.007
   0.00000000  0.02427715  0.00000000       0.007
  -0.02102463  0.01213857  0.00000000       0.007
  -0.02102463 -0.01213857  0.00000000       0.007
   0.00700821  0.03641572  0.00000000       0.007
  -0.02803284  0.02427715  0.00000000       0.007
  -0.03504104 -0.01213857  0.00000000       0.007
  -0.03504104  0.01213857  0.00000000       0.007
  -0.00700821  0.03641572  0.00000000       0.007
   0.02803284  0.02427715  0.00000000       0.007
   0.01401642  0.04855430  0.00000000       0.007
  -0.03504104  0.03641572  0.00000000       0.007
  -0.04905746 -0.01213857  0.00000000       0.007
  -0.04905746  0.01213857  0.00000000       0.007
  -0.01401642  0.04855430  0.00000000       0.007
   0.03504104  0.03641572  0.00000000       0.007
   0.02102463  0.06069287  0.00000000       0.007
  -0.04204925  0.04855430  0.00000000       0.007
  -0.06307388 -0.01213857  0.00000000       0.007
  -0.06307388  0.01213857  0.00000000       0.007
  -0.02102463  0.06069287  0.00000000       0.007
   0.04204925  0.04855430  0.00000000       0.007
   0.02803284  0.07283144  0.00000000       0.007
  -0.04905746  0.06069287  0.00000000       0.007
  -0.07709030 -0.01213857  0.00000000       0.007
  -0.07709030  0.01213857  0.00000000       0.007
  -0.02803284  0.07283144  0.00000000       0.007
   0.04905746  0.06069287  0.00000000       0.007
   0.03504104  0.08497002  0.00000000       0.007
  -0.05606567  0.07283144  0.00000000       0.007
  -0.09110672 -0.01213857  0.00000000       0.007
  -0.09110672  0.01213857  0.00000000       0.007
  -0.03504104  0.08497002  0.00000000       0.007
   0.05606567  0.07283144  0.00000000       0.007
   0.04204925  0.09710859  0.00000000       0.007
  -0.06307388  0.08497002  0.00000000       0.007
  -0.10512313 -0.01213857  0.00000000       0.007
  -0.10512313  0.01213857  0.00000000       0.007
  -0.04204925  0.09710859  0.00000000       0.007
   0.06307388  0.08497002  0.00000000       0.007
   0.04905746  0.10924717  0.00000000       0.007
   0.04905746 -0.10924717  0.00000000       0.007
   0.00000000  0.19421718  0.00000000       0.007
   0.00000000  0.04855430  0.00000000       0.007
  -0.04204925  0.02427715  0.00000000       0.007
  -0.04204925 -0.02427715  0.00000000       0.007
   0.00700821  0.06069287  0.00000000       0.007
  -0.04905746  0.03641572  0.00000000       0.007
  -0.05606567 -0.02427715  0.00000000       0.007
  -0.05606567  0.02427715  0.00000000       0.007
  -0.00700821  0.06069287  0.00000000       0.007
   0.04905746  0.03641572  0.00000000       0.007
   0.01401642  0.07283144  0.00000000       0.007
  -0.05606567  0.04855430  0.00000000       0.007
  -0.07008209 -0.02427715  0.00000000       0.007
  -0.07008209  0.02427715  0.00000000       0.007
  -0.01401642  0.07283144  0.00000000       0.007
   0.05606567  0.04855430  0.00000000       0.007
   0.02102463  0.08497002  0.00000000       0.007
  -0.06307388  0.06069287  0.00000000       0.007
  -0.08409851 -0.02427715  0.00000000       0.007
  -0.08409851  0.02427715  0.00000000       0.007
  -0.02102463  0.08497002  0.00000000       0.007
   0.06307388  0.06069287  0.00000000       0.007
   0.02803284  0.09710859  0.00000000       0.007
  -0.07008209  0.07283144  0.00000000       0.007
  -0.09811493 -0.02427715  0.00000000       0.007
  -0.09811493  0.02427715  0.00000000       0.007
  -0.02803284  0.09710859  0.00000000       0.007
   0.07008209  0.07283144  0.00000000       0.007
   0.03504104  0.10924717  0.00000000       0.007
   0.04204925 -0.12138574  0.00000000       0.007
   0.00700821  0.18207861  0.00000000       0.007
   0.00700821 -0.18207861  0.00000000       0.007
  -0.03504104  0.10924717  0.00000000       0.007
  -0.04204925 -0.12138574  0.00000000       0.007
   0.00000000  0.07283144  0.00000000       0.007
  -0.06307388  0.03641572  0.00000000       0.007
  -0.06307388 -0.03641572  0.00000000       0.007
   0.00700821  0.08497002  0.00000000       0.007
  -0.07008209  0.04855430  0.00000000       0.007
  -0.07709030 -0.03641572  0.00000000       0.007
  -0.07709030  0.03641572  0.00000000       0.007
  -0.00700821  0.08497002  0.00000000       0.007
   0.07008209  0.04855430  0.00000000       0.007
   0.01401642  0.09710859  0.00000000       0.007
  -0.07709030  0.06069287  0.00000000       0.007
  -0.09110672 -0.03641572  0.00000000       0.007
  -0.09110672  0.03641572  0.00000000       0.007
  -0.01401642  0.09710859  0.00000000       0.007
   0.07709030  0.06069287  0.00000000       0.007
   0.02102463  0.10924717  0.00000000       0.007
   0.03504104 -0.13352431  0.00000000       0.007
   0.01401642  0.16994004  0.00000000       0.007
   0.01401642 -0.16994004  0.00000000       0.007
  -0.02102463  0.10924717  0.00000000       0.007
  -0.03504104 -0.13352431  0.00000000       0.007
   0.02803284  0.12138574  0.00000000       0.007
   0.02803284 -0.12138574  0.00000000       0.007
  -0.00000000  0.16994004  0.00000000       0.007
   0.00000000  0.09710859  0.00000000       0.007
  -0.08409851  0.04855430  0.00000000       0.007
  -0.08409851 -0.04855430  0.00000000       0.007
   0.00700821  0.10924717  0.00000000       0.007
   0.02803284 -0.14566289  0.00000000       0.007
   0.02102463  0.15780146  0.00000000       0.007
   0.02102463 -0.15780146  0.00000000       0.007
  -0.00700821  0.10924717  0.00000000       0.007
  -0.02803284 -0.14566289  0.00000000       0.007
   0.01401642  0.12138574  0.00000000       0.007
   0.02102463 -0.13352431  0.00000000       0.007
   0.00700821  0.15780146  0.00000000       0.007
   0.00700821 -0.15780146  0.00000000       0.007
  -0.01401642  0.12138574  0.00000000       0.007
  -0.02102463 -0.13352431  0.00000000       0.007
   0.00000000  0.12138574  0.00000000       0.007
   0.01401642 -0.14566289  0.00000000       0.007
   0.01401642  0.14566289  0.00000000       0.007
   0.00700821  0.13352431  0.00000000       0.007
   0.00700821 -0.13352431  0.00000000       0.007
   0.00000000  0.14566289  0.00000000       0.007
 
 k-points in reciprocal lattice and weights: k-points                                
   0.00000000  0.00000000  0.00000000       0.003
   0.05882353 -0.00000000  0.00000000       0.007
  -0.00000000  0.05882353  0.00000000       0.007
  -0.05882353  0.05882353  0.00000000       0.007
   0.11764706  0.00000000  0.00000000       0.007
   0.00000000  0.11764706  0.00000000       0.007
  -0.11764706  0.11764706  0.00000000       0.007
   0.17647059  0.00000000  0.00000000       0.007
   0.00000000  0.17647059  0.00000000       0.007
  -0.17647059  0.17647059  0.00000000       0.007
   0.23529412  0.00000000  0.00000000       0.007
   0.00000000  0.23529412  0.00000000       0.007
  -0.23529412  0.23529412  0.00000000       0.007
   0.29411765 -0.00000000  0.00000000       0.007
  -0.00000000  0.29411765  0.00000000       0.007
  -0.29411765  0.29411765  0.00000000       0.007
   0.35294118 -0.00000000  0.00000000       0.007
  -0.00000000  0.35294118  0.00000000       0.007
  -0.35294118  0.35294118  0.00000000       0.007
   0.41176471 -0.00000000  0.00000000       0.007
  -0.00000000  0.41176471  0.00000000       0.007
  -0.41176471  0.41176471  0.00000000       0.007
   0.47058824  0.00000000  0.00000000       0.007
   0.00000000  0.47058824  0.00000000       0.007
  -0.47058824  0.47058824  0.00000000       0.007
   0.05882353  0.05882353  0.00000000       0.007
  -0.05882353  0.11764706  0.00000000       0.007
  -0.11764706  0.05882353  0.00000000       0.007
   0.11764706  0.05882353  0.00000000       0.007
  -0.05882353  0.17647059  0.00000000       0.007
  -0.17647059  0.11764706  0.00000000       0.007
  -0.11764706  0.17647059  0.00000000       0.007
   0.05882353  0.11764706  0.00000000       0.007
   0.17647059 -0.05882353  0.00000000       0.007
   0.17647059  0.05882353  0.00000000       0.007
  -0.05882353  0.23529412  0.00000000       0.007
  -0.23529412  0.17647059  0.00000000       0.007
  -0.17647059  0.23529412  0.00000000       0.007
   0.05882353  0.17647059  0.00000000       0.007
   0.23529412 -0.05882353  0.00000000       0.007
   0.23529412  0.05882353  0.00000000       0.007
  -0.05882353  0.29411765  0.00000000       0.007
  -0.29411765  0.23529412  0.00000000       0.007
  -0.23529412  0.29411765  0.00000000       0.007
   0.05882353  0.23529412  0.00000000       0.007
   0.29411765 -0.05882353  0.00000000       0.007
   0.29411765  0.05882353  0.00000000       0.007
  -0.05882353  0.35294118  0.00000000       0.007
  -0.35294118  0.29411765  0.00000000       0.007
  -0.29411765  0.35294118  0.00000000       0.007
   0.05882353  0.29411765  0.00000000       0.007
   0.35294118 -0.05882353  0.00000000       0.007
   0.35294118  0.05882353  0.00000000       0.007
  -0.05882353  0.41176471  0.00000000       0.007
  -0.41176471  0.35294118  0.00000000       0.007
  -0.35294118  0.41176471  0.00000000       0.007
   0.05882353  0.35294118  0.00000000       0.007
   0.41176471 -0.05882353  0.00000000       0.007
   0.41176471  0.05882353  0.00000000       0.007
  -0.05882353  0.47058824  0.00000000       0.007
  -0.47058824  0.41176471  0.00000000       0.007
  -0.41176471  0.47058824  0.00000000       0.007
   0.05882353  0.41176471  0.00000000       0.007
   0.47058824 -0.05882353  0.00000000       0.007
   0.47058824  0.05882353  0.00000000       0.007
  -0.05882353 -0.47058824  0.00000000       0.007
   0.47058824  0.47058824  0.00000000       0.007
   0.11764706  0.11764706  0.00000000       0.007
  -0.11764706  0.23529412  0.00000000       0.007
  -0.23529412  0.11764706  0.00000000       0.007
   0.17647059  0.11764706  0.00000000       0.007
  -0.11764706  0.29411765  0.00000000       0.007
  -0.29411765  0.17647059  0.00000000       0.007
  -0.17647059  0.29411765  0.00000000       0.007
   0.11764706  0.17647059  0.00000000       0.007
   0.29411765 -0.11764706  0.00000000       0.007
   0.23529412  0.11764706  0.00000000       0.007
  -0.11764706  0.35294118  0.00000000       0.007
  -0.35294118  0.23529412  0.00000000       0.007
  -0.23529412  0.35294118  0.00000000       0.007
   0.11764706  0.23529412  0.00000000       0.007
   0.35294118 -0.11764706  0.00000000       0.007
   0.29411765  0.11764706  0.00000000       0.007
  -0.11764706  0.41176471  0.00000000       0.007
  -0.41176471  0.29411765  0.00000000       0.007
  -0.29411765  0.41176471  0.00000000       0.007
   0.11764706  0.29411765  0.00000000       0.007
   0.41176471 -0.11764706  0.00000000       0.007
   0.35294118  0.11764706  0.00000000       0.007
  -0.11764706  0.47058824  0.00000000       0.007
  -0.47058824  0.35294118  0.00000000       0.007
  -0.35294118  0.47058824  0.00000000       0.007
   0.11764706  0.35294118  0.00000000       0.007
   0.47058824 -0.11764706  0.00000000       0.007
   0.41176471  0.11764706  0.00000000       0.007
  -0.11764706 -0.47058824  0.00000000       0.007
   0.47058824  0.41176471  0.00000000       0.007
  -0.41176471 -0.47058824  0.00000000       0.007
   0.11764706  0.41176471  0.00000000       0.007
  -0.47058824 -0.11764706  0.00000000       0.007
   0.17647059  0.17647059  0.00000000       0.007
  -0.17647059  0.35294118  0.00000000       0.007
  -0.35294118  0.17647059  0.00000000       0.007
   0.23529412  0.17647059  0.00000000       0.007
  -0.17647059  0.41176471  0.00000000       0.007
  -0.41176471  0.23529412  0.00000000       0.007
  -0.23529412  0.41176471  0.00000000       0.007
   0.17647059  0.23529412  0.00000000       0.007
   0.41176471 -0.17647059  0.00000000       0.007
   0.29411765  0.17647059  0.00000000       0.007
  -0.17647059  0.47058824  0.00000000       0.007
  -0.47058824  0.29411765  0.00000000       0.007
  -0.29411765  0.47058824  0.00000000       0.007
   0.17647059  0.29411765  0.00000000       0.007
   0.47058824 -0.17647059  0.00000000       0.007
   0.35294118  0.17647059  0.00000000       0.007
  -0.17647059 -0.47058824  0.00000000       0.007
   0.47058824  0.35294118  0.00000000       0.007
  -0.35294118 -0.47058824  0.00000000       0.007
   0.17647059  0.35294118  0.00000000       0.007
  -0.47058824 -0.17647059  0.00000000       0.007
   0.41176471  0.17647059  0.00000000       0.007
  -0.17647059 -0.41176471  0.00000000       0.007
   0.41176471  0.41176471  0.00000000       0.007
   0.23529412  0.23529412  0.00000000       0.007
  -0.23529412  0.47058824  0.00000000       0.007
  -0.47058824  0.23529412  0.00000000       0.007
   0.29411765  0.23529412  0.00000000       0.007
  -0.23529412 -0.47058824  0.00000000       0.007
   0.47058824  0.29411765  0.00000000       0.007
  -0.29411765 -0.47058824  0.00000000       0.007
   0.23529412  0.29411765  0.00000000       0.007
  -0.47058824 -0.23529412  0.00000000       0.007
   0.35294118  0.23529412  0.00000000       0.007
  -0.23529412 -0.41176471  0.00000000       0.007
   0.41176471  0.35294118  0.00000000       0.007
  -0.35294118 -0.41176471  0.00000000       0.007
   0.23529412  0.35294118  0.00000000       0.007
  -0.41176471 -0.23529412  0.00000000       0.007
   0.29411765  0.29411765  0.00000000       0.007
  -0.29411765 -0.41176471  0.00000000       0.007
   0.41176471  0.29411765  0.00000000       0.007
   0.35294118  0.29411765  0.00000000       0.007
  -0.29411765 -0.35294118  0.00000000       0.007
   0.35294118  0.35294118  0.00000000       0.007
 
 position of ions in fractional coordinates (direct lattice) 
   0.00405653  0.00269734  0.10150106
   0.35924549  0.00297870  0.10071141
   0.00376783  0.35759951  0.10071217
   0.64914818  0.64750627  0.10070860
   0.32778476  0.32614414  0.10073086
   0.68060188  0.00297489  0.10073054
   0.00377056  0.67895921  0.10072786
   0.00013259  0.50006304  0.33511533
   0.16678386  0.33345284  0.33515001
   0.00011539  0.00007104  0.33507593
   0.16682595  0.83340270  0.33515391
   0.50012588  0.50009985  0.33511811
   0.66678116  0.33340594  0.33501310
   0.50008744  0.00005365  0.33511368
   0.66673317  0.83335819  0.33515010
 
 position of ions in cartesian coordinates  (Angst):
   0.00570417  0.01636462  1.52251590
   1.49516590  0.87766923  1.51067113
  -1.48494633  0.87559308  1.51068254
   0.00689067  3.14179373  1.51062903
   0.00688525  1.58446973  1.51096293
   2.84383723  1.65630651  1.51095813
  -2.83360413  1.65425423  1.51091787
  -2.09808763  1.21197401  5.02672996
  -0.69946955  1.21207354  5.02725017
   0.00018612  0.00045171  5.02613895
  -2.79746202  2.42355402  5.02730859
   0.00010921  2.42354695  5.02677165
   1.39909548  2.42345335  5.02519649
   2.09852137  1.21184187  5.02670514
  -0.69928510  3.63472136  5.02725151
 


--------------------------------------------------------------------------------------------------------


 k-point   1 :   0.0000 0.0000 0.0000  plane waves:    6645
 k-point   2 :   0.0588-0.0000 0.0000  plane waves:    6637
 k-point   3 :  -0.0000 0.0588 0.0000  plane waves:    6637
 k-point   4 :  -0.0588 0.0588 0.0000  plane waves:    6637
 k-point   5 :   0.1176 0.0000 0.0000  plane waves:    6643
 k-point   6 :   0.0000 0.1176 0.0000  plane waves:    6643
 k-point   7 :  -0.1176 0.1176 0.0000  plane waves:    6643
 k-point   8 :   0.1765 0.0000 0.0000  plane waves:    6643
 k-point   9 :   0.0000 0.1765 0.0000  plane waves:    6643
 k-point  10 :  -0.1765 0.1765 0.0000  plane waves:    6643
 k-point  11 :   0.2353 0.0000 0.0000  plane waves:    6633
 k-point  12 :   0.0000 0.2353 0.0000  plane waves:    6633
 k-point  13 :  -0.2353 0.2353 0.0000  plane waves:    6633
 k-point  14 :   0.2941-0.0000 0.0000  plane waves:    6596
 k-point  15 :  -0.0000 0.2941 0.0000  plane waves:    6596
 k-point  16 :  -0.2941 0.2941 0.0000  plane waves:    6596
 k-point  17 :   0.3529-0.0000 0.0000  plane waves:    6608
 k-point  18 :  -0.0000 0.3529 0.0000  plane waves:    6608
 k-point  19 :  -0.3529 0.3529 0.0000  plane waves:    6608
 k-point  20 :   0.4118-0.0000 0.0000  plane waves:    6594
 k-point  21 :  -0.0000 0.4118 0.0000  plane waves:    6594
 k-point  22 :  -0.4118 0.4118 0.0000  plane waves:    6594
 k-point  23 :   0.4706 0.0000 0.0000  plane waves:    6598
 k-point  24 :   0.0000 0.4706 0.0000  plane waves:    6598
 k-point  25 :  -0.4706 0.4706 0.0000  plane waves:    6598
 k-point  26 :   0.0588 0.0588 0.0000  plane waves:    6647
 k-point  27 :  -0.0588 0.1176 0.0000  plane waves:    6647
 k-point  28 :  -0.1176 0.0588 0.0000  plane waves:    6647
 k-point  29 :   0.1176 0.0588 0.0000  plane waves:    6648
 k-point  30 :  -0.0588 0.1765 0.0000  plane waves:    6648
 k-point  31 :  -0.1765 0.1176 0.0000  plane waves:    6648
 k-point  32 :  -0.1176 0.1765 0.0000  plane waves:    6648
 k-point  33 :   0.0588 0.1176 0.0000  plane waves:    6648
 k-point  34 :   0.1765-0.0588 0.0000  plane waves:    6648
 k-point  35 :   0.1765 0.0588 0.0000  plane waves:    6646
 k-point  36 :  -0.0588 0.2353 0.0000  plane waves:    6646
 k-point  37 :  -0.2353 0.1765 0.0000  plane waves:    6646
 k-point  38 :  -0.1765 0.2353 0.0000  plane waves:    6646
 k-point  39 :   0.0588 0.1765 0.0000  plane waves:    6646
 k-point  40 :   0.2353-0.0588 0.0000  plane waves:    6646
 k-point  41 :   0.2353 0.0588 0.0000  plane waves:    6604
 k-point  42 :  -0.0588 0.2941 0.0000  plane waves:    6604
 k-point  43 :  -0.2941 0.2353 0.0000  plane waves:    6604
 k-point  44 :  -0.2353 0.2941 0.0000  plane waves:    6604
 k-point  45 :   0.0588 0.2353 0.0000  plane waves:    6604
 k-point  46 :   0.2941-0.0588 0.0000  plane waves:    6604
 k-point  47 :   0.2941 0.0588 0.0000  plane waves:    6601
 k-point  48 :  -0.0588 0.3529 0.0000  plane waves:    6601
 k-point  49 :  -0.3529 0.2941 0.0000  plane waves:    6601
 k-point  50 :  -0.2941 0.3529 0.0000  plane waves:    6601
 k-point  51 :   0.0588 0.2941 0.0000  plane waves:    6601
 k-point  52 :   0.3529-0.0588 0.0000  plane waves:    6601
 k-point  53 :   0.3529 0.0588 0.0000  plane waves:    6589
 k-point  54 :  -0.0588 0.4118 0.0000  plane waves:    6589
 k-point  55 :  -0.4118 0.3529 0.0000  plane waves:    6589
 k-point  56 :  -0.3529 0.4118 0.0000  plane waves:    6589
 k-point  57 :   0.0588 0.3529 0.0000  plane waves:    6589
 k-point  58 :   0.4118-0.0588 0.0000  plane waves:    6589
 k-point  59 :   0.4118 0.0588 0.0000  plane waves:    6604
 k-point  60 :  -0.0588 0.4706 0.0000  plane waves:    6604
 k-point  61 :  -0.4706 0.4118 0.0000  plane waves:    6604
 k-point  62 :  -0.4118 0.4706 0.0000  plane waves:    6604
 k-point  63 :   0.0588 0.4118 0.0000  plane waves:    6604
 k-point  64 :   0.4706-0.0588 0.0000  plane waves:    6604
 k-point  65 :   0.4706 0.0588 0.0000  plane waves:    6594
 k-point  66 :  -0.0588-0.4706 0.0000  plane waves:    6594
 k-point  67 :   0.4706 0.4706 0.0000  plane waves:    6594
 k-point  68 :   0.1176 0.1176 0.0000  plane waves:    6613
 k-point  69 :  -0.1176 0.2353 0.0000  plane waves:    6613
 k-point  70 :  -0.2353 0.1176 0.0000  plane waves:    6613
 k-point  71 :   0.1765 0.1176 0.0000  plane waves:    6620
 k-point  72 :  -0.1176 0.2941 0.0000  plane waves:    6620
 k-point  73 :  -0.2941 0.1765 0.0000  plane waves:    6620
 k-point  74 :  -0.1765 0.2941 0.0000  plane waves:    6620
 k-point  75 :   0.1176 0.1765 0.0000  plane waves:    6620
 k-point  76 :   0.2941-0.1176 0.0000  plane waves:    6620
 k-point  77 :   0.2353 0.1176 0.0000  plane waves:    6600
 k-point  78 :  -0.1176 0.3529 0.0000  plane waves:    6600
 k-point  79 :  -0.3529 0.2353 0.0000  plane waves:    6600
 k-point  80 :  -0.2353 0.3529 0.0000  plane waves:    6600
 k-point  81 :   0.1176 0.2353 0.0000  plane waves:    6600
 k-point  82 :   0.3529-0.1176 0.0000  plane waves:    6600
 k-point  83 :   0.2941 0.1176 0.0000  plane waves:    6606
 k-point  84 :  -0.1176 0.4118 0.0000  plane waves:    6606
 k-point  85 :  -0.4118 0.2941 0.0000  plane waves:    6606
 k-point  86 :  -0.2941 0.4118 0.0000  plane waves:    6606
 k-point  87 :   0.1176 0.2941 0.0000  plane waves:    6606
 k-point  88 :   0.4118-0.1176 0.0000  plane waves:    6606
 k-point  89 :   0.3529 0.1176 0.0000  plane waves:    6606
 k-point  90 :  -0.1176 0.4706 0.0000  plane waves:    6606
 k-point  91 :  -0.4706 0.3529 0.0000  plane waves:    6606
 k-point  92 :  -0.3529 0.4706 0.0000  plane waves:    6606
 k-point  93 :   0.1176 0.3529 0.0000  plane waves:    6606
 k-point  94 :   0.4706-0.1176 0.0000  plane waves:    6606
 k-point  95 :   0.4118 0.1176 0.0000  plane waves:    6598
 k-point  96 :  -0.1176-0.4706 0.0000  plane waves:    6598
 k-point  97 :   0.4706 0.4118 0.0000  plane waves:    6598
 k-point  98 :  -0.4118-0.4706 0.0000  plane waves:    6598
 k-point  99 :   0.1176 0.4118 0.0000  plane waves:    6598
 k-point 100 :  -0.4706-0.1176 0.0000  plane waves:    6598
 k-point 101 :   0.1765 0.1765 0.0000  plane waves:    6593
 k-point 102 :  -0.1765 0.3529 0.0000  plane waves:    6593
 k-point 103 :  -0.3529 0.1765 0.0000  plane waves:    6593
 k-point 104 :   0.2353 0.1765 0.0000  plane waves:    6611
 k-point 105 :  -0.1765 0.4118 0.0000  plane waves:    6611
 k-point 106 :  -0.4118 0.2353 0.0000  plane waves:    6611
 k-point 107 :  -0.2353 0.4118 0.0000  plane waves:    6611
 k-point 108 :   0.1765 0.2353 0.0000  plane waves:    6611
 k-point 109 :   0.4118-0.1765 0.0000  plane waves:    6611
 k-point 110 :   0.2941 0.1765 0.0000  plane waves:    6606
 k-point 111 :  -0.1765 0.4706 0.0000  plane waves:    6606
 k-point 112 :  -0.4706 0.2941 0.0000  plane waves:    6606
 k-point 113 :  -0.2941 0.4706 0.0000  plane waves:    6606
[...]
  640                gemm                                  0.229165               137025   7
  641                work_mul_crexp                        0.165918               137025   7
  642              proj1                                 0.370781                   3045   6
  643                crexp_mul_wave                        0.048824                45675   7
  644                m_sumb_d                              0.248299                 3045   7
  645              overl1_c                              0.001189                   3045   6
  646              fftext_mpi                            0.715104                   3045   6
  647                fft3d_mpi                             0.710800                 3045   7
  648                  fftbas_mpi                            0.709004               3045   8
  649                    fftbas_plan_mpi                       0.707302             3045   9
  650                      dfftw_execute                         0.373256           9135  10
  651                      map_backward                          0.279163           6090  10
  652                        map_gather                            0.013124         3045  11
  653                        m_alltoallv_z                         0.249553         3045  11
  654                        map_scatter                           0.010245         3045  11
  655            m_sumb_d                              0.747034                     6093   5
  656          m_sumb_d                              0.004969                          6   4
  657          eddiag_lr                             4.898623                          3   4
  658            overl                                 0.000379                      435   5
  659            redis_proj                            0.450580                     3045   5
  660              m_alltoall_d                          0.437431                  29145   6
  661            redis_pw                              0.624648                     2610   5
  662              m_alltoall_d                          0.605932                  26100   6
  663            m_sumb_d                              3.082341                      870   5
  664          overl1                                0.001249                       6090   4
  665        redis_pw                              0.461236                         1305   3
  666          m_alltoall_d                          0.447692                      16965   4
  667        redis_proj                            0.175770                         1305   3
  668          m_alltoall_d                          0.167079                      16965   4
  669        densta                                0.019714                            1   3
  670          m_sumb_d                              0.001213                         21   4
 
 Flat profile
 ============
 
             routine name                   CPU           calls
 ---------------------------------------------------------------
 m_alltoallv_z                      386690.019330    ********
 m_sumb_d                           207469.852581    ********
 dfftw_execute                       44264.213518    ********
 fftbas_plan_mpi                     24331.115120    ********
 m_ireduce_z_to                      14855.247987      890880
 pw_charge_trace_mu_                 11380.964383     8213380
 map_scatter                         11325.666136    ********
 vhamil_trace                         9548.968616    ********
 rpromu_hf                            9048.781725     8716240
 racc0mu_hf_                          7913.375752     8213380
 map_gather                           7272.621262    ********
 apply_gfac_exchange                  4470.413630    ********
 fock_fwd                             2212.059554        6960
 calc_dllmm_trans                     1618.056511    ********
 map_forward                          1107.021276    ********
 depsum_two_bands_rholm_trace_        1082.733232    ********
 map_backward                         1013.024640    ********
 lr_optic                              732.671792           1
 fftbas_mpi                            577.193896    ********
 fft3d_mpi                             571.133191    ********
 racc0_hf                              552.857283    56320320
 rpro1_hf                              543.268824    56320320
 pw_charge_trace                       450.339356    28160160
 fock_set_gfac_vkpt                    411.023367     2807635
 m_ibcast_z_from                       402.659650      911180
 w1_copy                               375.239019     4754405
 depsum_two_bands_rholm_trace          217.571234    ********
 depsum_two_bands_rholm_trace_m        217.441616     8213380
 apply_gfac_qder                       205.246059    28160160
 pdssyex_zheevx                        199.572670        3480
 apply_gfac                            187.452722    56320320
 total_time                            167.443510           1
 phaser_hf                             158.239397     2807635
 overl_fock                            143.821927    ********
 fock_all_dblbuf                       136.613191          24
 m_alltoall_d                           84.275846     1448695
 bg_ppotrf_trtri                        58.549914        3480
 fftwav_mpi                             53.097308     4810810
 waitred                                45.433039        6960
 waitgth                                42.781854        6960
 edwav                                  34.362536          23
 gemm                                   33.845397     1863975
 fock_charge_mu                         28.382421     8213380
 elmin_all                              22.790950           1
 orthch                                 20.290712          24
 apply_gfac_weight                      16.861959     4693360
 fock_force                             15.553095           1
 dllmm_trans_eccp_nl_fock               14.654869      502860
 racc0mu_hf                             14.309006     8213380
 pw_charge_trace_mu                     12.692827     8213380
 orth1                                   7.843116       53940
 depsum_two_bands_rholm_trace_m          5.928488     8213380
 eccp_nl_fock                            5.697702    14080080
 m_bcast_z                               5.630359       20881
 eccp                                    4.509190      160080
 fock_bck                                4.457523        6960
 proj1                                   4.182125       83085
 orth1_nosubindex                        3.333379       13920
 lincom_slice                            2.847413        6960
 wfinit                                  2.792600           1
 redis_proj                              2.402102      215325
 lincom                                  2.190027        6815
 work_mul_crexp                          2.081595     1863975
 w1_dscal                                1.652989       53360
 eddiag                                  1.553247           1
 potlok                                  1.498671          25
 force_and_stress                        1.497568           1
 phase                                   1.454175        8266
 vnlac0                                  1.388134      124265
 crexp_mul_wave                          1.224638     1246275
 fornl                                   1.186720           1
 vhamil                                  1.183470       55680
 fock_set_fsg                            1.091638           2
 pw_charge                               0.816006       27744
 redis_pw                                0.792717      228955
 eddiag_lr                               0.740674           3
 fft_and_gather                          0.699053        7105
 depsum_sym                              0.681941          24
 m_bcast_d                               0.672814          28
 reduce                                  0.669750        6960
 brgrid                                  0.664759           1
 soft_charge_sym                         0.646919          24
 projxyz                                 0.547204         145
 ggaall_grid                             0.540851          26
 inisym                                  0.490748           1
 densta                                  0.215988          26
 pothar                                  0.199155          25
 spher                                   0.176332          16
 lrf_rphi0                               0.174460           3
 contraction                             0.161040      502860
 fftext_mpi                              0.139805      117450
 hamiltmu_commutator                     0.124800         870
 augmentation_charge                     0.075609          24
 rsp                                     0.072680           1
 choleski                                0.072445        3480
 crpa_reader                             0.071153           1
 kinhamil                                0.069856       55680
 hamilt_local                            0.066401       55680
 orth1_distri                            0.056981       13920
 spher_der                               0.050036           6
 lincom_distri                           0.045228        3480
 setdij_                                 0.042094          33
 forloc                                  0.041803           1
 recon_slice                             0.038704        6960
 overl                                   0.038473       64090
 set_dd_paw                              0.037826          26
 lrf_commutator                          0.029726           3
 rspher_all                              0.024998           4
 overl1                                  0.022808       67860
 set_charge                              0.019101          24
 posmap                                  0.016567           2
 proall                                  0.015788           1
 m_sum_g                                 0.013029       20880
 proj                                    0.011474         145
 distri_slice                            0.008699       13920
 fft_gq                                  0.005424          24
 fewald                                  0.002555           1
 redis_pw_all                            0.002075          23
 forhar                                  0.001748           1
 overl1_c                                0.001189        3045
 stufak                                  0.000834           1
 vectorpot                               0.000735           1
 set_dd_magatom                          0.000684           2
 wrk_allocate                            0.000670           1
 fftbrc_mpi                              0.000273         387
 rcp                                     0.000086           1
 wrk_deallocate                          0.000061           1
 shift_bands_between_low_high            0.000032         145
 redis_pw_over_bands                     0.000030          24
 FERMAT_RAZOR                            0.000021           1
 potlok_metagga                          0.000013          24
 fordep                                  0.000012           1
 rotate_active_occupied_orbital          0.000001           1
 ---------------------------------------------------------------
  summed up times    752429.545493126     
 
 Accumulative profile
 ====================
 
             routine name                   CPU           calls
 ---------------------------------------------------------------
 total_time                         752429.545493           1
 elmin_all                          675703.020831           1
 fock_all_dblbuf                    674924.823898          24
 fock_fwd                           657182.645832        6960
 edwav                              650614.542033          23
 fft3d_mpi                          477152.008641    ********
 fftbas_mpi                         476550.660420    ********
 fftbas_plan_mpi                    476003.681281    ********
 m_alltoallv_z                      386690.019330    ********
 map_forward                        212693.107366    ********
 m_sumb_d                           207469.852581    ********
 map_backward                       194715.245278    ********
 fock_charge_mu                     100440.044040     8213380
 rpromu_hf                           99081.976219     8716240
 racc0mu_hf                          87606.545849     8213380
 racc0mu_hf_                         87592.236843     8213380
 lr_optic                            70727.130879           1
 dfftw_execute                       44264.213518    ********
 eddiag                              25007.138676           1
 rpro1_hf                            15149.288248    56320320
 reduce                              14855.917737        6960
 m_ireduce_z_to                      14855.247987      890880
 racc0_hf                            14657.053819    56320320
 pw_charge_trace_mu                  11393.657209     8213380
 pw_charge_trace_mu_                 11380.964383     8213380
 map_scatter                         11325.666136    ********
 vhamil_trace                         9548.968616    ********
 fftwav_mpi                           7823.884456     4810810
 map_gather                           7272.621262    ********
 force_and_stress                     5738.983224           1
 fock_force                           5735.485443           1
 apply_gfac_exchange                  4470.413630    ********
 fft_and_gather                       1660.767385        7105
 calc_dllmm_trans                     1618.056511    ********
 depsum_two_bands_rholm_trace_m       1411.458561     8213380
 depsum_two_bands_rholm_trace_m       1405.530074     8213380
 depsum_two_bands_rholm_trace         1300.304465    ********
 fock_bck                             1198.705354        6960
 depsum_two_bands_rholm_trace_        1082.733232    ********
 fftext_mpi                            734.636486      117450
 fock_set_gfac_vkpt                    569.262764     2807635
 vnlac0                                513.891347      124265
 pw_charge_trace                       450.339356    28160160
 m_ibcast_z_from                       402.659650      911180
 w1_copy                               375.239019     4754405
 apply_gfac_qder                       205.246059    28160160
 pdssyex_zheevx                        199.572670        3480
 apply_gfac                            187.452722    56320320
 phaser_hf                             158.239397     2807635
 orthch                                158.124404          24
 overl_fock                            143.821927    ********
 m_alltoall_d                           84.275846     1448695
 m_sum_g                                65.885036       20880
 redis_pw                               62.842653      228955
 choleski                               58.622360        3480
 bg_ppotrf_trtri                        58.549914        3480
 set_charge                             53.765337          24
 dllmm_trans_eccp_nl_fock               50.233530      502860
 soft_charge_sym                        49.874708          24
 orth1_distri                           46.365961       13920
 waitred                                45.433039        6960
 waitgth                                42.781854        6960
 hamilt_local                           35.032471       55680
 gemm                                   33.845397     1863975
 kinhamil                               33.782600       55680
 fftbrc_mpi                             30.215030         387
 lincom_distri                          25.849480        3480
 proj1                                  25.565862       83085
 redis_proj                             24.628012      215325
 apply_gfac_weight                      16.861959     4693360
 fft_gq                                 10.939924          24
 lrf_rphi0                               9.961545           3
 potlok                                  8.346341          25
 orth1                                   7.843116       53940
 eccp                                    6.753803      160080
 wfinit                                  6.299212           1
 eccp_nl_fock                            5.697702    14080080
 m_bcast_z                               5.630359       20881
 eddiag_lr                               4.898623           3
 lrf_commutator                          4.780153           3
 orth1_nosubindex                        3.333379       13920
 lincom_slice                            2.847413        6960
 fock_set_fsg                            2.827486           2
 hamiltmu_commutator                     2.806979         870
 depsum_sym                              2.330430          24
 lincom                                  2.190027        6815
 work_mul_crexp                          2.081595     1863975
 densta                                  1.762721          26
 proall                                  1.743104           1
 proj                                    1.684705         145
 w1_dscal                                1.652989       53360
 fornl                                   1.568681           1
 augmentation_charge                     1.541098          24
 phase                                   1.454175        8266
 crexp_mul_wave                          1.224638     1246275
 vhamil                                  1.183470       55680
 set_dd_paw                              1.097121          26
 projxyz                                 0.996780         145
 pw_charge                               0.816006       27744
 redis_pw_over_bands                     0.782821          24
 redis_pw_all                            0.782792          23
 wrk_allocate                            0.682904           1
 m_bcast_d                               0.672814          28
 brgrid                                  0.664759           1
 ggaall_grid                             0.540851          26
 inisym                                  0.507315           1
 pothar                                  0.217086          25
 spher_der                               0.187440           6
 spher                                   0.176332          16
 contraction                             0.161040      502860
 fewald                                  0.152307           1
 rsp                                     0.072680           1
 setdij_                                 0.072080          33
 crpa_reader                             0.071153           1
 forloc                                  0.042626           1
 recon_slice                             0.038704        6960
 overl                                   0.038473       64090
 rspher_all                              0.024998           4
 overl1                                  0.022808       67860
 posmap                                  0.016567           2
 distri_slice                            0.008699       13920
 fordep                                  0.007096           1
 forhar                                  0.001862           1
 overl1_c                                0.001189        3045
 stufak                                  0.000834           1
 vectorpot                               0.000735           1
 set_dd_magatom                          0.000684           2
 rcp                                     0.000086           1
 wrk_deallocate                          0.000061           1
 shift_bands_between_low_high            0.000032         145
 FERMAT_RAZOR                            0.000021           1
 potlok_metagga                          0.000013          24
 rotate_active_occupied_orbital          0.000001           1
 ---------------------------------------------------------------
 
Profiling took ********************  0.033863  0.033743 seconds
Profiling took ********** seconds
