   8   8   0   0
  0.4338553E+02  0.5169000E-09  0.5169000E-09  0.1500000E-08  0.5000000E-15
  1.000000000000000E-004
  CAR 
 BC3                                     
      9.53364659    -21.28575882  301     -3.47639433      1.00000000
    -21.286  0.0000E+00  0.0000E+00
    -21.183  0.0000E+00  0.0000E+00
    -21.080  0.0000E+00  0.0000E+00
    -20.978  0.0000E+00  0.0000E+00
    -20.875  0.0000E+00  0.0000E+00
    -20.772  0.0000E+00  0.0000E+00
    -20.669  0.0000E+00  0.0000E+00
    -20.567  0.0000E+00  0.0000E+00
    -20.464  0.1946E-18  0.1999E-19
    -20.361  0.1477E-13  0.1518E-14
    -20.258  0.1438E-09  0.1477E-10
    -20.156  0.1908E-06  0.1962E-07
    -20.053  0.3708E-04  0.3828E-05
    -19.950  0.1198E-02  0.1269E-03
    -19.848  0.8107E-02  0.9598E-03
    -19.745  0.1714E-01  0.2720E-02
    -19.642  0.2080E-01  0.4857E-02
    -19.539  0.2343E-01  0.7264E-02
    -19.437  0.2880E-01  0.1022E-01
    -19.334  0.3995E-01  0.1433E-01
    -19.231  0.3923E-01  0.1836E-01
    -19.128  0.1454E-01  0.1985E-01
    -19.026  0.1431E-02  0.2000E-01
    -18.923  0.2887E-04  0.2000E-01
    -18.820  0.9697E-07  0.2000E-01
    -18.717  0.4761E-10  0.2000E-01
    -18.615  0.3184E-14  0.2000E-01
    -18.512  0.0000E+00  0.2000E-01
    -18.409  0.0000E+00  0.2000E-01
    -18.307  0.0000E+00  0.2000E-01
    -18.204  0.2245E-19  0.2000E-01
    -18.101  0.8659E-14  0.2000E-01
    -17.998  0.1005E-09  0.2000E-01
    -17.896  0.1587E-06  0.2000E-01
    -17.793  0.3640E-04  0.2000E-01
    -17.690  0.1372E-02  0.2014E-01
    -17.587  0.1063E-01  0.2124E-01
    -17.485  0.2532E-01  0.2384E-01
    -17.382  0.3227E-01  0.2715E-01
    -17.279  0.2726E-01  0.2995E-01
    -17.177  0.1969E-01  0.3198E-01
    -17.074  0.1846E-01  0.3387E-01
    -16.971  0.1912E-01  0.3584E-01
    -16.868  0.2011E-01  0.3790E-01
    -16.766  0.2148E-01  0.4011E-01
    -16.663  0.2363E-01  0.4254E-01
    -16.560  0.2778E-01  0.4539E-01
    -16.457  0.3448E-01  0.4893E-01
    -16.355  0.3392E-01  0.5242E-01
    -16.252  0.2593E-01  0.5508E-01
    -16.149  0.2053E-01  0.5719E-01
    -16.046  0.1641E-01  0.5887E-01
    -15.944  0.9035E-02  0.5980E-01
    -15.841  0.1832E-02  0.5999E-01
    -15.738  0.8543E-04  0.6000E-01
    -15.636  0.6978E-06  0.6000E-01
    -15.533  0.8577E-09  0.6000E-01
    -15.430  0.1461E-12  0.6000E-01
    -15.327  0.3098E-17  0.6000E-01
    -15.225  0.0000E+00  0.6000E-01
    -15.122  0.0000E+00  0.6000E-01
    -15.019  0.0000E+00  0.6000E-01
    -14.916  0.0000E+00  0.6000E-01
    -14.814  0.0000E+00  0.6000E-01
    -14.711  0.1096E-15  0.6000E-01
    -14.608  0.2721E-11  0.6000E-01
    -14.505  0.9054E-08  0.6000E-01
    -14.403  0.4252E-05  0.6000E-01
    -14.300  0.3102E-03  0.6003E-01
    -14.197  0.4194E-02  0.6046E-01
    -14.095  0.1436E-01  0.6194E-01
    -13.992  0.2106E-01  0.6410E-01
    -13.889  0.2435E-01  0.6660E-01
    -13.786  0.3002E-01  0.6969E-01
    -13.684  0.3533E-01  0.7332E-01
    -13.581  0.2741E-01  0.7613E-01
    -13.478  0.1834E-01  0.7802E-01
    -13.375  0.1558E-01  0.7962E-01
    -13.273  0.1449E-01  0.8111E-01
    -13.170  0.1379E-01  0.8252E-01
    -13.067  0.1327E-01  0.8389E-01
    -12.965  0.1282E-01  0.8520E-01
    -12.862  0.1269E-01  0.8651E-01
    -12.759  0.1444E-01  0.8799E-01
    -12.656  0.1861E-01  0.8990E-01
    -12.554  0.2000E-01  0.9196E-01
    -12.451  0.1879E-01  0.9389E-01
    -12.348  0.1740E-01  0.9567E-01
    -12.245  0.1613E-01  0.9733E-01
    -12.143  0.1509E-01  0.9888E-01
    -12.040  0.1423E-01  0.1003E+00
    -11.937  0.1312E-01  0.1017E+00
    -11.834  0.1002E-01  0.1027E+00
    -11.732  0.5862E-02  0.1033E+00
    -11.629  0.4458E-02  0.1038E+00
    -11.526  0.4669E-02  0.1043E+00
    -11.424  0.4607E-02  0.1047E+00
    -11.321  0.5108E-02  0.1053E+00
    -11.218  0.6160E-02  0.1059E+00
    -11.115  0.7922E-02  0.1067E+00
    -11.013  0.8606E-02  0.1076E+00
    -10.910  0.9935E-02  0.1086E+00
    -10.807  0.1306E-01  0.1100E+00
    -10.704  0.1533E-01  0.1115E+00
    -10.602  0.1657E-01  0.1132E+00
    -10.499  0.1767E-01  0.1150E+00
    -10.396  0.1954E-01  0.1171E+00
    -10.294  0.2238E-01  0.1194E+00
    -10.191  0.2256E-01  0.1217E+00
    -10.088  0.1668E-01  0.1234E+00
     -9.985  0.1316E-01  0.1247E+00
     -9.883  0.1680E-01  0.1265E+00
     -9.780  0.2643E-01  0.1292E+00
     -9.677  0.2651E-01  0.1319E+00
     -9.574  0.2273E-01  0.1342E+00
     -9.472  0.2014E-01  0.1363E+00
     -9.369  0.1895E-01  0.1383E+00
     -9.266  0.1864E-01  0.1402E+00
     -9.163  0.1976E-01  0.1422E+00
     -9.061  0.2179E-01  0.1444E+00
     -8.958  0.2447E-01  0.1469E+00
     -8.855  0.2620E-01  0.1496E+00
     -8.753  0.2487E-01  0.1522E+00
     -8.650  0.2648E-01  0.1549E+00
     -8.547  0.3014E-01  0.1580E+00
     -8.444  0.2801E-01  0.1609E+00
     -8.342  0.2327E-01  0.1633E+00
     -8.239  0.2055E-01  0.1654E+00
     -8.136  0.2002E-01  0.1674E+00
     -8.033  0.2483E-01  0.1700E+00
     -7.931  0.3172E-01  0.1733E+00
     -7.828  0.4011E-01  0.1774E+00
     -7.725  0.4404E-01  0.1819E+00
     -7.622  0.4346E-01  0.1864E+00
     -7.520  0.3870E-01  0.1903E+00
     -7.417  0.2566E-01  0.1930E+00
     -7.314  0.1730E-01  0.1948E+00
     -7.212  0.2010E-01  0.1968E+00
     -7.109  0.2088E-01  0.1990E+00
     -7.006  0.1743E-01  0.2008E+00
     -6.903  0.1617E-01  0.2024E+00
     -6.801  0.1629E-01  0.2041E+00
     -6.698  0.1858E-01  0.2060E+00
     -6.595  0.2719E-01  0.2088E+00
     -6.492  0.4245E-01  0.2132E+00
     -6.390  0.6860E-01  0.2202E+00
     -6.287  0.7923E-01  0.2283E+00
     -6.184  0.5758E-01  0.2343E+00
     -6.082  0.3914E-01  0.2383E+00
     -5.979  0.2679E-01  0.2410E+00
     -5.876  0.2333E-01  0.2434E+00
     -5.773  0.2363E-01  0.2459E+00
     -5.671  0.2434E-01  0.2484E+00
     -5.568  0.2535E-01  0.2510E+00
     -5.465  0.2642E-01  0.2537E+00
     -5.362  0.2790E-01  0.2565E+00
     -5.260  0.2981E-01  0.2596E+00
     -5.157  0.3256E-01  0.2629E+00
     -5.054  0.3730E-01  0.2668E+00
     -4.951  0.4177E-01  0.2711E+00
     -4.849  0.4361E-01  0.2755E+00
     -4.746  0.4735E-01  0.2804E+00
     -4.643  0.4613E-01  0.2852E+00
     -4.541  0.3932E-01  0.2892E+00
     -4.438  0.2769E-01  0.2920E+00
     -4.335  0.1592E-01  0.2937E+00
     -4.232  0.1266E-01  0.2950E+00
     -4.130  0.1205E-01  0.2962E+00
     -4.027  0.1163E-01  0.2974E+00
     -3.924  0.1115E-01  0.2985E+00
     -3.821  0.9351E-02  0.2995E+00
     -3.719  0.4192E-02  0.2999E+00
     -3.616  0.5593E-03  0.3000E+00
     -3.513  0.1522E-04  0.3000E+00
     -3.411  0.4622E-06  0.3000E+00
     -3.308  0.5536E-04  0.3000E+00
     -3.205  0.1339E-02  0.3001E+00
     -3.102  0.7203E-02  0.3009E+00
     -3.000  0.1341E-01  0.3023E+00
     -2.897  0.1607E-01  0.3039E+00
     -2.794  0.1859E-01  0.3058E+00
     -2.691  0.2312E-01  0.3082E+00
     -2.589  0.2712E-01  0.3110E+00
     -2.486  0.2232E-01  0.3133E+00
     -2.383  0.1591E-01  0.3149E+00
     -2.280  0.1248E-01  0.3162E+00
     -2.178  0.1002E-01  0.3172E+00
     -2.075  0.8265E-02  0.3181E+00
     -1.972  0.6426E-02  0.3187E+00
     -1.870  0.4308E-02  0.3192E+00
     -1.767  0.3035E-02  0.3195E+00
     -1.664  0.2207E-02  0.3197E+00
     -1.561  0.1554E-02  0.3199E+00
     -1.459  0.8900E-03  0.3200E+00
     -1.356  0.4252E-03  0.3200E+00
     -1.253  0.5399E-03  0.3201E+00
     -1.150  0.1081E-02  0.3202E+00
     -1.048  0.1793E-02  0.3204E+00
     -0.945  0.2469E-02  0.3206E+00
     -0.842  0.3262E-02  0.3209E+00
     -0.739  0.4105E-02  0.3214E+00
     -0.637  0.4978E-02  0.3219E+00
     -0.534  0.6225E-02  0.3225E+00
     -0.431  0.7380E-02  0.3233E+00
     -0.329  0.9759E-02  0.3243E+00
     -0.226  0.1579E-01  0.3259E+00
     -0.123  0.2783E-01  0.3288E+00
     -0.020  0.2938E-01  0.3318E+00
      0.082  0.2138E-01  0.3340E+00
      0.185  0.1705E-01  0.3357E+00
      0.288  0.1442E-01  0.3372E+00
      0.391  0.1380E-01  0.3386E+00
      0.493  0.1437E-01  0.3401E+00
      0.596  0.1519E-01  0.3417E+00
      0.699  0.1351E-01  0.3431E+00
      0.801  0.1129E-01  0.3442E+00
      0.904  0.1392E-01  0.3456E+00
      1.007  0.1776E-01  0.3475E+00
      1.110  0.1880E-01  0.3494E+00
      1.212  0.1944E-01  0.3514E+00
      1.315  0.2013E-01  0.3535E+00
      1.418  0.2113E-01  0.3556E+00
      1.521  0.2287E-01  0.3580E+00
      1.623  0.2424E-01  0.3605E+00
      1.726  0.2371E-01  0.3629E+00
      1.829  0.2400E-01  0.3654E+00
      1.932  0.2787E-01  0.3682E+00
      2.034  0.2994E-01  0.3713E+00
      2.137  0.3011E-01  0.3744E+00
      2.240  0.3202E-01  0.3777E+00
      2.342  0.3630E-01  0.3814E+00
      2.445  0.3893E-01  0.3854E+00
      2.548  0.3846E-01  0.3894E+00
      2.651  0.3888E-01  0.3934E+00
      2.753  0.3825E-01  0.3973E+00
      2.856  0.3849E-01  0.4013E+00
      2.959  0.3816E-01  0.4052E+00
      3.062  0.3816E-01  0.4091E+00
      3.164  0.3802E-01  0.4130E+00
      3.267  0.3806E-01  0.4169E+00
      3.370  0.3788E-01  0.4208E+00
      3.472  0.3808E-01  0.4247E+00
      3.575  0.3778E-01  0.4286E+00
      3.678  0.3789E-01  0.4325E+00
      3.781  0.3793E-01  0.4364E+00
      3.883  0.3909E-01  0.4404E+00
      3.986  0.4047E-01  0.4446E+00
      4.089  0.3887E-01  0.4485E+00
      4.192  0.3235E-01  0.4519E+00
      4.294  0.3238E-01  0.4552E+00
      4.397  0.4354E-01  0.4597E+00
      4.500  0.4908E-01  0.4647E+00
      4.603  0.4793E-01  0.4696E+00
      4.705  0.4779E-01  0.4745E+00
      4.808  0.5027E-01  0.4797E+00
      4.911  0.5443E-01  0.4853E+00
      5.013  0.5979E-01  0.4914E+00
      5.116  0.6134E-01  0.4977E+00
      5.219  0.6580E-01  0.5045E+00
      5.322  0.7162E-01  0.5119E+00
      5.424  0.7488E-01  0.5196E+00
      5.527  0.8204E-01  0.5280E+00
      5.630  0.7380E-01  0.5356E+00
      5.733  0.6022E-01  0.5418E+00
      5.835  0.6628E-01  0.5486E+00
      5.938  0.8063E-01  0.5568E+00
      6.041  0.7716E-01  0.5648E+00
      6.144  0.7197E-01  0.5722E+00
      6.246  0.6793E-01  0.5791E+00
      6.349  0.7316E-01  0.5867E+00
      6.452  0.7426E-01  0.5943E+00
      6.554  0.6829E-01  0.6013E+00
      6.657  0.6359E-01  0.6078E+00
      6.760  0.6371E-01  0.6144E+00
      6.863  0.7033E-01  0.6216E+00
      6.965  0.6052E-01  0.6278E+00
      7.068  0.4322E-01  0.6323E+00
      7.171  0.2674E-01  0.6350E+00
      7.274  0.1403E-01  0.6365E+00
      7.376  0.1052E-01  0.6375E+00
      7.479  0.7495E-02  0.6383E+00
      7.582  0.4506E-02  0.6388E+00
      7.684  0.3290E-02  0.6391E+00
      7.787  0.2796E-02  0.6394E+00
      7.890  0.1976E-02  0.6396E+00
      7.993  0.1981E-02  0.6398E+00
      8.095  0.1443E-02  0.6399E+00
      8.198  0.4578E-03  0.6400E+00
      8.301  0.7704E-04  0.6400E+00
      8.404  0.3534E-05  0.6400E+00
      8.506  0.2567E-07  0.6400E+00
      8.609  0.2536E-10  0.6400E+00
      8.712  0.3241E-14  0.6400E+00
      8.815  0.4490E-19  0.6400E+00
      8.917  0.0000E+00  0.6400E+00
      9.020  0.0000E+00  0.6400E+00
      9.123  0.0000E+00  0.6400E+00
      9.225  0.0000E+00  0.6400E+00
      9.328  0.0000E+00  0.6400E+00
      9.431  0.0000E+00  0.6400E+00
      9.534  0.0000E+00  0.6400E+00
