   16   16  128    2
  0.1949369E+02  0.4900000E-09  0.4900000E-09  0.1500000E-08  0.5000000E-15
  1.000000000000000E-004
  CAR 
 Lattice                                 
     56     43     48
 
  0.0000000E+00  0.0000000E+00  0.0000000E+00  0.6944444E-02
      1        -19.912138      -19.912138   1.000000   1.000000
      2        -15.998026      -15.998027   1.000000   1.000000
      3        -14.581337      -14.581337   1.000000   1.000000
      4        -14.581107      -14.581107   1.000000   1.000000
      5        -14.574566      -14.574565   1.000000   1.000000
      6        -13.594824      -13.594823   1.000000   1.000000
      7        -13.590566      -13.590566   1.000000   1.000000
      8        -13.590438      -13.590438   1.000000   1.000000
      9        -11.747265      -11.747265   1.000000   1.000000
     10        -11.510096      -11.510096   1.000000   1.000000
     11        -11.505010      -11.505010   1.000000   1.000000
     12         -9.274918       -9.274918   1.000000   1.000000
     13         -9.270156       -9.270156   1.000000   1.000000
     14         -8.137209       -8.137209   1.000000   1.000000
     15         -7.398420       -7.398420   1.000000   1.000000
     16         -6.702760       -6.702760   1.000000   1.000000
     17         -6.696014       -6.696014   1.000000   1.000000
     18         -6.694966       -6.694966   1.000000   1.000000
     19         -6.678526       -6.678527   1.000000   1.000000
     20         -3.259391       -3.259390   1.000000   1.000000
     21         -3.254201       -3.254201   1.000000   1.000000
     22         -2.685795       -2.685795   1.000000   1.000000
     23         -2.675196       -2.675196   1.000000   1.000000
     24         -2.656964       -2.656964   1.000000   1.000000
     25         -1.339252       -1.339252   1.000000   1.000000
     26         -1.323223       -1.323223   1.000000   1.000000
     27         -0.373739       -0.373739   0.987726   0.987726
     28         -0.370241       -0.370242   0.986060   0.986060
     29         -0.233140       -0.233141   0.602596   0.602600
     30          0.837788        0.837787   0.000000   0.000000
     31          0.922800        0.922799   0.000000   0.000000
     32          1.456112        1.456112   0.000000   0.000000
     33          1.569232        1.569231   0.000000   0.000000
     34          1.615532        1.615532   0.000000   0.000000
     35          2.186681        2.186681   0.000000   0.000000
     36          2.199731        2.199731   0.000000   0.000000
     37          3.071253        3.071169   0.000000   0.000000
     38          3.671508        3.671586   0.000000   0.000000
     39          4.551411        4.551388   0.000000   0.000000
     40          4.858528        4.857882   0.000000   0.000000
     41          7.004093        7.003521   0.000000   0.000000
     42          7.318466        7.318468   0.000000   0.000000
     43          7.328416        7.328416   0.000000   0.000000
     44          7.330209        7.330208   0.000000   0.000000
     45          7.771288        7.771548   0.000000   0.000000
     46          8.213439        8.213439   0.000000   0.000000
     47          8.220443        8.220443   0.000000   0.000000
     48          8.857819        8.857803   0.000000   0.000000
 
  0.8333333E-01 -0.3594254E-17  0.0000000E+00  0.2777778E-01
      1        -19.870630      -19.870630   1.000000   1.000000
      2        -15.964843      -15.964843   1.000000   1.000000
      3        -15.106176      -15.106176   1.000000   1.000000
      4        -14.730363      -14.730363   1.000000   1.000000
      5        -14.726879      -14.726879   1.000000   1.000000
      6        -13.374359      -13.374358   1.000000   1.000000
      7        -13.372616      -13.372615   1.000000   1.000000
      8        -13.003554      -13.003553   1.000000   1.000000
      9        -12.191456      -12.191456   1.000000   1.000000
     10        -11.539239      -11.539239   1.000000   1.000000
     11        -11.091177      -11.091177   1.000000   1.000000
     12         -9.347436       -9.347436   1.000000   1.000000
     13         -9.187113       -9.187113   1.000000   1.000000
     14         -8.084225       -8.084225   1.000000   1.000000
     15         -7.226966       -7.226966   1.000000   1.000000
     16         -6.829436       -6.829436   1.000000   1.000000
     17         -6.823778       -6.823777   1.000000   1.000000
     18         -6.655877       -6.655877   1.000000   1.000000
     19         -6.626869       -6.626869   1.000000   1.000000
     20         -3.429141       -3.429141   1.000000   1.000000
     21         -3.347122       -3.347122   1.000000   1.000000
     22         -2.940394       -2.940395   1.000000   1.000000
     23         -2.717803       -2.717803   1.000000   1.000000
     24         -2.698026       -2.698026   1.000000   1.000000
     25         -1.778762       -1.778762   1.000000   1.000000
     26         -1.729275       -1.729276   1.000000   1.000000
     27         -0.880780       -0.880781   1.000000   1.000000
     28         -0.245100       -0.245101   0.666118   0.666120
     29          0.257062        0.257061   0.000000   0.000000
     30          0.919113        0.919112   0.000000   0.000000
     31          1.014088        1.014088   0.000000   0.000000
     32          1.568668        1.568667   0.000000   0.000000
     33          1.672906        1.672906   0.000000   0.000000
     34          1.802644        1.802644   0.000000   0.000000
     35          2.546146        2.546145   0.000000   0.000000
     36          2.570688        2.570688   0.000000   0.000000
     37          3.155603        3.155521   0.000000   0.000000
     38          3.739156        3.739232   0.000000   0.000000
     39          4.704418        4.704357   0.000000   0.000000
     40          4.927992        4.927389   0.000000   0.000000
     41          7.052555        7.051983   0.000000   0.000000
     42          7.345298        7.345299   0.000000   0.000000
     43          7.514275        7.514276   0.000000   0.000000
     44          7.522042        7.522041   0.000000   0.000000
     45          7.819150        7.819407   0.000000   0.000000
     46          8.244875        8.244877   0.000000   0.000000
     47          8.396689        8.396689   0.000000   0.000000
     48          8.610479        8.610464   0.000000   0.000000
 
 -0.8333333E-01  0.8333333E-01  0.0000000E+00  0.1388889E-01
      1        -19.870628      -19.870628   1.000000   1.000000
      2        -15.964844      -15.964844   1.000000   1.000000
      3        -15.106326      -15.106325   1.000000   1.000000
      4        -14.730173      -14.730173   1.000000   1.000000
      5        -14.726617      -14.726617   1.000000   1.000000
      6        -13.375715      -13.375714   1.000000   1.000000
      7        -13.372879      -13.372879   1.000000   1.000000
      8        -13.002232      -13.002232   1.000000   1.000000
      9        -12.190663      -12.190663   1.000000   1.000000
     10        -11.542363      -11.542363   1.000000   1.000000
     11        -11.088645      -11.088645   1.000000   1.000000
     12         -9.344067       -9.344067   1.000000   1.000000
     13         -9.190909       -9.190909   1.000000   1.000000
     14         -8.084325       -8.084326   1.000000   1.000000
     15         -7.226609       -7.226609   1.000000   1.000000
     16         -6.827067       -6.827067   1.000000   1.000000
     17         -6.824448       -6.824448   1.000000   1.000000
     18         -6.657595       -6.657595   1.000000   1.000000
     19         -6.626913       -6.626913   1.000000   1.000000
     20         -3.425325       -3.425324   1.000000   1.000000
     21         -3.350980       -3.350979   1.000000   1.000000
     22         -2.947335       -2.947335   1.000000   1.000000
     23         -2.709768       -2.709768   1.000000   1.000000
     24         -2.697867       -2.697867   1.000000   1.000000
     25         -1.780911       -1.780911   1.000000   1.000000
     26         -1.729483       -1.729483   1.000000   1.000000
     27         -0.870313       -0.870314   1.000000   1.000000
     28         -0.267471       -0.267471   0.772041   0.772043
     29          0.278533        0.278533   0.000000   0.000000
     30          0.897762        0.897761   0.000000   0.000000
     31          1.040787        1.040787   0.000000   0.000000
     32          1.550192        1.550192   0.000000   0.000000
     33          1.647612        1.647612   0.000000   0.000000
     34          1.826704        1.826704   0.000000   0.000000
     35          2.547957        2.547957   0.000000   0.000000
     36          2.574173        2.574171   0.000000   0.000000
     37          3.158462        3.158380   0.000000   0.000000
     38          3.740099        3.740174   0.000000   0.000000
     39          4.698993        4.698932   0.000000   0.000000
     40          4.928939        4.928336   0.000000   0.000000
     41          7.052457        7.051886   0.000000   0.000000
     42          7.345409        7.345409   0.000000   0.000000
     43          7.515776        7.515777   0.000000   0.000000
     44          7.520596        7.520596   0.000000   0.000000
     45          7.819124        7.819380   0.000000   0.000000
     46          8.240449        8.240450   0.000000   0.000000
     47          8.401936        8.401936   0.000000   0.000000
     48          8.612422        8.612407   0.000000   0.000000
 
  0.1666667E+00 -0.1089067E-16  0.0000000E+00  0.2777778E-01
      1        -19.746109      -19.746109   1.000000   1.000000
      2        -15.882291      -15.882291   1.000000   1.000000
      3        -15.862886      -15.862886   1.000000   1.000000
      4        -14.996925      -14.996925   1.000000   1.000000
      5        -14.994255      -14.994255   1.000000   1.000000
      6        -12.903718      -12.903718   1.000000   1.000000
      7        -12.902135      -12.902135   1.000000   1.000000
      8        -12.731361      -12.731361   1.000000   1.000000
      9        -12.047229      -12.047229   1.000000   1.000000
     10        -11.619764      -11.619764   1.000000   1.000000
     11        -10.686726      -10.686726   1.000000   1.000000
     12         -9.412648       -9.412648   1.000000   1.000000
     13         -8.954634       -8.954634   1.000000   1.000000
     14         -7.929756       -7.929756   1.000000   1.000000
     15         -7.190202       -7.190202   1.000000   1.000000
     16         -7.185006       -7.185006   1.000000   1.000000
     17         -6.835635       -6.835635   1.000000   1.000000
     18         -6.532410       -6.532410   1.000000   1.000000
     19         -6.472748       -6.472748   1.000000   1.000000
     20         -3.915052       -3.915051   1.000000   1.000000
     21         -3.601568       -3.601568   1.000000   1.000000
     22         -3.563324       -3.563324   1.000000   1.000000
     23         -2.813543       -2.813543   1.000000   1.000000
     24         -2.791897       -2.791898   1.000000   1.000000
     25         -2.533400       -2.533401   1.000000   1.000000
     26         -2.433668       -2.433669   1.000000   1.000000
     27         -1.586372       -1.586372   1.000000   1.000000
     28         -0.424843       -0.424844   0.998517   0.998517
     29          0.325969        0.325969   0.000000   0.000000
     30          1.459173        1.459173   0.000000   0.000000
     31          1.532395        1.532395   0.000000   0.000000
     32          1.790832        1.790831   0.000000   0.000000
     33          2.014163        2.014163   0.000000   0.000000
     34          2.557254        2.557254   0.000000   0.000000
     35          3.103177        3.103146   0.000000   0.000000
     36          3.321858        3.321858   0.000000   0.000000
     37          3.510294        3.510250   0.000000   0.000000
     38          3.946490        3.946545   0.000000   0.000000
     39          5.034636        5.034188   0.000000   0.000000
     40          5.209620        5.209418   0.000000   0.000000
     41          7.186746        7.186197   0.000000   0.000000
     42          7.401089        7.401090   0.000000   0.000000
     43          7.735372        7.735369   0.000000   0.000000
     44          7.989865        7.990068   0.000000   0.000000
     45          8.065145        8.065146   0.000000   0.000000
     46          8.072880        8.072880   0.000000   0.000000
     47          8.303839        8.303848   0.000000   0.000000
     48          8.377645        8.377649   0.000000   0.000000
 
 -0.1666667E+00  0.1666667E+00  0.0000000E+00  0.1388889E-01
      1        -19.746103      -19.746103   1.000000   1.000000
      2        -15.882818      -15.882817   1.000000   1.000000
      3        -15.862292      -15.862292   1.000000   1.000000
      4        -14.996734      -14.996734   1.000000   1.000000
      5        -14.994317      -14.994317   1.000000   1.000000
      6        -12.904483      -12.904483   1.000000   1.000000
      7        -12.902725      -12.902725   1.000000   1.000000
      8        -12.730786      -12.730786   1.000000   1.000000
      9        -12.046059      -12.046058   1.000000   1.000000
     10        -11.622700      -11.622700   1.000000   1.000000
     11        -10.683691      -10.683691   1.000000   1.000000
     12         -9.409671       -9.409671   1.000000   1.000000
     13         -8.958946       -8.958946   1.000000   1.000000
     14         -7.930001       -7.930002   1.000000   1.000000
     15         -7.187861       -7.187861   1.000000   1.000000
     16         -7.185610       -7.185609   1.000000   1.000000
     17         -6.834497       -6.834498   1.000000   1.000000
     18         -6.534205       -6.534204   1.000000   1.000000
     19         -6.472990       -6.472990   1.000000   1.000000
     20         -3.911625       -3.911625   1.000000   1.000000
     21         -3.605132       -3.605131   1.000000   1.000000
     22         -3.568193       -3.568193   1.000000   1.000000
     23         -2.806593       -2.806593   1.000000   1.000000
     24         -2.788378       -2.788378   1.000000   1.000000
     25         -2.542946       -2.542946   1.000000   1.000000
     26         -2.429329       -2.429329   1.000000   1.000000
     27         -1.581894       -1.581895   1.000000   1.000000
     28         -0.434481       -0.434481   0.999056   0.999057
     29          0.342393        0.342392   0.000000   0.000000
     30          1.476169        1.476168   0.000000   0.000000
     31          1.498788        1.498787   0.000000   0.000000
     32          1.803299        1.803299   0.000000   0.000000
     33          1.991580        1.991579   0.000000   0.000000
     34          2.562876        2.562876   0.000000   0.000000
     35          3.109944        3.109911   0.000000   0.000000
     36          3.313656        3.313656   0.000000   0.000000
     37          3.525375        3.525336   0.000000   0.000000
     38          3.952289        3.952341   0.000000   0.000000
     39          5.022748        5.022340   0.000000   0.000000
     40          5.206065        5.205825   0.000000   0.000000
     41          7.186359        7.185814   0.000000   0.000000
     42          7.401189        7.401189   0.000000   0.000000
     43          7.735103        7.735112   0.000000   0.000000
     44          7.995439        7.995633   0.000000   0.000000
     45          8.067722        8.067724   0.000000   0.000000
     46          8.070336        8.070336   0.000000   0.000000
     47          8.297482        8.297481   0.000000   0.000000
     48          8.381321        8.381317   0.000000   0.000000
 
  0.2500000E+00 -0.8390927E-17  0.0000000E+00  0.2777778E-01
      1        -19.538956      -19.538955   1.000000   1.000000
      2        -16.618867      -16.618867   1.000000   1.000000
      3        -15.705517      -15.705517   1.000000   1.000000
      4        -15.240050      -15.240050   1.000000   1.000000
      5        -15.237811      -15.237810   1.000000   1.000000
      6        -13.252926      -13.252926   1.000000   1.000000
      7        -12.329927      -12.329927   1.000000   1.000000
      8        -12.328261      -12.328261   1.000000   1.000000
      9        -11.715692      -11.715693   1.000000   1.000000
     10        -11.006663      -11.006663   1.000000   1.000000
     11        -10.539255      -10.539255   1.000000   1.000000
     12         -9.208855       -9.208855   1.000000   1.000000
     13         -8.620090       -8.620090   1.000000   1.000000
     14         -7.723579       -7.723579   1.000000   1.000000
     15         -7.718947       -7.718947   1.000000   1.000000
     16         -7.677157       -7.677157   1.000000   1.000000
     17         -6.443377       -6.443377   1.000000   1.000000
     18         -6.329469       -6.329469   1.000000   1.000000
     19         -6.220491       -6.220491   1.000000   1.000000
     20         -4.653306       -4.653305   1.000000   1.000000
     21         -4.296639       -4.296639   1.000000   1.000000
     22         -3.973604       -3.973604   1.000000   1.000000
     23         -3.348663       -3.348663   1.000000   1.000000
     24         -3.074256       -3.074256   1.000000   1.000000
     25         -2.902954       -2.902954   1.000000   1.000000
     26         -2.890994       -2.890995   1.000000   1.000000
     27         -2.374113       -2.374113   1.000000   1.000000
     28         -0.713892       -0.713893   1.000000   1.000000
     29          0.180701        0.180700   0.000000   0.000000
     30          1.914896        1.914896   0.000000   0.000000
     31          1.985713        1.985712   0.000000   0.000000
     32          2.438282        2.438281   0.000000   0.000000
     33          2.730028        2.730028   0.000000   0.000000
     34          3.508753        3.508702   0.000000   0.000000
     35          3.576474        3.576469   0.000000   0.000000
     36          4.056966        4.057010   0.000000   0.000000
     37          4.219651        4.219651   0.000000   0.000000
     38          4.352538        4.352505   0.000000   0.000000
     39          5.347643        5.347107   0.000000   0.000000
     40          5.694404        5.694327   0.000000   0.000000
     41          6.663382        6.663371   0.000000   0.000000
     42          7.402180        7.401983   0.000000   0.000000
     43          7.482032        7.481693   0.000000   0.000000
     44          7.659801        7.659728   0.000000   0.000000
     45          8.176131        8.176277   0.000000   0.000000
     46          8.244280        8.244350   0.000000   0.000000
     47          8.334776        8.334786   0.000000   0.000000
     48          8.423355        8.423441   0.000000   0.000000
 
 -0.2500000E+00  0.2500000E+00  0.0000000E+00  0.1388889E-01
      1        -19.538943      -19.538943   1.000000   1.000000
      2        -16.618794      -16.618794   1.000000   1.000000
      3        -15.705452      -15.705452   1.000000   1.000000
      4        -15.239897      -15.239897   1.000000   1.000000
      5        -15.237998      -15.237997   1.000000   1.000000
      6        -13.252536      -13.252536   1.000000   1.000000
      7        -12.330212      -12.330212   1.000000   1.000000
      8        -12.329392      -12.329392   1.000000   1.000000
      9        -11.718403      -11.718403   1.000000   1.000000
     10        -11.005429      -11.005429   1.000000   1.000000
     11        -10.535943      -10.535943   1.000000   1.000000
     12         -9.205847       -9.205847   1.000000   1.000000
     13         -8.625222       -8.625222   1.000000   1.000000
     14         -7.721255       -7.721255   1.000000   1.000000
     15         -7.719436       -7.719435   1.000000   1.000000
     16         -7.677498       -7.677498   1.000000   1.000000
     17         -6.440694       -6.440694   1.000000   1.000000
     18         -6.331365       -6.331365   1.000000   1.000000
     19         -6.221452       -6.221453   1.000000   1.000000
     20         -4.650312       -4.650312   1.000000   1.000000
     21         -4.299756       -4.299756   1.000000   1.000000
     22         -3.976838       -3.976838   1.000000   1.000000
     23         -3.355535       -3.355535   1.000000   1.000000
     24         -3.061717       -3.061717   1.000000   1.000000
     25         -2.901184       -2.901184   1.000000   1.000000
     26         -2.893552       -2.893552   1.000000   1.000000
     27         -2.372008       -2.372008   1.000000   1.000000
     28         -0.720154       -0.720154   1.000000   1.000000
     29          0.192895        0.192894   0.000000   0.000000
     30          1.929119        1.929119   0.000000   0.000000
     31          1.957224        1.957224   0.000000   0.000000
     32          2.451048        2.451047   0.000000   0.000000
     33          2.708570        2.708569   0.000000   0.000000
     34          3.498454        3.498409   0.000000   0.000000
     35          3.590604        3.590593   0.000000   0.000000
     36          4.064735        4.064787   0.000000   0.000000
     37          4.214059        4.214059   0.000000   0.000000
     38          4.374877        4.374836   0.000000   0.000000
     39          5.336153        5.335645   0.000000   0.000000
     40          5.678100        5.677993   0.000000   0.000000
     41          6.663370        6.663357   0.000000   0.000000
     42          7.401448        7.401329   0.000000   0.000000
     43          7.485623        7.485299   0.000000   0.000000
     44          7.664031        7.663833   0.000000   0.000000
     45          8.176630        8.176765   0.000000   0.000000
     46          8.247032        8.247146   0.000000   0.000000
     47          8.330399        8.330428   0.000000   0.000000
     48          8.432095        8.432180   0.000000   0.000000
 
  0.3333333E+00 -0.3195697E-16  0.0000000E+00  0.2777778E-01
      1        -19.249721      -19.249720   1.000000   1.000000
      2        -17.295307      -17.295307   1.000000   1.000000
      3        -15.493393      -15.493393   1.000000   1.000000
      4        -15.422984      -15.422983   1.000000   1.000000
      5        -15.420983      -15.420982   1.000000   1.000000
      6        -13.732292      -13.732292   1.000000   1.000000
      7        -11.800492      -11.800493   1.000000   1.000000
      8        -11.709623      -11.709623   1.000000   1.000000
      9        -11.708097      -11.708097   1.000000   1.000000
     10        -10.587706      -10.587706   1.000000   1.000000
     11         -9.919669       -9.919669   1.000000   1.000000
     12         -8.766797       -8.766797   1.000000   1.000000
     13         -8.351133       -8.351132   1.000000   1.000000
     14         -8.347204       -8.347204   1.000000   1.000000
     15         -8.242524       -8.242524   1.000000   1.000000
     16         -7.328617       -7.328618   1.000000   1.000000
     17         -6.269266       -6.269267   1.000000   1.000000
     18         -6.051794       -6.051794   1.000000   1.000000
     19         -5.880870       -5.880871   1.000000   1.000000
     20         -5.569530       -5.569529   1.000000   1.000000
     21         -5.018777       -5.018777   1.000000   1.000000
     22         -4.410046       -4.410046   1.000000   1.000000
     23         -4.054315       -4.054315   1.000000   1.000000
     24         -3.463959       -3.463960   1.000000   1.000000
     25         -3.209059       -3.209059   1.000000   1.000000
     26         -3.000790       -3.000790   1.000000   1.000000
     27         -2.922621       -2.922621   1.000000   1.000000
     28         -0.953094       -0.953095   1.000000   1.000000
     29          0.040858        0.040857   0.000150   0.000150
     30          2.260283        2.260284   0.000000   0.000000
     31          2.288686        2.288686   0.000000   0.000000
     32          3.201548        3.201543   0.000000   0.000000
     33          3.653336        3.653335   0.000000   0.000000
     34          4.032881        4.032826   0.000000   0.000000
     35          4.522265        4.522339   0.000000   0.000000
     36          4.692902        4.692903   0.000000   0.000000
     37          4.887472        4.887400   0.000000   0.000000
     38          5.128986        5.128985   0.000000   0.000000
     39          5.540681        5.540518   0.000000   0.000000
     40          5.731913        5.731629   0.000000   0.000000
     41          6.097170        6.097045   0.000000   0.000000
     42          6.919387        6.919320   0.000000   0.000000
     43          7.380107        7.380063   0.000000   0.000000
     44          7.651491        7.651411   0.000000   0.000000
     45          7.659981        7.659970   0.000000   0.000000
     46          7.873480        7.873033   0.000000   0.000000
     47          7.941536        7.941531   0.000000   0.000000
     48          8.239346        8.239353   0.000000   0.000000
 
 -0.3333333E+00  0.3333333E+00  0.0000000E+00  0.1388889E-01
      1        -19.249699      -19.249699   1.000000   1.000000
      2        -17.295226      -17.295226   1.000000   1.000000
      3        -15.493198      -15.493198   1.000000   1.000000
      4        -15.423306      -15.423306   1.000000   1.000000
      5        -15.420876      -15.420875   1.000000   1.000000
      6        -13.732072      -13.732072   1.000000   1.000000
      7        -11.803449      -11.803449   1.000000   1.000000
      8        -11.710250      -11.710250   1.000000   1.000000
      9        -11.708750      -11.708750   1.000000   1.000000
     10        -10.584438      -10.584438   1.000000   1.000000
     11         -9.918291       -9.918290   1.000000   1.000000
     12         -8.763443       -8.763443   1.000000   1.000000
     13         -8.349543       -8.349543   1.000000   1.000000
     14         -8.347048       -8.347047   1.000000   1.000000
     15         -8.248275       -8.248275   1.000000   1.000000
     16         -7.329028       -7.329029   1.000000   1.000000
     17         -6.264928       -6.264929   1.000000   1.000000
     18         -6.053803       -6.053802   1.000000   1.000000
     19         -5.882283       -5.882284   1.000000   1.000000
     20         -5.566960       -5.566960   1.000000   1.000000
     21         -5.020607       -5.020607   1.000000   1.000000
     22         -4.412950       -4.412949   1.000000   1.000000
     23         -4.061122       -4.061122   1.000000   1.000000
     24         -3.453850       -3.453850   1.000000   1.000000
     25         -3.211591       -3.211591   1.000000   1.000000
     26         -2.998356       -2.998357   1.000000   1.000000
     27         -2.920596       -2.920596   1.000000   1.000000
     28         -0.958707       -0.958708   1.000000   1.000000
     29          0.050587        0.050586   0.000088   0.000088
     30          2.268309        2.268309   0.000000   0.000000
     31          2.278781        2.278782   0.000000   0.000000
     32          3.201873        3.201868   0.000000   0.000000
     33          3.632525        3.632525   0.000000   0.000000
     34          4.031455        4.031400   0.000000   0.000000
     35          4.517584        4.517656   0.000000   0.000000
     36          4.701143        4.701144   0.000000   0.000000
     37          4.927326        4.927255   0.000000   0.000000
     38          5.124536        5.124536   0.000000   0.000000
     39          5.510288        5.510133   0.000000   0.000000
     40          5.726394        5.726112   0.000000   0.000000
     41          6.094927        6.094785   0.000000   0.000000
     42          6.915319        6.915266   0.000000   0.000000
     43          7.381423        7.381389   0.000000   0.000000
     44          7.657927        7.657909   0.000000   0.000000
     45          7.673276        7.673204   0.000000   0.000000
     46          7.870414        7.869946   0.000000   0.000000
     47          7.916939        7.916938   0.000000   0.000000
     48          8.236886        8.236905   0.000000   0.000000
 
  0.4166667E+00  0.5348692E-16  0.0000000E+00  0.2777778E-01
      1        -18.879259      -18.879259   1.000000   1.000000
      2        -17.899970      -17.899970   1.000000   1.000000
      3        -15.536439      -15.536439   1.000000   1.000000
      4        -15.534368      -15.534368   1.000000   1.000000
      5        -15.257043      -15.257043   1.000000   1.000000
      6        -14.130497      -14.130497   1.000000   1.000000
      7        -11.855867      -11.855867   1.000000   1.000000
      8        -11.117834      -11.117834   1.000000   1.000000
      9        -11.115846      -11.115845   1.000000   1.000000
     10        -10.659832      -10.659832   1.000000   1.000000
     11         -8.963755       -8.963755   1.000000   1.000000
     12         -8.960258       -8.960258   1.000000   1.000000
     13         -8.807264       -8.807264   1.000000   1.000000
     14         -8.305427       -8.305427   1.000000   1.000000
     15         -7.913217       -7.913217   1.000000   1.000000
     16         -6.893490       -6.893490   1.000000   1.000000
     17         -6.599181       -6.599181   1.000000   1.000000
     18         -6.385047       -6.385047   1.000000   1.000000
     19         -5.750109       -5.750110   1.000000   1.000000
     20         -5.706785       -5.706785   1.000000   1.000000
     21         -5.415451       -5.415452   1.000000   1.000000
     22         -4.865450       -4.865450   1.000000   1.000000
     23         -4.585356       -4.585356   1.000000   1.000000