 vasp.6.3.2 27Jun22 (build Dec 22 2022 13:13:19) complex                        
  
 executed on             LinuxIFC date 2023.09.05  02:37:29
 running   48 mpi-ranks, with    1 threads/rank
 distrk:  each k-point on   48 cores,    1 groups
 distr:  one band on NCORE=   1 cores,   48 groups


--------------------------------------------------------------------------------------------------------


 INCAR:
   SYSTEM = BS
   ISTART = 0
   ICHARG = 11
   PREC = Accurate
   LORBIT = 11
   ENCUT = 450
   ALGO = Normal
   NELM = 64
   EDIFF = 1E-6
   EDIFFG = -1E-3
   SIGMA = 0.1
   ISMEAR = 0
   GGA = PE
   IVDW = 12
   ISYM = 0

 POTCAR:    PAW_PBE B 06Sep2000                   
 POTCAR:    PAW_PBE C 08Apr2002                   
 POTCAR:    PAW_PBE B 06Sep2000                   
   SHA256 =  a32ced30f5ae56fd4d10b4325ff17eb3e4e38ee0f4288bc219fb012fddfa6e97 B/POTCAR              
   COPYR  = (c) Copyright 06Sep2000 Georg Kresse                                                    
   COPYR  = This file is part of the software VASP. Any use, copying, and all other rights are regul
   COPYR  = If you do not have a valid VASP license, you may not use, copy or distribute this file. 
   VRHFIN =B: s2p1                                                                                  
   LEXCH  = PE                                                                                      
   EATOM  =    71.1703 eV,    5.2309 Ry                                                             
                                                                                                    
   TITEL  = PAW_PBE B 06Sep2000                                                                     
   LULTRA =        F    use ultrasoft PP ?                                                          
   IUNSCR =        1    unscreen: 0-lin 1-nonlin 2-no                                               
   RPACOR =    1.200    partial core radius                                                         
   POMASS =   10.811; ZVAL   =    3.000    mass and valenz                                          
   RCORE  =    1.700    outmost cutoff radius                                                       
   RWIGS  =    1.710; RWIGS  =    0.905    wigner-seitz radius (au A)                               
   ENMAX  =  318.614; ENMIN  =  238.960 eV                                                          
   ICORE  =        2    local potential                                                             
   LCOR   =        T    correct aug charges                                                         
   LPAW   =        T    paw PP                                                                      
   EAUG   =  535.514                                                                                
   DEXC   =    0.000                                                                                
   RMAX   =    1.732    core radius for proj-oper                                                   
   RAUG   =    1.300    factor for augmentation sphere                                              
   RDEP   =    1.757    radius for radial grids                                                     
   RDEPT  =    1.436    core radius for aug-charge                                                  
                                                                                                    
   Atomic configuration                                                                             
    4 entries                                                                                       
     n  l   j            E        occ.                                                              
     1  0  0.50      -180.5896   2.0000                                                             
     2  0  0.50        -9.4431   2.0000                                                             
     2  1  0.50        -3.6068   1.0000                                                             
     3  2  1.50        -4.0817   0.0000                                                             
   Description                                                                                      
     l       E           TYP  RCUT    TYP  RCUT                                                     
     0     -9.4430752     23  1.500                                                                 
     0      0.8675899     23  1.500                                                                 
     1     -3.6067955     23  1.700                                                                 
     1      6.1086146     23  1.700                                                                 
     2     -4.0817478      7  1.700                                                                 
  local pseudopotential read in
  partial core-charges read in
  partial kinetic energy density read in
  atomic valenz-charges read in
  non local Contribution for L=           0  read in
    real space projection operators read in
  non local Contribution for L=           0  read in
    real space projection operators read in
  non local Contribution for L=           1  read in
    real space projection operators read in
  non local Contribution for L=           1  read in
    real space projection operators read in
    PAW grid and wavefunctions read in
 
   number of l-projection  operators is LMAX  =           4
   number of lm-projection operators is LMMAX =           8
 
 POTCAR:    PAW_PBE C 08Apr2002                   
   SHA256 =  253f7b50bb8d59471dbedb8285d89021f4a42ed1a2c5d38a03a736e69125dd95 C/POTCAR              
   COPYR  = (c) Copyright 08Apr2002 Georg Kresse                                                    
   COPYR  = This file is part of the software VASP. Any use, copying, and all other rights are regul
   COPYR  = If you do not have a valid VASP license, you may not use, copy or distribute this file. 
   VRHFIN =C: s2p2                                                                                  
   LEXCH  = PE                                                                                      
   EATOM  =   147.1560 eV,   10.8157 Ry                                                             
                                                                                                    
   TITEL  = PAW_PBE C 08Apr2002                                                                     
   LULTRA =        F    use ultrasoft PP ?                                                          
   IUNSCR =        1    unscreen: 0-lin 1-nonlin 2-no                                               
   RPACOR =    1.200    partial core radius                                                         
   POMASS =   12.011; ZVAL   =    4.000    mass and valenz                                          
   RCORE  =    1.500    outmost cutoff radius                                                       
   RWIGS  =    1.630; RWIGS  =    0.863    wigner-seitz radius (au A)                               
   ENMAX  =  400.000; ENMIN  =  300.000 eV                                                          
   ICORE  =        2    local potential                                                             
   LCOR   =        T    correct aug charges                                                         
   LPAW   =        T    paw PP                                                                      
   EAUG   =  644.873                                                                                
   DEXC   =    0.000                                                                                
   RMAX   =    1.529    core radius for proj-oper                                                   
   RAUG   =    1.300    factor for augmentation sphere                                              
   RDEP   =    1.501    radius for radial grids                                                     
   RDEPT  =    1.300    core radius for aug-charge                                                  
                                                                                                    
   Atomic configuration                                                                             
    4 entries                                                                                       
     n  l   j            E        occ.                                                              
     1  0  0.50      -273.3789   2.0000                                                             
     2  0  0.50       -13.7508   2.0000                                                             
     2  1  0.50        -5.2854   2.0000                                                             
     3  2  1.50        -5.4423   0.0000                                                             
   Description                                                                                      
     l       E           TYP  RCUT    TYP  RCUT                                                     
     0    -13.7508458     23  1.200                                                                 
     0     -8.2022199     23  1.200                                                                 
     1     -5.2854383     23  1.500                                                                 
     1     34.0145650     23  1.500                                                                 
     2     -5.4423304      7  1.500                                                                 
  local pseudopotential read in
  partial core-charges read in
  partial kinetic energy density read in
  atomic valenz-charges read in
  non local Contribution for L=           0  read in
    real space projection operators read in
  non local Contribution for L=           0  read in
    real space projection operators read in
  non local Contribution for L=           1  read in
    real space projection operators read in
  non local Contribution for L=           1  read in
    real space projection operators read in
    PAW grid and wavefunctions read in
 
   number of l-projection  operators is LMAX  =           4
   number of lm-projection operators is LMMAX =           8
 
  PAW_PBE B 06Sep2000                   :
 energy of atom  1       EATOM=  -71.1703
 kinetic energy error for atom=    0.0015 (will be added to EATOM!!)
  PAW_PBE C 08Apr2002                   :
 energy of atom  2       EATOM= -147.1560
 kinetic energy error for atom=    0.0116 (will be added to EATOM!!)
 
 
 POSCAR: Graphene-B4C3 Hollow_2 with lattice para
  positions in direct lattice
  velocities in cartesian coordinates
 exchange correlation table for  LEXCH =        8
   RHO(1)=    0.500       N(1)  =     2000
   RHO(2)=  100.500       N(2)  =     4000

 VTST: version 4.2, (08/11/21)

 CHAIN: initializing optimizer
 
 OPT: Using VASP Dynamics algorithm
 CHAIN: Read ICHAIN            0
 
 POSCAR: Graphene-B4C3 Hollow_2 with lattice para
  positions in direct lattice
  velocities in cartesian coordinates
 


--------------------------------------------------------------------------------------------------------


 ion  position               nearest neighbor table
   1  0.004  0.003  0.099-   7 1.57   6 1.57   5 1.57   4 1.72   3 1.72   2 1.72
   2  0.360  0.003  0.100-   6 1.56   7 1.65   5 1.65   1 1.72
   3  0.004  0.358  0.100-   7 1.56   6 1.65   5 1.65   1 1.72
   4  0.649  0.648  0.100-   5 1.56   6 1.65   7 1.65   1 1.72
   5  0.328  0.327  0.100-   4 1.56   1 1.57   2 1.65   3 1.65
   6  0.681  0.003  0.100-   2 1.56   1 1.57   3 1.65   4 1.65
   7  0.004  0.679  0.100-   3 1.56   1 1.57   2 1.65   4 1.65
   8  0.166  0.333  0.338-  13 1.40  11 1.40   9 1.40
   9  0.333  0.166  0.338-  10 1.40  12 1.40   8 1.40
  10  0.166  0.833  0.338-   9 1.40  11 1.40  15 1.40
  11  0.333  0.667  0.338-  14 1.40   8 1.40  10 1.40
  12  0.666  0.333  0.338-   9 1.40  13 1.40  15 1.40
  13  0.833  0.167  0.338-   8 1.40  12 1.40  14 1.40
  14  0.666  0.833  0.338-  15 1.40  11 1.40  13 1.40
  15  0.833  0.667  0.338-  14 1.40  12 1.40  10 1.40
 

IMPORTANT INFORMATION: All symmetrisations will be switched off!
NOSYMM: (Re-)initialisation of all symmetry stuff for point group C_1.


----------------------------------------------------------------------------------------

                                     Primitive cell                                     

  volume of cell :     305.0624

  direct lattice vectors                    reciprocal lattice vectors
     4.196759107  2.423000000  0.000000000     0.119139552  0.206355757  0.000000000
    -4.196759107  2.423000000  0.000000000    -0.119139552  0.206355757  0.000000000
     0.000000000  0.000000000 15.000000000     0.000000000  0.000000000  0.066666667

  length of vectors
     4.846000000  4.846000000 15.000000000     0.238279104  0.238279104  0.066666667

  position of ions in fractional coordinates (direct lattice)
     0.004433534  0.002943764  0.098997042
     0.359585978  0.002948862  0.100394793
     0.004441183  0.358087807  0.100396800
     0.649304236  0.647812680  0.100398841
     0.328149974  0.326650833  0.100170906
     0.680777011  0.002965000  0.100172886
     0.004463921  0.679295043  0.100173444
     0.166415866  0.333174175  0.337642769
     0.333100351  0.166489441  0.337644507
     0.166451965  0.833193677  0.337647107
     0.333100884  0.666507590  0.337537551
     0.666431971  0.333172838  0.337537553
     0.833119548  0.166525731  0.337646475
     0.666432775  0.833157974  0.337643293
     0.833084803  0.666508584  0.337642032

  ion indices of the primitive-cell ions
   primitive index   ion index
                 1           1
                 2           2
                 3           3
                 4           4
                 5           5
                 6           6
                 7           7
                 8           8
                 9           9
                10          10
                11          11
                12          12
                13          13
                14          14
                15          15

----------------------------------------------------------------------------------------

 
 
 KPOINTS: K-points                                

Interpolating k-points between supplied coordinates.

 Line segments in fractional coordinates (reciprocal lattice):
    0.000000  0.000000  0.000000  ...  0.333000  0.333000  0.000000
    0.333000  0.333000  0.000000  ...  0.000000  0.500000  0.000000
    0.000000  0.500000  0.000000  ...  0.000000  0.000000  0.000000

 Generated   128 points on each line segment, for a total of    384 k-points:

 Following reciprocal coordinates:
            Coordinates               Weight
  0.000000  0.000000  0.000000      0.002604
  0.002622  0.002622  0.000000      0.002604
  0.005244  0.005244  0.000000      0.002604
  0.007866  0.007866  0.000000      0.002604
  0.010488  0.010488  0.000000      0.002604
  0.013110  0.013110  0.000000      0.002604
  0.015732  0.015732  0.000000      0.002604
  0.018354  0.018354  0.000000      0.002604
  0.020976  0.020976  0.000000      0.002604
  0.023598  0.023598  0.000000      0.002604
  0.026220  0.026220  0.000000      0.002604
  0.028843  0.028843  0.000000      0.002604
  0.031465  0.031465  0.000000      0.002604
  0.034087  0.034087  0.000000      0.002604
  0.036709  0.036709  0.000000      0.002604
  0.039331  0.039331  0.000000      0.002604
  0.041953  0.041953  0.000000      0.002604
  0.044575  0.044575  0.000000      0.002604
  0.047197  0.047197  0.000000      0.002604
  0.049819  0.049819  0.000000      0.002604
  0.052441  0.052441  0.000000      0.002604
  0.055063  0.055063  0.000000      0.002604
  0.057685  0.057685  0.000000      0.002604
  0.060307  0.060307  0.000000      0.002604
  0.062929  0.062929  0.000000      0.002604
  0.065551  0.065551  0.000000      0.002604
  0.068173  0.068173  0.000000      0.002604
  0.070795  0.070795  0.000000      0.002604
  0.073417  0.073417  0.000000      0.002604
  0.076039  0.076039  0.000000      0.002604
  0.078661  0.078661  0.000000      0.002604
  0.081283  0.081283  0.000000      0.002604
  0.083906  0.083906  0.000000      0.002604
  0.086528  0.086528  0.000000      0.002604
  0.089150  0.089150  0.000000      0.002604
  0.091772  0.091772  0.000000      0.002604
  0.094394  0.094394  0.000000      0.002604
  0.097016  0.097016  0.000000      0.002604
  0.099638  0.099638  0.000000      0.002604
  0.102260  0.102260  0.000000      0.002604
  0.104882  0.104882  0.000000      0.002604
  0.107504  0.107504  0.000000      0.002604
  0.110126  0.110126  0.000000      0.002604
  0.112748  0.112748  0.000000      0.002604
  0.115370  0.115370  0.000000      0.002604
  0.117992  0.117992  0.000000      0.002604
  0.120614  0.120614  0.000000      0.002604
  0.123236  0.123236  0.000000      0.002604
  0.125858  0.125858  0.000000      0.002604
  0.128480  0.128480  0.000000      0.002604
  0.131102  0.131102  0.000000      0.002604
  0.133724  0.133724  0.000000      0.002604
  0.136346  0.136346  0.000000      0.002604
  0.138969  0.138969  0.000000      0.002604
  0.141591  0.141591  0.000000      0.002604
  0.144213  0.144213  0.000000      0.002604
  0.146835  0.146835  0.000000      0.002604
  0.149457  0.149457  0.000000      0.002604
  0.152079  0.152079  0.000000      0.002604
  0.154701  0.154701  0.000000      0.002604
  0.157323  0.157323  0.000000      0.002604
  0.159945  0.159945  0.000000      0.002604
  0.162567  0.162567  0.000000      0.002604
  0.165189  0.165189  0.000000      0.002604
  0.167811  0.167811  0.000000      0.002604
  0.170433  0.170433  0.000000      0.002604
  0.173055  0.173055  0.000000      0.002604
  0.175677  0.175677  0.000000      0.002604
  0.178299  0.178299  0.000000      0.002604
  0.180921  0.180921  0.000000      0.002604
  0.183543  0.183543  0.000000      0.002604
  0.186165  0.186165  0.000000      0.002604
  0.188787  0.188787  0.000000      0.002604
  0.191409  0.191409  0.000000      0.002604
  0.194031  0.194031  0.000000      0.002604
  0.196654  0.196654  0.000000      0.002604
  0.199276  0.199276  0.000000      0.002604
  0.201898  0.201898  0.000000      0.002604
  0.204520  0.204520  0.000000      0.002604
  0.207142  0.207142  0.000000      0.002604
  0.209764  0.209764  0.000000      0.002604
  0.212386  0.212386  0.000000      0.002604
  0.215008  0.215008  0.000000      0.002604
  0.217630  0.217630  0.000000      0.002604
  0.220252  0.220252  0.000000      0.002604
  0.222874  0.222874  0.000000      0.002604
  0.225496  0.225496  0.000000      0.002604
  0.228118  0.228118  0.000000      0.002604
  0.230740  0.230740  0.000000      0.002604
  0.233362  0.233362  0.000000      0.002604
  0.235984  0.235984  0.000000      0.002604
  0.238606  0.238606  0.000000      0.002604
  0.241228  0.241228  0.000000      0.002604
  0.243850  0.243850  0.000000      0.002604
  0.246472  0.246472  0.000000      0.002604
  0.249094  0.249094  0.000000      0.002604
  0.251717  0.251717  0.000000      0.002604
  0.254339  0.254339  0.000000      0.002604
  0.256961  0.256961  0.000000      0.002604
  0.259583  0.259583  0.000000      0.002604
  0.262205  0.262205  0.000000      0.002604
  0.264827  0.264827  0.000000      0.002604
  0.267449  0.267449  0.000000      0.002604
  0.270071  0.270071  0.000000      0.002604
  0.272693  0.272693  0.000000      0.002604
  0.275315  0.275315  0.000000      0.002604
  0.277937  0.277937  0.000000      0.002604
  0.280559  0.280559  0.000000      0.002604
  0.283181  0.283181  0.000000      0.002604
  0.285803  0.285803  0.000000      0.002604
  0.288425  0.288425  0.000000      0.002604
  0.291047  0.291047  0.000000      0.002604
  0.293669  0.293669  0.000000      0.002604
  0.296291  0.296291  0.000000      0.002604
  0.298913  0.298913  0.000000      0.002604
  0.301535  0.301535  0.000000      0.002604
  0.304157  0.304157  0.000000      0.002604
  0.306780  0.306780  0.000000      0.002604
  0.309402  0.309402  0.000000      0.002604
  0.312024  0.312024  0.000000      0.002604
  0.314646  0.314646  0.000000      0.002604
  0.317268  0.317268  0.000000      0.002604
  0.319890  0.319890  0.000000      0.002604
  0.322512  0.322512  0.000000      0.002604
  0.325134  0.325134  0.000000      0.002604
  0.327756  0.327756  0.000000      0.002604
  0.330378  0.330378  0.000000      0.002604
  0.333000  0.333000  0.000000      0.002604
  0.333000  0.333000  0.000000      0.002604
  0.330378  0.334315  0.000000      0.002604
  0.327756  0.335630  0.000000      0.002604
  0.325134  0.336945  0.000000      0.002604
  0.322512  0.338260  0.000000      0.002604
  0.319890  0.339575  0.000000      0.002604
  0.317268  0.340890  0.000000      0.002604
  0.314646  0.342205  0.000000      0.002604
  0.312024  0.343520  0.000000      0.002604
  0.309402  0.344835  0.000000      0.002604
  0.306780  0.346150  0.000000      0.002604
  0.304157  0.347465  0.000000      0.002604
  0.301535  0.348780  0.000000      0.002604
  0.298913  0.350094  0.000000      0.002604
  0.296291  0.351409  0.000000      0.002604
  0.293669  0.352724  0.000000      0.002604
  0.291047  0.354039  0.000000      0.002604
  0.288425  0.355354  0.000000      0.002604
  0.285803  0.356669  0.000000      0.002604
  0.283181  0.357984  0.000000      0.002604
  0.280559  0.359299  0.000000      0.002604
  0.277937  0.360614  0.000000      0.002604
  0.275315  0.361929  0.000000      0.002604
  0.272693  0.363244  0.000000      0.002604
  0.270071  0.364559  0.000000      0.002604
  0.267449  0.365874  0.000000      0.002604
  0.264827  0.367189  0.000000      0.002604
  0.262205  0.368504  0.000000      0.002604
  0.259583  0.369819  0.000000      0.002604
  0.256961  0.371134  0.000000      0.002604
  0.254339  0.372449  0.000000      0.002604
  0.251717  0.373764  0.000000      0.002604
  0.249094  0.375079  0.000000      0.002604
  0.246472  0.376394  0.000000      0.002604
  0.243850  0.377709  0.000000      0.002604
  0.241228  0.379024  0.000000      0.002604
  0.238606  0.380339  0.000000      0.002604
  0.235984  0.381654  0.000000      0.002604
  0.233362  0.382969  0.000000      0.002604
  0.230740  0.384283  0.000000      0.002604
  0.228118  0.385598  0.000000      0.002604
  0.225496  0.386913  0.000000      0.002604
  0.222874  0.388228  0.000000      0.002604
  0.220252  0.389543  0.000000      0.002604
  0.217630  0.390858  0.000000      0.002604
  0.215008  0.392173  0.000000      0.002604
  0.212386  0.393488  0.000000      0.002604
  0.209764  0.394803  0.000000      0.002604
  0.207142  0.396118  0.000000      0.002604
  0.204520  0.397433  0.000000      0.002604
  0.201898  0.398748  0.000000      0.002604
  0.199276  0.400063  0.000000      0.002604
  0.196654  0.401378  0.000000      0.002604
  0.194031  0.402693  0.000000      0.002604
  0.191409  0.404008  0.000000      0.002604
  0.188787  0.405323  0.000000      0.002604
  0.186165  0.406638  0.000000      0.002604
  0.183543  0.407953  0.000000      0.002604
  0.180921  0.409268  0.000000      0.002604
  0.178299  0.410583  0.000000      0.002604
  0.175677  0.411898  0.000000      0.002604
  0.173055  0.413213  0.000000      0.002604
  0.170433  0.414528  0.000000      0.002604
  0.167811  0.415843  0.000000      0.002604
  0.165189  0.417157  0.000000      0.002604
  0.162567  0.418472  0.000000      0.002604
  0.159945  0.419787  0.000000      0.002604
  0.157323  0.421102  0.000000      0.002604
  0.154701  0.422417  0.000000      0.002604
  0.152079  0.423732  0.000000      0.002604
  0.149457  0.425047  0.000000      0.002604
  0.146835  0.426362  0.000000      0.002604
  0.144213  0.427677  0.000000      0.002604
  0.141591  0.428992  0.000000      0.002604
  0.138969  0.430307  0.000000      0.002604
  0.136346  0.431622  0.000000      0.002604
  0.133724  0.432937  0.000000      0.002604
  0.131102  0.434252  0.000000      0.002604
  0.128480  0.435567  0.000000      0.002604
  0.125858  0.436882  0.000000      0.002604
  0.123236  0.438197  0.000000      0.002604
  0.120614  0.439512  0.000000      0.002604
  0.117992  0.440827  0.000000      0.002604
  0.115370  0.442142  0.000000      0.002604
  0.112748  0.443457  0.000000      0.002604
  0.110126  0.444772  0.000000      0.002604
  0.107504  0.446087  0.000000      0.002604
  0.104882  0.447402  0.000000      0.002604
  0.102260  0.448717  0.000000      0.002604
  0.099638  0.450031  0.000000      0.002604
  0.097016  0.451346  0.000000      0.002604
  0.094394  0.452661  0.000000      0.002604
  0.091772  0.453976  0.000000      0.002604
  0.089150  0.455291  0.000000      0.002604
  0.086528  0.456606  0.000000      0.002604
  0.083906  0.457921  0.000000      0.002604
  0.081283  0.459236  0.000000      0.002604
  0.078661  0.460551  0.000000      0.002604
  0.076039  0.461866  0.000000      0.002604
  0.073417  0.463181  0.000000      0.002604
  0.070795  0.464496  0.000000      0.002604
  0.068173  0.465811  0.000000      0.002604
  0.065551  0.467126  0.000000      0.002604
  0.062929  0.468441  0.000000      0.002604
  0.060307  0.469756  0.000000      0.002604
  0.057685  0.471071  0.000000      0.002604
  0.055063  0.472386  0.000000      0.002604
  0.052441  0.473701  0.000000      0.002604
  0.049819  0.475016  0.000000      0.002604
  0.047197  0.476331  0.000000      0.002604
  0.044575  0.477646  0.000000      0.002604
  0.041953  0.478961  0.000000      0.002604
  0.039331  0.480276  0.000000      0.002604
  0.036709  0.481591  0.000000      0.002604
  0.034087  0.482906  0.000000      0.002604
  0.031465  0.484220  0.000000      0.002604
  0.028843  0.485535  0.000000      0.002604
  0.026220  0.486850  0.000000      0.002604
  0.023598  0.488165  0.000000      0.002604
  0.020976  0.489480  0.000000      0.002604
  0.018354  0.490795  0.000000      0.002604
  0.015732  0.492110  0.000000      0.002604
  0.013110  0.493425  0.000000      0.002604
  0.010488  0.494740  0.000000      0.002604
  0.007866  0.496055  0.000000      0.002604
  0.005244  0.497370  0.000000      0.002604
  0.002622  0.498685  0.000000      0.002604
  0.000000  0.500000  0.000000      0.002604
  0.000000  0.500000  0.000000      0.002604
  0.000000  0.496063  0.000000      0.002604
  0.000000  0.492126  0.000000      0.002604
  0.000000  0.488189  0.000000      0.002604
  0.000000  0.484252  0.000000      0.002604
  0.000000  0.480315  0.000000      0.002604
  0.000000  0.476378  0.000000      0.002604
  0.000000  0.472441  0.000000      0.002604
  0.000000  0.468504  0.000000      0.002604
  0.000000  0.464567  0.000000      0.002604
  0.000000  0.460630  0.000000      0.002604
  0.000000  0.456693  0.000000      0.002604
  0.000000  0.452756  0.000000      0.002604
  0.000000  0.448819  0.000000      0.002604
  0.000000  0.444882  0.000000      0.002604
  0.000000  0.440945  0.000000      0.002604
  0.000000  0.437008  0.000000      0.002604
  0.000000  0.433071  0.000000      0.002604
  0.000000  0.429134  0.000000      0.002604
  0.000000  0.425197  0.000000      0.002604
  0.000000  0.421260  0.000000      0.002604
  0.000000  0.417323  0.000000      0.002604
  0.000000  0.413386  0.000000      0.002604
  0.000000  0.409449  0.000000      0.002604
  0.000000  0.405512  0.000000      0.002604
  0.000000  0.401575  0.000000      0.002604
  0.000000  0.397638  0.000000      0.002604
  0.000000  0.393701  0.000000      0.002604
  0.000000  0.389764  0.000000      0.002604
  0.000000  0.385827  0.000000      0.002604
  0.000000  0.381890  0.000000      0.002604
  0.000000  0.377953  0.000000      0.002604
  0.000000  0.374016  0.000000      0.002604
  0.000000  0.370079  0.000000      0.002604
  0.000000  0.366142  0.000000      0.002604
  0.000000  0.362205  0.000000      0.002604
  0.000000  0.358268  0.000000      0.002604
  0.000000  0.354331  0.000000      0.002604
  0.000000  0.350394  0.000000      0.002604
  0.000000  0.346457  0.000000      0.002604
  0.000000  0.342520  0.000000      0.002604
  0.000000  0.338583  0.000000      0.002604
  0.000000  0.334646  0.000000      0.002604
  0.000000  0.330709  0.000000      0.002604
  0.000000  0.326772  0.000000      0.002604
  0.000000  0.322835  0.000000      0.002604
  0.000000  0.318898  0.000000      0.002604
  0.000000  0.314961  0.000000      0.002604
  0.000000  0.311024  0.000000      0.002604
  0.000000  0.307087  0.000000      0.002604
  0.000000  0.303150  0.000000      0.002604
  0.000000  0.299213  0.000000      0.002604
  0.000000  0.295276  0.000000      0.002604
  0.000000  0.291339  0.000000      0.002604
  0.000000  0.287402  0.000000      0.002604
  0.000000  0.283465  0.000000      0.002604
  0.000000  0.279528  0.000000      0.002604
  0.000000  0.275591  0.000000      0.002604
  0.000000  0.271654  0.000000      0.002604
  0.000000  0.267717  0.000000      0.002604
  0.000000  0.263780  0.000000      0.002604
  0.000000  0.259843  0.000000      0.002604
  0.000000  0.255906  0.000000      0.002604
  0.000000  0.251969  0.000000      0.002604
  0.000000  0.248031  0.000000      0.002604
  0.000000  0.244094  0.000000      0.002604
  0.000000  0.240157  0.000000      0.002604
  0.000000  0.236220  0.000000      0.002604
  0.000000  0.232283  0.000000      0.002604
  0.000000  0.228346  0.000000      0.002604
  0.000000  0.224409  0.000000      0.002604
  0.000000  0.220472  0.000000      0.002604
  0.000000  0.216535  0.000000      0.002604
  0.000000  0.212598  0.000000      0.002604
  0.000000  0.208661  0.000000      0.002604
  0.000000  0.204724  0.000000      0.002604
  0.000000  0.200787  0.000000      0.002604
  0.000000  0.196850  0.000000      0.002604
  0.000000  0.192913  0.000000      0.002604
  0.000000  0.188976  0.000000      0.002604
  0.000000  0.185039  0.000000      0.002604
  0.000000  0.181102  0.000000      0.002604
  0.000000  0.177165  0.000000      0.002604
  0.000000  0.173228  0.000000      0.002604
  0.000000  0.169291  0.000000      0.002604
  0.000000  0.165354  0.000000      0.002604
  0.000000  0.161417  0.000000      0.002604
  0.000000  0.157480  0.000000      0.002604
  0.000000  0.153543  0.000000      0.002604
  0.000000  0.149606  0.000000      0.002604
  0.000000  0.145669  0.000000      0.002604
  0.000000  0.141732  0.000000      0.002604
  0.000000  0.137795  0.000000      0.002604
  0.000000  0.133858  0.000000      0.002604
  0.000000  0.129921  0.000000      0.002604
  0.000000  0.125984  0.000000      0.002604
  0.000000  0.122047  0.000000      0.002604
  0.000000  0.118110  0.000000      0.002604
  0.000000  0.114173  0.000000      0.002604
  0.000000  0.110236  0.000000      0.002604
  0.000000  0.106299  0.000000      0.002604
  0.000000  0.102362  0.000000      0.002604
  0.000000  0.098425  0.000000      0.002604
  0.000000  0.094488  0.000000      0.002604
  0.000000  0.090551  0.000000      0.002604
  0.000000  0.086614  0.000000      0.002604
  0.000000  0.082677  0.000000      0.002604
  0.000000  0.078740  0.000000      0.002604
  0.000000  0.074803  0.000000      0.002604
  0.000000  0.070866  0.000000      0.002604
  0.000000  0.066929  0.000000      0.002604
  0.000000  0.062992  0.000000      0.002604
  0.000000  0.059055  0.000000      0.002604
  0.000000  0.055118  0.000000      0.002604
  0.000000  0.051181  0.000000      0.002604
  0.000000  0.047244  0.000000      0.002604
  0.000000  0.043307  0.000000      0.002604
  0.000000  0.039370  0.000000      0.002604
  0.000000  0.035433  0.000000      0.002604
  0.000000  0.031496  0.000000      0.002604
  0.000000  0.027559  0.000000      0.002604
  0.000000  0.023622  0.000000      0.002604
  0.000000  0.019685  0.000000      0.002604
  0.000000  0.015748  0.000000      0.002604
  0.000000  0.011811  0.000000      0.002604
  0.000000  0.007874  0.000000      0.002604
  0.000000  0.003937  0.000000      0.002604
  0.000000  0.000000  0.000000      0.002604

 Following cartesian coordinates:
            Coordinates               Weight
  0.000000  0.000000  0.000000      0.002604
  0.000000  0.001082  0.000000      0.002604
  0.000000  0.002164  0.000000      0.002604
 -0.000000  0.003246  0.000000      0.002604
  0.000000  0.004329  0.000000      0.002604
 -0.000000  0.005411  0.000000      0.002604
 -0.000000  0.006493  0.000000      0.002604
  0.000000  0.007575  0.000000      0.002604
  0.000000  0.008657  0.000000      0.002604
 -0.000000  0.009739  0.000000      0.002604
 -0.000000  0.010821  0.000000      0.002604
 -0.000000  0.011904  0.000000      0.002604
 -0.000000  0.012986  0.000000      0.002604
  0.000000  0.014068  0.000000      0.002604
  0.000000  0.015150  0.000000      0.002604
  0.000000  0.016232  0.000000      0.002604
  0.000000  0.017314  0.000000      0.002604
  0.000000  0.018397  0.000000      0.002604
 -0.000000  0.019479  0.000000      0.002604
 -0.000000  0.020561  0.000000      0.002604
 -0.000000  0.021643  0.000000      0.002604
 -0.000000  0.022725  0.000000      0.002604
 -0.000000  0.023807  0.000000      0.002604
 -0.000000  0.024889  0.000000      0.002604
 -0.000000  0.025972  0.000000      0.002604
 -0.000000  0.027054  0.000000      0.002604
  0.000000  0.028136  0.000000      0.002604
 -0.000000  0.029218  0.000000      0.002604
  0.000000  0.030300  0.000000      0.002604
 -0.000000  0.031382  0.000000      0.002604
  0.000000  0.032464  0.000000      0.002604
 -0.000000  0.033547  0.000000      0.002604
  0.000000  0.034629  0.000000      0.002604
  0.000000  0.035711  0.000000      0.002604
  0.000000  0.036793  0.000000      0.002604
  0.000000  0.037875  0.000000      0.002604
 -0.000000  0.038957  0.000000      0.002604
  0.000000  0.040040  0.000000      0.002604
 -0.000000  0.041122  0.000000      0.002604
  0.000000  0.042204  0.000000      0.002604
 -0.000000  0.043286  0.000000      0.002604
  0.000000  0.044368  0.000000      0.002604
 -0.000000  0.045450  0.000000      0.002604
  0.000000  0.046532  0.000000      0.002604
 -0.000000  0.047615  0.000000      0.002604
  0.000000  0.048697  0.000000      0.002604
 -0.000000  0.049779  0.000000      0.002604
  0.000000  0.050861  0.000000      0.002604
 -0.000000  0.051943  0.000000      0.002604
  0.000000  0.053025  0.000000      0.002604
 -0.000000  0.054107  0.000000      0.002604
  0.000000  0.055190  0.000000      0.002604
  0.000000  0.056272  0.000000      0.002604
 -0.000000  0.057354  0.000000      0.002604
 -0.000000  0.058436  0.000000      0.002604
  0.000000  0.059518  0.000000      0.002604
  0.000000  0.060600  0.000000      0.002604
 -0.000000  0.061682  0.000000      0.002604
 -0.000000  0.062765  0.000000      0.002604
  0.000000  0.063847  0.000000      0.002604
  0.000000  0.064929  0.000000      0.002604
 -0.000000  0.066011  0.000000      0.002604
 -0.000000  0.067093  0.000000      0.002604
  0.000000  0.068175  0.000000      0.002604
  0.000000  0.069258  0.000000      0.002604
 -0.000000  0.070340  0.000000      0.002604
  0.000000  0.071422  0.000000      0.002604
  0.000000  0.072504  0.000000      0.002604
  0.000000  0.073586  0.000000      0.002604
 -0.000000  0.074668  0.000000      0.002604
  0.000000  0.075750  0.000000      0.002604
  0.000000  0.076833  0.000000      0.002604
 -0.000000  0.077915  0.000000      0.002604
 -0.000000  0.078997  0.000000      0.002604
  0.000000  0.080079  0.000000      0.002604
  0.000000  0.081161  0.000000      0.002604
 -0.000000  0.082243  0.000000      0.002604
 -0.000000  0.083325  0.000000      0.002604
  0.000000  0.084408  0.000000      0.002604
  0.000000  0.085490  0.000000      0.002604
 -0.000000  0.086572  0.000000      0.002604
 -0.000000  0.087654  0.000000      0.002604
  0.000000  0.088736  0.000000      0.002604
  0.000000  0.089818  0.000000      0.002604
 -0.000000  0.090901  0.000000      0.002604
 -0.000000  0.091983  0.000000      0.002604
  0.000000  0.093065  0.000000      0.002604
  0.000000  0.094147  0.000000      0.002604
 -0.000000  0.095229  0.000000      0.002604
 -0.000000  0.096311  0.000000      0.002604
  0.000000  0.097393  0.000000      0.002604
  0.000000  0.098476  0.000000      0.002604
 -0.000000  0.099558  0.000000      0.002604
 -0.000000  0.100640  0.000000      0.002604
  0.000000  0.101722  0.000000      0.002604
  0.000000  0.102804  0.000000      0.002604
 -0.000000  0.103886  0.000000      0.002604
 -0.000000  0.104968  0.000000      0.002604
  0.000000  0.106051  0.000000      0.002604
 -0.000000  0.107133  0.000000      0.002604
 -0.000000  0.108215  0.000000      0.002604
 -0.000000  0.109297  0.000000      0.002604
  0.000000  0.110379  0.000000      0.002604
 -0.000000  0.111461  0.000000      0.002604
  0.000000  0.112544  0.000000      0.002604
  0.000000  0.113626  0.000000      0.002604
 -0.000000  0.114708  0.000000      0.002604
  0.000000  0.115790  0.000000      0.002604
 -0.000000  0.116872  0.000000      0.002604
 -0.000000  0.117954  0.000000      0.002604
  0.000000  0.119036  0.000000      0.002604
 -0.000000  0.120119  0.000000      0.002604
  0.000000  0.121201  0.000000      0.002604
  0.000000  0.122283  0.000000      0.002604
 -0.000000  0.123365  0.000000      0.002604
  0.000000  0.124447  0.000000      0.002604
 -0.000000  0.125529  0.000000      0.002604
 -0.000000  0.126611  0.000000      0.002604
  0.000000  0.127694  0.000000      0.002604
 -0.000000  0.128776  0.000000      0.002604
  0.000000  0.129858  0.000000      0.002604
  0.000000  0.130940  0.000000      0.002604
 -0.000000  0.132022  0.000000      0.002604
  0.000000  0.133104  0.000000      0.002604
 -0.000000  0.134186  0.000000      0.002604
 -0.000000  0.135269  0.000000      0.002604
  0.000000  0.136351  0.000000      0.002604
 -0.000000  0.137433  0.000000      0.002604
 -0.000000  0.137433  0.000000      0.002604
 -0.000469  0.137163  0.000000      0.002604
 -0.000938  0.136893  0.000000      0.002604
 -0.001407  0.136624  0.000000      0.002604
 -0.001876  0.136354  0.000000      0.002604
 -0.002345  0.136084  0.000000      0.002604
 -0.002814  0.135815  0.000000      0.002604
 -0.003283  0.135545  0.000000      0.002604
 -0.003752  0.135275  0.000000      0.002604
 -0.004221  0.135005  0.000000      0.002604
 -0.004691  0.134736  0.000000      0.002604
 -0.005160  0.134466  0.000000      0.002604
 -0.005629  0.134196  0.000000      0.002604
 -0.006098  0.133927  0.000000      0.002604
 -0.006567  0.133657  0.000000      0.002604
 -0.007036  0.133387  0.000000      0.002604
 -0.007505  0.133117  0.000000      0.002604
 -0.007974  0.132848  0.000000      0.002604
 -0.008443  0.132578  0.000000      0.002604
 -0.008912  0.132308  0.000000      0.002604
 -0.009381  0.132038  0.000000      0.002604
 -0.009850  0.131769  0.000000      0.002604
 -0.010319  0.131499  0.000000      0.002604
 -0.010788  0.131229  0.000000      0.002604
 -0.011257  0.130960  0.000000      0.002604
 -0.011726  0.130690  0.000000      0.002604
 -0.012195  0.130420  0.000000      0.002604
 -0.012664  0.130150  0.000000      0.002604
 -0.013133  0.129881  0.000000      0.002604
 -0.013603  0.129611  0.000000      0.002604
 -0.014072  0.129341  0.000000      0.002604
 -0.014541  0.129071  0.000000      0.002604
 -0.015010  0.128802  0.000000      0.002604
 -0.015479  0.128532  0.000000      0.002604
 -0.015948  0.128262  0.000000      0.002604
 -0.016417  0.127993  0.000000      0.002604
 -0.016886  0.127723  0.000000      0.002604
 -0.017355  0.127453  0.000000      0.002604
 -0.017824  0.127183  0.000000      0.002604
 -0.018293  0.126914  0.000000      0.002604
 -0.018762  0.126644  0.000000      0.002604
 -0.019231  0.126374  0.000000      0.002604
 -0.019700  0.126104  0.000000      0.002604
 -0.020169  0.125835  0.000000      0.002604
 -0.020638  0.125565  0.000000      0.002604
 -0.021107  0.125295  0.000000      0.002604
 -0.021576  0.125026  0.000000      0.002604
 -0.022046  0.124756  0.000000      0.002604
 -0.022515  0.124486  0.000000      0.002604
 -0.022984  0.124216  0.000000      0.002604
 -0.023453  0.123947  0.000000      0.002604
 -0.023922  0.123677  0.000000      0.002604
 -0.024391  0.123407  0.000000      0.002604
 -0.024860  0.123138  0.000000      0.002604
 -0.025329  0.122868  0.000000      0.002604
 -0.025798  0.122598  0.000000      0.002604
 -0.026267  0.122328  0.000000      0.002604
 -0.026736  0.122059  0.000000      0.002604
 -0.027205  0.121789  0.000000      0.002604
 -0.027674  0.121519  0.000000      0.002604
 -0.028143  0.121249  0.000000      0.002604
 -0.028612  0.120980  0.000000      0.002604
 -0.029081  0.120710  0.000000      0.002604
 -0.029550  0.120440  0.000000      0.002604
 -0.030019  0.120171  0.000000      0.002604
 -0.030488  0.119901  0.000000      0.002604
 -0.030958  0.119631  0.000000      0.002604
 -0.031427  0.119361  0.000000      0.002604
 -0.031896  0.119092  0.000000      0.002604
 -0.032365  0.118822  0.000000      0.002604
 -0.032834  0.118552  0.000000      0.002604
 -0.033303  0.118282  0.000000      0.002604
 -0.033772  0.118013  0.000000      0.002604
 -0.034241  0.117743  0.000000      0.002604
 -0.034710  0.117473  0.000000      0.002604
 -0.035179  0.117204  0.000000      0.002604
 -0.035648  0.116934  0.000000      0.002604
 -0.036117  0.116664  0.000000      0.002604
 -0.036586  0.116394  0.000000      0.002604
 -0.037055  0.116125  0.000000      0.002604
 -0.037524  0.115855  0.000000      0.002604
 -0.037993  0.115585  0.000000      0.002604
 -0.038462  0.115315  0.000000      0.002604
 -0.038931  0.115046  0.000000      0.002604
 -0.039400  0.114776  0.000000      0.002604
 -0.039870  0.114506  0.000000      0.002604
 -0.040339  0.114237  0.000000      0.002604
 -0.040808  0.113967  0.000000      0.002604
 -0.041277  0.113697  0.000000      0.002604
 -0.041746  0.113427  0.000000      0.002604
 -0.042215  0.113158  0.000000      0.002604
 -0.042684  0.112888  0.000000      0.002604
 -0.043153  0.112618  0.000000      0.002604
 -0.043622  0.112349  0.000000      0.002604
 -0.044091  0.112079  0.000000      0.002604
 -0.044560  0.111809  0.000000      0.002604
 -0.045029  0.111539  0.000000      0.002604
 -0.045498  0.111270  0.000000      0.002604
 -0.045967  0.111000  0.000000      0.002604
 -0.046436  0.110730  0.000000      0.002604
 -0.046905  0.110460  0.000000      0.002604
 -0.047374  0.110191  0.000000      0.002604
 -0.047843  0.109921  0.000000      0.002604
 -0.048312  0.109651  0.000000      0.002604
 -0.048782  0.109382  0.000000      0.002604
 -0.049251  0.109112  0.000000      0.002604
 -0.049720  0.108842  0.000000      0.002604
 -0.050189  0.108572  0.000000      0.002604
 -0.050658  0.108303  0.000000      0.002604
 -0.051127  0.108033  0.000000      0.002604
 -0.051596  0.107763  0.000000      0.002604
 -0.052065  0.107493  0.000000      0.002604
 -0.052534  0.107224  0.000000      0.002604
 -0.053003  0.106954  0.000000      0.002604
 -0.053472  0.106684  0.000000      0.002604
 -0.053941  0.106415  0.000000      0.002604
 -0.054410  0.106145  0.000000      0.002604
 -0.054879  0.105875  0.000000      0.002604
 -0.055348  0.105605  0.000000      0.002604
 -0.055817  0.105336  0.000000      0.002604
 -0.056286  0.105066  0.000000      0.002604
 -0.056755  0.104796  0.000000      0.002604
 -0.057225  0.104527  0.000000      0.002604
 -0.057694  0.104257  0.000000      0.002604
 -0.058163  0.103987  0.000000      0.002604
 -0.058632  0.103717  0.000000      0.002604
 -0.059101  0.103448  0.000000      0.002604
 -0.059570  0.103178  0.000000      0.002604
 -0.059570  0.103178  0.000000      0.002604
 -0.059101  0.102365  0.000000      0.002604
 -0.058632  0.101553  0.000000      0.002604
 -0.058163  0.100741  0.000000      0.002604
 -0.057694  0.099928  0.000000      0.002604
 -0.057225  0.099116  0.000000      0.002604
 -0.056755  0.098303  0.000000      0.002604
 -0.056286  0.097491  0.000000      0.002604
 -0.055817  0.096678  0.000000      0.002604
 -0.055348  0.095866  0.000000      0.002604
 -0.054879  0.095054  0.000000      0.002604
 -0.054410  0.094241  0.000000      0.002604
 -0.053941  0.093429  0.000000      0.002604
 -0.053472  0.092616  0.000000      0.002604
 -0.053003  0.091804  0.000000      0.002604
 -0.052534  0.090992  0.000000      0.002604
 -0.052065  0.090179  0.000000      0.002604
 -0.051596  0.089367  0.000000      0.002604
 -0.051127  0.088554  0.000000      0.002604
 -0.050658  0.087742  0.000000      0.002604
 -0.050189  0.086929  0.000000      0.002604
 -0.049720  0.086117  0.000000      0.002604
 -0.049251  0.085305  0.000000      0.002604
 -0.048782  0.084492  0.000000      0.002604
 -0.048312  0.083680  0.000000      0.002604
 -0.047843  0.082867  0.000000      0.002604
 -0.047374  0.082055  0.000000      0.002604
 -0.046905  0.081242  0.000000      0.002604
 -0.046436  0.080430  0.000000      0.002604
 -0.045967  0.079618  0.000000      0.002604
 -0.045498  0.078805  0.000000      0.002604
 -0.045029  0.077993  0.000000      0.002604
 -0.044560  0.077180  0.000000      0.002604
 -0.044091  0.076368  0.000000      0.002604
 -0.043622  0.075555  0.000000      0.002604
 -0.043153  0.074743  0.000000      0.002604
 -0.042684  0.073931  0.000000      0.002604
 -0.042215  0.073118  0.000000      0.002604
 -0.041746  0.072306  0.000000      0.002604
 -0.041277  0.071493  0.000000      0.002604
 -0.040808  0.070681  0.000000      0.002604
 -0.040339  0.069868  0.000000      0.002604
 -0.039870  0.069056  0.000000      0.002604
 -0.039400  0.068244  0.000000      0.002604
 -0.038931  0.067431  0.000000      0.002604
 -0.038462  0.066619  0.000000      0.002604
 -0.037993  0.065806  0.000000      0.002604
 -0.037524  0.064994  0.000000      0.002604
 -0.037055  0.064182  0.000000      0.002604
 -0.036586  0.063369  0.000000      0.002604
 -0.036117  0.062557  0.000000      0.002604
 -0.035648  0.061744  0.000000      0.002604
 -0.035179  0.060932  0.000000      0.002604
 -0.034710  0.060119  0.000000      0.002604
 -0.034241  0.059307  0.000000      0.002604
 -0.033772  0.058495  0.000000      0.002604
 -0.033303  0.057682  0.000000      0.002604
 -0.032834  0.056870  0.000000      0.002604
 -0.032365  0.056057  0.000000      0.002604
 -0.031896  0.055245  0.000000      0.002604
 -0.031427  0.054432  0.000000      0.002604
 -0.030958  0.053620  0.000000      0.002604
 -0.030488  0.052808  0.000000      0.002604
 -0.030019  0.051995  0.000000      0.002604
 -0.029550  0.051183  0.000000      0.002604
 -0.029081  0.050370  0.000000      0.002604
 -0.028612  0.049558  0.000000      0.002604
 -0.028143  0.048745  0.000000      0.002604
 -0.027674  0.047933  0.000000      0.002604
 -0.027205  0.047121  0.000000      0.002604
 -0.026736  0.046308  0.000000      0.002604
 -0.026267  0.045496  0.000000      0.002604
 -0.025798  0.044683  0.000000      0.002604
 -0.025329  0.043871  0.000000      0.002604
 -0.024860  0.043058  0.000000      0.002604
 -0.024391  0.042246  0.000000      0.002604
 -0.023922  0.041434  0.000000      0.002604
 -0.023453  0.040621  0.000000      0.002604
 -0.022984  0.039809  0.000000      0.002604
 -0.022515  0.038996  0.000000      0.002604
 -0.022046  0.038184  0.000000      0.002604
 -0.021576  0.037372  0.000000      0.002604
 -0.021107  0.036559  0.000000      0.002604
 -0.020638  0.035747  0.000000      0.002604
 -0.020169  0.034934  0.000000      0.002604
 -0.019700  0.034122  0.000000      0.002604
 -0.019231  0.033309  0.000000      0.002604
 -0.018762  0.032497  0.000000      0.002604
 -0.018293  0.031685  0.000000      0.002604
 -0.017824  0.030872  0.000000      0.002604
 -0.017355  0.030060  0.000000      0.002604
 -0.016886  0.029247  0.000000      0.002604
 -0.016417  0.028435  0.000000      0.002604
 -0.015948  0.027622  0.000000      0.002604
 -0.015479  0.026810  0.000000      0.002604
 -0.015010  0.025998  0.000000      0.002604
 -0.014541  0.025185  0.000000      0.002604
 -0.014072  0.024373  0.000000      0.002604
 -0.013603  0.023560  0.000000      0.002604
 -0.013133  0.022748  0.000000      0.002604
 -0.012664  0.021935  0.000000      0.002604
 -0.012195  0.021123  0.000000      0.002604
 -0.011726  0.020311  0.000000      0.002604
 -0.011257  0.019498  0.000000      0.002604
 -0.010788  0.018686  0.000000      0.002604
 -0.010319  0.017873  0.000000      0.002604
 -0.009850  0.017061  0.000000      0.002604
 -0.009381  0.016248  0.000000      0.002604
 -0.008912  0.015436  0.000000      0.002604
 -0.008443  0.014624  0.000000      0.002604
 -0.007974  0.013811  0.000000      0.002604
 -0.007505  0.012999  0.000000      0.002604
 -0.007036  0.012186  0.000000      0.002604
 -0.006567  0.011374  0.000000      0.002604
 -0.006098  0.010562  0.000000      0.002604
 -0.005629  0.009749  0.000000      0.002604
 -0.005160  0.008937  0.000000      0.002604
 -0.004691  0.008124  0.000000      0.002604
 -0.004221  0.007312  0.000000      0.002604
 -0.003752  0.006499  0.000000      0.002604
 -0.003283  0.005687  0.000000      0.002604
 -0.002814  0.004875  0.000000      0.002604
 -0.002345  0.004062  0.000000      0.002604
 -0.001876  0.003250  0.000000      0.002604
 -0.001407  0.002437  0.000000      0.002604
 -0.000938  0.001625  0.000000      0.002604
 -0.000469  0.000812  0.000000      0.002604
 -0.000000  0.000000  0.000000      0.002604
 


--------------------------------------------------------------------------------------------------------




 Dimension of arrays:
   k-points           NKPTS =    384   k-points in BZ     NKDIM =    384   number of bands    NBANDS=     48
   number of dos      NEDOS =    301   number of ions     NIONS =     15
   non local maximal  LDIM  =      4   non local SUM 2l+1 LMDIM =      8
   total plane-waves  NPLWV = 139968
   max r-space proj   IRMAX =      1   max aug-charges    IRDMAX=   7354
   dimension x,y,z NGX =    36 NGY =   36 NGZ =  108
   dimension x,y,z NGXF=    72 NGYF=   72 NGZF=  216
   support grid    NGXF=    72 NGYF=   72 NGZF=  216
   ions per type =               4  11
   NGX,Y,Z   is equivalent  to a cutoff of  12.35, 12.35, 11.97 a.u.
   NGXF,Y,Z  is equivalent  to a cutoff of  24.70, 24.70, 23.94 a.u.

 SYSTEM =  BS                                      
 POSCAR =  Graphene-B4C3 Hollow_2 with lattice para

 Startparameter for this run:
   NWRITE =      2    write-flag & timer
   PREC   = accura    normal or accurate (medium, high low for compatibility)
   ISTART =      0    job   : 0-new  1-cont  2-samecut
   ICHARG =     11    charge: 1-file 2-atom 10-const
   ISPIN  =      1    spin polarized calculation?
   LNONCOLLINEAR =      F non collinear calculations
   LSORBIT =      F    spin-orbit coupling
   INIWAV =      1    electr: 0-lowe 1-rand  2-diag
   LASPH  =      F    aspherical Exc in radial PAW
 Electronic Relaxation 1
   ENCUT  =  450.0 eV  33.07 Ry    5.75 a.u.   8.38  8.38 25.95*2*pi/ulx,y,z
   ENINI  =  450.0     initial cutoff
   ENAUG  =  644.9 eV  augmentation charge cutoff
   NELM   =     64;   NELMIN=  2; NELMDL= -5     # of ELM steps 
   EDIFF  = 0.1E-05   stopping-criterion for ELM
   LREAL  =      F    real-space projection
   NLSPLINE    = F    spline interpolate recip. space projectors
   LCOMPAT=      F    compatible to vasp.4.4
   GGA_COMPAT  = T    GGA compatible to vasp.4.4-vasp.4.6
   LMAXPAW     = -100 max onsite density
   LMAXMIX     =    2 max onsite mixed and CHGCAR
   VOSKOWN=      0    Vosko Wilk Nusair interpolation
   ROPT   =    0.00000   0.00000
 Ionic relaxation
   EDIFFG = -.1E-02   stopping-criterion for IOM
   NSW    =      0    number of steps for IOM
   NBLOCK =      1;   KBLOCK =      1    inner block; outer block 
   IBRION =     -1    ionic relax: 0-MD 1-quasi-New 2-CG
   NFREE  =      0    steps in history (QN), initial steepest desc. (CG)
   ISIF   =      2    stress and relaxation
   IWAVPR =     10    prediction:  0-non 1-charg 2-wave 3-comb
   ISYM   =      0    0-nonsym 1-usesym 2-fastsym
   LCORR  =      T    Harris-Foulkes like correction to forces

   POTIM  = 0.5000    time-step for ionic-motion
   TEIN   =    0.0    initial temperature
   TEBEG  =    0.0;   TEEND  =   0.0 temperature during run
   SMASS  =  -3.00    Nose mass-parameter (am)
   estimated Nose-frequenzy (Omega)   =  0.10E-29 period in steps = 0.13E+47 mass=  -0.537E-27a.u.
   SCALEE = 1.0000    scale energy and forces
   NPACO  =    256;   APACO  = 10.0  distance and # of slots for P.C.
   PSTRESS=    0.0 pullay stress

  Mass of Ions in am
   POMASS =  10.81 12.01
  Ionic Valenz
   ZVAL   =   3.00  4.00
  Atomic Wigner-Seitz radii
   RWIGS  =  -1.00 -1.00
  virtual crystal weights 
   VCA    =   1.00  1.00
   NELECT =      56.0000    total number of electrons
   NUPDOWN=      -1.0000    fix difference up-down

 DOS related values:
   EMIN   =  10.00;   EMAX   =-10.00  energy-range for DOS
   EFERMI =   0.00
   ISMEAR =     0;   SIGMA  =   0.10  broadening in eV -4-tet -1-fermi 0-gaus

 Electronic relaxation 2 (details)
   IALGO  =     38    algorithm
   LDIAG  =      T    sub-space diagonalisation (order eigenvalues)
   LSUBROT=      F    optimize rotation matrix (better conditioning)
   TURBO    =      0    0=normal 1=particle mesh
   IRESTART =      0    0=no restart 2=restart with 2 vectors
   NREBOOT  =      0    no. of reboots
   NMIN     =      0    reboot dimension
   EREF     =   0.00    reference energy to select bands
   IMIX   =      4    mixing-type and parameters
     AMIX     =   0.40;   BMIX     =  1.00
     AMIX_MAG =   1.60;   BMIX_MAG =  1.00
     AMIN     =   0.10
     WC   =   100.;   INIMIX=   1;  MIXPRE=   1;  MAXMIX= -45

 Intra band minimization:
   WEIMIN = 0.0000     energy-eigenvalue tresh-hold
   EBREAK =  0.52E-08  absolut break condition
   DEPER  =   0.30     relativ break condition  

   TIME   =   0.40     timestep for ELM

  volume/ion in A,a.u.               =      20.34       137.24
  Fermi-wavevector in a.u.,A,eV,Ry     =   0.930411  1.758221 11.778070  0.865664
  Thomas-Fermi vector in A             =   2.056796
 
 Write flags
   LWAVE        =      T    write WAVECAR
   LDOWNSAMPLE  =      F    k-point downsampling of WAVECAR
   LCHARG       =      T    write CHGCAR
   LVTOT        =      F    write LOCPOT, total local potential
   LVHAR        =      F    write LOCPOT, Hartree potential only
   LELF         =      F    write electronic localiz. function (ELF)
   LORBIT       =     11    0 simple, 1 ext, 2 COOP (PROOUT), +10 PAW based schemes


 Dipole corrections
   LMONO  =      F    monopole corrections only (constant potential shift)
   LDIPOL =      F    correct potential (dipole corrections)
   IDIPOL =      0    1-x, 2-y, 3-z, 4-all directions 
   EPSILON=  1.0000000 bulk dielectric constant

 Exchange correlation treatment:
   GGA     =    PE    GGA type
   LEXCH   =     8    internal setting for exchange type
   LIBXC   =     F    Libxc                    
   VOSKOWN =     0    Vosko Wilk Nusair interpolation
   LHFCALC =     F    Hartree Fock is set to
   LHFONE  =     F    Hartree Fock one center treatment
   AEXX    =    0.0000 exact exchange contribution

 Linear response parameters
   LEPSILON=     F    determine dielectric tensor
   LRPA    =     F    only Hartree local field effects (RPA)
   LNABLA  =     F    use nabla operator in PAW spheres
   LVEL    =     F    velocity operator in full k-point grid
   CSHIFT  =0.1000    complex shift for real part using Kramers Kronig
   OMEGAMAX=  -1.0    maximum frequency
   DEG_THRESHOLD= 0.2000000E-02 threshold for treating states as degnerate
   RTIME   =   -0.100 relaxation time in fs
  (WPLASMAI=    0.000 imaginary part of plasma frequency in eV, 0.658/RTIME)
   DFIELD  = 0.0000000 0.0000000 0.0000000 field for delta impulse in time
 
  Optional k-point grid parameters
   LKPOINTS_OPT  =     F    use optional k-point grid
   KPOINTS_OPT_MODE=     1    mode for optional k-point grid
 
 Orbital magnetization related:
   ORBITALMAG=     F  switch on orbital magnetization
   LCHIMAG   =     F  perturbation theory with respect to B field
   DQ        =  0.001000  dq finite difference perturbation B field
   LLRAUG    =     F  two centre corrections for induced B field



--------------------------------------------------------------------------------------------------------


 Static calculation
 charge density and potential remain constant during run
 non-spin polarized calculation
 Variant of blocked Davidson
 Davidson routine will perform the subspace rotation
 perform sub-space diagonalisation
    after iterative eigenvector-optimisation
 no mixing
 using additional bands           20
 reciprocal scheme for non local part
 use partial core corrections
 calculate Harris-corrections to forces 
   (improved forces if not selfconsistent)
 use gradient corrections 
 WARNING: stress and forces are not correct
  (second derivative of E(xc) not defined)
 use of overlap-Matrix (Vanderbilt PP)
 Gauss-broadening in eV      SIGMA  =   0.10


--------------------------------------------------------------------------------------------------------


  energy-cutoff  :      450.00
  volume of cell :      305.06
      direct lattice vectors                 reciprocal lattice vectors
     4.196759107  2.423000000  0.000000000     0.119139552  0.206355757  0.000000000
    -4.196759107  2.423000000  0.000000000    -0.119139552  0.206355757  0.000000000
     0.000000000  0.000000000 15.000000000     0.000000000  0.000000000  0.066666667

  length of vectors
     4.846000000  4.846000000 15.000000000     0.238279104  0.238279104  0.066666667


 
 k-points in units of 2pi/SCALE and weight: K-points                                
   0.00000000  0.00000000  0.00000000       0.003
   0.00000000  0.00108215  0.00000000       0.003
   0.00000000  0.00216430  0.00000000       0.003
  -0.00000000  0.00324645  0.00000000       0.003
   0.00000000  0.00432860  0.00000000       0.003
  -0.00000000  0.00541075  0.00000000       0.003
  -0.00000000  0.00649289  0.00000000       0.003
   0.00000000  0.00757504  0.00000000       0.003
   0.00000000  0.00865719  0.00000000       0.003
  -0.00000000  0.00973934  0.00000000       0.003
  -0.00000000  0.01082149  0.00000000       0.003
  -0.00000000  0.01190364  0.00000000       0.003
  -0.00000000  0.01298579  0.00000000       0.003
   0.00000000  0.01406794  0.00000000       0.003
   0.00000000  0.01515009  0.00000000       0.003
   0.00000000  0.01623224  0.00000000       0.003
   0.00000000  0.01731439  0.00000000       0.003
   0.00000000  0.01839653  0.00000000       0.003
  -0.00000000  0.01947868  0.00000000       0.003
  -0.00000000  0.02056083  0.00000000       0.003
  -0.00000000  0.02164298  0.00000000       0.003
  -0.00000000  0.02272513  0.00000000       0.003
  -0.00000000  0.02380728  0.00000000       0.003
  -0.00000000  0.02488943  0.00000000       0.003
  -0.00000000  0.02597158  0.00000000       0.003
  -0.00000000  0.02705373  0.00000000       0.003
   0.00000000  0.02813588  0.00000000       0.003
  -0.00000000  0.02921803  0.00000000       0.003
   0.00000000  0.03030017  0.00000000       0.003
  -0.00000000  0.03138232  0.00000000       0.003
   0.00000000  0.03246447  0.00000000       0.003
  -0.00000000  0.03354662  0.00000000       0.003
   0.00000000  0.03462877  0.00000000       0.003
   0.00000000  0.03571092  0.00000000       0.003
   0.00000000  0.03679307  0.00000000       0.003
   0.00000000  0.03787522  0.00000000       0.003
  -0.00000000  0.03895737  0.00000000       0.003
   0.00000000  0.04003952  0.00000000       0.003
  -0.00000000  0.04112167  0.00000000       0.003
   0.00000000  0.04220381  0.00000000       0.003
  -0.00000000  0.04328596  0.00000000       0.003
   0.00000000  0.04436811  0.00000000       0.003
  -0.00000000  0.04545026  0.00000000       0.003
   0.00000000  0.04653241  0.00000000       0.003
  -0.00000000  0.04761456  0.00000000       0.003
   0.00000000  0.04869671  0.00000000       0.003
  -0.00000000  0.04977886  0.00000000       0.003
   0.00000000  0.05086101  0.00000000       0.003
  -0.00000000  0.05194316  0.00000000       0.003
   0.00000000  0.05302531  0.00000000       0.003
  -0.00000000  0.05410745  0.00000000       0.003
   0.00000000  0.05518960  0.00000000       0.003
   0.00000000  0.05627175  0.00000000       0.003
  -0.00000000  0.05735390  0.00000000       0.003
  -0.00000000  0.05843605  0.00000000       0.003
   0.00000000  0.05951820  0.00000000       0.003
   0.00000000  0.06060035  0.00000000       0.003
  -0.00000000  0.06168250  0.00000000       0.003
  -0.00000000  0.06276465  0.00000000       0.003
   0.00000000  0.06384680  0.00000000       0.003
   0.00000000  0.06492895  0.00000000       0.003
  -0.00000000  0.06601109  0.00000000       0.003
  -0.00000000  0.06709324  0.00000000       0.003
   0.00000000  0.06817539  0.00000000       0.003
   0.00000000  0.06925754  0.00000000       0.003
  -0.00000000  0.07033969  0.00000000       0.003
   0.00000000  0.07142184  0.00000000       0.003
   0.00000000  0.07250399  0.00000000       0.003
   0.00000000  0.07358614  0.00000000       0.003
  -0.00000000  0.07466829  0.00000000       0.003
   0.00000000  0.07575044  0.00000000       0.003
   0.00000000  0.07683259  0.00000000       0.003
  -0.00000000  0.07791473  0.00000000       0.003
  -0.00000000  0.07899688  0.00000000       0.003
   0.00000000  0.08007903  0.00000000       0.003
   0.00000000  0.08116118  0.00000000       0.003
  -0.00000000  0.08224333  0.00000000       0.003
  -0.00000000  0.08332548  0.00000000       0.003
   0.00000000  0.08440763  0.00000000       0.003
   0.00000000  0.08548978  0.00000000       0.003
  -0.00000000  0.08657193  0.00000000       0.003
  -0.00000000  0.08765408  0.00000000       0.003
   0.00000000  0.08873623  0.00000000       0.003
   0.00000000  0.08981837  0.00000000       0.003
  -0.00000000  0.09090052  0.00000000       0.003
  -0.00000000  0.09198267  0.00000000       0.003
   0.00000000  0.09306482  0.00000000       0.003
   0.00000000  0.09414697  0.00000000       0.003
  -0.00000000  0.09522912  0.00000000       0.003
  -0.00000000  0.09631127  0.00000000       0.003
   0.00000000  0.09739342  0.00000000       0.003
   0.00000000  0.09847557  0.00000000       0.003
  -0.00000000  0.09955772  0.00000000       0.003
  -0.00000000  0.10063987  0.00000000       0.003
   0.00000000  0.10172201  0.00000000       0.003
   0.00000000  0.10280416  0.00000000       0.003
  -0.00000000  0.10388631  0.00000000       0.003
  -0.00000000  0.10496846  0.00000000       0.003
   0.00000000  0.10605061  0.00000000       0.003
  -0.00000000  0.10713276  0.00000000       0.003
  -0.00000000  0.10821491  0.00000000       0.003
  -0.00000000  0.10929706  0.00000000       0.003
   0.00000000  0.11037921  0.00000000       0.003
  -0.00000000  0.11146136  0.00000000       0.003
   0.00000000  0.11254351  0.00000000       0.003
   0.00000000  0.11362565  0.00000000       0.003
  -0.00000000  0.11470780  0.00000000       0.003
   0.00000000  0.11578995  0.00000000       0.003
  -0.00000000  0.11687210  0.00000000       0.003
  -0.00000000  0.11795425  0.00000000       0.003
   0.00000000  0.11903640  0.00000000       0.003
  -0.00000000  0.12011855  0.00000000       0.003
   0.00000000  0.12120070  0.00000000       0.003
   0.00000000  0.12228285  0.00000000       0.003
  -0.00000000  0.12336500  0.00000000       0.003
   0.00000000  0.12444715  0.00000000       0.003
  -0.00000000  0.12552929  0.00000000       0.003
  -0.00000000  0.12661144  0.00000000       0.003
   0.00000000  0.12769359  0.00000000       0.003
  -0.00000000  0.12877574  0.00000000       0.003
   0.00000000  0.12985789  0.00000000       0.003
   0.00000000  0.13094004  0.00000000       0.003
  -0.00000000  0.13202219  0.00000000       0.003
   0.00000000  0.13310434  0.00000000       0.003
  -0.00000000  0.13418649  0.00000000       0.003
  -0.00000000  0.13526864  0.00000000       0.003
   0.00000000  0.13635079  0.00000000       0.003
  -0.00000000  0.13743293  0.00000000       0.003
  -0.00000000  0.13743293  0.00000000       0.003
  -0.00046905  0.13716321  0.00000000       0.003
  -0.00093811  0.13689348  0.00000000       0.003
  -0.00140716  0.13662376  0.00000000       0.003
  -0.00187621  0.13635403  0.00000000       0.003
  -0.00234527  0.13608431  0.00000000       0.003
  -0.00281432  0.13581459  0.00000000       0.003
  -0.00328337  0.13554486  0.00000000       0.003
  -0.00375243  0.13527514  0.00000000       0.003
  -0.00422148  0.13500541  0.00000000       0.003
  -0.00469053  0.13473569  0.00000000       0.003
  -0.00515959  0.13446596  0.00000000       0.003
  -0.00562864  0.13419624  0.00000000       0.003
  -0.00609769  0.13392651  0.00000000       0.003
  -0.00656675  0.13365679  0.00000000       0.003
  -0.00703580  0.13338706  0.00000000       0.003
  -0.00750485  0.13311734  0.00000000       0.003
  -0.00797391  0.13284761  0.00000000       0.003
  -0.00844296  0.13257789  0.00000000       0.003
  -0.00891201  0.13230816  0.00000000       0.003
  -0.00938107  0.13203844  0.00000000       0.003
  -0.00985012  0.13176871  0.00000000       0.003
  -0.01031917  0.13149899  0.00000000       0.003
  -0.01078823  0.13122926  0.00000000       0.003
  -0.01125728  0.13095954  0.00000000       0.003
  -0.01172633  0.13068981  0.00000000       0.003
  -0.01219539  0.13042009  0.00000000       0.003
  -0.01266444  0.13015036  0.00000000       0.003
  -0.01313349  0.12988064  0.00000000       0.003
  -0.01360255  0.12961091  0.00000000       0.003
  -0.01407160  0.12934119  0.00000000       0.003
  -0.01454065  0.12907146  0.00000000       0.003
  -0.01500971  0.12880174  0.00000000       0.003
  -0.01547876  0.12853201  0.00000000       0.003
  -0.01594781  0.12826229  0.00000000       0.003
  -0.01641687  0.12799256  0.00000000       0.003
  -0.01688592  0.12772284  0.00000000       0.003
  -0.01735497  0.12745311  0.00000000       0.003
  -0.01782403  0.12718339  0.00000000       0.003
  -0.01829308  0.12691367  0.00000000       0.003
  -0.01876213  0.12664394  0.00000000       0.003
  -0.01923119  0.12637422  0.00000000       0.003
  -0.01970024  0.12610449  0.00000000       0.003
  -0.02016929  0.12583477  0.00000000       0.003
  -0.02063835  0.12556504  0.00000000       0.003
  -0.02110740  0.12529532  0.00000000       0.003
  -0.02157645  0.12502559  0.00000000       0.003
  -0.02204551  0.12475587  0.00000000       0.003
  -0.02251456  0.12448614  0.00000000       0.003
  -0.02298361  0.12421642  0.00000000       0.003
  -0.02345267  0.12394669  0.00000000       0.003
  -0.02392172  0.12367697  0.00000000       0.003
  -0.02439077  0.12340724  0.00000000       0.003
  -0.02485983  0.12313752  0.00000000       0.003
  -0.02532888  0.12286779  0.00000000       0.003
  -0.02579793  0.12259807  0.00000000       0.003
  -0.02626699  0.12232834  0.00000000       0.003
  -0.02673604  0.12205862  0.00000000       0.003
  -0.02720509  0.12178889  0.00000000       0.003
  -0.02767415  0.12151917  0.00000000       0.003
  -0.02814320  0.12124944  0.00000000       0.003
  -0.02861225  0.12097972  0.00000000       0.003
  -0.02908131  0.12070999  0.00000000       0.003
  -0.02955036  0.12044027  0.00000000       0.003
  -0.03001941  0.12017054  0.00000000       0.003
  -0.03048847  0.11990082  0.00000000       0.003
  -0.03095752  0.11963109  0.00000000       0.003
  -0.03142657  0.11936137  0.00000000       0.003
  -0.03189563  0.11909164  0.00000000       0.003
  -0.03236468  0.11882192  0.00000000       0.003
  -0.03283373  0.11855220  0.00000000       0.003
  -0.03330279  0.11828247  0.00000000       0.003
  -0.03377184  0.11801275  0.00000000       0.003
  -0.03424089  0.11774302  0.00000000       0.003
  -0.03470995  0.11747330  0.00000000       0.003
  -0.03517900  0.11720357  0.00000000       0.003
  -0.03564805  0.11693385  0.00000000       0.003
  -0.03611711  0.11666412  0.00000000       0.003
  -0.03658616  0.11639440  0.00000000       0.003
  -0.03705522  0.11612467  0.00000000       0.003
  -0.03752427  0.11585495  0.00000000       0.003
  -0.03799332  0.11558522  0.00000000       0.003
  -0.03846238  0.11531550  0.00000000       0.003
  -0.03893143  0.11504577  0.00000000       0.003
  -0.03940048  0.11477605  0.00000000       0.003
  -0.03986954  0.11450632  0.00000000       0.003
  -0.04033859  0.11423660  0.00000000       0.003
  -0.04080764  0.11396687  0.00000000       0.003
  -0.04127670  0.11369715  0.00000000       0.003
  -0.04174575  0.11342742  0.00000000       0.003
  -0.04221480  0.11315770  0.00000000       0.003
  -0.04268386  0.11288797  0.00000000       0.003
  -0.04315291  0.11261825  0.00000000       0.003
  -0.04362196  0.11234852  0.00000000       0.003
  -0.04409102  0.11207880  0.00000000       0.003
  -0.04456007  0.11180907  0.00000000       0.003
  -0.04502912  0.11153935  0.00000000       0.003
  -0.04549818  0.11126962  0.00000000       0.003
  -0.04596723  0.11099990  0.00000000       0.003
  -0.04643628  0.11073017  0.00000000       0.003
  -0.04690534  0.11046045  0.00000000       0.003
  -0.04737439  0.11019072  0.00000000       0.003
  -0.04784344  0.10992100  0.00000000       0.003
  -0.04831250  0.10965128  0.00000000       0.003
  -0.04878155  0.10938155  0.00000000       0.003
  -0.04925060  0.10911183  0.00000000       0.003
  -0.04971966  0.10884210  0.00000000       0.003
  -0.05018871  0.10857238  0.00000000       0.003
  -0.05065776  0.10830265  0.00000000       0.003
  -0.05112682  0.10803293  0.00000000       0.003
  -0.05159587  0.10776320  0.00000000       0.003
  -0.05206492  0.10749348  0.00000000       0.003
  -0.05253398  0.10722375  0.00000000       0.003
  -0.05300303  0.10695403  0.00000000       0.003
  -0.05347208  0.10668430  0.00000000       0.003
  -0.05394114  0.10641458  0.00000000       0.003
  -0.05441019  0.10614485  0.00000000       0.003
  -0.05487924  0.10587513  0.00000000       0.003
  -0.05534830  0.10560540  0.00000000       0.003
  -0.05581735  0.10533568  0.00000000       0.003
  -0.05628640  0.10506595  0.00000000       0.003
  -0.05675546  0.10479623  0.00000000       0.003
  -0.05722451  0.10452650  0.00000000       0.003
  -0.05769356  0.10425678  0.00000000       0.003
  -0.05816262  0.10398705  0.00000000       0.003
  -0.05863167  0.10371733  0.00000000       0.003
  -0.05910072  0.10344760  0.00000000       0.003
  -0.05956978  0.10317788  0.00000000       0.003
  -0.05956978  0.10317788  0.00000000       0.003
  -0.05910072  0.10236545  0.00000000       0.003
  -0.05863167  0.10155303  0.00000000       0.003
  -0.05816262  0.10074061  0.00000000       0.003
  -0.05769356  0.09992818  0.00000000       0.003
  -0.05722451  0.09911576  0.00000000       0.003
  -0.05675546  0.09830333  0.00000000       0.003
  -0.05628640  0.09749091  0.00000000       0.003
  -0.05581735  0.09667848  0.00000000       0.003
  -0.05534830  0.09586606  0.00000000       0.003
  -0.05487924  0.09505364  0.00000000       0.003
  -0.05441019  0.09424121  0.00000000       0.003
  -0.05394114  0.09342879  0.00000000       0.003
  -0.05347208  0.09261636  0.00000000       0.003
  -0.05300303  0.09180394  0.00000000       0.003
  -0.05253398  0.09099152  0.00000000       0.003
  -0.05206492  0.09017909  0.00000000       0.003
  -0.05159587  0.08936667  0.00000000       0.003
  -0.05112682  0.08855424  0.00000000       0.003
  -0.05065776  0.08774182  0.00000000       0.003
  -0.05018871  0.08692939  0.00000000       0.003
  -0.04971966  0.08611697  0.00000000       0.003
  -0.04925060  0.08530455  0.00000000       0.003
  -0.04878155  0.08449212  0.00000000       0.003
  -0.04831250  0.08367970  0.00000000       0.003
  -0.04784344  0.08286727  0.00000000       0.003
  -0.04737439  0.08205485  0.00000000       0.003
  -0.04690534  0.08124242  0.00000000       0.003
  -0.04643628  0.08043000  0.00000000       0.003
  -0.04596723  0.07961758  0.00000000       0.003
  -0.04549818  0.07880515  0.00000000       0.003
  -0.04502912  0.07799273  0.00000000       0.003
  -0.04456007  0.07718030  0.00000000       0.003
  -0.04409102  0.07636788  0.00000000       0.003
  -0.04362196  0.07555545  0.00000000       0.003
  -0.04315291  0.07474303  0.00000000       0.003
  -0.04268386  0.07393061  0.00000000       0.003
  -0.04221480  0.07311818  0.00000000       0.003
  -0.04174575  0.07230576  0.00000000       0.003
  -0.04127670  0.07149333  0.00000000       0.003
  -0.04080764  0.07068091  0.00000000       0.003
  -0.04033859  0.06986848  0.00000000       0.003
  -0.03986954  0.06905606  0.00000000       0.003
  -0.03940048  0.06824364  0.00000000       0.003
  -0.03893143  0.06743121  0.00000000       0.003
  -0.03846238  0.06661879  0.00000000       0.003
  -0.03799332  0.06580636  0.00000000       0.003
  -0.03752427  0.06499394  0.00000000       0.003
  -0.03705522  0.06418152  0.00000000       0.003
  -0.03658616  0.06336909  0.00000000       0.003
  -0.03611711  0.06255667  0.00000000       0.003
  -0.03564805  0.06174424  0.00000000       0.003
  -0.03517900  0.06093182  0.00000000       0.003
  -0.03470995  0.06011939  0.00000000       0.003
  -0.03424089  0.05930697  0.00000000       0.003
  -0.03377184  0.05849455  0.00000000       0.003
  -0.03330279  0.05768212  0.00000000       0.003
  -0.03283373  0.05686970  0.00000000       0.003
  -0.03236468  0.05605727  0.00000000       0.003
  -0.03189563  0.05524485  0.00000000       0.003
  -0.03142657  0.05443242  0.00000000       0.003
  -0.03095752  0.05362000  0.00000000       0.003
  -0.03048847  0.05280758  0.00000000       0.003
  -0.03001941  0.05199515  0.00000000       0.003
  -0.02955036  0.05118273  0.00000000       0.003
  -0.02908131  0.05037030  0.00000000       0.003
  -0.02861225  0.04955788  0.00000000       0.003
  -0.02814320  0.04874545  0.00000000       0.003
  -0.02767415  0.04793303  0.00000000       0.003
  -0.02720509  0.04712061  0.00000000       0.003
  -0.02673604  0.04630818  0.00000000       0.003
  -0.02626699  0.04549576  0.00000000       0.003
  -0.02579793  0.04468333  0.00000000       0.003
  -0.02532888  0.04387091  0.00000000       0.003
  -0.02485983  0.04305848  0.00000000       0.003
  -0.02439077  0.04224606  0.00000000       0.003
  -0.02392172  0.04143364  0.00000000       0.003
  -0.02345267  0.04062121  0.00000000       0.003
  -0.02298361  0.03980879  0.00000000       0.003
  -0.02251456  0.03899636  0.00000000       0.003
  -0.02204551  0.03818394  0.00000000       0.003
  -0.02157645  0.03737152  0.00000000       0.003
  -0.02110740  0.03655909  0.00000000       0.003
  -0.02063835  0.03574667  0.00000000       0.003
  -0.02016929  0.03493424  0.00000000       0.003
  -0.01970024  0.03412182  0.00000000       0.003
  -0.01923119  0.03330939  0.00000000       0.003
  -0.01876213  0.03249697  0.00000000       0.003
  -0.01829308  0.03168455  0.00000000       0.003
  -0.01782403  0.03087212  0.00000000       0.003
  -0.01735497  0.03005970  0.00000000       0.003
  -0.01688592  0.02924727  0.00000000       0.003
  -0.01641687  0.02843485  0.00000000       0.003
  -0.01594781  0.02762242  0.00000000       0.003
  -0.01547876  0.02681000  0.00000000       0.003
  -0.01500971  0.02599758  0.00000000       0.003
  -0.01454065  0.02518515  0.00000000       0.003
  -0.01407160  0.02437273  0.00000000       0.003
  -0.01360255  0.02356030  0.00000000       0.003
  -0.01313349  0.02274788  0.00000000       0.003
  -0.01266444  0.02193545  0.00000000       0.003
  -0.01219539  0.02112303  0.00000000       0.003
  -0.01172633  0.02031061  0.00000000       0.003
  -0.01125728  0.01949818  0.00000000       0.003
  -0.01078823  0.01868576  0.00000000       0.003
  -0.01031917  0.01787333  0.00000000       0.003
  -0.00985012  0.01706091  0.00000000       0.003
  -0.00938107  0.01624848  0.00000000       0.003
  -0.00891201  0.01543606  0.00000000       0.003
  -0.00844296  0.01462364  0.00000000       0.003
  -0.00797391  0.01381121  0.00000000       0.003
  -0.00750485  0.01299879  0.00000000       0.003
  -0.00703580  0.01218636  0.00000000       0.003
  -0.00656675  0.01137394  0.00000000       0.003
  -0.00609769  0.01056152  0.00000000       0.003
  -0.00562864  0.00974909  0.00000000       0.003
  -0.00515959  0.00893667  0.00000000       0.003
  -0.00469053  0.00812424  0.00000000       0.003
  -0.00422148  0.00731182  0.00000000       0.003
  -0.00375243  0.00649939  0.00000000       0.003
  -0.00328337  0.00568697  0.00000000       0.003
  -0.00281432  0.00487455  0.00000000       0.003
  -0.00234527  0.00406212  0.00000000       0.003
  -0.00187621  0.00324970  0.00000000       0.003
  -0.00140716  0.00243727  0.00000000       0.003
  -0.00093811  0.00162485  0.00000000       0.003
  -0.00046905  0.00081242  0.00000000       0.003
  -0.00000000  0.00000000  0.00000000       0.003
 
 k-points in reciprocal lattice and weights: K-points                                
   0.00000000  0.00000000  0.00000000       0.003
   0.00262205  0.00262205  0.00000000       0.003
   0.00524409  0.00524409  0.00000000       0.003
   0.00786614  0.00786614  0.00000000       0.003
   0.01048819  0.01048819  0.00000000       0.003
   0.01311024  0.01311024  0.00000000       0.003
   0.01573228  0.01573228  0.00000000       0.003
   0.01835433  0.01835433  0.00000000       0.003
   0.02097638  0.02097638  0.00000000       0.003
   0.02359843  0.02359843  0.00000000       0.003
   0.02622047  0.02622047  0.00000000       0.003
   0.02884252  0.02884252  0.00000000       0.003
   0.03146457  0.03146457  0.00000000       0.003
   0.03408661  0.03408661  0.00000000       0.003
   0.03670866  0.03670866  0.00000000       0.003
   0.03933071  0.03933071  0.00000000       0.003
   0.04195276  0.04195276  0.00000000       0.003
   0.04457480  0.04457480  0.00000000       0.003
   0.04719685  0.04719685  0.00000000       0.003
   0.04981890  0.04981890  0.00000000       0.003
   0.05244094  0.05244094  0.00000000       0.003
   0.05506299  0.05506299  0.00000000       0.003
   0.05768504  0.05768504  0.00000000       0.003
   0.06030709  0.06030709  0.00000000       0.003
   0.06292913  0.06292913  0.00000000       0.003
   0.06555118  0.06555118  0.00000000       0.003
   0.06817323  0.06817323  0.00000000       0.003
   0.07079528  0.07079528  0.00000000       0.003
   0.07341732  0.07341732  0.00000000       0.003
   0.07603937  0.07603937  0.00000000       0.003
   0.07866142  0.07866142  0.00000000       0.003
   0.08128346  0.08128346  0.00000000       0.003
   0.08390551  0.08390551  0.00000000       0.003
   0.08652756  0.08652756  0.00000000       0.003
   0.08914961  0.08914961  0.00000000       0.003
   0.09177165  0.09177165  0.00000000       0.003
   0.09439370  0.09439370  0.00000000       0.003
   0.09701575  0.09701575  0.00000000       0.003
   0.09963780  0.09963780  0.00000000       0.003
   0.10225984  0.10225984  0.00000000       0.003
   0.10488189  0.10488189  0.00000000       0.003
   0.10750394  0.10750394  0.00000000       0.003
   0.11012598  0.11012598  0.00000000       0.003
   0.11274803  0.11274803  0.00000000       0.003
   0.11537008  0.11537008  0.00000000       0.003
   0.11799213  0.11799213  0.00000000       0.003
   0.12061417  0.12061417  0.00000000       0.003
   0.12323622  0.12323622  0.00000000       0.003
   0.12585827  0.12585827  0.00000000       0.003
   0.12848031  0.12848031  0.00000000       0.003
   0.13110236  0.13110236  0.00000000       0.003
   0.13372441  0.13372441  0.00000000       0.003
   0.13634646  0.13634646  0.00000000       0.003
   0.13896850  0.13896850  0.00000000       0.003
   0.14159055  0.14159055  0.00000000       0.003
   0.14421260  0.14421260  0.00000000       0.003
   0.14683465  0.14683465  0.00000000       0.003
   0.14945669  0.14945669  0.00000000       0.003
[...]
     24      -2.7774      2.00000
     25      -2.7709      2.00000
     26      -2.7382      2.00000
     27      -0.8919      2.00000
     28      -0.8865      2.00000
     29       0.9570      0.00000
     30       0.9640      0.00000
     31       1.2818      0.00000
     32       1.6144      0.00000
     33       1.6248      0.00000
     34       2.1580      0.00000
     35       2.8715      0.00000
     36       3.4841      0.00000
     37       3.4878      0.00000
     38       3.5937      0.00000
     39       4.6078      0.00000
     40       6.6932      0.00000
     41       7.4699      0.00000
     42       7.6352      0.00000
     43       7.6411      0.00000
     44       7.6431      0.00000
     45       7.8403      0.00000
     46       8.4217      0.00000
     47       8.4286      0.00000
     48       8.7485      0.00000

 k-point   381 :       0.0000    0.0118    0.0000
  band No.  band energies     occupation 
      1     -20.2060      2.00000
      2     -17.4089      2.00000
      3     -14.7377      2.00000
      4     -14.7237      2.00000
      5     -14.7216      2.00000
      6     -13.8294      2.00000
      7     -13.8272      2.00000
      8     -13.8133      2.00000
      9     -13.5238      2.00000
     10     -13.5225      2.00000
     11     -10.4450      2.00000
     12      -9.4606      2.00000
     13      -9.4561      2.00000
     14      -8.3372      2.00000
     15      -7.6655      2.00000
     16      -6.8182      2.00000
     17      -6.8176      2.00000
     18      -6.8143      2.00000
     19      -6.7551      2.00000
     20      -3.2693      2.00000
     21      -3.2677      2.00000
     22      -2.9331      2.00000
     23      -2.9304      2.00000
     24      -2.7738      2.00000
     25      -2.7703      2.00000
     26      -2.7367      2.00000
     27      -0.8877      2.00000
     28      -0.8840      2.00000
     29       0.9574      0.00000
     30       0.9621      0.00000
     31       1.2775      0.00000
     32       1.6135      0.00000
     33       1.6215      0.00000
     34       2.1513      0.00000
     35       2.8706      0.00000
     36       3.4825      0.00000
     37       3.4845      0.00000
     38       3.5928      0.00000
     39       4.6069      0.00000
     40       6.6924      0.00000
     41       7.4691      0.00000
     42       7.6345      0.00000
     43       7.6383      0.00000
     44       7.6400      0.00000
     45       7.8420      0.00000
     46       8.4178      0.00000
     47       8.4215      0.00000
     48       8.7469      0.00000

 k-point   382 :       0.0000    0.0079    0.0000
  band No.  band energies     occupation 
      1     -20.2065      2.00000
      2     -17.4092      2.00000
      3     -14.7273      2.00000
      4     -14.7213      2.00000
      5     -14.7190      2.00000
      6     -13.8327      2.00000
      7     -13.8304      2.00000
      8     -13.8245      2.00000
      9     -13.5228      2.00000
     10     -13.5219      2.00000
     11     -10.4462      2.00000
     12      -9.4590      2.00000
     13      -9.4570      2.00000
     14      -8.3378      2.00000
     15      -7.6684      2.00000
     16      -6.8167      2.00000
     17      -6.8162      2.00000
     18      -6.8147      2.00000
     19      -6.7556      2.00000
     20      -3.2674      2.00000
     21      -3.2666      2.00000
     22      -2.9307      2.00000
     23      -2.9290      2.00000
     24      -2.7713      2.00000
     25      -2.7699      2.00000
     26      -2.7354      2.00000
     27      -0.8847      2.00000
     28      -0.8821      2.00000
     29       0.9564      0.00000
     30       0.9619      0.00000
     31       1.2744      0.00000
     32       1.6128      0.00000
     33       1.6192      0.00000
     34       2.1465      0.00000
     35       2.8699      0.00000
     36       3.4811      0.00000
     37       3.4824      0.00000
     38       3.5921      0.00000
     39       4.6062      0.00000
     40       6.6919      0.00000
     41       7.4685      0.00000
     42       7.6338      0.00000
     43       7.6367      0.00000
     44       7.6379      0.00000
     45       7.8434      0.00000
     46       8.4184      0.00000
     47       8.4265      0.00000
     48       8.7466      0.00000

 k-point   383 :       0.0000    0.0039    0.0000
  band No.  band energies     occupation 
      1     -20.2068      2.00000
      2     -17.4094      2.00000
      3     -14.7212      2.00000
      4     -14.7198      2.00000
      5     -14.7172      2.00000
      6     -13.8350      2.00000
      7     -13.8323      2.00000
      8     -13.8311      2.00000
      9     -13.5224      2.00000
     10     -13.5214      2.00000
     11     -10.4469      2.00000
     12      -9.4582      2.00000
     13      -9.4574      2.00000
     14      -8.3381      2.00000
     15      -7.6701      2.00000
     16      -6.8159      2.00000
     17      -6.8156      2.00000
     18      -6.8147      2.00000
     19      -6.7559      2.00000
     20      -3.2663      2.00000
     21      -3.2659      2.00000
     22      -2.9293      2.00000
     23      -2.9280      2.00000
     24      -2.7699      2.00000
     25      -2.7696      2.00000
     26      -2.7347      2.00000
     27      -0.8830      2.00000
     28      -0.8809      2.00000
     29       0.9555      0.00000
     30       0.9623      0.00000
     31       1.2726      0.00000
     32       1.6123      0.00000
     33       1.6178      0.00000
     34       2.1436      0.00000
     35       2.8695      0.00000
     36       3.4801      0.00000
     37       3.4813      0.00000
     38       3.5917      0.00000
     39       4.6058      0.00000
     40       6.6916      0.00000
     41       7.4682      0.00000
     42       7.6330      0.00000
     43       7.6361      0.00000
     44       7.6365      0.00000
     45       7.8440      0.00000
     46       8.4171      0.00000
     47       8.4209      0.00000
     48       8.7451      0.00000

 k-point   384 :       0.0000    0.0000    0.0000
  band No.  band energies     occupation 
      1     -20.2069      2.00000
      2     -17.4095      2.00000
      3     -14.7194      2.00000
      4     -14.7193      2.00000
      5     -14.7163      2.00000
      6     -13.8360      2.00000
      7     -13.8330      2.00000
      8     -13.8329      2.00000
      9     -13.5223      2.00000
     10     -13.5212      2.00000
     11     -10.4472      2.00000
     12      -9.4581      2.00000
     13      -9.4573      2.00000
     14      -8.3383      2.00000
     15      -7.6707      2.00000
     16      -6.8156      2.00000
     17      -6.8155      2.00000
     18      -6.8146      2.00000
     19      -6.7560      2.00000
     20      -3.2656      2.00000
     21      -3.2654      2.00000
     22      -2.9288      2.00000
     23      -2.9277      2.00000
     24      -2.7696      2.00000
     25      -2.7694      2.00000
     26      -2.7344      2.00000
     27      -0.8824      2.00000
     28      -0.8805      2.00000
     29       0.9551      0.00000
     30       0.9624      0.00000
     31       1.2720      0.00000
     32       1.6122      0.00000
     33       1.6174      0.00000
     34       2.1427      0.00000
     35       2.8694      0.00000
     36       3.4797      0.00000
     37       3.4810      0.00000
     38       3.5916      0.00000
     39       4.6057      0.00000
     40       6.6915      0.00000
     41       7.4681      0.00000
     42       7.6327      0.00000
     43       7.6359      0.00000
     44       7.6361      0.00000
     45       7.8443      0.00000
     46       8.4179      0.00000
     47       8.4206      0.00000
     48       8.7449      0.00000


--------------------------------------------------------------------------------------------------------


 soft charge-density along one line, spin component           1
         0         1         2         3         4         5         6         7         8         9
 total charge-density along one line
 
 pseudopotential strength for first ion, spin component:           1
  6.786  10.358  -0.000   0.000  -0.000  -0.000   0.001  -0.000
 10.358  15.807  -0.000   0.001  -0.000  -0.000   0.001  -0.000
 -0.000  -0.000  -2.351   0.000   0.000  -4.045   0.000   0.000
  0.000   0.001   0.000  -2.344   0.000   0.000  -4.028   0.000
 -0.000  -0.000   0.000   0.000  -2.351   0.000   0.000  -4.045
 -0.000  -0.000  -4.045   0.000   0.000  -6.760   0.000   0.000
  0.001   0.001   0.000  -4.028   0.000   0.000  -6.724   0.000
 -0.000  -0.000   0.000   0.000  -4.045   0.000   0.000  -6.760
 total augmentation occupancy for first ion, spin component:           1
  2.000   0.000   0.000   0.000   0.000   0.000   0.000   0.000
  0.000   0.000   0.000   0.000   0.000   0.000   0.000   0.000
  0.000   0.000   0.333   0.000   0.000   0.000   0.000   0.000
  0.000   0.000   0.000   0.333   0.000   0.000   0.000   0.000
  0.000   0.000   0.000   0.000   0.333   0.000   0.000   0.000
  0.000   0.000   0.000   0.000   0.000   0.000   0.000   0.000
  0.000   0.000   0.000   0.000   0.000   0.000   0.000   0.000
  0.000   0.000   0.000   0.000   0.000   0.000   0.000   0.000


------------------------ aborting loop because EDIFF is reached ----------------------------------------





 total charge

# of ion       s       p       d       tot
------------------------------------------
    1        0.665   1.367   0.000   2.031
    2        0.653   1.213   0.000   1.867
    3        0.678   1.245   0.000   1.923
    4        0.687   1.247   0.000   1.934
    5        0.840   1.727   0.000   2.567
    6        0.810   1.745   0.000   2.555
    7        0.833   1.734   0.000   2.568
    8        0.877   1.845   0.000   2.722
    9        0.877   1.846   0.000   2.722
   10        0.877   1.846   0.000   2.723
   11        0.877   1.846   0.000   2.722
   12        0.877   1.846   0.000   2.722
   13        0.877   1.847   0.000   2.723
   14        0.877   1.847   0.000   2.723
   15        0.877   1.846   0.000   2.722
--------------------------------------------------
tot         12.179  25.045   0.000  37.224
 
    CHARGE:  cpu time      0.6402: real time      0.6472
    FORLOC:  cpu time      0.0015: real time      0.0015
    FORNL :  cpu time      2.3512: real time      2.3571
    STRESS:  cpu time     15.7610: real time     15.8095
    FORCOR:  cpu time      0.0149: real time      0.0149
    FORHAR:  cpu time      0.0043: real time      0.0043
    OFIELD:  cpu time      0.0000: real time      0.0000

 ---------------------------------------------------------------------------------------------

         DFTD3 V3.0 Rev 1        
 IVDW         = 12
 DF pbe       
 parameters
 VDW_S6       =    1.0000
 VDW_S8       =    0.7875
 VDW_A1       =    0.4289
 VDW_A2       =    4.4407
 k1-k3        =   16.0000    1.3333   -4.0000
 VDW_RADIUS   =   50.2022 A
 VDW_CNRADIUS =   21.1671 A
 Edisp (eV)   -1.57653

 E6    (eV) :    -1.0895
 E8    (eV) :    -0.4871
 % E8        : 30.89
    FORVDW:  cpu time      0.0423: real time      0.0424

  FORCE on cell =-STRESS in cart. coord.  units (eV):
  Direction    XX          YY          ZZ          XY          YZ          ZX
  --------------------------------------------------------------------------------------
  Alpha Z    58.30707    58.30707    58.30707
  Ewald    6400.51571  6400.57126 -8157.94703     0.00582     0.00084     0.00093
  Hartree  6318.43298  6322.04219 -6236.12955    -1.80489    -0.00308    -0.00332
  E(xc)    -201.76374  -201.75262  -208.82130    -0.00159     0.00010     0.00016
  Local  -13309.44706-13313.91360 13683.33288     2.10318     0.01542     0.01855
  n-local   -43.63216   -45.18234   -43.99518     0.85269     0.00005    -0.00043
  augment    -4.17028    -4.19869    -3.71164     0.01748    -0.00010    -0.00010
  Kinetic   790.65964   779.27402   911.19824     5.76924    -0.00723    -0.01154
  Fock        0.00000     0.00000     0.00000     0.00000     0.00000     0.00000
  vdW        -0.36558    -0.36560    -1.10418     0.00000     0.00002     0.00001
  -------------------------------------------------------------------------------------
  Total       8.53658    -5.21834     1.12930     6.94192     0.00601     0.00427
  in kB      44.83383   -27.40654     5.93105    36.45872     0.03158     0.02241
  external pressure =        7.79 kB  Pullay stress =        0.00 kB


 VOLUME and BASIS-vectors are now :
 -----------------------------------------------------------------------------
  energy-cutoff  :      450.00
  volume of cell :      305.06
      direct lattice vectors                 reciprocal lattice vectors
     4.196759107  2.423000000  0.000000000     0.119139552  0.206355757  0.000000000
    -4.196759107  2.423000000  0.000000000    -0.119139552  0.206355757  0.000000000
     0.000000000  0.000000000 15.000000000     0.000000000  0.000000000  0.066666667

  length of vectors
     4.846000000  4.846000000 15.000000000     0.238279104  0.238279104  0.066666667


 FORCES acting on ions
    electron-ion (+dipol)            ewald-force                    non-local-force                 convergence-correction
 -----------------------------------------------------------------------------------------------
   -.427E+00 -.417E+00 0.228E+03   -.162E-02 0.183E-01 -.228E+03   0.113E+00 0.619E-01 0.809E-01   0.289E+00 0.268E+00 -.343E-01
   -.202E+02 -.117E+02 0.223E+03   0.223E+02 0.129E+02 -.223E+03   -.292E+01 -.161E+01 -.274E-01   0.228E+00 0.138E+00 -.324E-01
   0.192E+02 -.111E+02 0.223E+03   -.223E+02 0.129E+02 -.223E+03   0.237E+01 -.180E+01 -.308E-01   0.873E-01 -.210E+00 -.270E-01
   0.839E-01 0.221E+02 0.223E+03   0.997E-03 -.258E+02 -.223E+03   -.444E+00 0.291E+01 -.325E-01   -.144E+00 0.186E+00 -.260E-01
   -.777E+00 -.355E+02 0.299E+03   -.206E-02 0.429E+02 -.299E+03   0.236E+00 -.594E+01 -.102E+00   0.732E+00 -.818E+00 -.284E-01
   0.335E+02 0.192E+02 0.299E+03   -.372E+02 -.215E+02 -.299E+03   0.600E+01 0.341E+01 -.150E+00   -.117E+01 -.510E+00 -.652E-01
   -.315E+02 0.171E+02 0.299E+03   0.372E+02 -.215E+02 -.299E+03   -.519E+01 0.322E+01 -.111E+00   -.176E-01 0.102E+01 -.320E-01
   -.139E+01 0.784E+00 -.225E+03   -.382E+00 0.697E+00 0.225E+03   0.174E+00 -.345E+00 -.160E-02   0.445E+00 -.351E+00 0.425E-01
   0.134E+01 -.215E+01 -.225E+03   0.376E+00 0.700E+00 0.225E+03   -.172E+00 0.318E+00 0.122E-01   -.382E+00 0.323E+00 -.441E-01
   -.253E+01 0.146E+01 -.225E+03   0.796E+00 -.340E-01 0.225E+03   0.173E+00 -.318E+00 0.220E-01   0.420E+00 -.295E+00 -.473E-01
   0.179E+01 -.148E+01 -.223E+03   0.331E-02 0.102E-01 0.223E+03   -.181E+00 0.338E+00 0.574E-01   -.464E+00 0.355E+00 0.362E-02
   -.173E+01 0.152E+01 -.223E+03   0.397E-02 0.147E-01 0.223E+03   0.185E+00 -.334E+00 0.569E-01   0.421E+00 -.400E+00 0.157E-02
   0.252E+01 -.143E+01 -.225E+03   -.794E+00 -.320E-01 0.225E+03   -.176E+00 0.343E+00 0.387E-01   -.425E+00 0.327E+00 -.442E-03
   -.130E+01 0.212E+01 -.225E+03   -.412E+00 -.675E+00 0.225E+03   0.192E+00 -.334E+00 0.369E-01   0.382E+00 -.331E+00 0.188E-01
   0.131E+01 -.829E+00 -.225E+03   0.409E+00 -.680E+00 0.225E+03   -.194E+00 0.333E+00 0.609E-02   -.397E+00 0.373E+00 0.565E-01
 -----------------------------------------------------------------------------------------------
   -.134E+00 -.320E+00 0.365E+00   -.108E-13 0.422E-14 -.227E-12   0.157E+00 0.255E+00 -.144E+00   0.781E-03 0.795E-01 -.214E+00
 
 
 POSITION                                       TOTAL-FORCE (eV/Angst)
 -----------------------------------------------------------------------------------
      0.00625      0.01788      1.48496        -0.027981     -0.069715     -0.011973
      1.49672      0.87842      1.50592        -0.569476     -0.313164      0.029164
     -1.48417      0.87841      1.50595        -0.654599     -0.190477     -0.002526
      0.00626      3.14291      1.50598        -0.505160     -0.593582     -0.010432
      0.00629      1.58658      1.50256         0.187372      0.646220     -0.005761
      2.84461      1.65671      1.50259         1.163259      0.611958      0.027268
     -2.83210      1.65675      1.50260         0.417472     -0.084945     -0.001635
     -0.69984      1.21051      5.06464        -1.157821      0.783702     -0.022127
      0.69923      1.21051      5.06467         1.159235     -0.813369     -0.004896
     -2.79815      2.42214      5.06471        -1.144262      0.815126      0.002841
     -1.39923      2.42205      5.06306         1.143079     -0.773707     -0.001131
      1.39861      2.42204      5.06306        -1.118377      0.797182     -0.001372
      2.79753      2.42214      5.06470         1.124688     -0.791783      0.011581
     -0.69971      3.63351      5.06465        -1.142518      0.780307      0.008520
      0.69908      3.63351      5.06463         1.125087     -0.803751     -0.017519
 -----------------------------------------------------------------------------------
    total drift:                                0.023648      0.014573      0.006006


--------------------------------------------------------------------------------------------------------



  FREE ENERGIE OF THE ION-ELECTRON SYSTEM (eV)
  ---------------------------------------------------
  free  energy   TOTEN  =      -126.02093428 eV

  energy  without entropy=     -126.01867553  energy(sigma->0) =     -126.01980490
 


--------------------------------------------------------------------------------------------------------


    POTLOK:  cpu time      0.0209: real time      0.0211


--------------------------------------------------------------------------------------------------------


 stress matrix after NEB project (eV)
      8.53658      6.94192      0.00427
      6.94192     -5.21834      0.00601
      0.00427      0.00601      1.12930
  FORCES: max atom, RMS     1.416128    1.134561
  FORCE total and by dimension    4.394137    1.163259
  Stress total and by dimension   14.062723    8.536581
 writing wavefunctions
     LOOP+:  cpu time    155.9143: real time    156.8921
    4ORBIT:  cpu time      0.0000: real time      0.0000



 total charge

# of ion       s       p       d       tot
------------------------------------------
    1        0.665   1.367   0.000   2.031
    2        0.653   1.213   0.000   1.867
    3        0.678   1.245   0.000   1.923
    4        0.687   1.247   0.000   1.934
    5        0.840   1.727   0.000   2.567
    6        0.810   1.745   0.000   2.555
    7        0.833   1.734   0.000   2.568
    8        0.877   1.845   0.000   2.722
    9        0.877   1.846   0.000   2.722
   10        0.877   1.846   0.000   2.723
   11        0.877   1.846   0.000   2.722
   12        0.877   1.846   0.000   2.722
   13        0.877   1.847   0.000   2.723
   14        0.877   1.847   0.000   2.723
   15        0.877   1.846   0.000   2.722
--------------------------------------------------
tot         12.179  25.045   0.000  37.224
 

 total amount of memory used by VASP MPI-rank0   410398. kBytes
=======================================================================

   base      :      30000. kBytes
   nonl-proj :     329543. kBytes
   fftplans  :       1560. kBytes
   grid      :       7372. kBytes
   one-center:         46. kBytes
   wavefun   :      41877. kBytes
 
  
  
 General timing and accounting informations for this job:
 ========================================================
  
                  Total CPU time used (sec):      171.560
                            User time (sec):      166.040
                          System time (sec):        5.520
                         Elapsed time (sec):      176.581
  
                   Maximum memory used (kb):      995628.
                   Average memory used (kb):          N/A
  
                          Minor page faults:       677707
                          Major page faults:         3948
                 Voluntary context switches:         8203
