  16  16   0   4
  0.1985338E+02  0.4945000E-09  0.4945000E-09  0.1500000E-08  0.5000000E-15
  1.000000000000000E-004
  CAR 
 Lattice                                 
     10.02752057    -21.24540545  301     -0.28002651      1.00000000
    -21.245  0.0000E+00  0.0000E+00  0.0000E+00  0.0000E+00
    -21.141  0.0000E+00  0.0000E+00  0.0000E+00  0.0000E+00
    -21.037  0.0000E+00  0.0000E+00  0.0000E+00  0.0000E+00
    -20.933  0.0000E+00  0.0000E+00  0.0000E+00  0.0000E+00
    -20.828  0.0000E+00  0.0000E+00  0.0000E+00  0.0000E+00
    -20.724  0.0000E+00  0.0000E+00  0.0000E+00  0.0000E+00
    -20.620  0.0000E+00  0.0000E+00  0.0000E+00  0.0000E+00
    -20.516  0.0000E+00  0.0000E+00  0.0000E+00  0.0000E+00
    -20.411  0.2889E-19  0.2889E-19  0.3012E-20  0.3012E-20
    -20.307  0.2326E-14  0.2326E-14  0.2425E-15  0.2425E-15
    -20.203  0.2604E-10  0.2604E-10  0.2715E-11  0.2715E-11
    -20.099  0.3898E-07  0.3898E-07  0.4067E-08  0.4067E-08
    -19.994  0.8492E-05  0.8492E-05  0.8893E-06  0.8893E-06
    -19.890  0.2978E-03  0.2978E-03  0.3193E-04  0.3193E-04
    -19.786  0.2050E-02  0.2050E-02  0.2456E-03  0.2456E-03
    -19.682  0.4266E-02  0.4266E-02  0.6903E-03  0.6903E-03
    -19.578  0.4701E-02  0.4701E-02  0.1180E-02  0.1180E-02
    -19.473  0.5059E-02  0.5059E-02  0.1708E-02  0.1708E-02
    -19.369  0.4371E-02  0.4371E-02  0.2163E-02  0.2163E-02
    -19.265  0.5534E-02  0.5534E-02  0.2740E-02  0.2740E-02
    -19.161  0.4287E-02  0.4287E-02  0.3187E-02  0.3187E-02
    -19.056  0.4610E-02  0.4610E-02  0.3668E-02  0.3668E-02
    -18.952  0.6085E-02  0.6085E-02  0.4302E-02  0.4302E-02
    -18.848  0.3784E-02  0.3784E-02  0.4697E-02  0.4697E-02
    -18.744  0.4351E-02  0.4351E-02  0.5150E-02  0.5150E-02
    -18.639  0.6313E-02  0.6313E-02  0.5808E-02  0.5808E-02
    -18.535  0.5099E-02  0.5099E-02  0.6340E-02  0.6340E-02
    -18.431  0.2964E-02  0.2964E-02  0.6649E-02  0.6649E-02
    -18.327  0.5205E-02  0.5205E-02  0.7191E-02  0.7191E-02
    -18.222  0.6862E-02  0.6862E-02  0.7907E-02  0.7907E-02
    -18.118  0.4461E-02  0.4461E-02  0.8372E-02  0.8372E-02
    -18.014  0.3702E-02  0.3702E-02  0.8758E-02  0.8758E-02
    -17.910  0.3624E-02  0.3624E-02  0.9135E-02  0.9135E-02
    -17.805  0.7379E-02  0.7379E-02  0.9905E-02  0.9905E-02
    -17.701  0.6099E-02  0.6099E-02  0.1054E-01  0.1054E-01
    -17.597  0.3244E-02  0.3244E-02  0.1088E-01  0.1088E-01
    -17.493  0.3756E-02  0.3756E-02  0.1127E-01  0.1127E-01
    -17.388  0.4606E-02  0.4606E-02  0.1175E-01  0.1175E-01
    -17.284  0.7053E-02  0.7053E-02  0.1249E-01  0.1249E-01
    -17.180  0.6334E-02  0.6334E-02  0.1315E-01  0.1315E-01
    -17.076  0.4262E-02  0.4262E-02  0.1359E-01  0.1359E-01
    -16.971  0.2227E-02  0.2227E-02  0.1382E-01  0.1382E-01
    -16.867  0.4742E-02  0.4742E-02  0.1432E-01  0.1432E-01
    -16.763  0.7177E-02  0.7177E-02  0.1506E-01  0.1506E-01
    -16.659  0.6302E-02  0.6302E-02  0.1572E-01  0.1572E-01
    -16.554  0.5172E-02  0.5172E-02  0.1626E-01  0.1626E-01
    -16.450  0.4404E-02  0.4404E-02  0.1672E-01  0.1672E-01
    -16.346  0.2530E-02  0.2530E-02  0.1698E-01  0.1698E-01
    -16.242  0.3883E-02  0.3883E-02  0.1739E-01  0.1739E-01
    -16.137  0.9116E-02  0.9116E-02  0.1834E-01  0.1834E-01
    -16.033  0.6540E-02  0.6540E-02  0.1902E-01  0.1902E-01
    -15.929  0.6694E-02  0.6694E-02  0.1972E-01  0.1972E-01
    -15.825  0.9112E-02  0.9112E-02  0.2067E-01  0.2067E-01
    -15.721  0.1035E-01  0.1035E-01  0.2175E-01  0.2175E-01
    -15.616  0.9501E-02  0.9501E-02  0.2274E-01  0.2274E-01
    -15.512  0.1329E-01  0.1329E-01  0.2412E-01  0.2412E-01
    -15.408  0.1572E-01  0.1572E-01  0.2576E-01  0.2576E-01
    -15.304  0.1307E-01  0.1307E-01  0.2712E-01  0.2712E-01
    -15.199  0.1151E-01  0.1151E-01  0.2832E-01  0.2832E-01
    -15.095  0.1393E-01  0.1393E-01  0.2977E-01  0.2977E-01
    -14.991  0.1240E-01  0.1240E-01  0.3107E-01  0.3107E-01
    -14.887  0.1063E-01  0.1063E-01  0.3217E-01  0.3217E-01
    -14.782  0.1139E-01  0.1139E-01  0.3336E-01  0.3336E-01
    -14.678  0.1050E-01  0.1050E-01  0.3445E-01  0.3445E-01
    -14.574  0.8167E-02  0.8167E-02  0.3531E-01  0.3531E-01
    -14.470  0.7729E-02  0.7729E-02  0.3611E-01  0.3611E-01
    -14.365  0.7253E-02  0.7253E-02  0.3687E-01  0.3687E-01
    -14.261  0.8315E-02  0.8315E-02  0.3773E-01  0.3773E-01
    -14.157  0.1567E-01  0.1567E-01  0.3937E-01  0.3937E-01
    -14.053  0.1450E-01  0.1450E-01  0.4088E-01  0.4088E-01
    -13.948  0.6009E-02  0.6009E-02  0.4151E-01  0.4151E-01
    -13.844  0.5285E-02  0.5285E-02  0.4206E-01  0.4206E-01
    -13.740  0.5004E-02  0.5004E-02  0.4258E-01  0.4258E-01
    -13.636  0.4535E-02  0.4535E-02  0.4305E-01  0.4305E-01
    -13.531  0.6948E-02  0.6948E-02  0.4378E-01  0.4378E-01
    -13.427  0.1060E-01  0.1060E-01  0.4488E-01  0.4488E-01
    -13.323  0.7517E-02  0.7517E-02  0.4566E-01  0.4566E-01
    -13.219  0.5576E-02  0.5576E-02  0.4625E-01  0.4625E-01
    -13.114  0.7454E-02  0.7454E-02  0.4702E-01  0.4702E-01
    -13.010  0.7838E-02  0.7838E-02  0.4784E-01  0.4784E-01
    -12.906  0.7410E-02  0.7410E-02  0.4861E-01  0.4861E-01
    -12.802  0.8021E-02  0.8021E-02  0.4945E-01  0.4945E-01
    -12.697  0.7830E-02  0.7830E-02  0.5026E-01  0.5026E-01
    -12.593  0.9592E-02  0.9592E-02  0.5126E-01  0.5126E-01
    -12.489  0.1374E-01  0.1374E-01  0.5270E-01  0.5270E-01
    -12.385  0.1042E-01  0.1042E-01  0.5378E-01  0.5378E-01
    -12.280  0.1299E-01  0.1299E-01  0.5514E-01  0.5514E-01
    -12.176  0.1189E-01  0.1189E-01  0.5638E-01  0.5638E-01
    -12.072  0.1232E-01  0.1232E-01  0.5766E-01  0.5766E-01
    -11.968  0.1935E-01  0.1935E-01  0.5968E-01  0.5968E-01
    -11.864  0.1622E-01  0.1622E-01  0.6137E-01  0.6137E-01
    -11.759  0.1257E-01  0.1257E-01  0.6268E-01  0.6268E-01
    -11.655  0.1169E-01  0.1169E-01  0.6390E-01  0.6390E-01
    -11.551  0.1141E-01  0.1141E-01  0.6509E-01  0.6509E-01
    -11.447  0.9254E-02  0.9254E-02  0.6605E-01  0.6605E-01
    -11.342  0.4749E-02  0.4749E-02  0.6655E-01  0.6655E-01
    -11.238  0.2723E-02  0.2723E-02  0.6683E-01  0.6683E-01
    -11.134  0.4674E-02  0.4674E-02  0.6732E-01  0.6732E-01
    -11.030  0.6076E-02  0.6076E-02  0.6795E-01  0.6795E-01
    -10.925  0.6230E-02  0.6230E-02  0.6860E-01  0.6860E-01
    -10.821  0.6677E-02  0.6677E-02  0.6930E-01  0.6930E-01
    -10.717  0.8509E-02  0.8509E-02  0.7019E-01  0.7019E-01
    -10.613  0.1009E-01  0.1009E-01  0.7124E-01  0.7124E-01
    -10.508  0.1292E-01  0.1292E-01  0.7258E-01  0.7258E-01
    -10.404  0.1885E-01  0.1885E-01  0.7455E-01  0.7455E-01
    -10.300  0.1789E-01  0.1789E-01  0.7641E-01  0.7641E-01
    -10.196  0.6375E-02  0.6375E-02  0.7708E-01  0.7708E-01
    -10.091  0.3645E-02  0.3645E-02  0.7746E-01  0.7746E-01
     -9.987  0.1185E-01  0.1185E-01  0.7869E-01  0.7869E-01
     -9.883  0.1823E-01  0.1823E-01  0.8059E-01  0.8059E-01
     -9.779  0.1018E-01  0.1018E-01  0.8166E-01  0.8166E-01
     -9.674  0.5164E-02  0.5164E-02  0.8219E-01  0.8219E-01
     -9.570  0.4290E-02  0.4290E-02  0.8264E-01  0.8264E-01
     -9.466  0.1194E-01  0.1194E-01  0.8389E-01  0.8389E-01
     -9.362  0.2126E-01  0.2126E-01  0.8610E-01  0.8610E-01
     -9.257  0.1790E-01  0.1790E-01  0.8797E-01  0.8797E-01
     -9.153  0.1657E-01  0.1657E-01  0.8970E-01  0.8970E-01
     -9.049  0.1314E-01  0.1314E-01  0.9107E-01  0.9107E-01
     -8.945  0.1254E-01  0.1254E-01  0.9237E-01  0.9237E-01
     -8.840  0.1365E-01  0.1365E-01  0.9380E-01  0.9380E-01
     -8.736  0.1558E-01  0.1558E-01  0.9542E-01  0.9542E-01
     -8.632  0.1632E-01  0.1632E-01  0.9712E-01  0.9712E-01
     -8.528  0.1194E-01  0.1194E-01  0.9837E-01  0.9837E-01
     -8.424  0.1197E-01  0.1197E-01  0.9961E-01  0.9961E-01
     -8.319  0.2036E-01  0.2036E-01  0.1017E+00  0.1017E+00
     -8.215  0.1547E-01  0.1547E-01  0.1033E+00  0.1033E+00
     -8.111  0.1042E-01  0.1042E-01  0.1044E+00  0.1044E+00
     -8.007  0.1466E-01  0.1466E-01  0.1060E+00  0.1060E+00
     -7.902  0.1527E-01  0.1527E-01  0.1076E+00  0.1076E+00
     -7.798  0.2037E-01  0.2037E-01  0.1097E+00  0.1097E+00
     -7.694  0.2482E-01  0.2482E-01  0.1123E+00  0.1123E+00
     -7.590  0.1580E-01  0.1580E-01  0.1139E+00  0.1139E+00
     -7.485  0.1446E-01  0.1446E-01  0.1154E+00  0.1154E+00
     -7.381  0.1625E-01  0.1625E-01  0.1171E+00  0.1171E+00
     -7.277  0.2080E-01  0.2080E-01  0.1193E+00  0.1193E+00
     -7.173  0.1936E-01  0.1936E-01  0.1213E+00  0.1213E+00
     -7.068  0.1474E-01  0.1474E-01  0.1228E+00  0.1228E+00
     -6.964  0.1339E-01  0.1339E-01  0.1242E+00  0.1242E+00
     -6.860  0.2016E-01  0.2016E-01  0.1263E+00  0.1263E+00
     -6.756  0.2545E-01  0.2545E-01  0.1290E+00  0.1290E+00
     -6.651  0.2640E-01  0.2640E-01  0.1317E+00  0.1317E+00
     -6.547  0.2585E-01  0.2585E-01  0.1344E+00  0.1344E+00
     -6.443  0.2324E-01  0.2324E-01  0.1369E+00  0.1369E+00
     -6.339  0.2956E-01  0.2956E-01  0.1399E+00  0.1399E+00
     -6.234  0.2650E-01  0.2650E-01  0.1427E+00  0.1427E+00
     -6.130  0.1880E-01  0.1880E-01  0.1447E+00  0.1447E+00
     -6.026  0.1662E-01  0.1662E-01  0.1464E+00  0.1464E+00
     -5.922  0.1388E-01  0.1388E-01  0.1478E+00  0.1478E+00
     -5.817  0.1636E-01  0.1636E-01  0.1495E+00  0.1495E+00
     -5.713  0.1981E-01  0.1981E-01  0.1516E+00  0.1516E+00
     -5.609  0.1695E-01  0.1695E-01  0.1534E+00  0.1534E+00
     -5.505  0.7474E-02  0.7474E-02  0.1542E+00  0.1542E+00
     -5.400  0.9495E-02  0.9495E-02  0.1551E+00  0.1551E+00
     -5.296  0.1844E-01  0.1844E-01  0.1571E+00  0.1571E+00
     -5.192  0.1972E-01  0.1972E-01  0.1591E+00  0.1591E+00
     -5.088  0.1314E-01  0.1314E-01  0.1605E+00  0.1605E+00
     -4.983  0.1213E-01  0.1213E-01  0.1618E+00  0.1618E+00
     -4.879  0.1705E-01  0.1705E-01  0.1635E+00  0.1635E+00
     -4.775  0.1305E-01  0.1305E-01  0.1649E+00  0.1649E+00
     -4.671  0.1172E-01  0.1172E-01  0.1661E+00  0.1661E+00
     -4.567  0.1269E-01  0.1269E-01  0.1674E+00  0.1674E+00
     -4.462  0.1381E-01  0.1381E-01  0.1689E+00  0.1689E+00
     -4.358  0.1888E-01  0.1888E-01  0.1708E+00  0.1708E+00
     -4.254  0.1802E-01  0.1802E-01  0.1727E+00  0.1727E+00
     -4.150  0.1783E-01  0.1783E-01  0.1746E+00  0.1746E+00
     -4.045  0.1575E-01  0.1575E-01  0.1762E+00  0.1762E+00
     -3.941  0.2195E-01  0.2195E-01  0.1785E+00  0.1785E+00
     -3.837  0.2442E-01  0.2442E-01  0.1811E+00  0.1811E+00
     -3.733  0.2304E-01  0.2304E-01  0.1835E+00  0.1835E+00
     -3.628  0.2749E-01  0.2749E-01  0.1863E+00  0.1863E+00
     -3.524  0.2814E-01  0.2814E-01  0.1893E+00  0.1893E+00
     -3.420  0.2017E-01  0.2017E-01  0.1914E+00  0.1914E+00
     -3.316  0.1373E-01  0.1373E-01  0.1928E+00  0.1928E+00
     -3.211  0.1431E-01  0.1431E-01  0.1943E+00  0.1943E+00
     -3.107  0.1421E-01  0.1421E-01  0.1958E+00  0.1958E+00
     -3.003  0.1259E-01  0.1259E-01  0.1971E+00  0.1971E+00
     -2.899  0.1351E-01  0.1351E-01  0.1985E+00  0.1985E+00
     -2.794  0.1392E-01  0.1392E-01  0.1999E+00  0.1999E+00
     -2.690  0.8277E-02  0.8277E-02  0.2008E+00  0.2008E+00
     -2.586  0.7734E-02  0.7734E-02  0.2016E+00  0.2016E+00
     -2.482  0.1550E-01  0.1550E-01  0.2032E+00  0.2032E+00
     -2.377  0.1971E-01  0.1971E-01  0.2053E+00  0.2053E+00
     -2.273  0.8428E-02  0.8428E-02  0.2062E+00  0.2062E+00
     -2.169  0.6316E-02  0.6316E-02  0.2068E+00  0.2068E+00
     -2.065  0.9080E-02  0.9080E-02  0.2078E+00  0.2078E+00
     -1.960  0.8378E-02  0.8378E-02  0.2086E+00  0.2086E+00
     -1.856  0.8588E-02  0.8588E-02  0.2095E+00  0.2095E+00
     -1.752  0.1079E-01  0.1079E-01  0.2107E+00  0.2107E+00
     -1.648  0.7496E-02  0.7496E-02  0.2114E+00  0.2114E+00
     -1.543  0.5574E-02  0.5574E-02  0.2120E+00  0.2120E+00
     -1.439  0.9396E-02  0.9396E-02  0.2130E+00  0.2130E+00
     -1.335  0.9081E-02  0.9081E-02  0.2139E+00  0.2139E+00
     -1.231  0.4422E-02  0.4422E-02  0.2144E+00  0.2144E+00
     -1.126  0.6921E-02  0.6921E-02  0.2151E+00  0.2151E+00
     -1.022  0.7030E-02  0.7030E-02  0.2159E+00  0.2159E+00
     -0.918  0.5864E-02  0.5864E-02  0.2165E+00  0.2165E+00
     -0.814  0.6174E-02  0.6174E-02  0.2171E+00  0.2171E+00
     -0.710  0.3126E-02  0.3126E-02  0.2174E+00  0.2174E+00
     -0.605  0.1325E-02  0.1325E-02  0.2176E+00  0.2176E+00
     -0.501  0.2730E-02  0.2730E-02  0.2179E+00  0.2179E+00
     -0.397  0.4732E-02  0.4732E-02  0.2184E+00  0.2184E+00
     -0.293  0.3453E-02  0.3453E-02  0.2187E+00  0.2187E+00
     -0.188  0.1747E-02  0.1747E-02  0.2189E+00  0.2189E+00
     -0.084  0.1963E-02  0.1963E-02  0.2191E+00  0.2191E+00
      0.020  0.3305E-02  0.3305E-02  0.2195E+00  0.2195E+00
      0.124  0.2989E-02  0.2989E-02  0.2198E+00  0.2198E+00
      0.229  0.5363E-02  0.5363E-02  0.2203E+00  0.2203E+00
      0.333  0.7777E-02  0.7777E-02  0.2211E+00  0.2211E+00
      0.437  0.9263E-02  0.9263E-02  0.2221E+00  0.2221E+00
      0.541  0.1028E-01  0.1028E-01  0.2232E+00  0.2232E+00
      0.646  0.8883E-02  0.8883E-02  0.2241E+00  0.2241E+00
      0.750  0.5217E-02  0.5217E-02  0.2246E+00  0.2246E+00
      0.854  0.7662E-02  0.7662E-02  0.2254E+00  0.2254E+00
      0.958  0.1163E-01  0.1163E-01  0.2267E+00  0.2267E+00
      1.063  0.7896E-02  0.7896E-02  0.2275E+00  0.2275E+00
      1.167  0.8720E-02  0.8720E-02  0.2284E+00  0.2284E+00
      1.271  0.1415E-01  0.1415E-01  0.2299E+00  0.2299E+00
      1.375  0.1711E-01  0.1711E-01  0.2316E+00  0.2316E+00
      1.480  0.1408E-01  0.1408E-01  0.2331E+00  0.2331E+00
      1.584  0.1005E-01  0.1005E-01  0.2342E+00  0.2342E+00
      1.688  0.6893E-02  0.6893E-02  0.2349E+00  0.2349E+00
      1.792  0.6667E-02  0.6667E-02  0.2356E+00  0.2356E+00
      1.897  0.9646E-02  0.9646E-02  0.2366E+00  0.2366E+00
      2.001  0.1078E-01  0.1078E-01  0.2377E+00  0.2377E+00
      2.105  0.1190E-01  0.1190E-01  0.2389E+00  0.2389E+00
      2.209  0.9754E-02  0.9754E-02  0.2400E+00  0.2400E+00
      2.314  0.9686E-02  0.9686E-02  0.2410E+00  0.2410E+00
      2.418  0.1291E-01  0.1291E-01  0.2423E+00  0.2423E+00
      2.522  0.5850E-02  0.5850E-02  0.2429E+00  0.2429E+00
      2.626  0.7358E-02  0.7358E-02  0.2437E+00  0.2437E+00
      2.731  0.1431E-01  0.1431E-01  0.2452E+00  0.2452E+00
      2.835  0.1252E-01  0.1252E-01  0.2465E+00  0.2465E+00
      2.939  0.1059E-01  0.1059E-01  0.2476E+00  0.2476E+00
      3.043  0.1226E-01  0.1226E-01  0.2489E+00  0.2489E+00
      3.147  0.1015E-01  0.1015E-01  0.2499E+00  0.2499E+00
      3.252  0.1516E-01  0.1517E-01  0.2515E+00  0.2515E+00
      3.356  0.2006E-01  0.2006E-01  0.2536E+00  0.2536E+00
      3.460  0.1550E-01  0.1550E-01  0.2552E+00  0.2552E+00
      3.564  0.1401E-01  0.1401E-01  0.2567E+00  0.2567E+00
      3.669  0.1517E-01  0.1517E-01  0.2583E+00  0.2583E+00
      3.773  0.1956E-01  0.1956E-01  0.2603E+00  0.2603E+00
      3.877  0.2469E-01  0.2469E-01  0.2629E+00  0.2629E+00
      3.981  0.2279E-01  0.2279E-01  0.2652E+00  0.2652E+00
      4.086  0.1732E-01  0.1732E-01  0.2670E+00  0.2670E+00
      4.190  0.1485E-01  0.1485E-01  0.2686E+00  0.2686E+00
      4.294  0.1814E-01  0.1814E-01  0.2705E+00  0.2705E+00
      4.398  0.2335E-01  0.2336E-01  0.2729E+00  0.2729E+00
      4.503  0.2570E-01  0.2570E-01  0.2756E+00  0.2756E+00
      4.607  0.1971E-01  0.1971E-01  0.2777E+00  0.2777E+00
      4.711  0.2481E-01  0.2481E-01  0.2802E+00  0.2802E+00
      4.815  0.3007E-01  0.3008E-01  0.2834E+00  0.2834E+00
      4.920  0.2532E-01  0.2533E-01  0.2860E+00  0.2860E+00
      5.024  0.1977E-01  0.1976E-01  0.2881E+00  0.2881E+00
      5.128  0.2447E-01  0.2448E-01  0.2906E+00  0.2906E+00
      5.232  0.3046E-01  0.3047E-01  0.2938E+00  0.2938E+00
      5.337  0.2832E-01  0.2830E-01  0.2968E+00  0.2968E+00
      5.441  0.2551E-01  0.2553E-01  0.2994E+00  0.2994E+00
      5.545  0.2740E-01  0.2741E-01  0.3023E+00  0.3023E+00
      5.649  0.2544E-01  0.2542E-01  0.3049E+00  0.3049E+00
      5.754  0.2568E-01  0.2567E-01  0.3076E+00  0.3076E+00
      5.858  0.2450E-01  0.2450E-01  0.3102E+00  0.3102E+00
      5.962  0.2271E-01  0.2270E-01  0.3125E+00  0.3125E+00
      6.066  0.2007E-01  0.2008E-01  0.3146E+00  0.3146E+00
      6.171  0.2092E-01  0.2093E-01  0.3168E+00  0.3168E+00
      6.275  0.2059E-01  0.2057E-01  0.3189E+00  0.3189E+00
      6.379  0.1914E-01  0.1914E-01  0.3209E+00  0.3209E+00
      6.483  0.1915E-01  0.1916E-01  0.3229E+00  0.3229E+00
      6.587  0.2153E-01  0.2154E-01  0.3252E+00  0.3252E+00
      6.692  0.1967E-01  0.1967E-01  0.3272E+00  0.3272E+00
      6.796  0.2354E-01  0.2356E-01  0.3297E+00  0.3297E+00
      6.900  0.3208E-01  0.3209E-01  0.3330E+00  0.3330E+00
      7.004  0.2854E-01  0.2853E-01  0.3360E+00  0.3360E+00
      7.109  0.2752E-01  0.2751E-01  0.3389E+00  0.3389E+00
      7.213  0.2752E-01  0.2753E-01  0.3417E+00  0.3417E+00
      7.317  0.2882E-01  0.2881E-01  0.3447E+00  0.3447E+00
      7.421  0.3237E-01  0.3239E-01  0.3481E+00  0.3481E+00
      7.526  0.3165E-01  0.3166E-01  0.3514E+00  0.3514E+00
      7.630  0.3204E-01  0.3202E-01  0.3548E+00  0.3548E+00
      7.734  0.4388E-01  0.4388E-01  0.3593E+00  0.3593E+00
      7.838  0.3746E-01  0.3746E-01  0.3632E+00  0.3632E+00
      7.943  0.3332E-01  0.3332E-01  0.3667E+00  0.3667E+00
      8.047  0.3245E-01  0.3244E-01  0.3701E+00  0.3701E+00
      8.151  0.2299E-01  0.2298E-01  0.3725E+00  0.3725E+00
      8.255  0.1422E-01  0.1421E-01  0.3740E+00  0.3740E+00
      8.360  0.6151E-02  0.6147E-02  0.3746E+00  0.3746E+00
      8.464  0.2652E-02  0.2651E-02  0.3749E+00  0.3749E+00
      8.568  0.7175E-03  0.7175E-03  0.3750E+00  0.3750E+00
      8.672  0.3012E-03  0.3012E-03  0.3750E+00  0.3750E+00
      8.777  0.8664E-04  0.8661E-04  0.3750E+00  0.3750E+00
      8.881  0.4098E-05  0.4096E-05  0.3750E+00  0.3750E+00
      8.985  0.2643E-07  0.2641E-07  0.3750E+00  0.3750E+00
      9.089  0.2156E-10  0.2153E-10  0.3750E+00  0.3750E+00
      9.194  0.2134E-14  0.2130E-14  0.3750E+00  0.3750E+00
      9.298  0.0000E+00  0.0000E+00  0.3750E+00  0.3750E+00
      9.402  0.0000E+00  0.0000E+00  0.3750E+00  0.3750E+00
      9.506  0.0000E+00  0.0000E+00  0.3750E+00  0.3750E+00
      9.611  0.0000E+00  0.0000E+00  0.3750E+00  0.3750E+00
      9.715  0.0000E+00  0.0000E+00  0.3750E+00  0.3750E+00
      9.819  0.0000E+00  0.0000E+00  0.3750E+00  0.3750E+00
      9.923  0.0000E+00  0.0000E+00  0.3750E+00  0.3750E+00
     10.028  0.0000E+00  0.0000E+00  0.3750E+00  0.3750E+00
