 ----------------------------------------------------
    OOO  PPPP  EEEEE N   N M   M PPPP
   O   O P   P E     NN  N MM MM P   P
   O   O PPPP  EEEEE N N N M M M PPPP   -- VERSION
   O   O P     E     N  NN M   M P
    OOO  P     EEEEE N   N M   M P
 ----------------------------------------------------
 running   48 mpi-ranks, with    1 threads/rank
 distrk:  each k-point on   48 cores,    1 groups
 distr:  one band on    1 cores,   48 groups
 vasp.6.3.2 27Jun22 (build Dec 22 2022 13:13:19) complex                        
  
 POSCAR found type information on POSCAR B C 
 POSCAR found :  2 types and      16 ions
 Reading from existing POTCAR
 -----------------------------------------------------------------------------
|                                                                             |
|           W    W    AA    RRRRR   N    N  II  N    N   GGGG   !!!           |
|           W    W   A  A   R    R  NN   N  II  NN   N  G    G  !!!           |
|           W    W  A    A  R    R  N N  N  II  N N  N  G       !!!           |
|           W WW W  AAAAAA  RRRRR   N  N N  II  N  N N  G  GGG   !            |
|           WW  WW  A    A  R   R   N   NN  II  N   NN  G    G                |
|           W    W  A    A  R    R  N    N  II  N    N   GGGG   !!!           |
|                                                                             |
|     You use a magnetic or noncollinear calculation, but did not specify     |
|     the initial magnetic moment with the MAGMOM tag. Note that a            |
|     default of 1 will be used for all atoms. This ferromagnetic setup       |
|     may break the symmetry of the crystal, in particular it may rule        |
|     out finding an antiferromagnetic solution. Thence, we recommend         |
|     setting the initial magnetic moment manually or verifying carefully     |
|     that this magnetic setup is desired.                                    |
|                                                                             |
 -----------------------------------------------------------------------------

 scaLAPACK will be used
 Reading from existing POTCAR
 LDA part: xc-table for Pade appr. of Perdew
 POSCAR found type information on POSCAR B C 
 POSCAR found :  2 types and      16 ions
 POSCAR, INCAR and KPOINTS ok, starting setup
 FFT: planning ... GRIDC
 FFT: planning ... GRID_SOFT
 FFT: planning ... GRID
 WAVECAR not read
 entering main loop
       N       E                     dE             d eps       ncg     rms          rms(c)
DAV:   1     0.188493656357E+03    0.18849E+03   -0.25482E+04  3648   0.863E+02
DAV:   2    -0.119349249298E+03   -0.30784E+03   -0.30695E+03  5808   0.159E+02
DAV:   3    -0.128476369988E+03   -0.91271E+01   -0.90996E+01  6336   0.364E+01
DAV:   4    -0.128497142847E+03   -0.20773E-01   -0.20773E-01  5616   0.157E+00
DAV:   5    -0.128497171746E+03   -0.28900E-04   -0.28900E-04  5952   0.624E-02    0.231E+01
DAV:   6    -0.947690767359E+02    0.33728E+02   -0.56346E+01  4848   0.216E+01    0.126E+01
DAV:   7    -0.105717811052E+03   -0.10949E+02   -0.14587E+01  5472   0.113E+01    0.679E+00
DAV:   8    -0.111434969111E+03   -0.57172E+01   -0.50214E+00  5328   0.645E+00    0.383E+00
DAV:   9    -0.116621781836E+03   -0.51868E+01   -0.26413E+00  5232   0.460E+00    0.256E+00
DAV:  10    -0.120877326611E+03   -0.42555E+01   -0.33392E+00  5472   0.481E+00    0.135E+00
DAV:  11    -0.122684914627E+03   -0.18076E+01   -0.13931E+00  5280   0.281E+00    0.831E-01
DAV:  12    -0.123694724334E+03   -0.10098E+01   -0.82224E-01  5616   0.197E+00    0.400E-01
DAV:  13    -0.123995925098E+03   -0.30120E+00   -0.18623E-01  5280   0.961E-01    0.196E-01
DAV:  14    -0.124047019475E+03   -0.51094E-01   -0.26320E-02  4560   0.392E-01    0.108E-01
DAV:  15    -0.124070603102E+03   -0.23584E-01   -0.15483E-02  4368   0.298E-01    0.581E-02
DAV:  16    -0.124072317473E+03   -0.17144E-02   -0.21146E-03  4320   0.173E-01    0.379E-02
DAV:  17    -0.124072708307E+03   -0.39083E-03   -0.77007E-04  3984   0.974E-02    0.147E-02
DAV:  18    -0.124072777256E+03   -0.68948E-04   -0.14797E-04  4128   0.459E-02    0.880E-03
DAV:  19    -0.124072843568E+03   -0.66312E-04   -0.34393E-05  3936   0.267E-02    0.533E-03
DAV:  20    -0.124072877394E+03   -0.33827E-04   -0.17455E-05  4032   0.167E-02    0.374E-03
DAV:  21    -0.124072923464E+03   -0.46070E-04   -0.13541E-05  3840   0.140E-02    0.244E-03
DAV:  22    -0.124072947196E+03   -0.23732E-04   -0.42408E-06  4320   0.772E-03    0.138E-03
DAV:  23    -0.124072952348E+03   -0.51520E-05   -0.14168E-06  5376   0.428E-03    0.608E-04
DAV:  24    -0.124072955373E+03   -0.30251E-05   -0.21802E-07  4848   0.152E-03    0.345E-04
DAV:  25    -0.124072957002E+03   -0.16293E-05   -0.13436E-07  4896   0.108E-03    0.180E-04
DAV:  26    -0.124072957384E+03   -0.38190E-06   -0.49568E-08  5472   0.759E-04
   1 F= -.12557920E+03 E0= -.12557618E+03  d E =-.125579E+03  mag=     0.0000
 curvature:   0.00 expect dE= 0.000E+00 dE for cont linesearch  0.000E+00
 trial: gam= 0.00000 g(F)=  0.205E-01 g(S)=  0.000E+00 ort = 0.000E+00 (trialstep = 0.100E+01)
 search vector abs. value=  0.205E-01
 bond charge predicted
       N       E                     dE             d eps       ncg     rms          rms(c)
DAV:   1    -0.124081236735E+03   -0.82797E-02   -0.15497E+00  3744   0.298E+00    0.428E-01
DAV:   2    -0.124073196068E+03    0.80407E-02   -0.37722E-02  5472   0.456E-01    0.186E-01
DAV:   3    -0.124071966125E+03    0.12299E-02   -0.60936E-03  4704   0.165E-01    0.518E-02
DAV:   4    -0.124071921443E+03    0.44683E-04   -0.49075E-04  5952   0.522E-02    0.185E-02
DAV:   5    -0.124071921572E+03   -0.12989E-06   -0.28236E-05  5232   0.128E-02    0.586E-03
DAV:   6    -0.124071923595E+03   -0.20224E-05   -0.71665E-06  3936   0.597E-03    0.199E-03
DAV:   7    -0.124071926060E+03   -0.24654E-05   -0.43151E-07  4896   0.176E-03    0.105E-03
DAV:   8    -0.124071929687E+03   -0.36268E-05   -0.21745E-07  3840   0.868E-04    0.511E-04
DAV:   9    -0.124071933737E+03   -0.40500E-05   -0.34271E-07  3936   0.911E-04    0.322E-04
DAV:  10    -0.124071935602E+03   -0.18646E-05   -0.14496E-07  4272   0.683E-04    0.210E-04
DAV:  11    -0.124071936222E+03   -0.62092E-06   -0.53222E-08  4752   0.483E-04
   2 F= -.12557852E+03 E0= -.12557552E+03  d E =0.681963E-03  mag=    -0.0000
 trial-energy change:    0.000682  1 .order    0.000554   -0.020505    0.021613
 step:   0.4823(harm=  0.4868)  dis= 0.00618  next Energy=  -125.584132 (dE=-0.493E-02)
 bond charge predicted
       N       E                     dE             d eps       ncg     rms          rms(c)
DAV:   1    -0.124080179413E+03   -0.82438E-02   -0.41443E-01  3744   0.155E+00    0.220E-01
DAV:   2    -0.124078055118E+03    0.21243E-02   -0.10131E-02  5232   0.237E-01    0.962E-02
DAV:   3    -0.124077730027E+03    0.32509E-03   -0.16813E-03  6240   0.861E-02    0.265E-02
DAV:   4    -0.124077717944E+03    0.12083E-04   -0.11580E-04  5136   0.254E-02    0.988E-03
DAV:   5    -0.124077718017E+03   -0.72892E-07   -0.76216E-06  6336   0.680E-03
   3 F= -.12558413E+03 E0= -.12558112E+03  d E =-.492669E-02  mag=    -0.0000
 curvature:  -0.24 expect dE=-0.144E-04 dE for cont linesearch -0.186E-06
 ZBRENT: interpolating
 opt :   0.4853  next Energy=  -125.584129 (dE=-0.493E-02)
 bond charge predicted
       N       E                     dE             d eps       ncg     rms          rms(c)
DAV:   1    -0.124077717170E+03    0.77375E-06   -0.83702E-06  3984   0.787E-03    0.154E-03
DAV:   2    -0.124077717393E+03   -0.22315E-06   -0.39876E-07  4704   0.138E-03
   4 F= -.12558413E+03 E0= -.12558112E+03  d E =-.492707E-02  mag=     0.0000
 curvature:  -0.24 expect dE=-0.147E-04 dE for cont linesearch -0.102E-06
 ZBRENT: interpolating
 opt :   0.4840  next Energy=  -125.584129 (dE=-0.493E-02)
 bond charge predicted
       N       E                     dE             d eps       ncg     rms          rms(c)
DAV:   1    -0.124077718294E+03   -0.11239E-05   -0.30816E-06  4032   0.413E-03    0.620E-04
DAV:   2    -0.124077718488E+03   -0.19446E-06   -0.88863E-08  5040   0.816E-04
   5 F= -.12558413E+03 E0= -.12558112E+03  d E =-.492774E-02  mag=     0.0000
 curvature:  -0.14 expect dE=-0.841E-05 dE for cont linesearch -0.332E-07
 ZBRENT: bisectioning
 opt :   0.4832  next Energy=  -125.584130 (dE=-0.493E-02)
 bond charge predicted
       N       E                     dE             d eps       ncg     rms          rms(c)
DAV:   1    -0.124077719023E+03   -0.72964E-06   -0.10351E-06  4176   0.253E-03    0.464E-04
DAV:   2    -0.124077719133E+03   -0.10942E-06   -0.30945E-08  5328   0.489E-04
   6 F= -.12558413E+03 E0= -.12558112E+03  d E =-.492809E-02  mag=     0.0000
 curvature:  -0.22 expect dE=-0.134E-04 dE for cont linesearch -0.113E-07
 ZBRENT: bisectioning
 opt :   0.4827  next Energy=  -125.584130 (dE=-0.493E-02)
 bond charge predicted
       N       E                     dE             d eps       ncg     rms          rms(c)
DAV:   1    -0.124077719413E+03   -0.38935E-06   -0.24242E-07  4032   0.127E-03    0.262E-04
DAV:   2    -0.124077719472E+03   -0.58750E-07   -0.87156E-09  5712   0.309E-04
   7 F= -.12558413E+03 E0= -.12558112E+03  d E =-.492829E-02  mag=     0.0000
 curvature:  -0.19 expect dE=-0.115E-04 dE for cont linesearch -0.106E-08
 trial: gam= 0.00341 g(F)=  0.594E-04 g(S)=  0.000E+00 ort =-0.106E-04 (trialstep = 0.897E+00)
 search vector abs. value=  0.595E-04
 bond charge predicted
       N       E                     dE             d eps       ncg     rms          rms(c)
DAV:   1    -0.124077727768E+03   -0.83552E-05   -0.47404E-03  3648   0.254E-01    0.126E-02
DAV:   2    -0.124077726307E+03    0.14609E-05   -0.54997E-05  3936   0.290E-02    0.768E-03
DAV:   3    -0.124077725636E+03    0.67104E-06   -0.73749E-06  4128   0.934E-03
   8 F= -.12558418E+03 E0= -.12558118E+03  d E =-.533059E-04  mag=     0.0000
 ZBRENT: can't locate minimum, use default step
 trial-energy change:   -0.000053  1 .order   -0.000052   -0.000053   -0.000051
 step:   3.5862(harm= 25.2558)  dis= 0.00219  next Energy=  -125.584880 (dE=-0.749E-03)
 bond charge predicted
       N       E                     dE             d eps       ncg     rms          rms(c)
DAV:   1    -0.124077765170E+03   -0.38863E-04   -0.42828E-02  3648   0.764E-01    0.385E-02
DAV:   2    -0.124077751613E+03    0.13556E-04   -0.48929E-04  3840   0.871E-02    0.234E-02
DAV:   3    -0.124077744584E+03    0.70297E-05   -0.67181E-05  4704   0.282E-02    0.565E-03
DAV:   4    -0.124077745025E+03   -0.44158E-06   -0.82394E-06  4128   0.995E-03
   9 F= -.12558434E+03 E0= -.12558134E+03  d E =-.214323E-03  mag=    -0.0000
 curvature:  -2.64 expect dE=-0.172E-03 dE for cont linesearch -0.155E-03
 ZBRENT: increasing intervall
 opt :   8.9654  next Energy=  -125.584673 (dE=-0.542E-03)
 bond charge predicted
       N       E                     dE             d eps       ncg     rms          rms(c)
DAV:   1    -0.124077855995E+03   -0.11141E-03   -0.17080E-01  3648   0.153E+00    0.757E-02
DAV:   2    -0.124077804855E+03    0.51140E-04   -0.19612E-03  3840   0.174E-01    0.460E-02
DAV:   3    -0.124077774144E+03    0.30711E-04   -0.26485E-04  4704   0.559E-02    0.112E-02
DAV:   4    -0.124077775448E+03   -0.13044E-05   -0.31467E-05  4800   0.196E-02    0.472E-03
DAV:   5    -0.124077776011E+03   -0.56319E-06   -0.18999E-06  3648   0.532E-03
  10 F= -.12558466E+03 E0= -.12558165E+03  d E =-.529485E-03  mag=    -0.0000
 curvature:  -5.59 expect dE=-0.530E-03 dE for cont linesearch -0.313E-03
 ZBRENT: increasing intervall
 opt :  19.7240  next Energy=  -125.585267 (dE=-0.114E-02)
 bond charge predicted
       N       E                     dE             d eps       ncg     rms          rms(c)
DAV:   1    -0.124078143730E+03   -0.36828E-03   -0.68301E-01  3648   0.305E+00    0.151E-01
DAV:   2    -0.124077955910E+03    0.18782E-03   -0.78493E-03  3648   0.348E-01    0.921E-02
DAV:   3    -0.124077823219E+03    0.13269E-03   -0.10682E-03  4752   0.112E-01    0.226E-02
DAV:   4    -0.124077826003E+03   -0.27837E-05   -0.12194E-04  5616   0.383E-02    0.953E-03
DAV:   5    -0.124077825255E+03    0.74748E-06   -0.59383E-06  3840   0.858E-03
  11 F= -.12558528E+03 E0= -.12558227E+03  d E =-.115077E-02  mag=    -0.0000
 curvature: -10.83 expect dE=-0.260E-02 dE for cont linesearch -0.573E-03
 ZBRENT: increasing intervall
 opt :  41.2411  next Energy=  -125.586453 (dE=-0.232E-02)
 bond charge predicted
       N       E                     dE             d eps       ncg     rms          rms(c)
DAV:   1    -0.124079166321E+03   -0.13403E-02   -0.27320E+00  3648   0.610E+00    0.303E-01
DAV:   2    -0.124078406388E+03    0.75993E-03   -0.31456E-02  4128   0.696E-01    0.183E-01
DAV:   3    -0.124077886859E+03    0.51953E-03   -0.42210E-03  4560   0.222E-01    0.445E-02
DAV:   4    -0.124077892353E+03   -0.54943E-05   -0.49344E-04  5856   0.777E-02    0.191E-02
DAV:   5    -0.124077885973E+03    0.63807E-05   -0.21165E-05  4272   0.156E-02    0.455E-03
DAV:   6    -0.124077885552E+03    0.42086E-06   -0.44630E-06  4800   0.760E-03
  12 F= -.12558650E+03 E0= -.12558349E+03  d E =-.237012E-02  mag=    -0.0000
 curvature: -22.16 expect dE=-0.193E-01 dE for cont linesearch -0.116E-02
 ZBRENT: increasing intervall
 opt :  84.2752  next Energy=  -125.588884 (dE=-0.475E-02)
 bond charge predicted
       N       E                     dE             d eps       ncg     rms          rms(c)
DAV:   1    -0.124083014825E+03   -0.51289E-02   -0.10922E+01  3648   0.122E+01    0.606E-01
DAV:   2    -0.124080067049E+03    0.29478E-02   -0.12638E-01  4608   0.139E+00    0.367E-01
DAV:   3    -0.124077893000E+03    0.21740E-02   -0.16955E-02  5472   0.439E-01    0.877E-02
DAV:   4    -0.124077900674E+03   -0.76739E-05   -0.17375E-03  5472   0.150E-01    0.390E-02
DAV:   5    -0.124077864721E+03    0.35953E-04   -0.85629E-05  4560   0.302E-02    0.750E-03
DAV:   6    -0.124077864292E+03    0.42873E-06   -0.18568E-05  5088   0.135E-02    0.453E-03
DAV:   7    -0.124077870871E+03   -0.65783E-05   -0.45458E-06  4176   0.828E-03    0.248E-03
DAV:   8    -0.124077886630E+03   -0.15760E-04   -0.41796E-06  4416   0.629E-03    0.192E-03
DAV:   9    -0.124077896963E+03   -0.10333E-04   -0.18595E-06  4896   0.473E-03    0.983E-04
DAV:  10    -0.124077910515E+03   -0.13552E-04   -0.50347E-06  4128   0.876E-03    0.612E-04
DAV:  11    -0.124077913038E+03   -0.25227E-05   -0.39694E-06  4848   0.841E-03    0.532E-04
DAV:  12    -0.124077917372E+03   -0.43340E-05   -0.12126E-06  4032   0.381E-03    0.191E-04
DAV:  13    -0.124077917739E+03   -0.36723E-06   -0.17876E-07  6000   0.166E-03
  13 F= -.12558891E+03 E0= -.12558590E+03  d E =-.478121E-02  mag=     0.0000
 curvature: -45.67 expect dE=-0.158E+00 dE for cont linesearch -0.225E-02
 ZBRENT: increasing intervall
 opt : 170.3435  next Energy=  -125.593447 (dE=-0.932E-02)
 bond charge predicted
       N       E                     dE             d eps       ncg     rms          rms(c)
DAV:   1    -0.124096572800E+03   -0.18655E-01   -0.43593E+01  3648   0.244E+01    0.121E+00
DAV:   2    -0.124085949924E+03    0.10623E-01   -0.51318E-01  4128   0.281E+00    0.737E-01
DAV:   3    -0.124077379189E+03    0.85707E-02   -0.68992E-02  6240   0.888E-01    0.178E-01
DAV:   4    -0.124077365874E+03    0.13314E-04   -0.59737E-03  5568   0.279E-01    0.803E-02
DAV:   5    -0.124077254292E+03    0.11158E-03   -0.33825E-04  4848   0.566E-02    0.155E-02
DAV:   6    -0.124077240693E+03    0.13599E-04   -0.71062E-05  5616   0.224E-02    0.727E-03
DAV:   7    -0.124077263014E+03   -0.22320E-04   -0.11973E-05  4032   0.955E-03    0.394E-03
DAV:   8    -0.124077285152E+03   -0.22139E-04   -0.34735E-06  4992   0.452E-03    0.331E-03
DAV:   9    -0.124077303207E+03   -0.18055E-04   -0.16420E-06  4560   0.319E-03    0.164E-03
DAV:  10    -0.124077324961E+03   -0.21754E-04   -0.26622E-06  4368   0.337E-03    0.105E-03
DAV:  11    -0.124077335311E+03   -0.10351E-04   -0.13394E-06  4704   0.311E-03    0.530E-04
DAV:  12    -0.124077341428E+03   -0.61164E-05   -0.13515E-06  4320   0.378E-03    0.238E-04
DAV:  13    -0.124077342316E+03   -0.88858E-06   -0.43958E-07  5232   0.269E-03
  14 F= -.12559335E+03 E0= -.12559033E+03  d E =-.922023E-02  mag=    -0.0000
 curvature: -91.86 expect dE=-0.129E+01 dE for cont linesearch -0.370E-02
 ZBRENT: increasing intervall
 opt : 342.4801  next Energy=  -125.600873 (dE=-0.167E-01)
 bond charge predicted
       N       E                     dE             d eps       ncg     rms          rms(c)
DAV:   1    -0.124141319113E+03   -0.63978E-01   -0.17324E+02  3648   0.486E+01    0.240E+00
DAV:   2    -0.124107935685E+03    0.33383E-01   -0.21287E+00  4512   0.579E+00    0.148E+00
DAV:   3    -0.124073895333E+03    0.34040E-01   -0.26254E-01  5952   0.173E+00    0.379E-01
DAV:   4    -0.124074066044E+03   -0.17071E-03   -0.23179E-02  5664   0.547E-01    0.165E-01
DAV:   5    -0.124073523265E+03    0.54278E-03   -0.14294E-03  5664   0.108E-01    0.342E-02
DAV:   6    -0.124073463178E+03    0.60087E-04   -0.26873E-04  5328   0.434E-02    0.152E-02
DAV:   7    -0.124073526421E+03   -0.63243E-04   -0.48586E-05  4224   0.196E-02    0.811E-03
DAV:   8    -0.124073579163E+03   -0.52743E-04   -0.13511E-05  4800   0.952E-03    0.710E-03
DAV:   9    -0.124073621674E+03   -0.42511E-04   -0.63537E-06  4848   0.659E-03    0.342E-03
DAV:  10    -0.124073669776E+03   -0.48102E-04   -0.74815E-06  4896   0.627E-03    0.189E-03
DAV:  11    -0.124073694191E+03   -0.24415E-04   -0.43636E-06  4896   0.615E-03    0.115E-03
DAV:  12    -0.124073704032E+03   -0.98417E-05   -0.35882E-06  4464   0.736E-03    0.512E-04
DAV:  13    -0.124073706810E+03   -0.27778E-05   -0.13643E-06  5232   0.486E-03    0.225E-04
DAV:  14    -0.124073708496E+03   -0.16859E-05   -0.26704E-07  4752   0.178E-03    0.957E-05
DAV:  15    -0.124073708808E+03   -0.31178E-06   -0.41539E-08  5280   0.741E-04
  15 F= -.12560086E+03 E0= -.12559777E+03  d E =-.167291E-01  mag=     0.0000
 curvature: ****** expect dE=-0.106E+02 dE for cont linesearch -0.456E-02
 ZBRENT: increasing intervall
 opt : 686.7533  next Energy=  -125.610255 (dE=-0.261E-01)
 bond charge predicted
       N       E                     dE             d eps       ncg     rms          rms(c)
DAV:   1    -0.124216393988E+03   -0.14269E+00   -0.67529E+02  3648   0.955E+01    0.470E+00
DAV:   2    -0.124191852710E+03    0.24541E-01   -0.93700E+00  4032   0.125E+01    0.298E+00
DAV:   3    -0.124055711617E+03    0.13614E+00   -0.93075E-01  6528   0.330E+00    0.938E-01
DAV:   4    -0.124056776504E+03   -0.10649E-02   -0.71531E-02  5520   0.989E-01    0.338E-01
DAV:   5    -0.124054903277E+03    0.18732E-02   -0.77239E-03  5760   0.224E-01    0.602E-02
DAV:   6    -0.124054680656E+03    0.22262E-03   -0.76670E-04  6480   0.769E-02    0.299E-02
DAV:   7    -0.124054841397E+03   -0.16074E-03   -0.22537E-04  4032   0.436E-02    0.149E-02
DAV:   8    -0.124054974608E+03   -0.13321E-03   -0.50105E-05  4800   0.166E-02    0.140E-02
DAV:   9    -0.124055066212E+03   -0.91604E-04   -0.16369E-05  4848   0.966E-03    0.770E-03
DAV:  10    -0.124055153021E+03   -0.86808E-04   -0.18127E-05  4656   0.101E-02    0.405E-03
DAV:  11    -0.124055209572E+03   -0.56551E-04   -0.12562E-05  5088   0.714E-03    0.244E-03
DAV:  12    -0.124055223458E+03   -0.13886E-04   -0.16419E-06  5664   0.295E-03    0.101E-03
DAV:  13    -0.124055228756E+03   -0.52972E-05   -0.34837E-07  5280   0.138E-03    0.457E-04
DAV:  14    -0.124055232226E+03   -0.34706E-05   -0.19633E-07  4560   0.895E-04    0.200E-04
DAV:  15    -0.124055234309E+03   -0.20828E-05   -0.15614E-07  4896   0.627E-04    0.813E-05
DAV:  16    -0.124055234666E+03   -0.35663E-06   -0.16128E-08  5040   0.219E-04
  16 F= -.12561001E+03 E0= -.12560635E+03  d E =-.258749E-01  mag=     0.0000
 curvature: ****** expect dE=-0.882E+02 dE for cont linesearch -0.137E-02
 ZBRENT: increasing intervall
 opt : ********  next Energy=  -125.603830 (dE=-0.197E-01)
 bond charge predicted
       N       E                     dE             d eps       ncg     rms          rms(c)
DAV:   1    -0.123496463210E+03    0.55877E+00   -0.24360E+03  3648   0.176E+02    0.910E+00
DAV:   2    -0.124538603037E+03   -0.10421E+01   -0.45770E+01  4032   0.284E+01    0.589E+00
DAV:   3    -0.124029508606E+03    0.50909E+00   -0.25633E+00  7008   0.567E+00    0.278E+00
DAV:   4    -0.123967058335E+03    0.62450E-01   -0.40324E-01  6048   0.227E+00    0.648E-01
DAV:   5    -0.123962523861E+03    0.45345E-02   -0.33092E-02  5952   0.564E-01    0.141E-01
DAV:   6    -0.123961188474E+03    0.13354E-02   -0.37004E-03  6816   0.168E-01    0.688E-02
DAV:   7    -0.123961201488E+03   -0.13014E-04   -0.11999E-03  4704   0.102E-01    0.300E-02
DAV:   8    -0.123961561874E+03   -0.36039E-03   -0.28470E-04  4800   0.437E-02    0.227E-02
DAV:   9    -0.123961783121E+03   -0.22125E-03   -0.10676E-04  3936   0.262E-02    0.144E-02
DAV:  10    -0.123961875511E+03   -0.92390E-04   -0.28468E-05  5760   0.135E-02    0.112E-02
DAV:  11    -0.123961949548E+03   -0.74037E-04   -0.29123E-05  4608   0.119E-02    0.429E-03
DAV:  12    -0.123961978091E+03   -0.28543E-04   -0.54513E-06  5520   0.587E-03    0.252E-03
DAV:  13    -0.123961989795E+03   -0.11704E-04   -0.13091E-06  5856   0.296E-03    0.179E-03
DAV:  14    -0.123961995077E+03   -0.52825E-05   -0.34868E-07  5568   0.145E-03    0.843E-04
DAV:  15    -0.123961998478E+03   -0.34010E-05   -0.21139E-07  4224   0.103E-03    0.211E-04
DAV:  16    -0.123961999601E+03   -0.11227E-05   -0.53411E-08  5760   0.447E-04    0.189E-04
DAV:  17    -0.123962000091E+03   -0.48999E-06   -0.19143E-08  4848   0.220E-04
  17 F= -.12560225E+03 E0= -.12559961E+03  d E =-.181195E-01  mag=     0.0000
 curvature: ****** expect dE= 0.164E+04 dE for cont linesearch  0.838E-01
 ZBRENT: bracketing found
 ZBRENT: interpolating
 opt : 833.7748  next Energy=  -125.611077 (dE=-0.269E-01)
 bond charge predicted
       N       E                     dE             d eps       ncg     rms          rms(c)
DAV:   1    -0.124010530019E+03   -0.48530E-01   -0.15856E+03  3648   0.145E+02    0.728E+00
DAV:   2    -0.124390676840E+03   -0.38015E+00   -0.26354E+01  3648   0.216E+01    0.469E+00
DAV:   3    -0.124061694624E+03    0.32898E+00   -0.17856E+00  6720   0.472E+00    0.197E+00
DAV:   4    -0.124045291970E+03    0.16403E-01   -0.20852E-01  5664   0.171E+00    0.522E-01
DAV:   5    -0.124042612686E+03    0.26793E-02   -0.26018E-02  6528   0.468E-01    0.946E-02
DAV:   6    -0.124042058403E+03    0.55428E-03   -0.13065E-03  4656   0.107E-01    0.568E-02
DAV:   7    -0.124041741456E+03    0.31695E-03   -0.86055E-04  5088   0.798E-02    0.234E-02
DAV:   8    -0.124041804212E+03   -0.62755E-04   -0.75069E-05  3648   0.231E-02    0.133E-02
DAV:   9    -0.124041960238E+03   -0.15603E-03   -0.50874E-05  4320   0.194E-02    0.101E-02
DAV:  10    -0.124042065921E+03   -0.10568E-03   -0.47996E-06  4128   0.701E-03    0.772E-03
DAV:  11    -0.124042207831E+03   -0.14191E-03   -0.10208E-05  5040   0.836E-03    0.252E-03
DAV:  12    -0.124042243602E+03   -0.35771E-04   -0.13434E-06  4992   0.359E-03    0.174E-03
DAV:  13    -0.124042261531E+03   -0.17929E-04   -0.54374E-07  5280   0.217E-03    0.810E-04
DAV:  14    -0.124042265829E+03   -0.42974E-05   -0.13869E-07  5568   0.117E-03    0.263E-04
DAV:  15    -0.124042267001E+03   -0.11728E-05   -0.30592E-08  5616   0.558E-04    0.129E-04
DAV:  16    -0.124042267605E+03   -0.60396E-06   -0.26852E-08  5280   0.436E-04
  18 F= -.12561145E+03 E0= -.12560741E+03  d E =-.273236E-01  mag=     0.0000
 curvature: -22.13 expect dE=-0.752E+01 dE for cont linesearch -0.990E-05
 trial: gam=******** g(F)=  0.340E+00 g(S)=  0.000E+00 ort = 0.516E-05 (trialstep = 0.511E-05)
 search vector abs. value=  0.195E+04
 bond charge predicted
       N       E                     dE             d eps       ncg     rms          rms(c)
DAV:   1    -0.124042266524E+03    0.47777E-06   -0.50464E-06  5808   0.831E-03    0.416E-04
DAV:   2    -0.124042266525E+03   -0.10905E-08   -0.52208E-08  5808   0.911E-04
  19 F= -.12561146E+03 E0= -.12560741E+03  d E =-.197988E-05  mag=    -0.0000
 ZBRENT: can't locate minimum, use default step
 trial-energy change:   -0.000002  1 .order   -0.000002   -0.000002   -0.000002
 step:   0.0000(harm=  0.0000)  dis= 0.00007  next Energy=  -125.611462 (dE=-0.759E-05)
 bond charge predicted
       N       E                     dE             d eps       ncg     rms          rms(c)
DAV:   1    -0.124042263040E+03    0.34838E-05   -0.44624E-05  4992   0.248E-02    0.128E-03
DAV:   2    -0.124042263017E+03    0.22507E-07   -0.45956E-07  6432   0.264E-03
  20 F= -.12561146E+03 E0= -.12560742E+03  d E =-.765445E-05  mag=    -0.0000
 curvature:  -0.08 expect dE=-0.276E-01 dE for cont linesearch -0.575E-05
 ZBRENT: increasing intervall
 opt :   0.0001  next Energy=  -125.611473 (dE=-0.191E-04)
 bond charge predicted
       N       E                     dE             d eps       ncg     rms          rms(c)
DAV:   1    -0.124042256055E+03    0.69847E-05   -0.17675E-04  3648   0.494E-02    0.257E-03
DAV:   2    -0.124042255983E+03    0.72295E-07   -0.20242E-06  4848   0.564E-03
  21 F= -.12561147E+03 E0= -.12560743E+03  d E =-.189860E-04  mag=    -0.0000
 curvature:  -0.16 expect dE=-0.549E-01 dE for cont linesearch -0.116E-04
 ZBRENT: increasing intervall
 opt :   0.0001  next Energy=  -125.611496 (dE=-0.420E-04)
 bond charge predicted
       N       E                     dE             d eps       ncg     rms          rms(c)
DAV:   1    -0.124042242208E+03    0.13847E-04   -0.70773E-04  3648   0.989E-02    0.517E-03
DAV:   2    -0.124042241873E+03    0.33518E-06   -0.80278E-06  4416   0.113E-02
  22 F= -.12561150E+03 E0= -.12560745E+03  d E =-.416162E-04  mag=    -0.0000
 curvature:  -0.32 expect dE=-0.109E+00 dE for cont linesearch -0.234E-04
 ZBRENT: increasing intervall
 opt :   0.0002  next Energy=  -125.611542 (dE=-0.883E-04)
 bond charge predicted
       N       E                     dE             d eps       ncg     rms          rms(c)
DAV:   1    -0.124042214935E+03    0.27273E-04   -0.28322E-03  3648   0.198E-01    0.103E-02
DAV:   2    -0.124042213737E+03    0.11986E-05   -0.32046E-05  4608   0.225E-02    0.633E-03
DAV:   3    -0.124042213559E+03    0.17801E-06   -0.42073E-06  4032   0.705E-03
  23 F= -.12561154E+03 E0= -.12560749E+03  d E =-.868150E-04  mag=    -0.0000
 curvature:  -0.64 expect dE=-0.218E+00 dE for cont linesearch -0.428E-04
 ZBRENT: increasing intervall
 opt :   0.0005  next Energy=  -125.611625 (dE=-0.171E-03)
 bond charge predicted
       N       E                     dE             d eps       ncg     rms          rms(c)
DAV:   1    -0.124042162429E+03    0.51308E-04   -0.11665E-02  3648   0.399E-01    0.203E-02
DAV:   2    -0.124042158110E+03    0.43194E-05   -0.13496E-04  4512   0.458E-02    0.123E-02
DAV:   3    -0.124042156561E+03    0.15484E-05   -0.17515E-05  4896   0.142E-02    0.300E-03
DAV:   4    -0.124042156874E+03   -0.31324E-06   -0.22397E-06  3936   0.527E-03
  24 F= -.12561163E+03 E0= -.12560758E+03  d E =-.177285E-03  mag=     0.0000
 curvature:  -1.27 expect dE=-0.432E+00 dE for cont linesearch -0.890E-04
 ZBRENT: increasing intervall
 opt :   0.0010  next Energy=  -125.611817 (dE=-0.363E-03)
 bond charge predicted
       N       E                     dE             d eps       ncg     rms          rms(c)
DAV:   1    -0.124042064672E+03    0.91890E-04   -0.46402E-02  3648   0.797E-01    0.396E-02
DAV:   2    -0.124042049807E+03    0.14865E-04   -0.54145E-04  4272   0.919E-02    0.240E-02
DAV:   3    -0.124042042084E+03    0.77231E-05   -0.71365E-05  4896   0.287E-02    0.591E-03
DAV:   4    -0.124042042772E+03   -0.68839E-06   -0.86540E-06  4176   0.105E-02
  25 F= -.12561181E+03 E0= -.12560775E+03  d E =-.358016E-03  mag=     0.0000
 curvature:  -2.65 expect dE=-0.907E+00 dE for cont linesearch -0.187E-03
 ZBRENT: increasing intervall
 opt :   0.0020  next Energy=  -125.612178 (dE=-0.724E-03)
 bond charge predicted
       N       E                     dE             d eps       ncg     rms          rms(c)
DAV:   1    -0.124041896815E+03    0.14527E-03   -0.18555E-01  3648   0.159E+00    0.790E-02
DAV:   2    -0.124041842444E+03    0.54370E-04   -0.21646E-03  3648   0.184E-01    0.484E-02
DAV:   3    -0.124041812061E+03    0.30383E-04   -0.30117E-04  5424   0.597E-02    0.118E-02
DAV:   4    -0.124041813460E+03   -0.13988E-05   -0.32954E-05  4224   0.207E-02    0.516E-03
DAV:   5    -0.124041814372E+03   -0.91214E-06   -0.33094E-06  3840   0.818E-03
  26 F= -.12561218E+03 E0= -.12560810E+03  d E =-.721361E-03  mag=    -0.0000
 curvature:  -5.18 expect dE=-0.178E+01 dE for cont linesearch -0.355E-03
 ZBRENT: increasing intervall
 opt :   0.0039  next Energy=  -125.612883 (dE=-0.143E-02)
 bond charge predicted
       N       E                     dE             d eps       ncg     rms          rms(c)
DAV:   1    -0.124041689264E+03    0.12420E-03   -0.74204E-01  3648   0.319E+00    0.158E-01
DAV:   2    -0.124041483547E+03    0.20572E-03   -0.86453E-03  3744   0.367E-01    0.963E-02
DAV:   3    -0.124041347408E+03    0.13614E-03   -0.11734E-03  4080   0.119E-01    0.239E-02
DAV:   4    -0.124041351809E+03   -0.44005E-05   -0.15335E-04  6048   0.421E-02    0.100E-02
DAV:   5    -0.124041351651E+03    0.15790E-06   -0.52304E-06  4080   0.821E-03
  27 F= -.12561290E+03 E0= -.12560881E+03  d E =-.145050E-02  mag=     0.0000
 curvature: -10.32 expect dE=-0.359E+01 dE for cont linesearch -0.692E-03
 ZBRENT: increasing intervall
 opt :   0.0078  next Energy=  -125.614310 (dE=-0.286E-02)
 bond charge predicted
       N       E                     dE             d eps       ncg     rms          rms(c)
DAV:   1    -0.124041762352E+03   -0.41054E-03   -0.29677E+00  3648   0.637E+00    0.316E-01
DAV:   2    -0.124040941708E+03    0.82064E-03   -0.34693E-02  4224   0.732E-01    0.192E-01
DAV:   3    -0.124040411962E+03    0.52975E-03   -0.45668E-03  4608   0.230E-01    0.471E-02
DAV:   4    -0.124040415605E+03   -0.36431E-05   -0.53943E-04  5904   0.806E-02    0.201E-02
DAV:   5    -0.124040410485E+03    0.51201E-05   -0.21674E-05  4752   0.152E-02    0.395E-03
DAV:   6    -0.124040411000E+03   -0.51500E-06   -0.59362E-06  5376   0.764E-03
  28 F= -.12561438E+03 E0= -.12561023E+03  d E =-.292708E-02  mag=     0.0000
 curvature: -20.93 expect dE=-0.748E+01 dE for cont linesearch -0.156E-02
 ZBRENT: increasing intervall
 opt :   0.0157  next Energy=  -125.617532 (dE=-0.608E-02)
 bond charge predicted
       N       E                     dE             d eps       ncg     rms          rms(c)
DAV:   1    -0.124043982074E+03   -0.35716E-02   -0.11858E+01  3648   0.127E+01    0.634E-01
DAV:   2    -0.124040751442E+03    0.32306E-02   -0.13942E-01  4896   0.146E+00    0.383E-01
DAV:   3    -0.124038481729E+03    0.22697E-02   -0.17776E-02  5376   0.446E-01    0.935E-02
DAV:   4    -0.124038491435E+03   -0.97057E-05   -0.18503E-03  6096   0.153E-01    0.405E-02
DAV:   5    -0.124038461856E+03    0.29579E-04   -0.92430E-05  5472   0.322E-02    0.794E-03
DAV:   6    -0.124038461409E+03    0.44693E-06   -0.23705E-05  5232   0.184E-02    0.462E-03
DAV:   7    -0.124038466278E+03   -0.48688E-05   -0.84777E-06  4272   0.128E-02    0.247E-03
DAV:   8    -0.124038477380E+03   -0.11102E-04   -0.35881E-06  4848   0.714E-03    0.187E-03
DAV:   9    -0.124038487244E+03   -0.98644E-05   -0.13253E-06  5376   0.374E-03    0.918E-04
DAV:  10    -0.124038495121E+03   -0.78765E-05   -0.13517E-06  5232   0.418E-03    0.613E-04
DAV:  11    -0.124038499244E+03   -0.41232E-05   -0.65591E-07  5568   0.305E-03    0.465E-04
DAV:  12    -0.124038502661E+03   -0.34171E-05   -0.35814E-07  4464   0.177E-03    0.207E-04
DAV:  13    -0.124038504098E+03   -0.14369E-05   -0.11556E-07  5136   0.888E-04    0.830E-05
DAV:  14    -0.124038504775E+03   -0.67740E-06   -0.40438E-08  4896   0.347E-04
  29 F= -.12561745E+03 E0= -.12561323E+03  d E =-.599363E-02  mag=     0.0000
 curvature: -42.22 expect dE=-0.158E+02 dE for cont linesearch -0.336E-02
 ZBRENT: increasing intervall
 opt :   0.0314  next Energy=  -125.623837 (dE=-0.124E-01)
 bond charge predicted
       N       E                     dE             d eps       ncg     rms          rms(c)
DAV:   1    -0.124054635333E+03   -0.16131E-01   -0.47303E+01  3648   0.254E+01    0.126E+00
DAV:   2    -0.124043118556E+03    0.11517E-01   -0.56859E-01  4224   0.297E+00    0.771E-01
DAV:   3    -0.124034385566E+03    0.87330E-02   -0.73776E-02  6240   0.916E-01    0.192E-01
DAV:   4    -0.124034366809E+03    0.18757E-04   -0.67792E-03  6144   0.290E-01    0.842E-02
DAV:   5    -0.124034281938E+03    0.84871E-04   -0.35124E-04  6048   0.585E-02    0.168E-02
DAV:   6    -0.124034270676E+03    0.11262E-04   -0.72678E-05  5280   0.231E-02    0.771E-03
DAV:   7    -0.124034295100E+03   -0.24424E-04   -0.10652E-05  4416   0.997E-03    0.388E-03
DAV:   8    -0.124034314541E+03   -0.19441E-04   -0.22238E-06  4608   0.343E-03    0.314E-03
DAV:   9    -0.124034333284E+03   -0.18743E-04   -0.19223E-06  5088   0.283E-03    0.143E-03
DAV:  10    -0.124034349010E+03   -0.15726E-04   -0.18335E-06  5472   0.249E-03    0.988E-04
DAV:  11    -0.124034359249E+03   -0.10239E-04   -0.12308E-06  5184   0.205E-03    0.438E-04
DAV:  12    -0.124034363290E+03   -0.40409E-05   -0.33742E-07  5424   0.109E-03    0.200E-04
DAV:  13    -0.124034364353E+03   -0.10628E-05   -0.43686E-08  5472   0.464E-04    0.973E-05
DAV:  14    -0.124034365313E+03   -0.95962E-06   -0.59280E-08  4896   0.379E-04
  30 F= -.12562383E+03 E0= -.12561964E+03  d E =-.123757E-01  mag=     0.0000
 curvature: -80.23 expect dE=-0.331E+02 dE for cont linesearch -0.713E-02
 ZBRENT: increasing intervall
 opt :   0.0628  next Energy=  -125.637607 (dE=-0.262E-01)
 bond charge predicted
       N       E                     dE             d eps       ncg     rms          rms(c)
DAV:   1    -0.124096251827E+03   -0.61887E-01   -0.18768E+02  3648   0.506E+01    0.251E+00
DAV:   2    -0.124059766955E+03    0.36485E-01   -0.23589E+00  4608   0.609E+00    0.155E+00
DAV:   3    -0.124024492282E+03    0.35275E-01   -0.27798E-01  6624   0.177E+00    0.415E-01
DAV:   4    -0.124024594640E+03   -0.10236E-03   -0.22638E-02  5952   0.539E-01    0.174E-01
DAV:   5    -0.124024061460E+03    0.53318E-03   -0.16485E-03  6048   0.113E-01    0.353E-02
DAV:   6    -0.124024016922E+03    0.44539E-04   -0.24838E-04  5472   0.434E-02    0.164E-02
DAV:   7    -0.124024091671E+03   -0.74749E-04   -0.56777E-05  4224   0.229E-02    0.837E-03
DAV:   8    -0.124024146346E+03   -0.54675E-04   -0.10238E-05  4608   0.799E-03    0.610E-03
DAV:   9    -0.124024196050E+03   -0.49704E-04   -0.79172E-06  4848   0.632E-03    0.293E-03
DAV:  10    -0.124024225083E+03   -0.29033E-04   -0.38703E-06  5088   0.394E-03    0.198E-03
DAV:  11    -0.124024246137E+03   -0.21054E-04   -0.33656E-06  5664   0.355E-03    0.108E-03
DAV:  12    -0.124024253768E+03   -0.76309E-05   -0.88423E-07  5376   0.192E-03    0.376E-04
DAV:  13    -0.124024255662E+03   -0.18944E-05   -0.87885E-08  5664   0.873E-04    0.197E-04
DAV:  14    -0.124024257128E+03   -0.14657E-05   -0.80624E-08  4944   0.663E-04    0.882E-05
DAV:  15    -0.124024257884E+03   -0.75638E-06   -0.50588E-08  4752   0.404E-04
  31 F= -.12563726E+03 E0= -.12563376E+03  d E =-.258062E-01  mag=    -0.0000
 curvature: ****** expect dE=-0.768E+02 dE for cont linesearch -0.145E-01
 ZBRENT: increasing intervall
 opt :   0.1257  next Energy=  -125.664767 (dE=-0.533E-01)
 bond charge predicted
       N       E                     dE             d eps       ncg     rms          rms(c)
DAV:   1    -0.124161740042E+03   -0.13748E+00   -0.72855E+02  3648   0.993E+01    0.493E+00
DAV:   2    -0.124134181043E+03    0.27559E-01   -0.10457E+01  4800   0.131E+01    0.311E+00
DAV:   3    -0.123989365512E+03    0.14482E+00   -0.91691E-01  6912   0.324E+00    0.103E+00
DAV:   4    -0.123989111522E+03    0.25399E-03   -0.75506E-02  5856   0.102E+00    0.351E-01
DAV:   5    -0.123987328772E+03    0.17828E-02   -0.81184E-03  6240   0.237E-01    0.634E-02
DAV:   6    -0.123987110756E+03    0.21802E-03   -0.74717E-04  6048   0.778E-02    0.316E-02
DAV:   7    -0.123987297962E+03   -0.18721E-03   -0.28573E-04  4704   0.491E-02    0.158E-02
DAV:   8    -0.123987429945E+03   -0.13198E-03   -0.42329E-05  4944   0.167E-02    0.130E-02
DAV:   9    -0.123987532108E+03   -0.10216E-03   -0.25855E-05  5040   0.125E-02    0.661E-03
DAV:  10    -0.123987596973E+03   -0.64865E-04   -0.13203E-05  5568   0.825E-03    0.456E-03
DAV:  11    -0.123987643197E+03   -0.46224E-04   -0.12803E-05  4992   0.719E-03    0.228E-03
DAV:  12    -0.123987655182E+03   -0.11985E-04   -0.17216E-06  5808   0.328E-03    0.915E-04
DAV:  13    -0.123987659920E+03   -0.47379E-05   -0.36752E-07  5568   0.180E-03    0.534E-04
DAV:  14    -0.123987662462E+03   -0.25415E-05   -0.15888E-07  5424   0.119E-03    0.221E-04
DAV:  15    -0.123987663704E+03   -0.12428E-05   -0.71435E-08  5376   0.676E-04    0.919E-05
DAV:  16    -0.123987664117E+03   -0.41255E-06   -0.15734E-08  5520   0.318E-04
  32 F= -.12565931E+03 E0= -.12565732E+03  d E =-.478603E-01  mag=    -0.0000
 curvature: ****** expect dE=-0.201E+03 dE for cont linesearch -0.732E-02
 ZBRENT: increasing intervall
 opt :   0.2513  next Energy=  -125.661029 (dE=-0.496E-01)
 bond charge predicted
       N       E                     dE             d eps       ncg     rms          rms(c)
DAV:   1    -0.123152865069E+03    0.83480E+00   -0.25973E+03  3648   0.181E+02    0.953E+00
DAV:   2    -0.124370973685E+03   -0.12181E+01   -0.51562E+01  4704   0.301E+01    0.616E+00
DAV:   3    -0.123835664002E+03    0.53531E+00   -0.23854E+00  6816   0.547E+00    0.303E+00
DAV:   4    -0.123757999448E+03    0.77665E-01   -0.48348E-01  5760   0.243E+00    0.659E-01
DAV:   5    -0.123755235580E+03    0.27639E-02   -0.32677E-02  6144   0.595E-01    0.161E-01
DAV:   6    -0.123753560476E+03    0.16751E-02   -0.45875E-03  7008   0.189E-01    0.710E-02
DAV:   7    -0.123753449197E+03    0.11128E-03   -0.12574E-03  5472   0.104E-01    0.308E-02
DAV:   8    -0.123753787945E+03   -0.33875E-03   -0.28806E-04  4896   0.431E-02    0.217E-02
DAV:   9    -0.123754008062E+03   -0.22012E-03   -0.14488E-04  4896   0.304E-02    0.134E-02
DAV:  10    -0.123754096580E+03   -0.88518E-04   -0.35385E-05  5472   0.137E-02    0.102E-02
DAV:  11    -0.123754139486E+03   -0.42906E-04   -0.18476E-05  5760   0.939E-03    0.436E-03
DAV:  12    -0.123754157991E+03   -0.18505E-04   -0.48951E-06  5472   0.532E-03    0.260E-03
DAV:  13    -0.123754168338E+03   -0.10347E-04   -0.16975E-06  5952   0.311E-03    0.144E-03
DAV:  14    -0.123754172826E+03   -0.44886E-05   -0.37698E-07  6000   0.175E-03    0.456E-04
DAV:  15    -0.123754174571E+03   -0.17450E-05   -0.13546E-07  6000   0.117E-03    0.272E-04
DAV:  16    -0.123754175044E+03   -0.47323E-06   -0.18877E-08  5808   0.454E-04
  33 F= -.12559844E+03 E0= -.12559619E+03  d E =0.130154E-01  mag=    -0.0000
 curvature: -68.87 expect dE=-0.838E+02 dE for cont linesearch -0.984E-01
 ZBRENT: bracketing found
 ZBRENT: interpolating
 opt :   0.1403  next Energy=  -125.660928 (dE=-0.495E-01)
 bond charge predicted
       N       E                     dE             d eps       ncg     rms          rms(c)
DAV:   1    -0.123693504791E+03    0.60670E-01   -0.20957E+03  3648   0.165E+02    0.855E+00
DAV:   2    -0.124434689680E+03   -0.74118E+00   -0.37857E+01  3648   0.263E+01    0.548E+00
DAV:   3    -0.124016481291E+03    0.41821E+00   -0.22681E+00  6912   0.534E+00    0.256E+00
DAV:   4    -0.123976329092E+03    0.40152E-01   -0.32676E-01  5952   0.208E+00    0.622E-01
DAV:   5    -0.123974313336E+03    0.20158E-02   -0.31531E-02  6048   0.562E-01    0.131E-01
DAV:   6    -0.123973529482E+03    0.78385E-03   -0.32896E-03  5280   0.163E-01    0.678E-02
DAV:   7    -0.123973415417E+03    0.11407E-03   -0.70497E-04  5760   0.877E-02    0.284E-02
DAV:   8    -0.123973452515E+03   -0.37099E-04   -0.10079E-04  4128   0.283E-02    0.173E-02
DAV:   9    -0.123973609260E+03   -0.15675E-03   -0.81960E-05  4704   0.228E-02    0.104E-02
DAV:  10    -0.123973796825E+03   -0.18756E-03   -0.21925E-05  3792   0.135E-02    0.833E-03
DAV:  11    -0.123973914898E+03   -0.11807E-03   -0.74539E-06  4752   0.892E-03    0.412E-03
DAV:  12    -0.123973985610E+03   -0.70712E-04   -0.27294E-06  5616   0.517E-03    0.175E-03
DAV:  13    -0.123974016120E+03   -0.30510E-04   -0.63297E-07  5808   0.272E-03    0.132E-03
DAV:  14    -0.123974026427E+03   -0.10307E-04   -0.25197E-07  5856   0.190E-03    0.456E-04
DAV:  15    -0.123974030163E+03   -0.37363E-05   -0.12361E-07  5664   0.119E-03    0.227E-04
DAV:  16    -0.123974031003E+03   -0.84005E-06   -0.29857E-08  6288   0.578E-04
  34 F= -.12566186E+03 E0= -.12566002E+03  d E =-.504030E-01  mag=    -0.0000
 curvature:  -1.13 expect dE=-0.829E+00 dE for cont linesearch -0.888E-05
 trial: gam= 0.70787 g(F)=  0.734E+00 g(S)=  0.000E+00 ort = 0.124E+00 (trialstep = 0.281E-01)
 search vector abs. value=  0.978E+03
 bond charge predicted
       N       E                     dE             d eps       ncg     rms          rms(c)
DAV:   1    -0.124002999187E+03   -0.28969E-01   -0.75017E+01  3648   0.321E+01    0.160E+00
DAV:   2    -0.123985564200E+03    0.17435E-01   -0.94152E-01  5472   0.378E+00    0.973E-01
DAV:   3    -0.123971817751E+03    0.13746E-01   -0.10355E-01  6336   0.107E+00    0.258E-01
DAV:   4    -0.123971704782E+03    0.11297E-03   -0.10313E-02  6336   0.357E-01    0.106E-01
DAV:   5    -0.123971557543E+03    0.14724E-03   -0.56255E-04  6240   0.736E-02    0.222E-02
DAV:   6    -0.123971542491E+03    0.15052E-04   -0.93098E-05  5280   0.274E-02    0.105E-02
DAV:   7    -0.123971574626E+03   -0.32135E-04   -0.19269E-05  4320   0.130E-02    0.437E-03
DAV:   8    -0.123971600401E+03   -0.25775E-04   -0.38585E-06  5136   0.546E-03    0.396E-03
DAV:   9    -0.123971625198E+03   -0.24797E-04   -0.33026E-06  5040   0.445E-03    0.200E-03
DAV:  10    -0.123971646532E+03   -0.21333E-04   -0.34726E-06  5280   0.379E-03    0.123E-03
DAV:  11    -0.123971656277E+03   -0.97450E-05   -0.13077E-06  5520   0.262E-03    0.633E-04
DAV:  12    -0.123971660871E+03   -0.45945E-05   -0.55756E-07  5808   0.233E-03    0.337E-04
DAV:  13    -0.123971662286E+03   -0.14147E-05   -0.14889E-07  5856   0.153E-03    0.178E-04
DAV:  14    -0.123971663396E+03   -0.11097E-05   -0.70448E-08  5136   0.748E-04    0.764E-05
DAV:  15    -0.123971663915E+03   -0.51973E-06   -0.26512E-08  5664   0.420E-04
  35 F= -.12568321E+03 E0= -.12568147E+03  d E =-.213562E-01  mag=    -0.0000
 ZBRENT: can't locate minimum, use default step
 trial-energy change:   -0.021356  1 .order   -0.021293   -0.023063   -0.019523
 step:   0.1123(harm=  0.1829)  dis= 0.27563  next Energy=  -125.722219 (dE=-0.604E-01)
 bond charge predicted
       N       E                     dE             d eps       ncg     rms          rms(c)
DAV:   1    -0.124094562315E+03   -0.12290E+00   -0.65397E+02  3648   0.943E+01    0.471E+00
DAV:   2    -0.124054071475E+03    0.40491E-01   -0.94815E+00  5472   0.124E+01    0.294E+00
DAV:   3    -0.123925928619E+03    0.12814E+00   -0.74326E-01  6624   0.292E+00    0.984E-01
DAV:   4    -0.123925660537E+03    0.26808E-03   -0.77687E-02  6144   0.100E+00    0.325E-01
DAV:   5    -0.123924375305E+03    0.12852E-02   -0.59435E-03  6720   0.215E-01    0.637E-02
DAV:   6    -0.123924148767E+03    0.22654E-03   -0.75391E-04  5568   0.780E-02    0.312E-02
DAV:   7    -0.123924295087E+03   -0.14632E-03   -0.26717E-04  5088   0.469E-02    0.147E-02
DAV:   8    -0.123924425457E+03   -0.13037E-03   -0.40465E-05  4032   0.164E-02    0.104E-02
DAV:   9    -0.123924533453E+03   -0.10800E-03   -0.33152E-05  5472   0.136E-02    0.517E-03
DAV:  10    -0.123924576725E+03   -0.43273E-04   -0.76261E-06  5088   0.592E-03    0.422E-03
DAV:  11    -0.123924608559E+03   -0.31834E-04   -0.85443E-06  4992   0.573E-03    0.221E-03
DAV:  12    -0.123924619221E+03   -0.10661E-04   -0.18830E-06  5760   0.329E-03    0.965E-04
DAV:  13    -0.123924623380E+03   -0.41592E-05   -0.35675E-07  6240   0.167E-03    0.444E-04
DAV:  14    -0.123924625109E+03   -0.17291E-05   -0.12269E-07  5760   0.123E-03    0.196E-04
DAV:  15    -0.123924625907E+03   -0.79782E-06   -0.56407E-08  5664   0.824E-04
  36 F= -.12571902E+03 E0= -.12571699E+03  d E =-.571639E-01  mag=    -0.0000
 curvature: -86.20 expect dE=-0.397E+02 dE for cont linesearch -0.634E-03
 trial: gam=-0.14642 g(F)=  0.461E+00 g(S)=  0.000E+00 ort = 0.848E-01 (trialstep = 0.449E-01)
 search vector abs. value=  0.214E+02
 bond charge predicted
       N       E                     dE             d eps       ncg     rms          rms(c)
DAV:   1    -0.123952133556E+03   -0.27508E-01   -0.41971E+00  3648   0.764E+00    0.383E-01
DAV:   2    -0.123950875702E+03    0.12579E-02   -0.51542E-02  5280   0.888E-01    0.231E-01
DAV:   3    -0.123950173420E+03    0.70228E-03   -0.62165E-03  6000   0.267E-01    0.630E-02
DAV:   4    -0.123950183886E+03   -0.10466E-04   -0.76067E-04  5184   0.967E-02    0.285E-02
DAV:   5    -0.123950191145E+03   -0.72596E-05   -0.26844E-05  4752   0.206E-02    0.638E-03
DAV:   6    -0.123950190188E+03    0.95772E-06   -0.83212E-06  4512   0.843E-03
  37 F= -.12573762E+03 E0= -.12573563E+03  d E =-.185994E-01  mag=    -0.0000
 ZBRENT: can't locate minimum, use default step
 trial-energy change:   -0.018599  1 .order   -0.018615   -0.020143   -0.017087
 step:   0.1796(harm=  0.2960)  dis= 0.04468  next Energy=  -125.785405 (dE=-0.664E-01)
 bond charge predicted
       N       E                     dE             d eps       ncg     rms          rms(c)
DAV:   1    -0.124026079478E+03   -0.75888E-01   -0.37771E+01  3648   0.229E+01    0.115E+00
DAV:   2    -0.124014910426E+03    0.11169E-01   -0.46130E-01  5952   0.268E+00    0.691E-01
DAV:   3    -0.124008266929E+03    0.66435E-02   -0.54754E-02  7008   0.782E-01    0.188E-01
DAV:   4    -0.124008247739E+03    0.19191E-04   -0.59536E-03  4992   0.276E-01    0.854E-02
DAV:   5    -0.124008245146E+03    0.25922E-05   -0.24032E-04  5568   0.605E-02    0.196E-02
DAV:   6    -0.124008236461E+03    0.86857E-05   -0.73858E-05  4032   0.248E-02    0.824E-03
DAV:   7    -0.124008243117E+03   -0.66566E-05   -0.48789E-06  4224   0.884E-03    0.426E-03
DAV:   8    -0.124008254290E+03   -0.11172E-04   -0.37678E-06  3840   0.652E-03    0.274E-03
DAV:   9    -0.124008263059E+03   -0.87693E-05   -0.72662E-07  4512   0.302E-03    0.242E-03
DAV:  10    -0.124008284580E+03   -0.21521E-04   -0.26972E-06  5616   0.424E-03    0.100E-03
DAV:  11    -0.124008292153E+03   -0.75728E-05   -0.55739E-07  5424   0.281E-03    0.641E-04
DAV:  12    -0.124008298940E+03   -0.67873E-05   -0.37502E-07  5808   0.261E-03    0.396E-04
DAV:  13    -0.124008301869E+03   -0.29287E-05   -0.19078E-07  6288   0.190E-03    0.177E-04
DAV:  14    -0.124008303091E+03   -0.12221E-05   -0.35010E-08  6096   0.681E-04    0.888E-05
DAV:  15    -0.124008303570E+03   -0.47895E-06   -0.10957E-08  5904   0.292E-04
  38 F= -.12577535E+03 E0= -.12577348E+03  d E =-.563247E-01  mag=    -0.0000
 curvature:  -5.55 expect dE=-0.531E+00 dE for cont linesearch -0.842E-02
 ZBRENT: increasing intervall
 opt :   0.4490  next Energy=  -125.769989 (dE=-0.510E-01)
 bond charge predicted
       N       E                     dE             d eps       ncg     rms          rms(c)
DAV:   1    -0.124108213390E+03   -0.99910E-01   -0.15067E+02  3648   0.457E+01    0.229E+00
DAV:   2    -0.124071997806E+03    0.36216E-01   -0.18977E+00  6144   0.548E+00    0.139E+00
DAV:   3    -0.124043103308E+03    0.28894E-01   -0.21317E-01  6816   0.154E+00    0.391E-01
DAV:   4    -0.124043140580E+03   -0.37272E-04   -0.21371E-02  5088   0.532E-01    0.172E-01
DAV:   5    -0.124043054127E+03    0.86453E-04   -0.10030E-03  6240   0.112E-01    0.410E-02
DAV:   6    -0.124043008323E+03    0.45804E-04   -0.29720E-04  5088   0.473E-02    0.159E-02
DAV:   7    -0.124043024549E+03   -0.16225E-04   -0.21735E-05  5376   0.168E-02    0.602E-03
DAV:   8    -0.124043049775E+03   -0.25227E-04   -0.12118E-05  4512   0.998E-03    0.544E-03
DAV:   9    -0.124043068887E+03   -0.19112E-04   -0.18679E-06  5424   0.405E-03    0.401E-03
DAV:  10    -0.124043104946E+03   -0.36059E-04   -0.54193E-06  5664   0.549E-03    0.179E-03
DAV:  11    -0.124043123179E+03   -0.18233E-04   -0.10701E-06  5664   0.259E-03    0.120E-03
DAV:  12    -0.124043139990E+03   -0.16812E-04   -0.57082E-07  5376   0.174E-03    0.559E-04
DAV:  13    -0.124043144882E+03   -0.48918E-05   -0.81768E-08  6432   0.740E-04    0.246E-04
DAV:  14    -0.124043146969E+03   -0.20870E-05   -0.37591E-08  5664   0.485E-04    0.134E-04
DAV:  15    -0.124043147711E+03   -0.74233E-06   -0.15665E-08  6336   0.296E-04
  39 F= -.12577178E+03 E0= -.12577007E+03  d E =-.527582E-01  mag=    -0.0000
 curvature:   3.53 expect dE= 0.393E+00 dE for cont linesearch  0.683E-02
 ZBRENT: bracketing found
 ZBRENT: interpolating
 opt :   0.3061  next Energy=  -125.786753 (dE=-0.677E-01)
 bond charge predicted
       N       E                     dE             d eps       ncg     rms          rms(c)
DAV:   1    -0.124056481951E+03   -0.13335E-01   -0.42594E+01  3648   0.243E+01    0.122E+00
DAV:   2    -0.124045933168E+03    0.10549E-01   -0.53886E-01  6048   0.286E+00    0.738E-01
DAV:   3    -0.124038084014E+03    0.78492E-02   -0.61640E-02  6576   0.831E-01    0.200E-01
DAV:   4    -0.124037934949E+03    0.14907E-03   -0.70627E-03  6144   0.299E-01    0.900E-02
DAV:   5    -0.124037895484E+03    0.39465E-04   -0.25122E-04  6432   0.597E-02    0.216E-02
DAV:   6    -0.124037871068E+03    0.24416E-04   -0.82706E-05  6048   0.252E-02    0.884E-03
DAV:   7    -0.124037887099E+03   -0.16031E-04   -0.69179E-06  5088   0.884E-03    0.315E-03
DAV:   8    -0.124037908210E+03   -0.21110E-04   -0.47296E-06  4752   0.562E-03    0.292E-03
DAV:   9    -0.124037921697E+03   -0.13487E-04   -0.11970E-06  5520   0.297E-03    0.196E-03
DAV:  10    -0.124037939022E+03   -0.17326E-04   -0.30978E-06  4800   0.369E-03    0.988E-04
DAV:  11    -0.124037943720E+03   -0.46975E-05   -0.45937E-07  6048   0.162E-03    0.602E-04
DAV:  12    -0.124037948682E+03   -0.49622E-05   -0.49089E-07  5520   0.140E-03    0.313E-04
DAV:  13    -0.124037950543E+03   -0.18614E-05   -0.12552E-07  6336   0.785E-04    0.181E-04
DAV:  14    -0.124037951349E+03   -0.80558E-06   -0.36229E-08  5376   0.432E-04
  40 F= -.12578656E+03 E0= -.12578478E+03  d E =-.675379E-01  mag=     0.0000
 curvature:  -5.89 expect dE=-0.116E+00 dE for cont linesearch -0.156E-05
 trial: gam=-0.00660 g(F)=  0.197E-01 g(S)=  0.000E+00 ort =-0.238E-02 (trialstep = 0.972E-01)
 search vector abs. value=  0.206E-01
 bond charge predicted
       N       E                     dE             d eps       ncg     rms          rms(c)
DAV:   1    -0.124039676522E+03   -0.17260E-02   -0.11587E-02  4032   0.390E-01    0.273E-02
DAV:   2    -0.124039658530E+03    0.17993E-04   -0.18829E-04  5568   0.491E-02    0.142E-02
DAV:   3    -0.124039654780E+03    0.37499E-05   -0.24803E-05  6192   0.153E-02    0.445E-03
DAV:   4    -0.124039655088E+03   -0.30831E-06   -0.21655E-06  5664   0.515E-03
  41 F= -.12578841E+03 E0= -.12578663E+03  d E =-.184872E-02  mag=    -0.0000
 ZBRENT: can't locate minimum, use default step
 trial-energy change:   -0.001849  1 .order   -0.001848   -0.001913   -0.001783
 step:   0.3886(harm=  1.4288)  dis= 0.00514  next Energy=  -125.800624 (dE=-0.141E-01)
 bond charge predicted
       N       E                     dE             d eps       ncg     rms          rms(c)
DAV:   1    -0.124044177493E+03   -0.45227E-02   -0.10423E-01  3648   0.117E+00    0.822E-02
DAV:   2    -0.124044019227E+03    0.15827E-03   -0.16994E-03  6528   0.148E-01    0.427E-02
DAV:   3    -0.124043982954E+03    0.36272E-04   -0.20833E-04  4992   0.443E-02    0.133E-02
DAV:   4    -0.124043983738E+03   -0.78341E-06   -0.19903E-05  4800   0.157E-02    0.524E-03
DAV:   5    -0.124043984238E+03   -0.50078E-06   -0.61049E-07  5184   0.305E-03
  42 F= -.12579317E+03 E0= -.12579141E+03  d E =-.661173E-02  mag=    -0.0000
 curvature:  -0.29 expect dE=-0.383E-02 dE for cont linesearch -0.290E-02
 ZBRENT: increasing intervall
 opt :   0.9715  next Energy=  -125.799167 (dE=-0.126E-01)
 bond charge predicted
       N       E                     dE             d eps       ncg     rms          rms(c)
DAV:   1    -0.124049932494E+03   -0.59488E-02   -0.41739E-01  3648   0.234E+00    0.164E-01
DAV:   2    -0.124049295045E+03    0.63745E-03   -0.67118E-03  6528   0.295E-01    0.851E-02
DAV:   3    -0.124049144013E+03    0.15103E-03   -0.84677E-04  5520   0.889E-02    0.262E-02
DAV:   4    -0.124049145739E+03   -0.17261E-05   -0.76523E-05  5472   0.310E-02    0.105E-02
DAV:   5    -0.124049147078E+03   -0.13385E-05   -0.22195E-06  4368   0.592E-03    0.376E-03
DAV:   6    -0.124049147353E+03   -0.27520E-06   -0.11364E-06  4896   0.338E-03
  43 F= -.12579920E+03 E0= -.12579746E+03  d E =-.126402E-01  mag=     0.0000
 curvature:  -0.60 expect dE=-0.116E-01 dE for cont linesearch -0.118E-02
 ZBRENT: increasing intervall
 opt :   2.1373  next Energy=  -125.797309 (dE=-0.107E-01)
 bond charge predicted
       N       E                     dE             d eps       ncg     rms          rms(c)
DAV:   1    -0.124048762339E+03    0.38474E-03   -0.16678E+00  3648   0.468E+00    0.328E-01
DAV:   2    -0.124046254074E+03    0.25083E-02   -0.26501E-02  6912   0.588E-01    0.170E-01
DAV:   3    -0.124045630650E+03    0.62342E-03   -0.34148E-03  5376   0.178E-01    0.516E-02
DAV:   4    -0.124045631829E+03   -0.11790E-05   -0.30660E-04  5712   0.623E-02    0.209E-02
DAV:   5    -0.124045635180E+03   -0.33511E-05   -0.82777E-06  4896   0.113E-02    0.764E-03
DAV:   6    -0.124045635963E+03   -0.78325E-06   -0.42449E-06  5040   0.627E-03
  44 F= -.12579740E+03 E0= -.12579571E+03  d E =-.108459E-01  mag=     0.0000
 curvature:   0.97 expect dE= 0.863E-01 dE for cont linesearch  0.414E-02
 ZBRENT: bracketing found
 ZBRENT: interpolating
 opt :   1.4416  next Energy=  -125.800691 (dE=-0.141E-01)
 bond charge predicted
       N       E                     dE             d eps       ncg     rms          rms(c)
DAV:   1    -0.124051060998E+03   -0.54258E-02   -0.59384E-01  3648   0.279E+00    0.195E-01
DAV:   2    -0.124050154101E+03    0.90690E-03   -0.93834E-03  6048   0.349E-01    0.102E-01
DAV:   3    -0.124049937131E+03    0.21697E-03   -0.12351E-03  5376   0.108E-01    0.308E-02
DAV:   4    -0.124049939324E+03   -0.21932E-05   -0.11342E-04  5088   0.378E-02    0.126E-02
DAV:   5    -0.124049940928E+03   -0.16046E-05   -0.31841E-06  5088   0.713E-03    0.464E-03
DAV:   6    -0.124049940839E+03    0.89743E-07   -0.14767E-06  5424   0.390E-03
  45 F= -.12580069E+03 E0= -.12579897E+03  d E =-.141282E-01  mag=     0.0000
 curvature:  -0.35 expect dE=-0.132E-01 dE for cont linesearch -0.982E-08
 trial: gam= 1.92854 g(F)=  0.379E-01 g(S)=  0.000E+00 ort =-0.241E-04 (trialstep = 0.659E-01)
 search vector abs. value=  0.115E+00
 bond charge predicted
       N       E                     dE             d eps       ncg     rms          rms(c)
DAV:   1    -0.124052117289E+03   -0.21764E-02   -0.26054E-02  3648   0.606E-01    0.318E-02
DAV:   2    -0.124052108143E+03    0.91456E-05   -0.25961E-04  5760   0.653E-02    0.189E-02
DAV:   3    -0.124052104468E+03    0.36754E-05   -0.36533E-05  5760   0.206E-02    0.568E-03
DAV:   4    -0.124052104713E+03   -0.24567E-06   -0.56129E-06  4656   0.841E-03
  46 F= -.12580311E+03 E0= -.12580139E+03  d E =-.241931E-02  mag=     0.0000
 ZBRENT: can't locate minimum, use default step
 trial-energy change:   -0.002419  1 .order   -0.002420   -0.002497   -0.002343
 step:   0.2637(harm=  1.0677)  dis= 0.00888  next Energy=  -125.820910 (dE=-0.202E-01)
 bond charge predicted
       N       E                     dE             d eps       ncg     rms          rms(c)
DAV:   1    -0.124057790469E+03   -0.56860E-02   -0.23463E-01  3648   0.182E+00    0.961E-02
DAV:   2    -0.124057709326E+03    0.81142E-04   -0.23182E-03  6912   0.195E-01    0.569E-02
DAV:   3    -0.124057672434E+03    0.36892E-04   -0.31069E-04  5664   0.598E-02    0.169E-02
DAV:   4    -0.124057672505E+03   -0.70611E-07   -0.48269E-05  5184   0.245E-02    0.823E-03
DAV:   5    -0.124057672968E+03   -0.46263E-06   -0.17839E-06  5088   0.553E-03
  47 F= -.12580944E+03 E0= -.12580772E+03  d E =-.875294E-02  mag=     0.0000
 curvature:  -0.57 expect dE=-0.133E-01 dE for cont linesearch -0.409E-02
 ZBRENT: increasing intervall
 opt :   0.6592  next Energy=  -125.817976 (dE=-0.173E-01)
 bond charge predicted
       N       E                     dE             d eps       ncg     rms          rms(c)
DAV:   1    -0.124065258747E+03   -0.75862E-02   -0.94029E-01  3648   0.364E+00    0.191E-01
DAV:   2    -0.124064948441E+03    0.31031E-03   -0.92143E-03  6912   0.388E-01    0.113E-01
DAV:   3    -0.124064787560E+03    0.16088E-03   -0.12535E-03  6432   0.120E-01    0.332E-02
DAV:   4    -0.124064783627E+03    0.39330E-05   -0.19115E-04  5664   0.486E-02    0.165E-02
DAV:   5    -0.124064785183E+03   -0.15555E-05   -0.67328E-06  5472   0.108E-02    0.636E-03
DAV:   6    -0.124064785822E+03   -0.63877E-06   -0.26883E-06  5616   0.564E-03
  48 F= -.12581807E+03 E0= -.12581634E+03  d E =-.173875E-01  mag=    -0.0000
 curvature:  -1.20 expect dE=-0.223E-01 dE for cont linesearch -0.243E-02
 ZBRENT: increasing intervall
 opt :   1.4503  next Energy=  -125.819574 (dE=-0.189E-01)
 bond charge predicted
       N       E                     dE             d eps       ncg     rms          rms(c)
DAV:   1    -0.124065913763E+03   -0.11286E-02   -0.37696E+00  3648   0.729E+00    0.380E-01
DAV:   2    -0.124064704629E+03    0.12091E-02   -0.36550E-02  7200   0.775E-01    0.226E-01
DAV:   3    -0.124064035766E+03    0.66886E-03   -0.51485E-03  6048   0.242E-01    0.642E-02
DAV:   4    -0.124064013970E+03    0.21796E-04   -0.81807E-04  6192   0.100E-01    0.332E-02
DAV:   5    -0.124064016747E+03   -0.27765E-05   -0.27297E-05  5856   0.217E-02    0.130E-02
DAV:   6    -0.124064018243E+03   -0.14963E-05   -0.10932E-05  5280   0.111E-02    0.378E-03
DAV:   7    -0.124064020264E+03   -0.20209E-05   -0.10960E-06  4896   0.469E-03    0.193E-03
DAV:   8    -0.124064023626E+03   -0.33625E-05   -0.79315E-07  5376   0.403E-03    0.814E-04
DAV:   9    -0.124064024845E+03   -0.12190E-05   -0.45990E-07  5808   0.322E-03    0.550E-04
DAV:  10    -0.124064028216E+03   -0.33703E-05   -0.39102E-07  5088   0.195E-03    0.325E-04
DAV:  11    -0.124064030659E+03   -0.24432E-05   -0.25999E-07  5520   0.153E-03    0.220E-04
DAV:  12    -0.124064031409E+03   -0.75010E-06   -0.70106E-08  6144   0.108E-03
  49 F= -.12582033E+03 E0= -.12581847E+03  d E =-.196401E-01  mag=    -0.0000
 curvature:  -0.74 expect dE=-0.534E-01 dE for cont linesearch -0.529E-03
 ZBRENT: bracketing found
 ZBRENT: interpolating
 opt :   1.1556  next Energy=  -125.821659 (dE=-0.210E-01)
 bond charge predicted
       N       E                     dE             d eps       ncg     rms          rms(c)
DAV:   1    -0.124066805636E+03   -0.27750E-02   -0.52374E-01  3648   0.272E+00    0.141E-01
DAV:   2    -0.124066631271E+03    0.17437E-03   -0.50790E-03  5952   0.289E-01    0.842E-02
DAV:   3    -0.124066543406E+03    0.87865E-04   -0.74199E-04  7008   0.922E-02    0.247E-02
DAV:   4    -0.124066540769E+03    0.26367E-05   -0.11486E-04  4608   0.377E-02    0.126E-02
DAV:   5    -0.124066541898E+03   -0.11284E-05   -0.51135E-06  6240   0.937E-03    0.478E-03
DAV:   6    -0.124066541769E+03    0.12865E-06   -0.15637E-06  6000   0.406E-03
  50 F= -.12582172E+03 E0= -.12581994E+03  d E =-.210361E-01  mag=     0.0000
 curvature:  -1.87 expect dE=-0.792E-01 dE for cont linesearch -0.206E-05
 trial: gam= 1.23136 g(F)=  0.424E-01 g(S)=  0.000E+00 ort =-0.356E-03 (trialstep = 0.151E+00)
 search vector abs. value=  0.215E+00
 bond charge predicted
       N       E                     dE             d eps       ncg     rms          rms(c)
DAV:   1    -0.124071243910E+03   -0.47020E-02   -0.27121E-01  3648   0.197E+00    0.108E-01
DAV:   2    -0.124071074177E+03    0.16973E-03   -0.30174E-03  6816   0.219E-01    0.623E-02
DAV:   3    -0.124071015975E+03    0.58202E-04   -0.40573E-04  6336   0.687E-02    0.192E-02
DAV:   4    -0.124071015960E+03    0.15967E-07   -0.58797E-05  4704   0.272E-02    0.898E-03
DAV:   5    -0.124071016755E+03   -0.79510E-06   -0.26469E-06  5376   0.673E-03
  51 F= -.12582709E+03 E0= -.12582523E+03  d E =-.536512E-02  mag=    -0.0000
 trial-energy change:   -0.005365  1 .order   -0.005367   -0.006341   -0.004394
 step:   0.4921(harm=  0.4921)  dis= 0.02181  next Energy=  -125.832049 (dE=-0.103E-01)
 bond charge predicted
       N       E                     dE             d eps       ncg     rms          rms(c)
DAV:   1    -0.124075296353E+03   -0.42804E-02   -0.13847E+00  3648   0.444E+00    0.243E-01
DAV:   2    -0.124074484964E+03    0.81139E-03   -0.15556E-02  6720   0.498E-01    0.141E-01
DAV:   3    -0.124074169333E+03    0.31563E-03   -0.21760E-03  6528   0.159E-01    0.433E-02
DAV:   4    -0.124074159420E+03    0.99121E-05   -0.31751E-04  5760   0.629E-02    0.214E-02
DAV:   5    -0.124074160028E+03   -0.60768E-06   -0.13601E-05  6192   0.151E-02    0.779E-03
DAV:   6    -0.124074160997E+03   -0.96913E-06   -0.40982E-06  5040   0.691E-03
  52 F= -.12583223E+03 E0= -.12582996E+03  d E =-.105029E-01  mag=    -0.0000
 curvature:  -1.26 expect dE=-0.158E-02 dE for cont linesearch -0.122E-04
 ZBRENT: extrapolating
 opt :   0.5099  next Energy=  -125.832239 (dE=-0.105E-01)
 bond charge predicted
       N       E                     dE             d eps       ncg     rms          rms(c)
DAV:   1    -0.124074075594E+03    0.84434E-04   -0.37879E-03  4032   0.232E-01    0.124E-02
DAV:   2    -0.124074073762E+03    0.18324E-05   -0.42340E-05  6720   0.260E-02    0.718E-03
DAV:   3    -0.124074074153E+03   -0.39074E-06   -0.53434E-06  5232   0.799E-03
  53 F= -.12583224E+03 E0= -.12582994E+03  d E =-.105193E-01  mag=     0.0000
 curvature:  -1.33 expect dE=-0.200E-02 dE for cont linesearch -0.238E-07
 trial: gam= 0.11287 g(F)=  0.151E-02 g(S)=  0.000E+00 ort = 0.621E-04 (trialstep = 0.223E+00)
 search vector abs. value=  0.427E-02
 bond charge predicted
       N       E                     dE             d eps       ncg     rms          rms(c)
DAV:   1    -0.124074103501E+03   -0.29739E-04   -0.14686E-02  3648   0.457E-01    0.270E-02
DAV:   2    -0.124074090330E+03    0.13171E-04   -0.21886E-04  6528   0.551E-02    0.145E-02
DAV:   3    -0.124074088262E+03    0.20678E-05   -0.18149E-05  4608   0.144E-02    0.499E-03
DAV:   4    -0.124074089406E+03   -0.11439E-05   -0.27694E-06  5808   0.588E-03    0.145E-03
DAV:   5    -0.124074089969E+03   -0.56299E-06   -0.31247E-07  6096   0.247E-03
  54 F= -.12583255E+03 E0= -.12583024E+03  d E =-.310997E-03  mag=    -0.0000
 trial-energy change:   -0.000311  1 .order   -0.000307   -0.000338   -0.000276
 step:   0.6639(harm=  1.2080)  dis= 0.00454  next Energy=  -125.832859 (dE=-0.617E-03)
 bond charge predicted
       N       E                     dE             d eps       ncg     rms          rms(c)
DAV:   1    -0.124073996609E+03    0.92797E-04   -0.57466E-02  3840   0.903E-01    0.529E-02
DAV:   2    -0.124073940219E+03    0.56390E-04   -0.82975E-04  5712   0.107E-01    0.280E-02
DAV:   3    -0.124073929632E+03    0.10587E-04   -0.75917E-05  5712   0.292E-02    0.951E-03
DAV:   4    -0.124073930799E+03   -0.11671E-05   -0.96002E-06  4416   0.105E-02    0.277E-03
DAV:   5    -0.124073931079E+03   -0.27947E-06   -0.65443E-07  5664   0.305E-03
  55 F= -.12583298E+03 E0= -.12583064E+03  d E =-.736606E-03  mag=     0.0000
 curvature:  -1.18 expect dE=-0.118E-02 dE for cont linesearch -0.129E-03
 ZBRENT: increasing intervall
 opt :   1.5461  next Energy=  -125.833092 (dE=-0.850E-03)
 bond charge predicted
       N       E                     dE             d eps       ncg     rms          rms(c)
DAV:   1    -0.124073150522E+03    0.78028E-03   -0.22982E-01  3840   0.181E+00    0.106E-01
DAV:   2    -0.124072929896E+03    0.22063E-03   -0.33011E-03  5616   0.214E-01    0.560E-02
DAV:   3    -0.124072884645E+03    0.45250E-04   -0.31384E-04  6288   0.591E-02    0.188E-02
DAV:   4    -0.124072885429E+03   -0.78320E-06   -0.35684E-05  5424   0.201E-02    0.561E-03
DAV:   5    -0.124072886200E+03   -0.77109E-06   -0.22681E-06  4992   0.521E-03
  56 F= -.12583311E+03 E0= -.12583070E+03  d E =-.863370E-03  mag=    -0.0000
 curvature:  -1.04 expect dE=-0.437E-02 dE for cont linesearch -0.401E-04
 ZBRENT: bracketing found
 ZBRENT: interpolating
 opt :   1.2170  next Energy=  -125.833173 (dE=-0.930E-03)
 bond charge predicted
       N       E                     dE             d eps       ncg     rms          rms(c)
DAV:   1    -0.124073425435E+03   -0.54001E-03   -0.31798E-02  3840   0.673E-01    0.393E-02
DAV:   2    -0.124073394485E+03    0.30950E-04   -0.46617E-04  5184   0.801E-02    0.209E-02
DAV:   3    -0.124073388577E+03    0.59076E-05   -0.43571E-05  5952   0.220E-02    0.708E-03
DAV:   4    -0.124073389131E+03   -0.55372E-06   -0.53641E-06  4320   0.823E-03
  57 F= -.12583317E+03 E0= -.12583079E+03  d E =-.928736E-03  mag=    -0.0000
 curvature:  -1.73 expect dE=-0.434E-02 dE for cont linesearch -0.725E-08
 trial: gam= 1.73401 g(F)=  0.251E-02 g(S)=  0.000E+00 ort = 0.423E-05 (trialstep = 0.117E+00)
 search vector abs. value=  0.154E-01
 bond charge predicted
       N       E                     dE             d eps       ncg     rms          rms(c)
DAV:   1    -0.124073323135E+03    0.65442E-04   -0.16711E-02  3744   0.490E-01    0.252E-02
DAV:   2    -0.124073313937E+03    0.91984E-05   -0.19813E-04  4176   0.558E-02    0.148E-02
DAV:   3    -0.124073311753E+03    0.21843E-05   -0.29390E-05  4080   0.189E-02    0.402E-03
DAV:   4    -0.124073312141E+03   -0.38854E-06   -0.46371E-06  4512   0.879E-03
  58 F= -.12583345E+03 E0= -.12583105E+03  d E =-.278829E-03  mag=    -0.0000
 ZBRENT: can't locate minimum, use default step
 trial-energy change:   -0.000279  1 .order   -0.000279   -0.000295   -0.000262
 step:   0.4686(harm=  1.0476)  dis= 0.00645  next Energy=  -125.834491 (dE=-0.132E-02)
 bond charge predicted
       N       E                     dE             d eps       ncg     rms          rms(c)
DAV:   1    -0.124072981056E+03    0.33070E-03   -0.15068E-01  3648   0.147E+00    0.762E-02
DAV:   2    -0.124072908932E+03    0.72124E-04   -0.17373E-03  3840   0.165E-01    0.448E-02
DAV:   3    -0.124072883230E+03    0.25703E-04   -0.26674E-04  5952   0.558E-02    0.120E-02
DAV:   4    -0.124072884262E+03   -0.10326E-05   -0.31518E-05  5040   0.211E-02    0.586E-03
DAV:   5    -0.124072885120E+03   -0.85778E-06   -0.24746E-06  4464   0.780E-03
  59 F= -.12583409E+03 E0= -.12583165E+03  d E =-.921162E-03  mag=     0.0000
 curvature:  -1.96 expect dE=-0.296E-02 dE for cont linesearch -0.253E-03
 ZBRENT: increasing intervall
 opt :   1.1716  next Energy=  -125.834500 (dE=-0.133E-02)
 bond charge predicted
       N       E                     dE             d eps       ncg     rms          rms(c)
DAV:   1    -0.124071551068E+03    0.13332E-02   -0.60315E-01  3648   0.294E+00    0.152E-01
DAV:   2    -0.124071279341E+03    0.27173E-03   -0.70109E-03  5088   0.329E-01    0.888E-02
DAV:   3    -0.124071165466E+03    0.11387E-03   -0.10021E-03  6816   0.106E-01    0.234E-02
DAV:   4    -0.124071165319E+03    0.14679E-06   -0.10804E-04  6240   0.388E-02    0.111E-02
DAV:   5    -0.124071165670E+03   -0.35109E-06   -0.53569E-06  5328   0.108E-02
  60 F= -.12583452E+03 E0= -.12583197E+03  d E =-.134701E-02  mag=    -0.0000
 curvature:  -3.15 expect dE=-0.148E-01 dE for cont linesearch -0.861E-05
 trial: gam= 1.99067 g(F)=  0.471E-02 g(S)=  0.000E+00 ort =-0.205E-03 (trialstep = 0.778E-01)
 search vector abs. value=  0.647E-01
 bond charge predicted
       N       E                     dE             d eps       ncg     rms          rms(c)
DAV:   1    -0.124070966815E+03    0.19850E-03   -0.32771E-02  3648   0.681E-01    0.342E-02
DAV:   2    -0.124070955041E+03    0.11774E-04   -0.38448E-04  4608   0.784E-02    0.203E-02
DAV:   3    -0.124070950526E+03    0.45157E-05   -0.50935E-05  4800   0.260E-02    0.545E-03
DAV:   4    -0.124070951775E+03   -0.12494E-05   -0.10552E-05  4032   0.151E-02    0.269E-03
DAV:   5    -0.124070951121E+03    0.65375E-06   -0.31848E-06  3936   0.857E-03
  61 F= -.12583484E+03 E0= -.12583224E+03  d E =-.325206E-03  mag=     0.0000
 ZBRENT: can't locate minimum, use default step
 trial-energy change:   -0.000325  1 .order   -0.000323   -0.000335   -0.000311
 step:   0.3112(harm=  1.1179)  dis= 0.00866  next Energy=  -125.836923 (dE=-0.241E-02)
 bond charge predicted
       N       E                     dE             d eps       ncg     rms          rms(c)
DAV:   1    -0.124070313902E+03    0.63787E-03   -0.29371E-01  3648   0.204E+00    0.103E-01
DAV:   2    -0.124070198867E+03    0.11504E-03   -0.33471E-03  4992   0.227E-01    0.609E-02
DAV:   3    -0.124070145689E+03    0.53178E-04   -0.44627E-04  6000   0.710E-02    0.154E-02
DAV:   4    -0.124070146368E+03   -0.67922E-06   -0.50610E-05  6384   0.250E-02    0.669E-03
DAV:   5    -0.124070146760E+03   -0.39120E-06   -0.17761E-06  4896   0.497E-03
  62 F= -.12583566E+03 E0= -.12583291E+03  d E =-.114423E-02  mag=    -0.0000
 curvature:  -3.35 expect dE=-0.111E-01 dE for cont linesearch -0.472E-03
 ZBRENT: increasing intervall
 opt :   0.7780  next Energy=  -125.836613 (dE=-0.210E-02)
 bond charge predicted
       N       E                     dE             d eps       ncg     rms          rms(c)
DAV:   1    -0.124068517139E+03    0.16292E-02   -0.11755E+00  3648   0.408E+00    0.206E-01
DAV:   2    -0.124068078278E+03    0.43886E-03   -0.13489E-02  5664   0.455E-01    0.122E-01
DAV:   3    -0.124067865669E+03    0.21261E-03   -0.17627E-03  6240   0.139E-01    0.303E-02
DAV:   4    -0.124067863618E+03    0.20511E-05   -0.18229E-04  6384   0.485E-02    0.130E-02
DAV:   5    -0.124067862083E+03    0.15342E-05   -0.80874E-06  6048   0.945E-03    0.263E-03
DAV:   6    -0.124067862610E+03   -0.52672E-06   -0.15169E-06  4512   0.381E-03
  63 F= -.12583664E+03 E0= -.12583358E+03  d E =-.212543E-02  mag=    -0.0000
 curvature:  -6.75 expect dE=-0.317E-01 dE for cont linesearch -0.153E-03
 ZBRENT: increasing intervall
 opt :   1.7116  next Energy=  -125.836086 (dE=-0.157E-02)
 bond charge predicted
       N       E                     dE             d eps       ncg     rms          rms(c)
DAV:   1    -0.124063444130E+03    0.44180E-02   -0.47050E+00  3648   0.817E+00    0.412E-01
DAV:   2    -0.124061736936E+03    0.17072E-02   -0.54044E-02  7104   0.909E-01    0.243E-01
DAV:   3    -0.124060827379E+03    0.90956E-03   -0.68681E-03  5856   0.272E-01    0.599E-02
DAV:   4    -0.124060815203E+03    0.12176E-04   -0.70522E-04  6816   0.967E-02    0.256E-02
DAV:   5    -0.124060807883E+03    0.73200E-05   -0.32481E-05  6240   0.192E-02    0.514E-03
DAV:   6    -0.124060807836E+03    0.46537E-07   -0.58058E-06  4272   0.840E-03
  64 F= -.12583619E+03 E0= -.12583261E+03  d E =-.167593E-02  mag=    -0.0000
 curvature:  24.61 expect dE= 0.504E+00 dE for cont linesearch  0.164E-02
 ZBRENT: bracketing found
 ZBRENT: interpolating
 opt :   1.1217  next Energy=  -125.836852 (dE=-0.233E-02)
 bond charge predicted
       N       E                     dE             d eps       ncg     rms          rms(c)
DAV:   1    -0.124066664215E+03   -0.58563E-02   -0.18780E+00  3648   0.516E+00    0.261E-01
DAV:   2    -0.124065981056E+03    0.68316E-03   -0.21636E-02  5760   0.576E-01    0.154E-01
DAV:   3    -0.124065635262E+03    0.34579E-03   -0.27849E-03  6096   0.174E-01    0.387E-02
DAV:   4    -0.124065644896E+03   -0.96343E-05   -0.27965E-04  4512   0.612E-02    0.164E-02
DAV:   5    -0.124065649272E+03   -0.43762E-05   -0.15086E-05  4416   0.151E-02    0.419E-03
DAV:   6    -0.124065649299E+03   -0.26786E-07   -0.25925E-06  6144   0.709E-03
  65 F= -.12583685E+03 E0= -.12583357E+03  d E =-.233255E-02  mag=     0.0000
 curvature:  -3.12 expect dE=-0.263E-01 dE for cont linesearch -0.534E-07
 trial: gam= 1.67040 g(F)=  0.844E-02 g(S)=  0.000E+00 ort =-0.333E-04 (trialstep = 0.982E-01)
 search vector abs. value=  0.189E+00
 bond charge predicted
       N       E                     dE             d eps       ncg     rms          rms(c)
DAV:   1    -0.124065285339E+03    0.36393E-03   -0.15529E-01  3648   0.148E+00    0.748E-02
DAV:   2    -0.124065222092E+03    0.63247E-04   -0.18561E-03  4128   0.169E-01    0.447E-02
DAV:   3    -0.124065196528E+03    0.25564E-04   -0.22692E-04  5136   0.517E-02    0.122E-02
DAV:   4    -0.124065198620E+03   -0.20918E-05   -0.27312E-05  3936   0.178E-02    0.454E-03
DAV:   5    -0.124065199478E+03   -0.85843E-06   -0.13177E-06  3744   0.433E-03
  66 F= -.12583764E+03 E0= -.12583425E+03  d E =-.785373E-03  mag=     0.0000
 ZBRENT: can't locate minimum, use default step
 trial-energy change:   -0.000785  1 .order   -0.000784   -0.000823   -0.000744
 step:   0.3927(harm=  1.0146)  dis= 0.01803  next Energy=  -125.841105 (dE=-0.425E-02)
 bond charge predicted
       N       E                     dE             d eps       ncg     rms          rms(c)
DAV:   1    -0.124064188777E+03    0.10098E-02   -0.14002E+00  3648   0.445E+00    0.225E-01
DAV:   2    -0.124063654620E+03    0.53416E-03   -0.16659E-02  4896   0.506E-01    0.133E-01
DAV:   3    -0.124063416000E+03    0.23862E-03   -0.20437E-03  6384   0.154E-01    0.353E-02
DAV:   4    -0.124063413948E+03    0.20521E-05   -0.20008E-04  6480   0.497E-02    0.138E-02
DAV:   5    -0.124063411838E+03    0.21096E-05   -0.10845E-05  5904   0.107E-02    0.300E-03
DAV:   6    -0.124063411721E+03    0.11783E-06   -0.20889E-06  4800   0.515E-03
  67 F= -.12583958E+03 E0= -.12583593E+03  d E =-.272541E-02  mag=     0.0000
 curvature:  -6.17 expect dE=-0.212E-01 dE for cont linesearch -0.103E-02
 ZBRENT: increasing intervall
 opt :   0.9818  next Energy=  -125.841732 (dE=-0.488E-02)
 bond charge predicted
       N       E                     dE             d eps       ncg     rms          rms(c)
DAV:   1    -0.124061161317E+03    0.22505E-02   -0.56020E+00  3648   0.891E+00    0.449E-01
DAV:   2    -0.124059162539E+03    0.19988E-02   -0.66636E-02  6720   0.101E+00    0.264E-01
DAV:   3    -0.124058087225E+03    0.10753E-02   -0.73736E-03  5760   0.286E-01    0.696E-02
DAV:   4    -0.124058075413E+03    0.11813E-04   -0.78539E-04  6720   0.997E-02    0.262E-02
DAV:   5    -0.124058063620E+03    0.11793E-04   -0.43761E-05  6096   0.204E-02    0.572E-03
DAV:   6    -0.124058064240E+03   -0.62006E-06   -0.59364E-06  4416   0.851E-03
  68 F= -.12584178E+03 E0= -.12583804E+03  d E =-.493311E-02  mag=     0.0000
 curvature: -12.91 expect dE=-0.691E-01 dE for cont linesearch -0.253E-03
 ZBRENT: increasing intervall
 opt :   2.1600  next Energy=  -125.839701 (dE=-0.285E-02)
 bond charge predicted
       N       E                     dE             d eps       ncg     rms          rms(c)
DAV:   1    -0.124051618865E+03    0.64448E-02   -0.22412E+01  3648   0.178E+01    0.892E-01
DAV:   2    -0.124044232049E+03    0.73868E-02   -0.26555E-01  6720   0.202E+00    0.527E-01
DAV:   3    -0.124039846110E+03    0.43859E-02   -0.29385E-02  5616   0.570E-01    0.137E-01
DAV:   4    -0.124039813735E+03    0.32376E-04   -0.31562E-03  6672   0.200E-01    0.518E-02
DAV:   5    -0.124039760291E+03    0.53444E-04   -0.17277E-04  6240   0.397E-02    0.109E-02
DAV:   6    -0.124039761621E+03   -0.13299E-05   -0.26063E-05  4608   0.165E-02    0.530E-03
DAV:   7    -0.124039777379E+03   -0.15758E-04   -0.62126E-06  4800   0.979E-03    0.323E-03
DAV:   8    -0.124039791822E+03   -0.14443E-04   -0.30023E-06  4944   0.607E-03    0.217E-03
DAV:   9    -0.124039811197E+03   -0.19375E-04   -0.32488E-06  4848   0.419E-03    0.104E-03
DAV:  10    -0.124039821941E+03   -0.10745E-04   -0.18274E-06  4944   0.372E-03    0.765E-04
DAV:  11    -0.124039826675E+03   -0.47338E-05   -0.11307E-06  5904   0.431E-03    0.524E-04
DAV:  12    -0.124039829518E+03   -0.28431E-05   -0.67071E-07  5904   0.311E-03    0.235E-04
DAV:  13    -0.124039830498E+03   -0.97983E-06   -0.64848E-08  6192   0.846E-04
  69 F= -.12583906E+03 E0= -.12583600E+03  d E =-.221094E-02  mag=    -0.0000
 curvature: 106.24 expect dE= 0.499E+01 dE for cont linesearch  0.280E-01
 ZBRENT: bracketing found
 ZBRENT: interpolating
 opt :   1.2342  next Energy=  -125.842027 (dE=-0.518E-02)
 bond charge predicted
       N       E                     dE             d eps       ncg     rms          rms(c)
DAV:   1    -0.124062646271E+03   -0.22817E-01   -0.13842E+01  3648   0.140E+01    0.702E-01
DAV:   2    -0.124057569206E+03    0.50771E-02   -0.16195E-01  5568   0.158E+00    0.414E-01
DAV:   3    -0.124055034239E+03    0.25350E-02   -0.18626E-02  6048   0.457E-01    0.110E-01
DAV:   4    -0.124055061606E+03   -0.27367E-04   -0.19311E-03  5952   0.155E-01    0.414E-02
DAV:   5    -0.124055062454E+03   -0.84803E-06   -0.10378E-04  4704   0.313E-02    0.864E-03
DAV:   6    -0.124055059862E+03    0.25921E-05   -0.17129E-05  4512   0.125E-02    0.394E-03
DAV:   7    -0.124055063368E+03   -0.35061E-05   -0.23702E-06  3744   0.530E-03    0.206E-03
DAV:   8    -0.124055067466E+03   -0.40984E-05   -0.51666E-07  3840   0.225E-03    0.150E-03
DAV:   9    -0.124055074404E+03   -0.69377E-05   -0.51395E-07  5184   0.159E-03    0.807E-04
DAV:  10    -0.124055082277E+03   -0.78728E-05   -0.59269E-07  5760   0.144E-03    0.508E-04
DAV:  11    -0.124055088091E+03   -0.58140E-05   -0.24374E-07  5376   0.110E-03    0.250E-04
DAV:  12    -0.124055090356E+03   -0.22655E-05   -0.70248E-08  5760   0.976E-04    0.163E-04
DAV:  13    -0.124055091248E+03   -0.89223E-06   -0.26564E-08  5616   0.660E-04
  70 F= -.12584209E+03 E0= -.12583846E+03  d E =-.523828E-02  mag=     0.0000
 curvature:  -0.92 expect dE=-0.898E-02 dE for cont linesearch -0.293E-06
 trial: gam= 1.56366 g(F)=  0.975E-02 g(S)=  0.000E+00 ort = 0.245E-03 (trialstep = 0.130E+00)
 search vector abs. value=  0.473E+00
 bond charge predicted
       N       E                     dE             d eps       ncg     rms          rms(c)
DAV:   1    -0.124053932650E+03    0.11577E-02   -0.69884E-01  3648   0.314E+00    0.154E-01
DAV:   2    -0.124053748812E+03    0.18384E-03   -0.80684E-03  5952   0.352E-01    0.927E-02
DAV:   3    -0.124053624110E+03    0.12470E-03   -0.97784E-04  5664   0.104E-01    0.229E-02
DAV:   4    -0.124053624734E+03   -0.62415E-06   -0.10758E-04  6672   0.368E-02    0.973E-03
DAV:   5    -0.124053624845E+03   -0.11097E-06   -0.45273E-06  5280   0.698E-03
  71 F= -.12584336E+03 E0= -.12583982E+03  d E =-.126848E-02  mag=    -0.0000
 ZBRENT: can't locate minimum, use default step
 trial-energy change:   -0.001268  1 .order   -0.001264   -0.001319   -0.001209
 step:   0.5205(harm=  1.5675)  dis= 0.03893  next Energy=  -125.850033 (dE=-0.794E-02)
 bond charge predicted
       N       E                     dE             d eps       ncg     rms          rms(c)
DAV:   1    -0.124051273260E+03    0.23515E-02   -0.62947E+00  3648   0.942E+00    0.462E-01
DAV:   2    -0.124049653583E+03    0.16197E-02   -0.71986E-02  5760   0.105E+00    0.277E-01
DAV:   3    -0.124048509662E+03    0.11439E-02   -0.87814E-03  5568   0.311E-01    0.689E-02
DAV:   4    -0.124048500080E+03    0.95814E-05   -0.96109E-04  6624   0.110E-01    0.288E-02
DAV:   5    -0.124048490766E+03    0.93141E-05   -0.41984E-05  5856   0.207E-02    0.532E-03
DAV:   6    -0.124048490406E+03    0.36048E-06   -0.64972E-06  5184   0.745E-03
[...]
DAV:   5    -0.123963920724E+03   -0.95838E-06   -0.72373E-06  4896   0.970E-03
 103 F= -.12587719E+03 E0= -.12587550E+03  d E =-.196454E-02  mag=     0.0000
 curvature:  -0.75 expect dE=-0.265E-02 dE for cont linesearch -0.468E-06
 trial: gam= 1.32970 g(F)=  0.354E-02 g(S)=  0.000E+00 ort = 0.105E-03 (trialstep = 0.223E+00)
 search vector abs. value=  0.350E-01
 bond charge predicted
       N       E                     dE             d eps       ncg     rms          rms(c)
DAV:   1    -0.123964210469E+03   -0.29070E-03   -0.81912E-02  3648   0.102E+00    0.543E-02
DAV:   2    -0.123964200709E+03    0.97598E-05   -0.70314E-04  6624   0.106E-01    0.316E-02
DAV:   3    -0.123964187214E+03    0.13494E-04   -0.76146E-05  4320   0.298E-02    0.831E-03
DAV:   4    -0.123964187561E+03   -0.34617E-06   -0.98781E-06  5232   0.126E-02
 104 F= -.12587785E+03 E0= -.12587628E+03  d E =-.651725E-03  mag=    -0.0000
 trial-energy change:   -0.000652  1 .order   -0.000650   -0.000821   -0.000478
 step:   0.5329(harm=  0.5329)  dis= 0.01742  next Energy=  -125.878175 (dE=-0.982E-03)
 bond charge predicted
       N       E                     dE             d eps       ncg     rms          rms(c)
DAV:   1    -0.123964009415E+03    0.17780E-03   -0.15825E-01  3648   0.142E+00    0.756E-02
DAV:   2    -0.123963994731E+03    0.14684E-04   -0.13293E-03  6528   0.147E-01    0.440E-02
DAV:   3    -0.123963970899E+03    0.23832E-04   -0.14729E-04  4992   0.416E-02    0.116E-02
DAV:   4    -0.123963971290E+03   -0.39098E-06   -0.18506E-05  5280   0.169E-02    0.529E-03
DAV:   5    -0.123963971588E+03   -0.29820E-06   -0.11843E-06  5472   0.501E-03
 105 F= -.12587816E+03 E0= -.12587672E+03  d E =-.968542E-03  mag=    -0.0000
 curvature:  -2.53 expect dE=-0.389E-02 dE for cont linesearch -0.104E-05
 trial: gam= 0.32989 g(F)=  0.154E-02 g(S)=  0.000E+00 ort =-0.120E-03 (trialstep = 0.285E+00)
 search vector abs. value=  0.527E-02
 bond charge predicted
       N       E                     dE             d eps       ncg     rms          rms(c)
DAV:   1    -0.123964319430E+03   -0.34814E-03   -0.19939E-02  3648   0.509E-01    0.255E-02
DAV:   2    -0.123964319626E+03   -0.19625E-06   -0.13695E-04  5712   0.469E-02    0.151E-02
DAV:   3    -0.123964317828E+03    0.17981E-05   -0.16638E-05  4224   0.137E-02    0.326E-03
DAV:   4    -0.123964317887E+03   -0.58456E-07   -0.22651E-06  4608   0.707E-03
 106 F= -.12587855E+03 E0= -.12587713E+03  d E =-.388740E-03  mag=     0.0000
 ZBRENT: can't locate minimum, use default step
 trial-energy change:   -0.000389  1 .order   -0.000388   -0.000427   -0.000350
 step:   1.1398(harm=  1.5844)  dis= 0.01017  next Energy=  -125.879349 (dE=-0.119E-02)
 bond charge predicted
       N       E                     dE             d eps       ncg     rms          rms(c)
DAV:   1    -0.123964906554E+03   -0.58873E-03   -0.17895E-01  3648   0.153E+00    0.767E-02
DAV:   2    -0.123964907749E+03   -0.11949E-05   -0.11995E-03  7152   0.138E-01    0.452E-02
DAV:   3    -0.123964887451E+03    0.20298E-04   -0.14281E-04  4464   0.373E-02    0.890E-03
DAV:   4    -0.123964887937E+03   -0.48535E-06   -0.13261E-05  5904   0.143E-02    0.422E-03
DAV:   5    -0.123964888047E+03   -0.11035E-06   -0.85043E-07  5520   0.413E-03
 107 F= -.12587925E+03 E0= -.12587788E+03  d E =-.108522E-02  mag=     0.0000
 curvature:  -2.46 expect dE=-0.317E-02 dE for cont linesearch -0.732E-04
 ZBRENT: extrapolating
 opt :   1.5462  next Energy=  -125.879328 (dE=-0.117E-02)
 bond charge predicted
       N       E                     dE             d eps       ncg     rms          rms(c)
DAV:   1    -0.123964909247E+03   -0.21310E-04   -0.40402E-02  3648   0.725E-01    0.362E-02
DAV:   2    -0.123964909534E+03   -0.28767E-06   -0.27231E-04  6912   0.659E-02    0.214E-02
DAV:   3    -0.123964905574E+03    0.39600E-05   -0.32274E-05  4368   0.183E-02    0.426E-03
DAV:   4    -0.123964905675E+03   -0.10066E-06   -0.36122E-06  4896   0.857E-03
 108 F= -.12587932E+03 E0= -.12587797E+03  d E =-.116268E-02  mag=    -0.0000
 curvature:  -2.70 expect dE=-0.542E-02 dE for cont linesearch -0.133E-06
 trial: gam= 1.14302 g(F)=  0.200E-02 g(S)=  0.000E+00 ort =-0.161E-04 (trialstep = 0.320E+00)
 search vector abs. value=  0.885E-02
 bond charge predicted
       N       E                     dE             d eps       ncg     rms          rms(c)
DAV:   1    -0.123965485443E+03   -0.57987E-03   -0.43904E-02  3648   0.778E-01    0.416E-02
DAV:   2    -0.123965474928E+03    0.10515E-04   -0.37268E-04  6336   0.769E-02    0.236E-02
DAV:   3    -0.123965468768E+03    0.61606E-05   -0.44962E-05  4512   0.221E-02    0.652E-03
DAV:   4    -0.123965469029E+03   -0.26138E-06   -0.52871E-06  4704   0.998E-03
 109 F= -.12587982E+03 E0= -.12587847E+03  d E =-.498103E-03  mag=    -0.0000
 trial-energy change:   -0.000498  1 .order   -0.000498   -0.000635   -0.000360
 step:   0.7388(harm=  0.7388)  dis= 0.00517  next Energy=  -125.880058 (dE=-0.734E-03)
 bond charge predicted
       N       E                     dE             d eps       ncg     rms          rms(c)
DAV:   1    -0.123965819322E+03   -0.35055E-03   -0.75357E-02  3648   0.102E+00    0.548E-02
DAV:   2    -0.123965800308E+03    0.19014E-04   -0.63989E-04  6624   0.101E-01    0.310E-02
DAV:   3    -0.123965789740E+03    0.10569E-04   -0.76027E-05  4368   0.287E-02    0.865E-03
DAV:   4    -0.123965790160E+03   -0.42013E-06   -0.89257E-06  5520   0.126E-02
 110 F= -.12588006E+03 E0= -.12587870E+03  d E =-.732487E-03  mag=    -0.0000
 curvature:  -1.65 expect dE=-0.194E-02 dE for cont linesearch -0.555E-07
 trial: gam= 0.56240 g(F)=  0.118E-02 g(S)=  0.000E+00 ort =-0.173E-04 (trialstep = 0.404E+00)
 search vector abs. value=  0.396E-02
 bond charge predicted
       N       E                     dE             d eps       ncg     rms          rms(c)
DAV:   1    -0.123966376785E+03   -0.58705E-03   -0.31706E-02  3648   0.687E-01    0.339E-02
DAV:   2    -0.123966376817E+03   -0.31731E-07   -0.25449E-04  6240   0.674E-02    0.201E-02
DAV:   3    -0.123966373975E+03    0.28421E-05   -0.30988E-05  4752   0.198E-02    0.534E-03
DAV:   4    -0.123966373966E+03    0.90240E-08   -0.48769E-06  4704   0.996E-03
 111 F= -.12588043E+03 E0= -.12587907E+03  d E =-.368232E-03  mag=    -0.0000
 trial-energy change:   -0.000368  1 .order   -0.000368   -0.000472   -0.000263
 step:   0.9123(harm=  0.9123)  dis= 0.00183  next Energy=  -125.880591 (dE=-0.534E-03)
 bond charge predicted
       N       E                     dE             d eps       ncg     rms          rms(c)
DAV:   1    -0.123966818069E+03   -0.44409E-03   -0.50367E-02  3744   0.866E-01    0.431E-02
DAV:   2    -0.123966816466E+03    0.16032E-05   -0.40333E-04  6720   0.845E-02    0.255E-02
DAV:   3    -0.123966811200E+03    0.52662E-05   -0.48959E-05  4896   0.245E-02    0.675E-03
DAV:   4    -0.123966811178E+03    0.22444E-07   -0.73156E-06  5136   0.117E-02
 112 F= -.12588059E+03 E0= -.12587922E+03  d E =-.532836E-03  mag=    -0.0000
 curvature:  -1.54 expect dE=-0.189E-02 dE for cont linesearch -0.211E-07
 trial: gam= 1.01464 g(F)=  0.122E-02 g(S)=  0.000E+00 ort =-0.735E-05 (trialstep = 0.379E+00)
 search vector abs. value=  0.529E-02
 bond charge predicted
       N       E                     dE             d eps       ncg     rms          rms(c)
DAV:   1    -0.123967555818E+03   -0.74462E-03   -0.36653E-02  3840   0.728E-01    0.362E-02
DAV:   2    -0.123967557242E+03   -0.14243E-05   -0.27049E-04  6912   0.684E-02    0.215E-02
DAV:   3    -0.123967553617E+03    0.36249E-05   -0.32214E-05  5712   0.195E-02    0.437E-03
DAV:   4    -0.123967553508E+03    0.10896E-06   -0.43214E-06  4896   0.940E-03
 113 F= -.12588096E+03 E0= -.12587959E+03  d E =-.374116E-03  mag=     0.0000
 trial-energy change:   -0.000374  1 .order   -0.000375   -0.000461   -0.000289
 step:   1.0162(harm=  1.0162)  dis= 0.00207  next Energy=  -125.881208 (dE=-0.618E-03)
 bond charge predicted
       N       E                     dE             d eps       ncg     rms          rms(c)
DAV:   1    -0.123968422302E+03   -0.86868E-03   -0.10387E-01  3648   0.123E+00    0.609E-02
DAV:   2    -0.123968428262E+03   -0.59602E-05   -0.77076E-04  7152   0.116E-01    0.363E-02
DAV:   3    -0.123968415375E+03    0.12886E-04   -0.91374E-05  6048   0.322E-02    0.733E-03
DAV:   4    -0.123968415086E+03    0.28939E-06   -0.11020E-05  5472   0.139E-02    0.373E-03
DAV:   5    -0.123968415232E+03   -0.14611E-06   -0.13372E-06  4896   0.571E-03
 114 F= -.12588121E+03 E0= -.12587981E+03  d E =-.615761E-03  mag=    -0.0000
 curvature:  -2.21 expect dE=-0.138E-02 dE for cont linesearch -0.262E-09
 trial: gam= 0.49153 g(F)=  0.627E-03 g(S)=  0.000E+00 ort =-0.792E-06 (trialstep = 0.506E+00)
 search vector abs. value=  0.190E-02
 bond charge predicted
       N       E                     dE             d eps       ncg     rms          rms(c)
DAV:   1    -0.123969098110E+03   -0.68302E-03   -0.27007E-02  3648   0.641E-01    0.312E-02
DAV:   2    -0.123969100189E+03   -0.20784E-05   -0.26238E-04  6144   0.683E-02    0.184E-02
DAV:   3    -0.123969097831E+03    0.23576E-05   -0.26498E-05  5184   0.199E-02    0.517E-03
DAV:   4    -0.123969098059E+03   -0.22782E-06   -0.53759E-06  4080   0.110E-02
 115 F= -.12588145E+03 E0= -.12588005E+03  d E =-.248145E-03  mag=    -0.0000
 trial-energy change:   -0.000248  1 .order   -0.000248   -0.000317   -0.000178
 step:   1.1532(harm=  1.1532)  dis= 0.00239  next Energy=  -125.881567 (dE=-0.361E-03)
 bond charge predicted
       N       E                     dE             d eps       ncg     rms          rms(c)
DAV:   1    -0.123969767641E+03   -0.66981E-03   -0.44134E-02  3648   0.819E-01    0.402E-02
DAV:   2    -0.123969771784E+03   -0.41429E-05   -0.42914E-04  6720   0.872E-02    0.238E-02
DAV:   3    -0.123969767364E+03    0.44195E-05   -0.41650E-05  5280   0.242E-02    0.661E-03
DAV:   4    -0.123969767604E+03   -0.23934E-06   -0.76779E-06  4464   0.126E-02
 116 F= -.12588157E+03 E0= -.12588015E+03  d E =-.361830E-03  mag=    -0.0000
 curvature:  -1.75 expect dE=-0.150E-02 dE for cont linesearch -0.512E-09
 trial: gam= 1.36091 g(F)=  0.857E-03 g(S)=  0.000E+00 ort = 0.746E-06 (trialstep = 0.276E+00)
 search vector abs. value=  0.438E-02
 bond charge predicted
       N       E                     dE             d eps       ncg     rms          rms(c)
DAV:   1    -0.123970385468E+03   -0.61810E-03   -0.20356E-02  3648   0.553E-01    0.262E-02
DAV:   2    -0.123970387588E+03   -0.21198E-05   -0.19332E-04  6576   0.589E-02    0.160E-02
DAV:   3    -0.123970386266E+03    0.13220E-05   -0.20698E-05  4416   0.178E-02    0.405E-03
DAV:   4    -0.123970386432E+03   -0.16624E-06   -0.51637E-06  4176   0.110E-02
 117 F= -.12588177E+03 E0= -.12588035E+03  d E =-.201148E-03  mag=    -0.0000
 trial-energy change:   -0.000201  1 .order   -0.000200   -0.000237   -0.000163
 step:   0.8866(harm=  0.8866)  dis= 0.00410  next Energy=  -125.881948 (dE=-0.380E-03)
 bond charge predicted
       N       E                     dE             d eps       ncg     rms          rms(c)
DAV:   1    -0.123971491767E+03   -0.11055E-02   -0.99614E-02  3648   0.122E+00    0.582E-02
DAV:   2    -0.123971501302E+03   -0.95347E-05   -0.93718E-04  6912   0.128E-01    0.353E-02
DAV:   3    -0.123971488973E+03    0.12329E-04   -0.10061E-04  6000   0.358E-02    0.872E-03
DAV:   4    -0.123971489014E+03   -0.41064E-07   -0.15727E-05  4896   0.161E-02    0.429E-03
DAV:   5    -0.123971489197E+03   -0.18364E-06   -0.17278E-06  4320   0.645E-03
 118 F= -.12588195E+03 E0= -.12588052E+03  d E =-.379115E-03  mag=     0.0000
 curvature:  -2.27 expect dE=-0.137E-02 dE for cont linesearch -0.166E-09
 trial: gam= 0.71380 g(F)=  0.606E-03 g(S)=  0.000E+00 ort = 0.567E-06 (trialstep = 0.398E+00)
 search vector abs. value=  0.284E-02
 bond charge predicted
       N       E                     dE             d eps       ncg     rms          rms(c)
DAV:   1    -0.123972252264E+03   -0.76325E-03   -0.31321E-02  3648   0.685E-01    0.319E-02
DAV:   2    -0.123972251982E+03    0.28176E-06   -0.30675E-04  5760   0.730E-02    0.195E-02
DAV:   3    -0.123972248897E+03    0.30851E-05   -0.31921E-05  5424   0.214E-02    0.539E-03
DAV:   4    -0.123972249575E+03   -0.67797E-06   -0.60449E-06  4608   0.112E-02
 119 F= -.12588214E+03 E0= -.12588070E+03  d E =-.190957E-03  mag=     0.0000
 trial-energy change:   -0.000191  1 .order   -0.000191   -0.000241   -0.000140
 step:   0.9504(harm=  0.9504)  dis= 0.00325  next Energy=  -125.882235 (dE=-0.288E-03)
 bond charge predicted
       N       E                     dE             d eps       ncg     rms          rms(c)
DAV:   1    -0.123973141978E+03   -0.89308E-03   -0.60291E-02  3648   0.950E-01    0.446E-02
DAV:   2    -0.123973142388E+03   -0.40999E-06   -0.59370E-04  6432   0.101E-01    0.274E-02
DAV:   3    -0.123973135157E+03    0.72312E-05   -0.58876E-05  5280   0.281E-02    0.739E-03
DAV:   4    -0.123973135946E+03   -0.78896E-06   -0.99940E-06  4752   0.133E-02
 120 F= -.12588223E+03 E0= -.12588079E+03  d E =-.287265E-03  mag=     0.0000
 curvature:  -2.23 expect dE=-0.920E-03 dE for cont linesearch -0.506E-09
 trial: gam= 0.68022 g(F)=  0.413E-03 g(S)=  0.000E+00 ort = 0.803E-06 (trialstep = 0.509E+00)
 search vector abs. value=  0.173E-02
 bond charge predicted
       N       E                     dE             d eps       ncg     rms          rms(c)
DAV:   1    -0.123973967317E+03   -0.83216E-03   -0.34636E-02  3648   0.709E-01    0.354E-02
DAV:   2    -0.123973956660E+03    0.10658E-04   -0.38446E-04  5376   0.799E-02    0.211E-02
DAV:   3    -0.123973952304E+03    0.43552E-05   -0.47912E-05  6336   0.250E-02    0.605E-03
DAV:   4    -0.123973953129E+03   -0.82484E-06   -0.74804E-06  4320   0.120E-02
 121 F= -.12588239E+03 E0= -.12588095E+03  d E =-.158963E-03  mag=     0.0000
 trial-energy change:   -0.000159  1 .order   -0.000159   -0.000211   -0.000107
 step:   1.0391(harm=  1.0391)  dis= 0.00221  next Energy=  -125.882449 (dE=-0.215E-03)
 bond charge predicted
       N       E                     dE             d eps       ncg     rms          rms(c)
DAV:   1    -0.123974711242E+03   -0.75894E-03   -0.37668E-02  3648   0.740E-01    0.371E-02
DAV:   2    -0.123974699027E+03    0.12216E-04   -0.41823E-04  5376   0.832E-02    0.222E-02
DAV:   3    -0.123974694267E+03    0.47598E-05   -0.52848E-05  6576   0.261E-02    0.641E-03
DAV:   4    -0.123974695061E+03   -0.79381E-06   -0.78569E-06  4416   0.121E-02
 122 F= -.12588245E+03 E0= -.12588100E+03  d E =-.214445E-03  mag=     0.0000
 curvature:  -2.17 expect dE=-0.127E-02 dE for cont linesearch -0.315E-09
 trial: gam= 1.42395 g(F)=  0.584E-03 g(S)=  0.000E+00 ort =-0.501E-06 (trialstep = 0.260E+00)
 search vector abs. value=  0.409E-02
 bond charge predicted
       N       E                     dE             d eps       ncg     rms          rms(c)
DAV:   1    -0.123975397733E+03   -0.70347E-03   -0.21743E-02  3648   0.556E-01    0.273E-02
DAV:   2    -0.123975392014E+03    0.57184E-05   -0.22866E-04  5232   0.617E-02    0.165E-02
DAV:   3    -0.123975390024E+03    0.19906E-05   -0.28979E-05  5232   0.194E-02    0.423E-03
DAV:   4    -0.123975390776E+03   -0.75271E-06   -0.50727E-06  4608   0.980E-03
 123 F= -.12588259E+03 E0= -.12588114E+03  d E =-.141242E-03  mag=    -0.0000
 ZBRENT: can't locate minimum, use default step
 trial-energy change:   -0.000141  1 .order   -0.000141   -0.000152   -0.000131
 step:   1.0398(harm=  1.8954)  dis= 0.00311  next Energy=  -125.883001 (dE=-0.552E-03)
 bond charge predicted
       N       E                     dE             d eps       ncg     rms          rms(c)
DAV:   1    -0.123977428402E+03   -0.20384E-02   -0.19562E-01  3648   0.167E+00    0.813E-02
DAV:   2    -0.123977377001E+03    0.51401E-04   -0.20289E-03  5568   0.182E-01    0.486E-02
DAV:   3    -0.123977348688E+03    0.28313E-04   -0.25192E-04  5712   0.549E-02    0.123E-02
DAV:   4    -0.123977350221E+03   -0.15331E-05   -0.33575E-05  4752   0.218E-02    0.527E-03
DAV:   5    -0.123977351246E+03   -0.10246E-05   -0.27228E-06  4224   0.796E-03    0.190E-03
DAV:   6    -0.123977350785E+03    0.46099E-06   -0.99090E-07  5520   0.477E-03
 124 F= -.12588289E+03 E0= -.12588143E+03  d E =-.439123E-03  mag=     0.0000
 curvature:  -4.83 expect dE=-0.171E-02 dE for cont linesearch -0.823E-04
 ZBRENT: increasing intervall
 opt :   2.5996  next Energy=  -125.882927 (dE=-0.478E-03)
 bond charge predicted
       N       E                     dE             d eps       ncg     rms          rms(c)
DAV:   1    -0.123981047938E+03   -0.36967E-02   -0.78313E-01  3648   0.334E+00    0.162E-01
DAV:   2    -0.123980834583E+03    0.21335E-03   -0.80862E-03  5952   0.360E-01    0.963E-02
DAV:   3    -0.123980720773E+03    0.11381E-03   -0.98884E-04  5856   0.107E-01    0.242E-02
DAV:   4    -0.123980721704E+03   -0.93036E-06   -0.12184E-04  4848   0.397E-02    0.101E-02
DAV:   5    -0.123980723056E+03   -0.13524E-05   -0.57514E-06  4704   0.893E-03    0.236E-03
DAV:   6    -0.123980723375E+03   -0.31917E-06   -0.12322E-06  6096   0.381E-03
 125 F= -.12588294E+03 E0= -.12588145E+03  d E =-.493209E-03  mag=     0.0000
 curvature:  -2.30 expect dE=-0.358E-02 dE for cont linesearch -0.197E-04
 ZBRENT: bracketing found
 ZBRENT: interpolating
 opt :   1.9531  next Energy=  -125.883002 (dE=-0.554E-03)
 bond charge predicted
       N       E                     dE             d eps       ncg     rms          rms(c)
DAV:   1    -0.123979464854E+03    0.12582E-02   -0.13449E-01  3648   0.138E+00    0.671E-02
DAV:   2    -0.123979431867E+03    0.32987E-04   -0.14134E-03  5904   0.150E-01    0.401E-02
DAV:   3    -0.123979414140E+03    0.17727E-04   -0.16999E-04  6048   0.443E-02    0.100E-02
DAV:   4    -0.123979414615E+03   -0.47509E-06   -0.21363E-05  4560   0.171E-02    0.422E-03
DAV:   5    -0.123979415353E+03   -0.73798E-06   -0.13458E-06  5616   0.539E-03
 126 F= -.12588301E+03 E0= -.12588153E+03  d E =-.559813E-03  mag=    -0.0000
 curvature:  -7.07 expect dE=-0.589E-02 dE for cont linesearch -0.579E-08
 trial: gam= 1.46443 g(F)=  0.834E-03 g(S)=  0.000E+00 ort =-0.183E-05 (trialstep = 0.255E+00)
 search vector abs. value=  0.959E-02
 bond charge predicted
       N       E                     dE             d eps       ncg     rms          rms(c)
DAV:   1    -0.123980442384E+03   -0.10278E-02   -0.51961E-02  3648   0.867E-01    0.425E-02
DAV:   2    -0.123980425018E+03    0.17365E-04   -0.59584E-04  4416   0.987E-02    0.258E-02
DAV:   3    -0.123980418101E+03    0.69174E-05   -0.80343E-05  6480   0.316E-02    0.741E-03
DAV:   4    -0.123980418973E+03   -0.87227E-06   -0.11359E-05  5040   0.131E-02    0.358E-03
DAV:   5    -0.123980419460E+03   -0.48692E-06   -0.11050E-06  4608   0.545E-03
 127 F= -.12588317E+03 E0= -.12588169E+03  d E =-.160576E-03  mag=     0.0000
 trial-energy change:   -0.000161  1 .order   -0.000160   -0.000212   -0.000109
 step:   0.5240(harm=  0.5240)  dis= 0.00278  next Energy=  -125.883226 (dE=-0.218E-03)
 bond charge predicted
       N       E                     dE             d eps       ncg     rms          rms(c)
DAV:   1    -0.123981393850E+03   -0.97488E-03   -0.57959E-02  3648   0.915E-01    0.448E-02
DAV:   2    -0.123981376040E+03    0.17810E-04   -0.66407E-04  4464   0.104E-01    0.271E-02
DAV:   3    -0.123981368018E+03    0.80221E-05   -0.86932E-05  6816   0.331E-02    0.783E-03
DAV:   4    -0.123981368827E+03   -0.80840E-06   -0.12690E-05  4656   0.143E-02    0.375E-03
DAV:   5    -0.123981369205E+03   -0.37787E-06   -0.16600E-06  4560   0.666E-03
 128 F= -.12588323E+03 E0= -.12588174E+03  d E =-.220746E-03  mag=    -0.0000
 curvature:  -3.03 expect dE=-0.870E-03 dE for cont linesearch -0.307E-07
 trial: gam= 0.33849 g(F)=  0.287E-03 g(S)=  0.000E+00 ort = 0.986E-05 (trialstep = 0.309E+00)
 search vector abs. value=  0.139E-02
