  15  15   0  16
  0.2040470E+02  0.4854000E-09  0.4854000E-09  0.1500000E-08  0.5000000E-15
  1.000000000000000E-004
  CAR 
 Lattice                                 
     10.30031075    -21.66123556  301     -0.32934417      1.00000000
    -21.661  0.0000E+00  0.0000E+00  0.0000E+00  0.0000E+00
    -21.555  0.0000E+00  0.0000E+00  0.0000E+00  0.0000E+00
    -21.448  0.0000E+00  0.0000E+00  0.0000E+00  0.0000E+00
    -21.342  0.0000E+00  0.0000E+00  0.0000E+00  0.0000E+00
    -21.235  0.0000E+00  0.0000E+00  0.0000E+00  0.0000E+00
    -21.129  0.0000E+00  0.0000E+00  0.0000E+00  0.0000E+00
    -21.022  0.0000E+00  0.0000E+00  0.0000E+00  0.0000E+00
    -20.915  0.0000E+00  0.0000E+00  0.0000E+00  0.0000E+00
    -20.809  0.0000E+00  0.0000E+00  0.0000E+00  0.0000E+00
    -20.702  0.7744E-15  0.7744E-15  0.8250E-16  0.8250E-16
    -20.596  0.1279E-10  0.1279E-10  0.1362E-11  0.1362E-11
    -20.489  0.2562E-07  0.2562E-07  0.2731E-08  0.2731E-08
    -20.383  0.6846E-05  0.6846E-05  0.7321E-06  0.7321E-06
    -20.276  0.2725E-03  0.2725E-03  0.2976E-04  0.2976E-04
    -20.170  0.1978E-02  0.1978E-02  0.2405E-03  0.2405E-03
    -20.063  0.4157E-02  0.4157E-02  0.6834E-03  0.6834E-03
    -19.957  0.4531E-02  0.4531E-02  0.1166E-02  0.1166E-02
    -19.850  0.4944E-02  0.4944E-02  0.1693E-02  0.1693E-02
    -19.744  0.4168E-02  0.4168E-02  0.2137E-02  0.2137E-02
    -19.637  0.5391E-02  0.5391E-02  0.2711E-02  0.2711E-02
    -19.530  0.4222E-02  0.4222E-02  0.3161E-02  0.3161E-02
    -19.424  0.4273E-02  0.4273E-02  0.3616E-02  0.3616E-02
    -19.317  0.6014E-02  0.6014E-02  0.4257E-02  0.4257E-02
    -19.211  0.3814E-02  0.3814E-02  0.4663E-02  0.4663E-02
    -19.104  0.3904E-02  0.3904E-02  0.5079E-02  0.5079E-02
    -18.998  0.6127E-02  0.6127E-02  0.5732E-02  0.5732E-02
    -18.891  0.5207E-02  0.5207E-02  0.6287E-02  0.6287E-02
    -18.785  0.2962E-02  0.2962E-02  0.6602E-02  0.6602E-02
    -18.678  0.4416E-02  0.4416E-02  0.7073E-02  0.7073E-02
    -18.572  0.6909E-02  0.6909E-02  0.7809E-02  0.7809E-02
    -18.465  0.4556E-02  0.4556E-02  0.8294E-02  0.8294E-02
    -18.359  0.3798E-02  0.3798E-02  0.8699E-02  0.8699E-02
    -18.252  0.3008E-02  0.3008E-02  0.9019E-02  0.9019E-02
    -18.145  0.6660E-02  0.6660E-02  0.9729E-02  0.9729E-02
    -18.039  0.6593E-02  0.6593E-02  0.1043E-01  0.1043E-01
    -17.932  0.3520E-02  0.3520E-02  0.1081E-01  0.1081E-01
    -17.826  0.3313E-02  0.3313E-02  0.1116E-01  0.1116E-01
    -17.719  0.4121E-02  0.4121E-02  0.1160E-01  0.1160E-01
    -17.613  0.6263E-02  0.6263E-02  0.1227E-01  0.1227E-01
    -17.506  0.6774E-02  0.6774E-02  0.1299E-01  0.1299E-01
    -17.400  0.5857E-02  0.5857E-02  0.1361E-01  0.1361E-01
    -17.293  0.7051E-02  0.7051E-02  0.1436E-01  0.1436E-01
    -17.187  0.1050E-01  0.1050E-01  0.1548E-01  0.1548E-01
    -17.080  0.1478E-01  0.1478E-01  0.1706E-01  0.1706E-01
    -16.974  0.1589E-01  0.1589E-01  0.1875E-01  0.1875E-01
    -16.867  0.1780E-01  0.1780E-01  0.2065E-01  0.2065E-01
    -16.760  0.2117E-01  0.2117E-01  0.2290E-01  0.2290E-01
    -16.654  0.1476E-01  0.1476E-01  0.2447E-01  0.2447E-01
    -16.547  0.4249E-02  0.4249E-02  0.2493E-01  0.2493E-01
    -16.441  0.7341E-02  0.7341E-02  0.2571E-01  0.2571E-01
    -16.334  0.8060E-02  0.8060E-02  0.2657E-01  0.2657E-01
    -16.228  0.4556E-02  0.4556E-02  0.2705E-01  0.2705E-01
    -16.121  0.4142E-02  0.4142E-02  0.2749E-01  0.2749E-01
    -16.015  0.3900E-02  0.3900E-02  0.2791E-01  0.2791E-01
    -15.908  0.3773E-02  0.3773E-02  0.2831E-01  0.2831E-01
    -15.802  0.3770E-02  0.3770E-02  0.2871E-01  0.2871E-01
    -15.695  0.8210E-02  0.8210E-02  0.2959E-01  0.2959E-01
    -15.589  0.7941E-02  0.7941E-02  0.3043E-01  0.3043E-01
    -15.482  0.3909E-02  0.3909E-02  0.3085E-01  0.3085E-01
    -15.375  0.3871E-02  0.3871E-02  0.3126E-01  0.3126E-01
    -15.269  0.3424E-02  0.3424E-02  0.3163E-01  0.3163E-01
    -15.162  0.4677E-02  0.4677E-02  0.3213E-01  0.3213E-01
    -15.056  0.6373E-02  0.6373E-02  0.3280E-01  0.3280E-01
    -14.949  0.1157E-01  0.1157E-01  0.3404E-01  0.3404E-01
    -14.843  0.1755E-01  0.1755E-01  0.3591E-01  0.3591E-01
    -14.736  0.1861E-01  0.1861E-01  0.3789E-01  0.3789E-01
    -14.630  0.1689E-01  0.1689E-01  0.3969E-01  0.3969E-01
    -14.523  0.1040E-01  0.1040E-01  0.4080E-01  0.4080E-01
    -14.417  0.8041E-02  0.8041E-02  0.4165E-01  0.4165E-01
    -14.310  0.1524E-01  0.1524E-01  0.4328E-01  0.4328E-01
    -14.204  0.1517E-01  0.1517E-01  0.4489E-01  0.4489E-01
    -14.097  0.1134E-01  0.1134E-01  0.4610E-01  0.4610E-01
    -13.990  0.1067E-01  0.1067E-01  0.4724E-01  0.4724E-01
    -13.884  0.1324E-01  0.1324E-01  0.4865E-01  0.4865E-01
    -13.777  0.1993E-01  0.1993E-01  0.5077E-01  0.5077E-01
    -13.671  0.1929E-01  0.1929E-01  0.5283E-01  0.5283E-01
    -13.564  0.1763E-01  0.1763E-01  0.5470E-01  0.5470E-01
    -13.458  0.1010E-01  0.1010E-01  0.5578E-01  0.5578E-01
    -13.351  0.6349E-02  0.6349E-02  0.5646E-01  0.5646E-01
    -13.245  0.3347E-02  0.3347E-02  0.5681E-01  0.5681E-01
    -13.138  0.4097E-02  0.4097E-02  0.5725E-01  0.5725E-01
    -13.032  0.6929E-02  0.6929E-02  0.5799E-01  0.5799E-01
    -12.925  0.6856E-02  0.6856E-02  0.5872E-01  0.5872E-01
    -12.819  0.4848E-02  0.4848E-02  0.5923E-01  0.5923E-01
    -12.712  0.6905E-02  0.6905E-02  0.5997E-01  0.5997E-01
    -12.605  0.7066E-02  0.7066E-02  0.6072E-01  0.6072E-01
    -12.499  0.5529E-02  0.5529E-02  0.6131E-01  0.6131E-01
    -12.392  0.5401E-02  0.5401E-02  0.6189E-01  0.6189E-01
    -12.286  0.3294E-02  0.3294E-02  0.6224E-01  0.6224E-01
    -12.179  0.6493E-02  0.6493E-02  0.6293E-01  0.6293E-01
    -12.073  0.8025E-02  0.8025E-02  0.6379E-01  0.6379E-01
    -11.966  0.3270E-02  0.3270E-02  0.6413E-01  0.6413E-01
    -11.860  0.3360E-02  0.3360E-02  0.6449E-01  0.6449E-01
    -11.753  0.3423E-02  0.3423E-02  0.6486E-01  0.6486E-01
    -11.647  0.6155E-02  0.6155E-02  0.6551E-01  0.6551E-01
    -11.540  0.6650E-02  0.6650E-02  0.6622E-01  0.6622E-01
    -11.434  0.3703E-02  0.3703E-02  0.6662E-01  0.6662E-01
    -11.327  0.1925E-02  0.1925E-02  0.6682E-01  0.6682E-01
    -11.220  0.4709E-02  0.4709E-02  0.6732E-01  0.6732E-01
    -11.114  0.5820E-02  0.5820E-02  0.6794E-01  0.6794E-01
    -11.007  0.5058E-02  0.5058E-02  0.6848E-01  0.6848E-01
    -10.901  0.7601E-02  0.7601E-02  0.6929E-01  0.6929E-01
    -10.794  0.6230E-02  0.6230E-02  0.6995E-01  0.6995E-01
    -10.688  0.2606E-02  0.2606E-02  0.7023E-01  0.7023E-01
    -10.581  0.8252E-02  0.8252E-02  0.7111E-01  0.7111E-01
    -10.475  0.1334E-01  0.1334E-01  0.7253E-01  0.7253E-01
    -10.368  0.1535E-01  0.1535E-01  0.7417E-01  0.7417E-01
    -10.262  0.1453E-01  0.1453E-01  0.7572E-01  0.7572E-01
    -10.155  0.1493E-01  0.1493E-01  0.7731E-01  0.7731E-01
    -10.049  0.1829E-01  0.1829E-01  0.7925E-01  0.7925E-01
     -9.942  0.1795E-01  0.1795E-01  0.8117E-01  0.8117E-01
     -9.835  0.9626E-02  0.9626E-02  0.8219E-01  0.8219E-01
     -9.729  0.7693E-02  0.7693E-02  0.8301E-01  0.8301E-01
     -9.622  0.1430E-01  0.1430E-01  0.8454E-01  0.8454E-01
     -9.516  0.1454E-01  0.1454E-01  0.8608E-01  0.8608E-01
     -9.409  0.1649E-01  0.1649E-01  0.8784E-01  0.8784E-01
     -9.303  0.1630E-01  0.1630E-01  0.8958E-01  0.8958E-01
     -9.196  0.1384E-01  0.1384E-01  0.9105E-01  0.9105E-01
     -9.090  0.1009E-01  0.1009E-01  0.9213E-01  0.9213E-01
     -8.983  0.7840E-02  0.7840E-02  0.9296E-01  0.9296E-01
     -8.877  0.1626E-01  0.1626E-01  0.9470E-01  0.9470E-01
     -8.770  0.2033E-01  0.2033E-01  0.9686E-01  0.9686E-01
     -8.664  0.1429E-01  0.1429E-01  0.9839E-01  0.9839E-01
     -8.557  0.7694E-02  0.7694E-02  0.9920E-01  0.9920E-01
     -8.450  0.1174E-01  0.1174E-01  0.1005E+00  0.1005E+00
     -8.344  0.2052E-01  0.2052E-01  0.1026E+00  0.1026E+00
     -8.237  0.1737E-01  0.1737E-01  0.1045E+00  0.1045E+00
     -8.131  0.1218E-01  0.1218E-01  0.1058E+00  0.1058E+00
     -8.024  0.1702E-01  0.1702E-01  0.1076E+00  0.1076E+00
     -7.918  0.2488E-01  0.2488E-01  0.1103E+00  0.1103E+00
     -7.811  0.2479E-01  0.2479E-01  0.1129E+00  0.1129E+00
     -7.705  0.1894E-01  0.1894E-01  0.1149E+00  0.1149E+00
     -7.598  0.1017E-01  0.1017E-01  0.1160E+00  0.1160E+00
     -7.492  0.8255E-02  0.8255E-02  0.1169E+00  0.1169E+00
     -7.385  0.1833E-01  0.1833E-01  0.1188E+00  0.1188E+00
     -7.279  0.1827E-01  0.1827E-01  0.1208E+00  0.1208E+00
     -7.172  0.1214E-01  0.1214E-01  0.1221E+00  0.1221E+00
     -7.065  0.1074E-01  0.1074E-01  0.1232E+00  0.1232E+00
     -6.959  0.1663E-01  0.1663E-01  0.1250E+00  0.1250E+00
     -6.852  0.1843E-01  0.1843E-01  0.1269E+00  0.1269E+00
     -6.746  0.2037E-01  0.2037E-01  0.1291E+00  0.1291E+00
     -6.639  0.2092E-01  0.2092E-01  0.1313E+00  0.1313E+00
     -6.533  0.1799E-01  0.1799E-01  0.1333E+00  0.1333E+00
     -6.426  0.2080E-01  0.2080E-01  0.1355E+00  0.1355E+00
     -6.320  0.1743E-01  0.1743E-01  0.1373E+00  0.1373E+00
     -6.213  0.1899E-01  0.1899E-01  0.1394E+00  0.1394E+00
     -6.107  0.2649E-01  0.2649E-01  0.1422E+00  0.1422E+00
     -6.000  0.2269E-01  0.2269E-01  0.1446E+00  0.1446E+00
     -5.894  0.3133E-01  0.3133E-01  0.1479E+00  0.1479E+00
     -5.787  0.2855E-01  0.2855E-01  0.1510E+00  0.1510E+00
     -5.680  0.1681E-01  0.1681E-01  0.1528E+00  0.1528E+00
     -5.574  0.1903E-01  0.1903E-01  0.1548E+00  0.1548E+00
     -5.467  0.3329E-01  0.3329E-01  0.1583E+00  0.1583E+00
     -5.361  0.3601E-01  0.3601E-01  0.1622E+00  0.1622E+00
     -5.254  0.2210E-01  0.2210E-01  0.1645E+00  0.1645E+00
     -5.148  0.1617E-01  0.1617E-01  0.1663E+00  0.1663E+00
     -5.041  0.1048E-01  0.1048E-01  0.1674E+00  0.1674E+00
     -4.935  0.1131E-01  0.1131E-01  0.1686E+00  0.1686E+00
     -4.828  0.1403E-01  0.1403E-01  0.1701E+00  0.1701E+00
     -4.722  0.1047E-01  0.1047E-01  0.1712E+00  0.1712E+00
     -4.615  0.7701E-02  0.7701E-02  0.1720E+00  0.1720E+00
     -4.509  0.9457E-02  0.9457E-02  0.1730E+00  0.1730E+00
     -4.402  0.1749E-01  0.1749E-01  0.1749E+00  0.1749E+00
     -4.295  0.2261E-01  0.2261E-01  0.1773E+00  0.1773E+00
     -4.189  0.1941E-01  0.1941E-01  0.1794E+00  0.1794E+00
     -4.082  0.1813E-01  0.1813E-01  0.1813E+00  0.1813E+00
     -3.976  0.2147E-01  0.2147E-01  0.1836E+00  0.1836E+00
     -3.869  0.2363E-01  0.2363E-01  0.1861E+00  0.1861E+00
     -3.763  0.1830E-01  0.1830E-01  0.1880E+00  0.1880E+00
     -3.656  0.1865E-01  0.1865E-01  0.1900E+00  0.1900E+00
     -3.550  0.2039E-01  0.2039E-01  0.1922E+00  0.1922E+00
     -3.443  0.1582E-01  0.1582E-01  0.1939E+00  0.1939E+00
     -3.337  0.1339E-01  0.1339E-01  0.1953E+00  0.1953E+00
     -3.230  0.1274E-01  0.1274E-01  0.1967E+00  0.1967E+00
     -3.124  0.1753E-01  0.1753E-01  0.1985E+00  0.1985E+00
     -3.017  0.1819E-01  0.1819E-01  0.2005E+00  0.2005E+00
     -2.910  0.1179E-01  0.1179E-01  0.2017E+00  0.2017E+00
     -2.804  0.1201E-01  0.1201E-01  0.2030E+00  0.2030E+00
     -2.697  0.7671E-02  0.7671E-02  0.2038E+00  0.2038E+00
     -2.591  0.9966E-02  0.9966E-02  0.2049E+00  0.2049E+00
     -2.484  0.1917E-01  0.1917E-01  0.2069E+00  0.2069E+00
     -2.378  0.1501E-01  0.1501E-01  0.2085E+00  0.2085E+00
     -2.271  0.4142E-02  0.4142E-02  0.2090E+00  0.2090E+00
     -2.165  0.4903E-02  0.4903E-02  0.2095E+00  0.2095E+00
     -2.058  0.1041E-01  0.1041E-01  0.2106E+00  0.2106E+00
     -1.952  0.1002E-01  0.1002E-01  0.2117E+00  0.2117E+00
     -1.845  0.1119E-01  0.1119E-01  0.2129E+00  0.2129E+00
     -1.739  0.1141E-01  0.1141E-01  0.2141E+00  0.2141E+00
     -1.632  0.9778E-02  0.9778E-02  0.2151E+00  0.2151E+00
     -1.525  0.7318E-02  0.7318E-02  0.2159E+00  0.2159E+00
     -1.419  0.4259E-02  0.4259E-02  0.2164E+00  0.2164E+00
     -1.312  0.4098E-02  0.4098E-02  0.2168E+00  0.2168E+00
     -1.206  0.4066E-02  0.4066E-02  0.2172E+00  0.2172E+00
     -1.099  0.3800E-02  0.3800E-02  0.2176E+00  0.2176E+00
     -0.993  0.5779E-02  0.5779E-02  0.2182E+00  0.2182E+00
     -0.886  0.3036E-02  0.3036E-02  0.2186E+00  0.2186E+00
     -0.780  0.6095E-03  0.6095E-03  0.2186E+00  0.2186E+00
     -0.673  0.6312E-04  0.6312E-04  0.2186E+00  0.2186E+00
     -0.567  0.2177E-05  0.2178E-05  0.2186E+00  0.2186E+00
     -0.460  0.6715E-04  0.6715E-04  0.2186E+00  0.2186E+00
     -0.354  0.6800E-03  0.6800E-03  0.2187E+00  0.2187E+00
     -0.247  0.1036E-02  0.1036E-02  0.2188E+00  0.2188E+00
     -0.140  0.2447E-03  0.2447E-03  0.2189E+00  0.2189E+00
     -0.034  0.8199E-05  0.8199E-05  0.2189E+00  0.2189E+00
      0.073  0.2595E-06  0.2595E-06  0.2189E+00  0.2189E+00
      0.179  0.4172E-04  0.4172E-04  0.2189E+00  0.2189E+00
      0.286  0.9814E-03  0.9814E-03  0.2190E+00  0.2190E+00
      0.392  0.3279E-02  0.3279E-02  0.2193E+00  0.2193E+00
      0.499  0.1761E-02  0.1761E-02  0.2195E+00  0.2195E+00
      0.605  0.1201E-02  0.1201E-02  0.2196E+00  0.2196E+00
      0.712  0.3589E-02  0.3589E-02  0.2200E+00  0.2200E+00
      0.818  0.5639E-02  0.5639E-02  0.2206E+00  0.2206E+00
      0.925  0.1077E-01  0.1077E-01  0.2218E+00  0.2218E+00
      1.031  0.2479E-01  0.2479E-01  0.2244E+00  0.2244E+00
      1.138  0.1930E-01  0.1930E-01  0.2265E+00  0.2265E+00
      1.245  0.5617E-02  0.5617E-02  0.2271E+00  0.2271E+00
      1.351  0.3658E-02  0.3658E-02  0.2274E+00  0.2274E+00
      1.458  0.8048E-02  0.8048E-02  0.2283E+00  0.2283E+00
      1.564  0.1381E-01  0.1381E-01  0.2298E+00  0.2298E+00
      1.671  0.1948E-01  0.1948E-01  0.2319E+00  0.2319E+00
      1.777  0.1458E-01  0.1458E-01  0.2334E+00  0.2334E+00
      1.884  0.6715E-02  0.6715E-02  0.2341E+00  0.2341E+00
      1.990  0.7072E-02  0.7072E-02  0.2349E+00  0.2349E+00
      2.097  0.1010E-01  0.1010E-01  0.2360E+00  0.2360E+00
      2.203  0.7238E-02  0.7238E-02  0.2367E+00  0.2367E+00
      2.310  0.8568E-02  0.8568E-02  0.2376E+00  0.2376E+00
      2.416  0.6865E-02  0.6865E-02  0.2384E+00  0.2384E+00
      2.523  0.1027E-01  0.1027E-01  0.2395E+00  0.2395E+00
      2.630  0.1169E-01  0.1169E-01  0.2407E+00  0.2407E+00
      2.736  0.6736E-02  0.6736E-02  0.2414E+00  0.2414E+00
      2.843  0.4331E-02  0.4328E-02  0.2419E+00  0.2419E+00
      2.949  0.8270E-02  0.8263E-02  0.2428E+00  0.2428E+00
      3.056  0.1178E-01  0.1178E-01  0.2440E+00  0.2440E+00
      3.162  0.1027E-01  0.1028E-01  0.2451E+00  0.2451E+00
      3.269  0.9646E-02  0.9642E-02  0.2461E+00  0.2461E+00
      3.375  0.1024E-01  0.1025E-01  0.2472E+00  0.2472E+00
      3.482  0.1127E-01  0.1127E-01  0.2484E+00  0.2484E+00
      3.588  0.1767E-01  0.1766E-01  0.2503E+00  0.2503E+00
      3.695  0.2401E-01  0.2401E-01  0.2529E+00  0.2529E+00
      3.801  0.2443E-01  0.2442E-01  0.2555E+00  0.2555E+00
      3.908  0.2218E-01  0.2219E-01  0.2578E+00  0.2578E+00
      4.015  0.2373E-01  0.2372E-01  0.2604E+00  0.2604E+00
      4.121  0.2651E-01  0.2651E-01  0.2632E+00  0.2632E+00
      4.228  0.2398E-01  0.2398E-01  0.2657E+00  0.2657E+00
      4.334  0.2415E-01  0.2415E-01  0.2683E+00  0.2683E+00
      4.441  0.2218E-01  0.2218E-01  0.2707E+00  0.2707E+00
      4.547  0.2109E-01  0.2109E-01  0.2729E+00  0.2729E+00
      4.654  0.2031E-01  0.2030E-01  0.2751E+00  0.2751E+00
      4.760  0.2731E-01  0.2729E-01  0.2780E+00  0.2780E+00
      4.867  0.2550E-01  0.2550E-01  0.2807E+00  0.2807E+00
      4.973  0.2070E-01  0.2071E-01  0.2829E+00  0.2829E+00
      5.080  0.2419E-01  0.2416E-01  0.2855E+00  0.2855E+00
      5.186  0.2749E-01  0.2750E-01  0.2884E+00  0.2884E+00
      5.293  0.2377E-01  0.2379E-01  0.2910E+00  0.2910E+00
      5.400  0.2199E-01  0.2200E-01  0.2933E+00  0.2933E+00
      5.506  0.2193E-01  0.2191E-01  0.2956E+00  0.2956E+00
      5.613  0.2692E-01  0.2694E-01  0.2985E+00  0.2985E+00
      5.719  0.1928E-01  0.1926E-01  0.3006E+00  0.3006E+00
      5.826  0.2372E-01  0.2371E-01  0.3031E+00  0.3031E+00
      5.932  0.2273E-01  0.2276E-01  0.3055E+00  0.3055E+00
      6.039  0.2022E-01  0.2024E-01  0.3077E+00  0.3077E+00
      6.145  0.1463E-01  0.1462E-01  0.3092E+00  0.3092E+00
      6.252  0.1786E-01  0.1783E-01  0.3111E+00  0.3111E+00
      6.358  0.2303E-01  0.2303E-01  0.3136E+00  0.3136E+00
      6.465  0.2387E-01  0.2387E-01  0.3161E+00  0.3161E+00
      6.571  0.2569E-01  0.2570E-01  0.3189E+00  0.3189E+00
      6.678  0.2700E-01  0.2699E-01  0.3217E+00  0.3217E+00
      6.785  0.3087E-01  0.3084E-01  0.3250E+00  0.3250E+00
      6.891  0.2565E-01  0.2568E-01  0.3278E+00  0.3278E+00
      6.998  0.2495E-01  0.2494E-01  0.3304E+00  0.3304E+00
      7.104  0.2829E-01  0.2830E-01  0.3334E+00  0.3334E+00
      7.211  0.2284E-01  0.2285E-01  0.3359E+00  0.3359E+00
      7.317  0.1969E-01  0.1971E-01  0.3380E+00  0.3380E+00
      7.424  0.1813E-01  0.1808E-01  0.3399E+00  0.3399E+00
      7.530  0.2442E-01  0.2438E-01  0.3425E+00  0.3425E+00
      7.637  0.2536E-01  0.2537E-01  0.3452E+00  0.3452E+00
      7.743  0.3080E-01  0.3079E-01  0.3485E+00  0.3485E+00
      7.850  0.3331E-01  0.3333E-01  0.3520E+00  0.3520E+00
      7.956  0.2447E-01  0.2450E-01  0.3546E+00  0.3546E+00
      8.063  0.3070E-01  0.3065E-01  0.3579E+00  0.3579E+00
      8.170  0.3678E-01  0.3681E-01  0.3618E+00  0.3618E+00
      8.276  0.3518E-01  0.3522E-01  0.3656E+00  0.3656E+00
      8.383  0.3733E-01  0.3731E-01  0.3696E+00  0.3695E+00
      8.489  0.2627E-01  0.2631E-01  0.3724E+00  0.3723E+00
      8.596  0.1296E-01  0.1300E-01  0.3737E+00  0.3737E+00
      8.702  0.5641E-02  0.5651E-02  0.3743E+00  0.3743E+00
      8.809  0.3304E-02  0.3307E-02  0.3747E+00  0.3747E+00
      8.915  0.2377E-02  0.2378E-02  0.3749E+00  0.3749E+00
      9.022  0.5273E-03  0.5274E-03  0.3750E+00  0.3750E+00
      9.128  0.2059E-04  0.2059E-04  0.3750E+00  0.3750E+00
      9.235  0.1054E-06  0.1054E-06  0.3750E+00  0.3750E+00
      9.341  0.6259E-10  0.6258E-10  0.3750E+00  0.3750E+00
      9.448  0.4102E-14  0.4101E-14  0.3750E+00  0.3750E+00
      9.555  0.0000E+00  0.0000E+00  0.3750E+00  0.3750E+00
      9.661  0.0000E+00  0.0000E+00  0.3750E+00  0.3750E+00
      9.768  0.0000E+00  0.0000E+00  0.3750E+00  0.3750E+00
      9.874  0.0000E+00  0.0000E+00  0.3750E+00  0.3750E+00
      9.981  0.0000E+00  0.0000E+00  0.3750E+00  0.3750E+00
     10.087  0.0000E+00  0.0000E+00  0.3750E+00  0.3750E+00
     10.194  0.0000E+00  0.0000E+00  0.3750E+00  0.3750E+00
     10.300  0.0000E+00  0.0000E+00  0.3750E+00  0.3750E+00
