Lattice                                 
           1
     4.203687    2.427000    0.000000
    -4.203687    2.427000    0.000000
     0.000000    0.000000   15.000000
   B    C 
     4    11
Direct configuration=     1
   0.00415361  0.00267210  0.12034134
   0.35695335  0.00285503  0.09748893
   0.00423858  0.35550699  0.09749256
   0.65142295  0.65006557  0.09747688
   0.32808646  0.32671938  0.10030508
   0.68027775  0.00278085  0.10027562
   0.00416530  0.67883808  0.10026559
   0.11111044  0.38888856  0.33726667
   0.27777744  0.22222156  0.33726667
   0.11111044  0.88888856  0.33726667
   0.27777744  0.72222156  0.33726667
   0.61111044  0.38888856  0.33726667
   0.77777744  0.22222156  0.33726667
   0.61111044  0.88888856  0.33726667
   0.77777744  0.72222156  0.33726667
Direct configuration=     2
   0.00416724  0.00269440  0.11900485
   0.35567413  0.00279278  0.09783629
   0.00418993  0.35445805  0.09789304
   0.65259139  0.65112522  0.09786346
   0.32460994  0.32308111  0.10031372
   0.68402213  0.00279444  0.10032792
   0.00422478  0.68233506  0.10028275
   0.11103855  0.38899117  0.33728040
   0.27791366  0.22234352  0.33735473
   0.11129725  0.88902101  0.33729193
   0.27796892  0.72221872  0.33720578
   0.61107194  0.38883660  0.33720083
   0.77773731  0.22226883  0.33728975
   0.61092636  0.88883806  0.33734334
   0.77741602  0.72207948  0.33729053
Direct configuration=     3
   0.00416056  0.00268348  0.11965945
   0.35630068  0.00282327  0.09766616
   0.00421376  0.35497181  0.09769689
   0.65201911  0.65060621  0.09767412
   0.32631270  0.32486309  0.10030948
   0.68218818  0.00278779  0.10030230
   0.00419565  0.68062228  0.10027434
   0.11107376  0.38894091  0.33727367
   0.27784694  0.22228378  0.33731160
   0.11120576  0.88895613  0.33727956
   0.27787514  0.72222011  0.33723560
   0.61109080  0.38886205  0.33723308
   0.77775696  0.22224567  0.33727844
   0.61101652  0.88886279  0.33730579
   0.77759304  0.72214907  0.33727884
Direct configuration=     4
   0.00416931  0.00271966  0.11846163
   0.35681033  0.00275809  0.09799642
   0.00421003  0.35547915  0.09808104
   0.65157599  0.65003026  0.09804363
   0.32649131  0.32491601  0.10028327
   0.68210130  0.00278331  0.10031809
   0.00424023  0.68049144  0.10025643
   0.11109484  0.38887823  0.33729031
   0.27767627  0.22224759  0.33738605
   0.11097615  0.88885801  0.33730856
   0.27765619  0.72226652  0.33719163
   0.61108839  0.38892525  0.33718786
   0.77773613  0.22222544  0.33729968
   0.61115161  0.88897260  0.33737209
   0.77787149  0.72232686  0.33730265
Direct configuration=     5
   0.00419554  0.00282821  0.11486818
   0.35833931  0.00256254  0.09898718
   0.00419885  0.35700119  0.09923347
   0.65024663  0.64830240  0.09915218
   0.32702713  0.32507479  0.10020463
   0.68184066  0.00276990  0.10036543
   0.00437397  0.68009894  0.10020268
   0.11115808  0.38869021  0.33734020
   0.27716424  0.22213902  0.33760940
   0.11028735  0.88856365  0.33739558
   0.27699932  0.72240577  0.33705973
   0.61108114  0.38911484  0.33705222
   0.77767364  0.22216473  0.33736339
   0.61155686  0.88930201  0.33757099
   0.77870684  0.72286024  0.33737408
Direct configuration=     6
   0.00420223  0.00283207  0.11438963
   0.35848150  0.00254425  0.09909086
   0.00421131  0.35711951  0.09935208
   0.65013994  0.64815534  0.09926663
   0.32714243  0.32515989  0.10022746
   0.68174368  0.00275579  0.10040099
   0.00438569  0.67999769  0.10022837
   0.11109481  0.38879903  0.33734655
   0.27730290  0.22217553  0.33762455
   0.11050599  0.88873279  0.33740589
   0.27719258  0.72239326  0.33705852
   0.61103893  0.38909357  0.33705166
   0.77767221  0.22222514  0.33736975
   0.61136739  0.88920125  0.33758470
   0.77836798  0.72269336  0.33738168
Direct configuration=     7
   0.00422228  0.00284365  0.11295400
   0.35890810  0.00248938  0.09940189
   0.00424868  0.35747448  0.09970791
   0.64981986  0.64771416  0.09960999
   0.32748836  0.32541516  0.10029595
   0.68145273  0.00271346  0.10050766
   0.00442086  0.67969395  0.10030543
   0.11090499  0.38912548  0.33736562
   0.27771888  0.22228504  0.33767000
   0.11116190  0.88924019  0.33743681
   0.27777234  0.72235573  0.33705490
   0.61091229  0.38902976  0.33704999
   0.77766792  0.22240635  0.33738885
   0.61079898  0.88889894  0.33762584
   0.77735141  0.72219272  0.33740451
Direct configuration=     8
   0.00422832  0.00284714  0.11252167
   0.35903656  0.00247285  0.09949556
   0.00425994  0.35758137  0.09981506
   0.64972347  0.64758131  0.09971339
   0.32759253  0.32549203  0.10031657
   0.68136511  0.00270071  0.10053978
   0.00443144  0.67960249  0.10032863
   0.11084783  0.38922379  0.33737136
   0.27784414  0.22231802  0.33768369
   0.11135942  0.88939299  0.33744613
   0.27794693  0.72234443  0.33705380
   0.61087415  0.38901054  0.33704948
   0.77766662  0.22246092  0.33739460
   0.61062782  0.88880790  0.33763823
   0.77704528  0.72204195  0.33741138
Direct configuration=     9
   0.00424604  0.00282811  0.11189541
   0.35905142  0.00246386  0.09958328
   0.00429701  0.35754855  0.09990812
   0.64975303  0.64758588  0.09980469
   0.32769148  0.32558395  0.10040578
   0.68127353  0.00266382  0.10063667
   0.00443930  0.67950371  0.10041999
   0.11084845  0.38921464  0.33737911
   0.27785370  0.22243301  0.33767683
   0.11133178  0.88933508  0.33745579
   0.27795201  0.72236596  0.33708276
   0.61086867  0.38896867  0.33708057
   0.77760949  0.22246049  0.33739941
   0.61062031  0.88884697  0.33763261
   0.77701333  0.72207574  0.33741831
Direct configuration=    10
   0.00429918  0.00277103  0.11001664
   0.35909600  0.00243690  0.09984646
   0.00440824  0.35745009  0.10018731
   0.64984173  0.64759958  0.10007860
   0.32798834  0.32585971  0.10067340
   0.68099879  0.00255317  0.10092732
   0.00446286  0.67920739  0.10069406
   0.11085033  0.38918718  0.33740235
   0.27788238  0.22277797  0.33765625
   0.11124884  0.88916135  0.33748480
   0.27796725  0.72243057  0.33716961
   0.61085222  0.38884305  0.33717384
   0.77743809  0.22245920  0.33741385
   0.61059780  0.88896418  0.33761574
   0.77691749  0.72217708  0.33743910
Direct configuration=    11
   0.00440547  0.00265685  0.10625908
   0.35918516  0.00238297  0.10037282
   0.00463069  0.35725315  0.10074570
   0.65001913  0.64762699  0.10062641
   0.32858207  0.32641123  0.10120865
   0.68044931  0.00233186  0.10150862
   0.00450999  0.67861476  0.10124220
   0.11085409  0.38913228  0.33744884
   0.27793975  0.22346791  0.33761509
   0.11108296  0.88881388  0.33754282
   0.27799774  0.72255978  0.33734332
   0.61081931  0.38859181  0.33736038
   0.77709529  0.22245660  0.33744272
   0.61055278  0.88919860  0.33758201
   0.77672581  0.72237977  0.33748067
Direct configuration=    12
   0.00444619  0.00261355  0.10527940
   0.35920780  0.00237577  0.10052716
   0.00467738  0.35724615  0.10089438
   0.65002543  0.64761709  0.10077658
   0.32859387  0.32640213  0.10134103
   0.68048751  0.00229193  0.10164273
   0.00453395  0.67856436  0.10137662
   0.11078525  0.38916943  0.33746037
   0.27767193  0.22300820  0.33760143
   0.11088667  0.88899984  0.33755496
   0.27770975  0.72251302  0.33739668
   0.61079710  0.38890355  0.33741331
   0.77725118  0.22244073  0.33745311
   0.61068497  0.88927934  0.33756845
   0.77709056  0.72245335  0.33749314
Direct configuration=    13
   0.00448558  0.00257167  0.10433192
   0.35922970  0.00236881  0.10067643
   0.00472254  0.35723937  0.10103817
   0.65003152  0.64760751  0.10092181
   0.32860528  0.32639332  0.10146905
   0.68052446  0.00225332  0.10177242
   0.00455713  0.67851562  0.10150662
   0.11071868  0.38920535  0.33747151
   0.27741291  0.22256361  0.33758823
   0.11069683  0.88917969  0.33756669
   0.27743123  0.72246780  0.33744828
   0.61077562  0.38920504  0.33746450
   0.77740195  0.22242539  0.33746316
   0.61081281  0.88935743  0.33755534
   0.77744333  0.72252451  0.33750519
Direct configuration=    14
   0.00449813  0.00255593  0.10424460
   0.35928082  0.00237106  0.10072702
   0.00470747  0.35730821  0.10107245
   0.64995529  0.64754790  0.10096111
   0.32847459  0.32624093  0.10145484
   0.68069913  0.00227715  0.10174574
   0.00457336  0.67861995  0.10149149
   0.11072649  0.38919617  0.33747292
   0.27739702  0.22250009  0.33759054
   0.11075218  0.88923473  0.33756515
   0.27742855  0.72253127  0.33745408
   0.61074847  0.38920956  0.33746588
   0.77742619  0.22251719  0.33746882
   0.61076337  0.88922901  0.33755558
   0.77741850  0.72253929  0.33750909
Direct configuration=    15
   0.00452248  0.00252540  0.10407519
   0.35937999  0.00237544  0.10082518
   0.00467822  0.35744176  0.10113895
   0.64980739  0.64743224  0.10103736
   0.32822104  0.32594527  0.10142727
   0.68103802  0.00232339  0.10169398
   0.00460486  0.67882235  0.10146216
   0.11074164  0.38917834  0.33747565
   0.27736620  0.22237686  0.33759501
   0.11085956  0.88934152  0.33756216
   0.27742336  0.72265442  0.33746533
   0.61069579  0.38921833  0.33746856
   0.77747324  0.22269531  0.33747982
   0.61066744  0.88897987  0.33755604
   0.77737033  0.72256796  0.33751667
Direct configuration=    16
   0.00453273  0.00249708  0.10399405
   0.35951241  0.00237565  0.10090310
   0.00465308  0.35754100  0.10118594
   0.64967123  0.64731566  0.10109381
   0.32814022  0.32583177  0.10139406
   0.68116637  0.00236104  0.10163512
   0.00462573  0.67889979  0.10142702
   0.11075256  0.38921525  0.33747912
   0.27740129  0.22248287  0.33760033
   0.11080753  0.88929059  0.33756010
   0.27743494  0.72260170  0.33746902
   0.61069752  0.38920985  0.33746708
   0.77741001  0.22259889  0.33748849
   0.61068322  0.88911422  0.33756054
   0.77736070  0.72254309  0.33752154
Direct configuration=    17
   0.00454227  0.00247074  0.10391860
   0.35963554  0.00237585  0.10097555
   0.00462971  0.35763328  0.10122964
   0.64954461  0.64720725  0.10114631
   0.32806507  0.32572622  0.10136317
   0.68128572  0.00239604  0.10158040
   0.00464513  0.67897181  0.10139435
   0.11076272  0.38924958  0.33748235
   0.27743392  0.22258146  0.33760528
   0.11075915  0.88924322  0.33755819
   0.27744572  0.72255268  0.33747246
   0.61069913  0.38920198  0.33746570
   0.77735121  0.22250923  0.33749656
   0.61069789  0.88923915  0.33756472
   0.77735174  0.72251996  0.33752607
Direct configuration=    18
   0.00454285  0.00245027  0.10387646
   0.35971370  0.00237345  0.10101802
   0.00462369  0.35763624  0.10124872
   0.64950467  0.64716501  0.10117249
   0.32815972  0.32580717  0.10134885
   0.68119630  0.00240533  0.10154411
   0.00464961  0.67890660  0.10137840
   0.11071028  0.38922180  0.33748721
   0.27740178  0.22257140  0.33760882
   0.11074832  0.88924702  0.33755931
   0.27743239  0.72256282  0.33747119
   0.61071948  0.38920067  0.33746515
   0.77738180  0.22254053  0.33750116
   0.61071615  0.88923978  0.33757204
   0.77734882  0.72255036  0.33752739
Direct configuration=    19
   0.00454329  0.00243471  0.10384444
   0.35977306  0.00237162  0.10105028
   0.00461912  0.35763848  0.10126322
   0.64947433  0.64713291  0.10119237
   0.32823161  0.32586866  0.10133796
   0.68112837  0.00241239  0.10151655
   0.00465301  0.67885706  0.10136629
   0.11067045  0.38920069  0.33749091
   0.27737737  0.22256377  0.33761150
   0.11074009  0.88924992  0.33756017
   0.27742226  0.72257052  0.33747023
   0.61073494  0.38919968  0.33746474
   0.77740504  0.22256431  0.33750466
   0.61073001  0.88924026  0.33757760
   0.77734660  0.72257345  0.33752840
Direct configuration=    20
   0.00455107  0.00242260  0.10380424
   0.35974850  0.00237183  0.10107385
   0.00462426  0.35758470  0.10126728
   0.64952082  0.64716973  0.10120234
   0.32826900  0.32589880  0.10133892
   0.68110188  0.00240682  0.10149668
   0.00465407  0.67882044  0.10136571
   0.11070875  0.38923504  0.33749603
   0.27738484  0.22254625  0.33761460
   0.11075358  0.88927981  0.33756258
   0.27741761  0.72258381  0.33746898
   0.61070142  0.38922047  0.33746557
   0.77738016  0.22256806  0.33750837
   0.61069343  0.88921367  0.33758502
   0.77734017  0.72255640  0.33752918
Direct configuration=    21
   0.00455874  0.00241067  0.10376461
   0.35972429  0.00237204  0.10109708
   0.00462933  0.35753168  0.10127127
   0.64956663  0.64720603  0.10121216
   0.32830585  0.32592851  0.10133986
   0.68107576  0.00240134  0.10147709
   0.00465512  0.67878433  0.10136514
   0.11074650  0.38926890  0.33750107
   0.27739221  0.22252898  0.33761765
   0.11076689  0.88930928  0.33756497
   0.27741303  0.72259691  0.33746775
   0.61066838  0.38924095  0.33746639
   0.77735564  0.22257177  0.33751203
   0.61065736  0.88918746  0.33759233
   0.77733383  0.72253960  0.33752994
Direct configuration=    22
   0.00456999  0.00240239  0.10372184
   0.35968886  0.00237182  0.10111371
   0.00463740  0.35748607  0.10127112
   0.64961517  0.64724299  0.10121705
   0.32831052  0.32592506  0.10134612
   0.68108651  0.00239239  0.10146380
   0.00465808  0.67876947  0.10136995
   0.11073236  0.38926410  0.33750557
   0.27738526  0.22255027  0.33762099
   0.11075074  0.88929953  0.33756731
   0.27740523  0.72260286  0.33746808
   0.61066678  0.38923789  0.33746780
   0.77735087  0.22257602  0.33751602
   0.61065992  0.88920296  0.33759851
   0.77733187  0.72255464  0.33753147
Direct configuration=    23
   0.00460376  0.00237755  0.10359353
   0.35958256  0.00237113  0.10116359
   0.00466159  0.35734924  0.10127068
   0.64976079  0.64735388  0.10123174
   0.32832454  0.32591472  0.10136488
   0.68111874  0.00236552  0.10142392
   0.00466695  0.67872487  0.10138439
   0.11068993  0.38924969  0.33751907
   0.27736443  0.22261413  0.33763101
   0.11070228  0.88927030  0.33757433
   0.27738185  0.72262069  0.33746906
   0.61066199  0.38922871  0.33747206
   0.77733659  0.22258879  0.33752796
   0.61066760  0.88924947  0.33761706
   0.77732597  0.72259976  0.33753605
Direct configuration=    24
   0.00462049  0.00236780  0.10352178
   0.35959551  0.00236398  0.10117994
   0.00467551  0.35734163  0.10126848
   0.64977117  0.64734176  0.10123508
   0.32833185  0.32590275  0.10137864
   0.68113411  0.00235091  0.10141238
   0.00467774  0.67871112  0.10139633
   0.11065585  0.38926257  0.33752442
   0.27734268  0.22260415  0.33763674
   0.11069839  0.88929938  0.33757758
   0.27737426  0.72261536  0.33747371
   0.61066780  0.38924808  0.33747558
   0.77733886  0.22259690  0.33753491
   0.61066422  0.88927124  0.33762321
   0.77730114  0.72260082  0.33754055
Direct configuration=    25
   0.00467068  0.00233857  0.10330653
   0.35963435  0.00234253  0.10122898
   0.00471727  0.35731881  0.10126189
   0.64980232  0.64730539  0.10124512
   0.32835377  0.32586683  0.10141991
   0.68118022  0.00230706  0.10137777
   0.00471009  0.67866986  0.10143217
   0.11055359  0.38930123  0.33754045
   0.27727741  0.22257419  0.33765391
   0.11068672  0.88938661  0.33758735
   0.27735148  0.72259935  0.33748764
   0.61068524  0.38930621  0.33748614
   0.77734569  0.22262124  0.33755577
   0.61065407  0.88933658  0.33764167
   0.77722667  0.72260398  0.33755405
Direct configuration=    26
   0.00467925  0.00233220  0.10326187
   0.35965706  0.00233567  0.10123708
   0.00472555  0.35732482  0.10126169
   0.64979639  0.64728440  0.10124739
   0.32836130  0.32586039  0.10142756
   0.68118677  0.00229876  0.10137249
   0.00471803  0.67866377  0.10143893
   0.11055480  0.38930627  0.33754354
   0.27727454  0.22258602  0.33765726
   0.11067910  0.88938733  0.33758958
   0.27734465  0.72261206  0.33749129
   0.61067202  0.38930868  0.33748895
   0.77733440  0.22262988  0.33755985
   0.61064253  0.88933527  0.33764471
   0.77722316  0.72261294  0.33755714
Direct configuration=    27
   0.00470497  0.00231310  0.10312789
   0.35972522  0.00231511  0.10126140
   0.00475039  0.35734286  0.10126109
   0.64977860  0.64722142  0.10125418
   0.32838390  0.32584107  0.10145051
   0.68120643  0.00227383  0.10135666
   0.00474187  0.67864549  0.10145923
   0.11055842  0.38932139  0.33755282
   0.27726593  0.22262149  0.33766728
   0.11065624  0.88938949  0.33759626
   0.27732414  0.72265016  0.33750225
   0.61063235  0.38931608  0.33749740
   0.77730055  0.22265583  0.33757209
   0.61060791  0.88933135  0.33765385
   0.77721261  0.72263979  0.33756642
Direct configuration=    28
   0.00475641  0.00227490  0.10285994
   0.35986154  0.00227397  0.10131003
   0.00480007  0.35737894  0.10125990
   0.64974304  0.64709545  0.10126778
   0.32842911  0.32580242  0.10149643
   0.68124575  0.00222399  0.10132500
   0.00478955  0.67860893  0.10149983
   0.11056567  0.38935164  0.33757137
   0.27724872  0.22269243  0.33768734
   0.11061052  0.88939381  0.33760962
   0.27728313  0.72272637  0.33752416
   0.61055301  0.38933088  0.33751429
   0.77723286  0.22270772  0.33759657
   0.61053867  0.88932350  0.33767212
   0.77719152  0.72269350  0.33758497
Direct configuration=    29
   0.00485929  0.00219849  0.10232403
   0.36013416  0.00219171  0.10140730
   0.00489944  0.35745109  0.10125750
   0.64967191  0.64684352  0.10129497
   0.32851951  0.32572513  0.10158825
   0.68132438  0.00212429  0.10126168
   0.00488490  0.67853582  0.10158103
   0.11058016  0.38941214  0.33760847
   0.27721430  0.22283431  0.33772745
   0.11051907  0.88940244  0.33763635
   0.27720111  0.72287878  0.33756799
   0.61039433  0.38936048  0.33754808
   0.77709747  0.22281151  0.33764552
   0.61040020  0.88930781  0.33770867
   0.77714933  0.72280091  0.33762206
Direct configuration=    30
   0.00478963  0.00225022  0.10268688
   0.35994957  0.00224741  0.10134144
   0.00483216  0.35740224  0.10125912
   0.64972007  0.64701410  0.10127656
   0.32845830  0.32577746  0.10152608
   0.68127114  0.00219179  0.10130455
   0.00482034  0.67858532  0.10152605
   0.11057035  0.38937118  0.33758335
   0.27723761  0.22273824  0.33770029
   0.11058098  0.88939659  0.33761825
   0.27725664  0.72277558  0.33753831
   0.61050177  0.38934044  0.33752520
   0.77718914  0.22274124  0.33761238
   0.61049396  0.88931844  0.33768392
   0.77717789  0.72272818  0.33759695
Direct configuration=    31
   0.00481309  0.00222370  0.10252982
   0.36001389  0.00221472  0.10136536
   0.00485886  0.35740563  0.10127208
   0.64971855  0.64695630  0.10129259
   0.32848071  0.32573990  0.10153985
   0.68130878  0.00216716  0.10129014
   0.00485290  0.67857974  0.10153813
   0.11054489  0.38940771  0.33759514
   0.27720382  0.22274428  0.33771025
   0.11055035  0.88943174  0.33762927
   0.27721904  0.72277584  0.33755218
   0.61048139  0.38938246  0.33753912
   0.77716301  0.22274201  0.33762399
   0.61048225  0.88936977  0.33769370
   0.77715801  0.72273750  0.33760772
Direct configuration=    32
   0.00485937  0.00217137  0.10221998
   0.36014077  0.00215023  0.10141254
   0.00491152  0.35741232  0.10129763
   0.64971554  0.64684227  0.10132423
   0.32852493  0.32566579  0.10156701
   0.68138304  0.00211857  0.10126171
   0.00491714  0.67856873  0.10156196
   0.11049467  0.38947976  0.33761841
   0.27713717  0.22275618  0.33772990
   0.11048993  0.88950107  0.33765101
   0.27714486  0.72277635  0.33757952
   0.61044120  0.38946534  0.33756659
   0.77711148  0.22274354  0.33764689
   0.61045915  0.88947104  0.33771299
   0.77711880  0.72275588  0.33762896
Direct configuration=    33
   0.00489038  0.00213710  0.10202124
   0.36016832  0.00210424  0.10143821
   0.00494596  0.35737443  0.10133240
   0.64976272  0.64681424  0.10135589
   0.32855327  0.32560822  0.10156576
   0.68144382  0.00209179  0.10124953
   0.00496239  0.67855630  0.10156052
   0.11042400  0.38948814  0.33763432
   0.27709431  0.22278947  0.33774141
   0.11046006  0.88953005  0.33766871
   0.27712261  0.72281265  0.33759723
   0.61042503  0.38948093  0.33758770
   0.77709845  0.22279752  0.33765850
   0.61042897  0.88949303  0.33772513
   0.77706927  0.72280034  0.33764279
Direct configuration=    34
   0.00497970  0.00203839  0.10144877
   0.36024768  0.00197179  0.10151216
   0.00504519  0.35726526  0.10143253
   0.64989862  0.64673350  0.10144709
   0.32863490  0.32544237  0.10156217
   0.68161890  0.00201464  0.10121444
   0.00509273  0.67852051  0.10155640
   0.11022043  0.38951226  0.33768015
   0.27697086  0.22288536  0.33777457
   0.11037403  0.88961354  0.33771967
   0.27705849  0.72291720  0.33764824
   0.61037846  0.38952583  0.33764851
   0.77706091  0.22295302  0.33769192
   0.61034202  0.88955639  0.33776010
   0.77692662  0.72292840  0.33768261
Direct configuration=    35
   0.00501887  0.00200719  0.10125119
   0.36025590  0.00192906  0.10153361
   0.00508475  0.35721080  0.10147528
   0.64996311  0.64671917  0.10148311
   0.32868648  0.32540814  0.10155108
   0.68165545  0.00198580  0.10120973
   0.00513755  0.67847427  0.10154645
   0.11022361  0.38956281  0.33769534
   0.27694995  0.22292457  0.33778785
   0.11033674  0.88963983  0.33773792
   0.27701910  0.72295094  0.33766569
   0.61032214  0.38956346  0.33766848
   0.77699947  0.22296529  0.33770346
   0.61029530  0.88958840  0.33777232
   0.77690114  0.72294871  0.33769780
Direct configuration=    36
   0.00513640  0.00191359  0.10065846
   0.36028055  0.00180087  0.10159797
   0.00520341  0.35704740  0.10160350
   0.65015658  0.64667618  0.10159115
   0.32884120  0.32530545  0.10151782
   0.68176507  0.00189928  0.10119561
   0.00527202  0.67833557  0.10151662
   0.11023317  0.38971446  0.33774091
   0.27688721  0.22304220  0.33782766
   0.11022487  0.88971871  0.33779268
   0.27690093  0.72305219  0.33771806
   0.61015319  0.38967635  0.33772842
   0.77681512  0.22300211  0.33773809
   0.61015512  0.88968444  0.33780901
   0.77682472  0.72300964  0.33774338
Direct configuration=    37
   0.00514777  0.00190453  0.10060109
   0.36028294  0.00178846  0.10160419
   0.00521489  0.35703159  0.10161591
   0.65017531  0.64667202  0.10160161
   0.32885617  0.32529551  0.10151460
   0.68177568  0.00189091  0.10119424
   0.00528503  0.67832214  0.10151373
   0.11023409  0.38972914  0.33774533
   0.27688114  0.22305359  0.33783151
   0.11021404  0.88972634  0.33779797
   0.27688950  0.72306199  0.33772313
   0.61013684  0.38968727  0.33773422
   0.77679728  0.22300568  0.33774144
   0.61014156  0.88969374  0.33781256
   0.77681732  0.72301554  0.33774779
Direct configuration=    38
   0.00519027  0.00187724  0.10043730
   0.36030619  0.00176222  0.10161284
   0.00525864  0.35698050  0.10165341
   0.65022817  0.64665139  0.10163039
   0.32892633  0.32530137  0.10149752
   0.68176898  0.00185315  0.10120860
   0.00531687  0.67825068  0.10149940
   0.11016689  0.38974122  0.33775562
   0.27682563  0.22305398  0.33784867
   0.11018138  0.88977057  0.33781158
   0.27684750  0.72308569  0.33773681
   0.61012128  0.38972174  0.33774487
   0.77679795  0.22305501  0.33775425
   0.61012553  0.88971866  0.33782407
   0.77678795  0.72305504  0.33776400
Direct configuration=    39
   0.00523098  0.00185109  0.10028035
   0.36032847  0.00173707  0.10162112
   0.00530056  0.35693155  0.10168933
   0.65027883  0.64663162  0.10165797
   0.32899355  0.32530698  0.10148115
   0.68176256  0.00181697  0.10122235
   0.00534737  0.67818220  0.10148567
   0.11010249  0.38975281  0.33776548
   0.27677244  0.22305435  0.33786512
   0.11015008  0.88981294  0.33782463
   0.27680727  0.72310841  0.33774993
   0.61010637  0.38975476  0.33775508
   0.77679860  0.22310227  0.33776653
   0.61011017  0.88974254  0.33783510
   0.77675981  0.72309289  0.33777953
Direct configuration=    40
   0.00525321  0.00183056  0.10021231
   0.36035674  0.00173260  0.10161532
   0.00532628  0.35690789  0.10170230
   0.65030184  0.64661676  0.10166562
   0.32900731  0.32529839  0.10146912
   0.68177517  0.00178708  0.10124903
   0.00535683  0.67816424  0.10147644
   0.11008907  0.38976706  0.33776879
   0.27676692  0.22309591  0.33787696
   0.11013312  0.88981330  0.33782933
   0.27680371  0.72312673  0.33775365
   0.61009136  0.38975625  0.33775457
   0.77676808  0.22311030  0.33777458
   0.61008768  0.88976393  0.33784284
   0.77673222  0.72310744  0.33778847
Direct configuration=    41
   0.00529257  0.00179422  0.10009186
   0.36040677  0.00172469  0.10160505
   0.00537182  0.35686600  0.10172524
   0.65034258  0.64659046  0.10167916
   0.32903168  0.32528319  0.10144782
   0.68179747  0.00173416  0.10129626
   0.00537359  0.67813246  0.10146012
   0.11006531  0.38979230  0.33777466
   0.27675714  0.22316948  0.33789792
   0.11010308  0.88981394  0.33783765
   0.27679742  0.72315916  0.33776025
   0.61006479  0.38975887  0.33775365
   0.77671406  0.22312451  0.33778884
   0.61004788  0.88980179  0.33785656
   0.77668339  0.72313322  0.33780430
Direct configuration=    42
   0.00531794  0.00176880  0.10002823
   0.36043911  0.00171890  0.10159619
   0.00539712  0.35684926  0.10173496
   0.65036130  0.64656969  0.10168386
   0.32903625  0.32526027  0.10143332
   0.68182863  0.00170411  0.10133142
   0.00538761  0.67811947  0.10144907
   0.11004831  0.38981799  0.33777938
   0.27673149  0.22315973  0.33790868
   0.11008539  0.88984855  0.33784310
   0.27676648  0.72316870  0.33776231
   0.61004141  0.38979314  0.33775373
   0.77670364  0.22313933  0.33779644
   0.61003189  0.88981709  0.33786663
   0.77667298  0.72314339  0.33781202
Direct configuration=    43
   0.00534271  0.00174397  0.09996606
   0.36047070  0.00171325  0.10158755
   0.00542183  0.35683292  0.10174445
   0.65037960  0.64654941  0.10168844
   0.32904072  0.32523789  0.10141916
   0.68185906  0.00167475  0.10136576
   0.00540131  0.67810678  0.10143828
   0.11003170  0.38984308  0.33778400
   0.27670644  0.22315020  0.33791920
   0.11006811  0.88988237  0.33784842
   0.27673625  0.72317802  0.33776432
   0.61001857  0.38982663  0.33775380
   0.77669346  0.22315381  0.33780386
   0.61001628  0.88983204  0.33787646
   0.77666282  0.72315333  0.33781956
Direct configuration=    44
   0.00535568  0.00173135  0.09994729
   0.36048531  0.00170337  0.10158470
   0.00542881  0.35683197  0.10174486
   0.65038089  0.64653350  0.10168830
   0.32904851  0.32522192  0.10141069
   0.68187985  0.00166940  0.10138208
   0.00541679  0.67809637  0.10143139
   0.11001929  0.38983882  0.33778839
   0.27669069  0.22316040  0.33791959
   0.11005576  0.88988464  0.33785214
   0.27672192  0.72319783  0.33776459
   0.61000903  0.38982851  0.33775758
   0.77668916  0.22317754  0.33780535
   0.61000812  0.88982743  0.33788215
   0.77665974  0.72317539  0.33782021
Direct configuration=    45
   0.00536595  0.00172135  0.09993242
   0.36049689  0.00169554  0.10158245
   0.00543434  0.35683122  0.10174518
   0.65038191  0.64652090  0.10168819
   0.32905468  0.32520926  0.10140397
   0.68189632  0.00166517  0.10139500
   0.00542906  0.67808811  0.10142594
   0.11000946  0.38983545  0.33779187
   0.27667822  0.22316848  0.33791991
   0.11004597  0.88988644  0.33785510
   0.27671058  0.72321353  0.33776480
   0.61000147  0.38983000  0.33776058
   0.77668576  0.22319634  0.33780653
   0.61000165  0.88982378  0.33788666
   0.77665730  0.72319287  0.33782073
Direct configuration=    46
   0.00537930  0.00170743  0.09991926
   0.36051334  0.00167915  0.10158099
   0.00544071  0.35682575  0.10174305
   0.65038445  0.64650293  0.10168680
   0.32906963  0.32519096  0.10139327
   0.68191781  0.00166279  0.10141087
   0.00545047  0.67807648  0.10141685
   0.10999807  0.38985018  0.33779707
   0.27666851  0.22318204  0.33791846
   0.11003388  0.88989733  0.33785896
   0.27670197  0.72322027  0.33776620
   0.60999060  0.38984144  0.33776639
   0.77666974  0.22320058  0.33780808
   0.60998886  0.88984180  0.33789226
   0.77664221  0.72319930  0.33782083
Direct configuration=    47
   0.00540841  0.00167706  0.09989054
   0.36054924  0.00164340  0.10157781
   0.00545460  0.35681383  0.10173841
   0.65038999  0.64646373  0.10168379
   0.32910225  0.32515103  0.10136993
   0.68196470  0.00165761  0.10144548
   0.00549719  0.67805110  0.10139701
   0.10997323  0.38988231  0.33780841
   0.27664731  0.22321165  0.33791530
   0.11000751  0.88992108  0.33786741
   0.27668320  0.72323498  0.33776923
   0.60996689  0.38986640  0.33777906
   0.77663478  0.22320982  0.33781144
   0.60996095  0.88988110  0.33790447
   0.77660930  0.72321334  0.33782105
Direct configuration=    48
   0.00542170  0.00166053  0.09988486
   0.36056778  0.00162124  0.10157873
   0.00547016  0.35678225  0.10173390
   0.65041479  0.64645453  0.10168152
   0.32912305  0.32513354  0.10135788
   0.68197859  0.00164675  0.10145479
   0.00551679  0.67804624  0.10138614
   0.10995633  0.38989960  0.33781056
   0.27663342  0.22321982  0.33791664
   0.10999558  0.88994019  0.33786787
   0.27666572  0.72324794  0.33777570
   0.60994751  0.38988461  0.33778293
   0.77662278  0.22322507  0.33781692
   0.60994488  0.88989146  0.33790604
   0.77659048  0.72322467  0.33782485
Direct configuration=    49
   0.00546001  0.00161288  0.09986850
   0.36062119  0.00155736  0.10158136
   0.00551500  0.35669123  0.10172091
   0.65048627  0.64642801  0.10167499
   0.32918302  0.32508310  0.10132316
   0.68201864  0.00161546  0.10148163
   0.00557327  0.67803222  0.10135480
   0.10990760  0.38994944  0.33781675
   0.27659337  0.22324337  0.33792050
   0.10996121  0.88999527  0.33786919
   0.27661532  0.72328529  0.33779436
   0.60989163  0.38993710  0.33779409
   0.77658821  0.22326904  0.33783271
   0.60989857  0.88992134  0.33791057
   0.77653623  0.72325733  0.33783580
Direct configuration=    50
   0.00547125  0.00160309  0.09986675
   0.36062916  0.00154534  0.10158175
   0.00552754  0.35667766  0.10171774
   0.65050206  0.64642083  0.10167321
   0.32919673  0.32507384  0.10131683
   0.68202947  0.00160513  0.10148469
   0.00558432  0.67802031  0.10134897
   0.10989858  0.38995475  0.33781788
   0.27658066  0.22325675  0.33792191
   0.10994768  0.88999982  0.33786946
   0.27660532  0.72329713  0.33779823
   0.60988346  0.38994273  0.33779602