Lattice                                 
           1
     4.203687    2.427000    0.000000
    -4.203687    2.427000    0.000000
     0.000000    0.000000   15.000000
   B    C 
     4    11
Direct configuration=     1
   0.00415361  0.00267210  0.12034134
   0.35695335  0.00285503  0.09748893
   0.00423858  0.35550699  0.09749256
   0.65142295  0.65006557  0.09747688
   0.32808646  0.32671938  0.10030508
   0.68027775  0.00278085  0.10027562
   0.00416530  0.67883808  0.10026559
   0.11111044  0.38888856  0.33726667
   0.27777744  0.22222156  0.33726667
   0.11111044  0.88888856  0.33726667
   0.27777744  0.72222156  0.33726667
   0.61111044  0.38888856  0.33726667
   0.77777744  0.22222156  0.33726667
   0.61111044  0.88888856  0.33726667
   0.77777744  0.72222156  0.33726667
Direct configuration=     2
   0.00416724  0.00269440  0.11900485
   0.35567413  0.00279278  0.09783629
   0.00418993  0.35445805  0.09789304
   0.65259139  0.65112522  0.09786346
   0.32460994  0.32308111  0.10031372
   0.68402213  0.00279444  0.10032792
   0.00422478  0.68233506  0.10028275
   0.11103855  0.38899117  0.33728040
   0.27791366  0.22234352  0.33735473
   0.11129725  0.88902101  0.33729193
   0.27796892  0.72221872  0.33720578
   0.61107194  0.38883660  0.33720083
   0.77773731  0.22226883  0.33728975
   0.61092636  0.88883806  0.33734334
   0.77741602  0.72207948  0.33729053
Direct configuration=     3
   0.00416056  0.00268348  0.11965945
   0.35630068  0.00282327  0.09766616
   0.00421376  0.35497181  0.09769689
   0.65201911  0.65060621  0.09767412
   0.32631270  0.32486309  0.10030948
   0.68218818  0.00278779  0.10030230
   0.00419565  0.68062228  0.10027434
   0.11107376  0.38894091  0.33727367
   0.27784694  0.22228378  0.33731160
   0.11120576  0.88895613  0.33727956
   0.27787514  0.72222011  0.33723560
   0.61109080  0.38886205  0.33723308
   0.77775696  0.22224567  0.33727844
   0.61101652  0.88886279  0.33730579
   0.77759304  0.72214907  0.33727884
Direct configuration=     4
   0.00416931  0.00271966  0.11846163
   0.35681033  0.00275809  0.09799642
   0.00421003  0.35547915  0.09808104
   0.65157599  0.65003026  0.09804363
   0.32649131  0.32491601  0.10028327
   0.68210130  0.00278331  0.10031809
   0.00424023  0.68049144  0.10025643
   0.11109484  0.38887823  0.33729031
   0.27767627  0.22224759  0.33738605
   0.11097615  0.88885801  0.33730856
   0.27765619  0.72226652  0.33719163
   0.61108839  0.38892525  0.33718786
   0.77773613  0.22222544  0.33729968
   0.61115161  0.88897260  0.33737209
   0.77787149  0.72232686  0.33730265
Direct configuration=     5
   0.00419554  0.00282821  0.11486818
   0.35833931  0.00256254  0.09898718
   0.00419885  0.35700119  0.09923347
   0.65024663  0.64830240  0.09915218
   0.32702713  0.32507479  0.10020463
   0.68184066  0.00276990  0.10036543
   0.00437397  0.68009894  0.10020268
   0.11115808  0.38869021  0.33734020
   0.27716424  0.22213902  0.33760940
   0.11028735  0.88856365  0.33739558
   0.27699932  0.72240577  0.33705973
   0.61108114  0.38911484  0.33705222
   0.77767364  0.22216473  0.33736339
   0.61155686  0.88930201  0.33757099
   0.77870684  0.72286024  0.33737408
Direct configuration=     6
   0.00420223  0.00283207  0.11438963
   0.35848150  0.00254425  0.09909086
   0.00421131  0.35711951  0.09935208
   0.65013994  0.64815534  0.09926663
   0.32714243  0.32515989  0.10022746
   0.68174368  0.00275579  0.10040099
   0.00438569  0.67999769  0.10022837
   0.11109481  0.38879903  0.33734655
   0.27730290  0.22217553  0.33762455
   0.11050599  0.88873279  0.33740589
   0.27719258  0.72239326  0.33705852
   0.61103893  0.38909357  0.33705166
   0.77767221  0.22222514  0.33736975
   0.61136739  0.88920125  0.33758470
   0.77836798  0.72269336  0.33738168
Direct configuration=     7
   0.00422228  0.00284365  0.11295400
   0.35890810  0.00248938  0.09940189
   0.00424868  0.35747448  0.09970791
   0.64981986  0.64771416  0.09960999
   0.32748836  0.32541516  0.10029595
   0.68145273  0.00271346  0.10050766
   0.00442086  0.67969395  0.10030543
   0.11090499  0.38912548  0.33736562
   0.27771888  0.22228504  0.33767000
   0.11116190  0.88924019  0.33743681
   0.27777234  0.72235573  0.33705490
   0.61091229  0.38902976  0.33704999
   0.77766792  0.22240635  0.33738885
   0.61079898  0.88889894  0.33762584
   0.77735141  0.72219272  0.33740451
Direct configuration=     8
   0.00422832  0.00284714  0.11252167
   0.35903656  0.00247285  0.09949556
   0.00425994  0.35758137  0.09981506
   0.64972347  0.64758131  0.09971339
   0.32759253  0.32549203  0.10031657
   0.68136511  0.00270071  0.10053978
   0.00443144  0.67960249  0.10032863
   0.11084783  0.38922379  0.33737136
   0.27784414  0.22231802  0.33768369
   0.11135942  0.88939299  0.33744613
   0.27794693  0.72234443  0.33705380
   0.61087415  0.38901054  0.33704948
   0.77766662  0.22246092  0.33739460
   0.61062782  0.88880790  0.33763823
   0.77704528  0.72204195  0.33741138
Direct configuration=     9
   0.00424604  0.00282811  0.11189541
   0.35905142  0.00246386  0.09958328
   0.00429701  0.35754855  0.09990812
   0.64975303  0.64758588  0.09980469
   0.32769148  0.32558395  0.10040578
   0.68127353  0.00266382  0.10063667
   0.00443930  0.67950371  0.10041999
   0.11084845  0.38921464  0.33737911
   0.27785370  0.22243301  0.33767683
   0.11133178  0.88933508  0.33745579
   0.27795201  0.72236596  0.33708276
   0.61086867  0.38896867  0.33708057
   0.77760949  0.22246049  0.33739941
   0.61062031  0.88884697  0.33763261
   0.77701333  0.72207574  0.33741831
Direct configuration=    10
   0.00429918  0.00277103  0.11001664
   0.35909600  0.00243690  0.09984646
   0.00440824  0.35745009  0.10018731
   0.64984173  0.64759958  0.10007860
   0.32798834  0.32585971  0.10067340
   0.68099879  0.00255317  0.10092732
   0.00446286  0.67920739  0.10069406
   0.11085033  0.38918718  0.33740235
   0.27788238  0.22277797  0.33765625
   0.11124884  0.88916135  0.33748480
   0.27796725  0.72243057  0.33716961
   0.61085222  0.38884305  0.33717384
   0.77743809  0.22245920  0.33741385
   0.61059780  0.88896418  0.33761574
   0.77691749  0.72217708  0.33743910
Direct configuration=    11
   0.00440547  0.00265685  0.10625908
   0.35918516  0.00238297  0.10037282
   0.00463069  0.35725315  0.10074570
   0.65001913  0.64762699  0.10062641
   0.32858207  0.32641123  0.10120865
   0.68044931  0.00233186  0.10150862
   0.00450999  0.67861476  0.10124220
   0.11085409  0.38913228  0.33744884
   0.27793975  0.22346791  0.33761509
   0.11108296  0.88881388  0.33754282
   0.27799774  0.72255978  0.33734332
   0.61081931  0.38859181  0.33736038
   0.77709529  0.22245660  0.33744272
   0.61055278  0.88919860  0.33758201
   0.77672581  0.72237977  0.33748067
Direct configuration=    12
   0.00444619  0.00261355  0.10527940
   0.35920780  0.00237577  0.10052716
   0.00467738  0.35724615  0.10089438
   0.65002543  0.64761709  0.10077658
   0.32859387  0.32640213  0.10134103
   0.68048751  0.00229193  0.10164273
   0.00453395  0.67856436  0.10137662
   0.11078525  0.38916943  0.33746037
   0.27767193  0.22300820  0.33760143
   0.11088667  0.88899984  0.33755496
   0.27770975  0.72251302  0.33739668
   0.61079710  0.38890355  0.33741331
   0.77725118  0.22244073  0.33745311
   0.61068497  0.88927934  0.33756845
   0.77709056  0.72245335  0.33749314
Direct configuration=    13
   0.00448558  0.00257167  0.10433192
   0.35922970  0.00236881  0.10067643
   0.00472254  0.35723937  0.10103817
   0.65003152  0.64760751  0.10092181
   0.32860528  0.32639332  0.10146905
   0.68052446  0.00225332  0.10177242
   0.00455713  0.67851562  0.10150662
   0.11071868  0.38920535  0.33747151
   0.27741291  0.22256361  0.33758823
   0.11069683  0.88917969  0.33756669
   0.27743123  0.72246780  0.33744828
   0.61077562  0.38920504  0.33746450
   0.77740195  0.22242539  0.33746316
   0.61081281  0.88935743  0.33755534
   0.77744333  0.72252451  0.33750519
Direct configuration=    14
   0.00449813  0.00255593  0.10424460
   0.35928082  0.00237106  0.10072702
   0.00470747  0.35730821  0.10107245
   0.64995529  0.64754790  0.10096111
   0.32847459  0.32624093  0.10145484
   0.68069913  0.00227715  0.10174574
   0.00457336  0.67861995  0.10149149
   0.11072649  0.38919617  0.33747292
   0.27739702  0.22250009  0.33759054
   0.11075218  0.88923473  0.33756515
   0.27742855  0.72253127  0.33745408
   0.61074847  0.38920956  0.33746588
   0.77742619  0.22251719  0.33746882
   0.61076337  0.88922901  0.33755558
   0.77741850  0.72253929  0.33750909
