Lattice                                 
           1
     4.201089    2.425500    0.000000
    -4.201089    2.425500    0.000000
     0.000000    0.000000   15.000000
   B    C 
     4    11
Direct configuration=     1
   0.00415361  0.00267210  0.12034134
   0.35695335  0.00285503  0.09748893
   0.00423858  0.35550699  0.09749256
   0.65142295  0.65006557  0.09747688
   0.32808646  0.32671938  0.10030508
   0.68027775  0.00278085  0.10027562
   0.00416530  0.67883808  0.10026559
   0.11111044  0.38888856  0.33726667
   0.27777744  0.22222156  0.33726667
   0.11111044  0.88888856  0.33726667
   0.27777744  0.72222156  0.33726667
   0.61111044  0.38888856  0.33726667
   0.77777744  0.22222156  0.33726667
   0.61111044  0.88888856  0.33726667
   0.77777744  0.72222156  0.33726667
Direct configuration=     2
   0.00416748  0.00269509  0.11902416
   0.35569390  0.00279246  0.09783110
   0.00418965  0.35447750  0.09788774
   0.65257170  0.65110544  0.09785818
   0.32466699  0.32313814  0.10031337
   0.68396471  0.00279453  0.10032746
   0.00422491  0.68227810  0.10028231
   0.11103879  0.38899130  0.33728017
   0.27791430  0.22234437  0.33735431
   0.11129726  0.88902026  0.33729151
   0.27796878  0.72221865  0.33720559
   0.61107174  0.38883655  0.33720066
   0.77773701  0.22226837  0.33728954
   0.61092645  0.88883855  0.33734305
   0.77741591  0.72207913  0.33729019
Direct configuration=     3
   0.00416066  0.00268378  0.11967223
   0.35631357  0.00282325  0.09766275
   0.00421372  0.35498403  0.09769330
   0.65200650  0.65059381  0.09767057
   0.32634943  0.32490017  0.10030929
   0.68215066  0.00278780  0.10030195
   0.00419558  0.68058555  0.10027408
   0.11107404  0.38894075  0.33727353
   0.27784697  0.22228395  0.33731119
   0.11120534  0.88895546  0.33727929
   0.27787464  0.72222008  0.33723564
   0.61109078  0.38886214  0.33723314
   0.77775690  0.22224533  0.33727829
   0.61101698  0.88886315  0.33730547
   0.77759379  0.72214921  0.33727862
Direct configuration=     4
   0.00416970  0.00272014  0.11848861
   0.35682136  0.00275762  0.09798903
   0.00420981  0.35548972  0.09807350
   0.65156522  0.65001956  0.09803613
   0.32652294  0.32494799  0.10028314
   0.68206870  0.00278327  0.10031781
   0.00424019  0.68045999  0.10025618
   0.11109447  0.38887813  0.33728990
   0.27767626  0.22224771  0.33738554
   0.11097613  0.88885799  0.33730786
   0.27765650  0.72226614  0.33719111
   0.61108882  0.38892506  0.33718733
   0.77773634  0.22222544  0.33729935
   0.61115176  0.88897286  0.33737175
   0.77787135  0.72232683  0.33730210
Direct configuration=     5
   0.00419683  0.00282923  0.11493773
   0.35834471  0.00256074  0.09896788
   0.00419806  0.35700681  0.09921408
   0.65024139  0.64829683  0.09913281
   0.32704350  0.32509147  0.10020470
   0.68182282  0.00276968  0.10036539
   0.00437403  0.68008331  0.10020248
   0.11115577  0.38869026  0.33733902
   0.27716416  0.22213900  0.33760861
   0.11028848  0.88856557  0.33739357
   0.27700210  0.72240431  0.33705750
   0.61108294  0.38911382  0.33704991
   0.77767466  0.22216577  0.33736253
   0.61155609  0.88930196  0.33757060
   0.77870402  0.72285970  0.33737254
Direct configuration=     6
   0.00420340  0.00283320  0.11447467
   0.35848321  0.00254261  0.09906884
   0.00421002  0.35712242  0.09932982
   0.65013740  0.64815317  0.09924444
   0.32715443  0.32517255  0.10022598
   0.68173012  0.00275601  0.10039926
   0.00438562  0.67998619  0.10022656
   0.11109596  0.38879435  0.33734515
   0.27729619  0.22217380  0.33762372
   0.11049655  0.88872670  0.33740355
   0.27718527  0.72239315  0.33705571
   0.61104181  0.38909421  0.33704872
   0.77767287  0.22222344  0.33736872
   0.61137526  0.88920579  0.33758430
   0.77838143  0.72270085  0.33737990
Direct configuration=     7
   0.00422310  0.00284511  0.11308549
   0.35889872  0.00248822  0.09937170
   0.00424591  0.35746927  0.09967703
   0.64982544  0.64772219  0.09957933
   0.32748725  0.32541579  0.10028984
   0.68145204  0.00271502  0.10050086
   0.00442039  0.67969483  0.10029880
   0.11091655  0.38910662  0.33736353
   0.27769229  0.22227818  0.33766908
   0.11112073  0.88921011  0.33743349
   0.27773477  0.72235969  0.33705032
   0.61091843  0.38903539  0.33704518
   0.77766748  0.22239644  0.33738729
   0.61083279  0.88891729  0.33762539
   0.77741368  0.72222430  0.33740200
Direct configuration=     8
   0.00423029  0.00284945  0.11257826
   0.35905043  0.00246836  0.09948229
   0.00425902  0.35759592  0.09980381
   0.64971153  0.64756482  0.09970160
   0.32760877  0.32550461  0.10031315
   0.68135050  0.00270005  0.10053796
   0.00443308  0.67958844  0.10032517
   0.11085104  0.38922064  0.33737024
   0.27783691  0.22231630  0.33768564
   0.11134864  0.88938662  0.33744442
   0.27793542  0.72234747  0.33704835
   0.61087337  0.38901391  0.33704389
   0.77766551  0.22245961  0.33739407
   0.61063471  0.88881195  0.33764040
   0.77706033  0.72205030  0.33741007
Direct configuration=     9
   0.00424761  0.00283058  0.11197482
   0.35905931  0.00245977  0.09956695
   0.00429538  0.35755838  0.09989373
   0.64974563  0.64757504  0.09978979
   0.32770435  0.32559371  0.10039907
   0.68126209  0.00266388  0.10063147
   0.00444069  0.67949274  0.10041318
   0.11085195  0.38921095  0.33737764
   0.27784550  0.22242924  0.33767886
   0.11131971  0.88932844  0.33745370
   0.27793942  0.72236843  0.33707620
   0.61086835  0.38897276  0.33707386
   0.77760939  0.22245835  0.33739858
   0.61062860  0.88885158  0.33763484
   0.77703158  0.72208459  0.33741664
Direct configuration=    10
   0.00429957  0.00277394  0.11016450
   0.35908594  0.00243401  0.09982094
   0.00440445  0.35744576  0.10016350
   0.64984794  0.64760571  0.10005436
   0.32799110  0.32586104  0.10065682
   0.68099688  0.00255536  0.10091198
   0.00446350  0.67920564  0.10067719
   0.11085469  0.38918189  0.33739982
   0.27787124  0.22276808  0.33765851
   0.11123290  0.88915393  0.33748155
   0.27795144  0.72243129  0.33715975
   0.61085327  0.38884929  0.33716377
   0.77744103  0.22245458  0.33741212
   0.61061026  0.88897045  0.33761816
   0.77694533  0.72218746  0.33743636
Direct configuration=    11
   0.00440350  0.00266068  0.10654387
   0.35913921  0.00238249  0.10032893
   0.00462261  0.35722052  0.10070303
   0.65005257  0.64766703  0.10058349
   0.32856459  0.32639568  0.10117233
   0.68046647  0.00233834  0.10147301
   0.00450912  0.67863144  0.10120522
   0.11086016  0.38912377  0.33744418
   0.27792272  0.22344576  0.33761780
   0.11105929  0.88880490  0.33753723
   0.27797547  0.72255701  0.33732685
   0.61082312  0.38860237  0.33734359
   0.77710431  0.22244702  0.33743919
   0.61057359  0.88920821  0.33758481
   0.77677283  0.72239321  0.33747580
Direct configuration=    12
   0.00444464  0.00261618  0.10557439
   0.35916127  0.00237612  0.10048053
   0.00467000  0.35721200  0.10084856
   0.65005930  0.64765894  0.10073062
   0.32858311  0.32639431  0.10130515
   0.68049733  0.00229804  0.10160746
   0.00453299  0.67857325  0.10134003
   0.11078713  0.38916532  0.33745536
   0.27765630  0.22297719  0.33760294
   0.11087193  0.88900244  0.33754903
   0.27769158  0.72250845  0.33738089
   0.61080069  0.38891838  0.33739726
   0.77726476  0.22243513  0.33744914
   0.61070097  0.88928271  0.33757009
   0.77712756  0.72245996  0.33748788
Direct configuration=    13
   0.00448261  0.00257510  0.10467935
   0.35918165  0.00237024  0.10062049
   0.00471375  0.35720414  0.10098291
   0.65006552  0.64765147  0.10086645
   0.32860021  0.32639304  0.10142778
   0.68052583  0.00226083  0.10173159
   0.00455503  0.67851953  0.10146449
   0.11071970  0.38920368  0.33746568
   0.27741033  0.22254459  0.33758922
   0.11069895  0.88918482  0.33755992
   0.27742948  0.72246362  0.33743079
   0.61077998  0.38921013  0.33744681
   0.77741289  0.22242416  0.33745833
   0.61081858  0.88935150  0.33755651
   0.77745505  0.72252159  0.33749903
Direct configuration=    14
   0.00449613  0.00255789  0.10457140
   0.35924523  0.00237279  0.10067252
   0.00469995  0.35728297  0.10101805
   0.64997841  0.64758086  0.10090678
   0.32847852  0.32624955  0.10141862
   0.68069168  0.00228386  0.10170977
   0.00457166  0.67861404  0.10145443
   0.11072897  0.38919396  0.33746719
   0.27739461  0.22248381  0.33759011
   0.11075450  0.88923855  0.33755848
   0.27742590  0.72252950  0.33743901
   0.61075130  0.38921379  0.33745060
   0.77743527  0.22251757  0.33746398
   0.61076821  0.88922160  0.33755533
   0.77742920  0.72253771  0.33750307
Direct configuration=    15
   0.00452188  0.00252512  0.10436590
   0.35936626  0.00237765  0.10077155
   0.00467369  0.35743303  0.10108496
   0.64981260  0.64744645  0.10098356
   0.32824687  0.32597638  0.10140118
   0.68100742  0.00232770  0.10166824
   0.00460330  0.67879394  0.10143527
   0.11074662  0.38917546  0.33747007
   0.27736469  0.22236810  0.33759180
   0.11086025  0.88934084  0.33755574
   0.27741906  0.72265492  0.33745467
   0.61069670  0.38922077  0.33745782
   0.77747787  0.22269538  0.33747473
   0.61067234  0.88897431  0.33755310
   0.77738000  0.72256839  0.33751076
Direct configuration=    16
   0.00453366  0.00249391  0.10425707
   0.35951674  0.00237827  0.10085444
   0.00464864  0.35754705  0.10113479
   0.64965938  0.64731351  0.10104348
   0.32816036  0.32585536  0.10137269
   0.68114473  0.00236651  0.10161273
   0.00462557  0.67887540  0.10140479
   0.11075766  0.38921377  0.33747369
   0.27740448  0.22248300  0.33759550
   0.11081211  0.88928934  0.33755363
   0.27743673  0.72260475  0.33746167
   0.61069668  0.38920730  0.33745930
   0.77741047  0.22260188  0.33748370
   0.61068161  0.88910585  0.33755583
   0.77736074  0.72254254  0.33751602
Direct configuration=    17
   0.00454435  0.00246559  0.10415833
   0.35965327  0.00237884  0.10092965
   0.00462591  0.35765051  0.10118001
   0.64952036  0.64719288  0.10109786
   0.32808186  0.32574556  0.10134683
   0.68126931  0.00240172  0.10156236
   0.00464577  0.67894932  0.10137714
   0.11076768  0.38924854  0.33747698
   0.27744059  0.22258725  0.33759885
   0.11076844  0.88924261  0.33755171
   0.27745275  0.72255922  0.33746802
   0.61069666  0.38919507  0.33746065
   0.77734932  0.22251704  0.33749185
   0.61069002  0.88922521  0.33755830
   0.77734327  0.72251908  0.33752078
Direct configuration=    18
   0.00454432  0.00244484  0.10410731
   0.35972710  0.00237597  0.10097278
   0.00462098  0.35764471  0.10119962
   0.64948831  0.64715668  0.10112459
   0.32817725  0.32582744  0.10133468
   0.68117792  0.00240962  0.10152812
   0.00464965  0.67888602  0.10136340
   0.11070921  0.38922290  0.33748198
   0.27740211  0.22256978  0.33760201
   0.11074833  0.88924813  0.33755307
   0.27743264  0.72256016  0.33746722
   0.61072106  0.38920232  0.33746081
   0.77738344  0.22253868  0.33749627
   0.61071767  0.88924243  0.33756543
   0.77734954  0.72254873  0.33752204
Direct configuration=    19
   0.00454430  0.00242829  0.10406658
   0.35978602  0.00237369  0.10100720
   0.00461706  0.35764007  0.10121527
   0.64946273  0.64712779  0.10114593
   0.32825338  0.32589279  0.10132499
   0.68110498  0.00241593  0.10150079
   0.00465275  0.67883551  0.10135243
   0.11066255  0.38920244  0.33748596
   0.27737141  0.22255585  0.33760454
   0.11073228  0.88925254  0.33755416
   0.27741659  0.72256091  0.33746658
   0.61074054  0.38920810  0.33746094
   0.77741068  0.22255596  0.33749980
   0.61073974  0.88925618  0.33757112
   0.77735455  0.72257240  0.33752305
Direct configuration=    20
   0.00455254  0.00241526  0.10401652
   0.35975590  0.00237336  0.10103530
   0.00462296  0.35757667  0.10122188
   0.64951831  0.64717146  0.10115904
   0.32829833  0.32592917  0.10132579
   0.68107206  0.00240940  0.10147868
   0.00465394  0.67879262  0.10135160
   0.11070644  0.38923203  0.33749164
   0.27738291  0.22254889  0.33760825
   0.11075283  0.88927788  0.33755697
   0.27741630  0.72258769  0.33746481
   0.61070224  0.38921877  0.33746152
   0.77738111  0.22257308  0.33750381
   0.61069389  0.88921121  0.33757961
   0.77733979  0.72256096  0.33752391
Direct configuration=    21
   0.00456010  0.00240331  0.10397064
   0.35972828  0.00237306  0.10106107
   0.00462837  0.35751854  0.10122795
   0.64956925  0.64721149  0.10117107
   0.32833953  0.32596253  0.10132652
   0.68104188  0.00240342  0.10145841
   0.00465503  0.67875331  0.10135084
   0.11074668  0.38925915  0.33749684
   0.27739346  0.22254251  0.33761166
   0.11077167  0.88930112  0.33755953
   0.27741603  0.72261225  0.33746318
   0.61066713  0.38922854  0.33746205
   0.77735401  0.22258877  0.33750749
   0.61065186  0.88916998  0.33758740
   0.77732626  0.72255048  0.33752469
Direct configuration=    22
   0.00457465  0.00239473  0.10391309
   0.35967742  0.00237241  0.10108211
   0.00463900  0.35746156  0.10122923
   0.64963371  0.64726052  0.10117828
   0.32834082  0.32595324  0.10133469
   0.68106114  0.00239140  0.10144317
   0.00465911  0.67873656  0.10135733
   0.11072769  0.38926180  0.33750220
   0.27738481  0.22256230  0.33761622
   0.11074807  0.88929540  0.33756250
   0.27740523  0.72260833  0.33746315
   0.61066576  0.38923383  0.33746324
   0.77734814  0.22258175  0.33751230
   0.61065772  0.88920380  0.33759518
   0.77732631  0.72256081  0.33752665
Direct configuration=    23
   0.00460340  0.00237777  0.10379936
   0.35957690  0.00237111  0.10112368
   0.00465998  0.35734894  0.10123176
   0.64976109  0.64735742  0.10119253
   0.32834335  0.32593489  0.10135083
   0.68109921  0.00236764  0.10141305
   0.00466716  0.67870347  0.10137015
   0.11069016  0.38926705  0.33751278
   0.27736772  0.22260143  0.33762524
   0.11070141  0.88928411  0.33756836
   0.27738389  0.72260059  0.33746310
   0.61066304  0.38924428  0.33746559
   0.77733653  0.22256788  0.33752183
   0.61066930  0.88927063  0.33761056
   0.77732641  0.72258124  0.33753052
Direct configuration=    24
   0.00462290  0.00236876  0.10370969
   0.35959913  0.00236107  0.10114104
   0.00467744  0.35735020  0.10123019
   0.64976569  0.64733348  0.10119660
   0.32835044  0.32591848  0.10136868
   0.68111781  0.00234889  0.10140331
   0.00468063  0.67868971  0.10138610
   0.11064742  0.38926092  0.33751845
   0.27733702  0.22260052  0.33763230
   0.11070050  0.88930407  0.33757215
   0.27737329  0.72261595  0.33746847
   0.61067263  0.38924944  0.33746923
   0.77734277  0.22260300  0.33752974
   0.61066575  0.88927084  0.33761734
   0.77729612  0.72260310  0.33753604
Direct configuration=    25
   0.00468140  0.00234175  0.10344065
   0.35966584  0.00233096  0.10119312
   0.00472979  0.35735399  0.10122550
   0.64977948  0.64726169  0.10120880
   0.32837170  0.32586924  0.10142222
   0.68117361  0.00229266  0.10137408
   0.00472105  0.67864845  0.10143395
   0.11051922  0.38924251  0.33753547
   0.27724492  0.22259779  0.33765347
   0.11069779  0.88936393  0.33758351
   0.27734152  0.72266203  0.33748461
   0.61070141  0.38926490  0.33748017
   0.77736149  0.22270837  0.33755349
   0.61065511  0.88927149  0.33763769
   0.77720525  0.72266869  0.33755261
Direct configuration=    26
   0.00468798  0.00233741  0.10340426
   0.35968203  0.00232551  0.10119932
   0.00473649  0.35735822  0.10122576
   0.64977613  0.64724625  0.10121081
   0.32837716  0.32586405  0.10142866
   0.68117870  0.00228569  0.10137089
   0.00472707  0.67864400  0.10143974
   0.11051923  0.38925120  0.33753774
   0.27724306  0.22260311  0.33765610
   0.11069102  0.88936858  0.33758524
   0.27733660  0.72266594  0.33748717
   0.61069158  0.38927149  0.33748211
   0.77735296  0.22270898  0.33755651
   0.61064693  0.88927739  0.33764007
   0.77720261  0.72267063  0.33755493
Direct configuration=    27
   0.00470771  0.00232439  0.10329509
   0.35973061  0.00230916  0.10121791
   0.00475659  0.35737090  0.10122655
   0.64976608  0.64719993  0.10121687
   0.32839356  0.32584846  0.10144796
   0.68119396  0.00226479  0.10136132
   0.00474514  0.67863064  0.10145713
   0.11051925  0.38927727  0.33754456
   0.27723749  0.22261909  0.33766399
   0.11067073  0.88938255  0.33759042
   0.27732187  0.72267766  0.33749488
   0.61066208  0.38929127  0.33748796
   0.77732740  0.22271080  0.33756556
   0.61062241  0.88929510  0.33764724
   0.77719467  0.72267645  0.33756190
Direct configuration=    28
   0.00474718  0.00229836  0.10307675
   0.35982777  0.00227644  0.10125509
   0.00479678  0.35739626  0.10122813
   0.64974598  0.64710729  0.10122898
   0.32842636  0.32581729  0.10148656
   0.68122449  0.00222298  0.10134218
   0.00478127  0.67860392  0.10149191
   0.11051931  0.38932941  0.33755820
   0.27722636  0.22265104  0.33767977
   0.11063014  0.88941048  0.33760079
   0.27729239  0.72270110  0.33751028
   0.61060310  0.38933083  0.33749965
   0.77727627  0.22271445  0.33758366
   0.61057336  0.88933052  0.33766156
   0.77717879  0.72268808  0.33757583
Direct configuration=    29
   0.00482612  0.00224630  0.10264007
   0.36002210  0.00221102  0.10132945
   0.00487716  0.35744697  0.10123128
   0.64970578  0.64692200  0.10125320
   0.32849195  0.32575495  0.10156376
   0.68128555  0.00213937  0.10130390
   0.00485354  0.67855048  0.10156146
   0.11051941  0.38943369  0.33758548
   0.27720410  0.22271494  0.33771132
   0.11054896  0.88946634  0.33762153
   0.27723345  0.72274799  0.33754109
   0.61048513  0.38940994  0.33752304
   0.77717401  0.22272174  0.33761986
   0.61047526  0.88940136  0.33769021
   0.77714703  0.72271136  0.33760369
Direct configuration=    30
   0.00484274  0.00222152  0.10250361
   0.36005987  0.00218242  0.10135216
   0.00489793  0.35742985  0.10124857
   0.64972309  0.64689226  0.10127192
   0.32851591  0.32572782  0.10157157
   0.68131396  0.00212100  0.10129275
   0.00487994  0.67854494  0.10156825
   0.11051150  0.38944185  0.33759555
   0.27717967  0.22275257  0.33771843
   0.11052378  0.88946528  0.33763142
   0.27719908  0.72277557  0.33755167
   0.61046302  0.38941813  0.33753529
   0.77714340  0.22274481  0.33762793
   0.61046378  0.88941701  0.33769846
   0.77713188  0.72274340  0.33761176
Direct configuration=    31
   0.00489261  0.00214716  0.10209424
   0.36017319  0.00209664  0.10142028
   0.00496025  0.35737849  0.10130044
   0.64977504  0.64680306  0.10132809
   0.32858778  0.32564646  0.10159503
   0.68139919  0.00206588  0.10125930
   0.00495912  0.67852834  0.10158861
   0.11048774  0.38946632  0.33762575
   0.27710637  0.22286546  0.33773974
   0.11044825  0.88946211  0.33766109
   0.27709600  0.72285831  0.33758339
   0.61039666  0.38944269  0.33757206
   0.77705158  0.22281401  0.33765215
   0.61042934  0.88946397  0.33772323
   0.77708643  0.72283954  0.33763595
Direct configuration=    32
   0.00491283  0.00212104  0.10195325
   0.36018566  0.00206604  0.10144281
   0.00498183  0.35734125  0.10132963
   0.64981488  0.64679362  0.10135503
   0.32861607  0.32561615  0.10159127
   0.68143270  0.00205081  0.10124986
   0.00498930  0.67851234  0.10158486
   0.11044030  0.38948878  0.33763658
   0.27707762  0.22286530  0.33774646
   0.11042918  0.88950236  0.33767304
   0.27708173  0.72287005  0.33759492
   0.61038233  0.38947123  0.33758671
   0.77704535  0.22283823  0.33765911
   0.61040432  0.88948781  0.33773125
   0.77705547  0.72285344  0.33764456
Direct configuration=    33
   0.00497350  0.00204266  0.10153027
   0.36022305  0.00197421  0.10151039
   0.00504658  0.35722954  0.10141719
   0.64993441  0.64676533  0.10143584
   0.32870095  0.32552521  0.10157999
   0.68153321  0.00200559  0.10122154
   0.00507982  0.67846433  0.10157362
   0.11029797  0.38955615  0.33766906
   0.27699136  0.22286483  0.33776663
   0.11037198  0.88962308  0.33770888
   0.27703892  0.72290525  0.33762953
   0.61033932  0.38955688  0.33763068
   0.77702663  0.22291089  0.33768002
   0.61032924  0.88955934  0.33775530
   0.77696261  0.72289515  0.33767038
Direct configuration=    34
   0.00509482  0.00188591  0.10068432
   0.36029783  0.00179057  0.10164556
   0.00517609  0.35700611  0.10159233
   0.65017348  0.64670874  0.10159748
   0.32887070  0.32534334  0.10155742
   0.68173425  0.00191516  0.10116489
   0.00526085  0.67836832  0.10155114
   0.11001330  0.38969090  0.33773401
   0.27681886  0.22286388  0.33780696
   0.11025757  0.88986454  0.33778058
   0.27695331  0.72297564  0.33769876
   0.61025331  0.38972818  0.33771862
   0.77698920  0.22305621  0.33772183
   0.61017910  0.88970239  0.33780341
   0.77677688  0.72297858  0.33772203
Direct configuration=    35
   0.00501903  0.00198383  0.10121275
   0.36025112  0.00190528  0.10156113
   0.00509519  0.35714567  0.10148293
   0.65002414  0.64674409  0.10149651
   0.32876466  0.32545695  0.10157152
   0.68160867  0.00197165  0.10120027
   0.00514777  0.67842829  0.10156518
   0.11019112  0.38960673  0.33769344
   0.27692662  0.22286447  0.33778177
   0.11032904  0.88971371  0.33773579
   0.27700679  0.72293167  0.33765552
   0.61030704  0.38962118  0.33766369
   0.77701258  0.22296543  0.33769571
   0.61027289  0.88961303  0.33777336
   0.77689290  0.72292647  0.33768977
Direct configuration=    36
   0.00507018  0.00194661  0.10097193
   0.36025816  0.00186044  0.10159346
   0.00514022  0.35708194  0.10154124
   0.65009574  0.64672832  0.10154668
   0.32882770  0.32541920  0.10155384
   0.68165059  0.00194213  0.10119459
   0.00520092  0.67836219  0.10154915
   0.11018390  0.38964508  0.33771021
   0.27689788  0.22293252  0.33779676
   0.11028426  0.88972435  0.33775584
   0.27696166  0.72298291  0.33767631
   0.61025250  0.38964586  0.33768647
   0.77694208  0.22299264  0.33770918
   0.61022739  0.88964545  0.33778625
   0.77685637  0.72296881  0.33770742
Direct configuration=    37
   0.00516113  0.00188042  0.10054373
   0.36027068  0.00178070  0.10165094
   0.00522028  0.35696862  0.10164493
   0.65022305  0.64670029  0.10163589
   0.32893977  0.32535210  0.10152243
   0.68172513  0.00188965  0.10118447
   0.00529543  0.67824466  0.10152064
   0.11017107  0.38971328  0.33774003
   0.27684677  0.22305350  0.33782341
   0.11020466  0.88974326  0.33779148
   0.27688140  0.72307401  0.33771329
   0.61015553  0.38968975  0.33772697
   0.77681672  0.22304102  0.33773314
   0.61014649  0.88970310  0.33780917
   0.77679143  0.72304408  0.33773881
Direct configuration=    38
   0.00518586  0.00187241  0.10048261
   0.36029495  0.00177838  0.10164654
   0.00524464  0.35696185  0.10165975
   0.65023020  0.64667681  0.10164508
   0.32896084  0.32535587  0.10151290
   0.68171936  0.00186617  0.10120487
   0.00530432  0.67821194  0.10151341
   0.11015715  0.38972610  0.33774116
   0.27682793  0.22305234  0.33783361
   0.11018714  0.88976218  0.33779439
   0.27685624  0.72307860  0.33771848
   0.61013882  0.38971017  0.33772642
   0.77681354  0.22305443  0.33774018
   0.61013892  0.88971618  0.33781266
   0.77678965  0.72305500  0.33774728
Direct configuration=    39
   0.00525920  0.00184863  0.10030134
   0.36036692  0.00177150  0.10163349
   0.00531688  0.35694178  0.10170369
   0.65025144  0.64660719  0.10167235
   0.32902332  0.32536707  0.10148464
   0.68170224  0.00179655  0.10126536
   0.00533067  0.67811488  0.10149198
   0.11011588  0.38976412  0.33774451
   0.27677203  0.22304892  0.33786385
   0.11013519  0.88981832  0.33780300
   0.27678160  0.72309222  0.33773387
   0.61008925  0.38977074  0.33772480
   0.77680410  0.22309421  0.33776103
   0.61011648  0.88975497  0.33782302
   0.77678436  0.72308735  0.33777240
Direct configuration=    40
   0.00527900  0.00183044  0.10023964
   0.36039361  0.00176664  0.10162352
   0.00534182  0.35692786  0.10171726
   0.65026892  0.64658952  0.10167916
   0.32902935  0.32535284  0.10147240
   0.68172116  0.00176734  0.10129708
   0.00533992  0.67810355  0.10148293
   0.11009885  0.38977164  0.33774707
   0.27676190  0.22307990  0.33787409
   0.11012747  0.88982231  0.33780736
   0.27678376  0.72311901  0.33773714
   0.61008141  0.38976923  0.33772452
   0.77677726  0.22311098  0.33776764
   0.61009297  0.88976214  0.33782925
   0.77675215  0.72310505  0.33778028
Direct configuration=    41
   0.00531295  0.00179926  0.10013384
   0.36043938  0.00175831  0.10160644
   0.00538458  0.35690398  0.10174051
   0.65029891  0.64655922  0.10169085
   0.32903967  0.32532845  0.10145139
   0.68175359  0.00171727  0.10135148
   0.00535580  0.67808414  0.10146740
   0.11006964  0.38978453  0.33775147
   0.27674454  0.22313301  0.33789165
   0.11011422  0.88982914  0.33781485
   0.27678747  0.72316494  0.33774274
   0.61006797  0.38976664  0.33772403
   0.77673124  0.22313973  0.33777896
   0.61005266  0.88977443  0.33783995
   0.77669694  0.72313540  0.33779378
Direct configuration=    42
   0.00531879  0.00177612  0.10009675
   0.36045280  0.00174576  0.10159843
   0.00539482  0.35688593  0.10174668
   0.65032162  0.64655663  0.10169317
   0.32903532  0.32529860  0.10144080
   0.68179334  0.00170232  0.10137820
   0.00536915  0.67809559  0.10145934
   0.11005618  0.38980795  0.33775710
   0.27673607  0.22313761  0.33789408
   0.11009734  0.88984633  0.33782089
   0.27677357  0.72316341  0.33774201
   0.61005255  0.38978916  0.33772808
   0.77671906  0.22313585  0.33778044
   0.61004254  0.88980042  0.33784801
   0.77668639  0.72313675  0.33779536
Direct configuration=    43
   0.00532323  0.00175854  0.10006860
   0.36046299  0.00173624  0.10159235
   0.00540259  0.35687223  0.10175137
   0.65033886  0.64655467  0.10169493
   0.32903202  0.32527594  0.10143276
   0.68182352  0.00169097  0.10139849
   0.00537929  0.67810427  0.10145322
   0.11004596  0.38982573  0.33776137
   0.27672964  0.22314111  0.33789592
   0.11008453  0.88985938  0.33782548
   0.27676302  0.72316226  0.33774145
   0.61004085  0.38980626  0.33773116
   0.77670980  0.22313292  0.33778156
   0.61003485  0.88982016  0.33785412
   0.77667839  0.72313777  0.33779656
Direct configuration=    44
   0.00532809  0.00174485  0.10005470
   0.36047005  0.00172114  0.10158960
   0.00540438  0.35686125  0.10175144
   0.65034885  0.64654907  0.10169455
   0.32904306  0.32525973  0.10142428
   0.68184432  0.00169024  0.10141383
   0.00539614  0.67810193  0.10144621
   0.11003919  0.38982452  0.33776679
   0.27671360  0.22314665  0.33789372
   0.11007414  0.88986513  0.33783023
   0.27674320  0.72317578  0.33774064
   0.61002921  0.38981180  0.33773685
   0.77670733  0.22315414  0.33778105
   0.61002967  0.88981730  0.33786016
   0.77667835  0.72315492  0.33779529
Direct configuration=    45
   0.00533250  0.00173239  0.10004206
   0.36047646  0.00170742  0.10158711
   0.00540600  0.35685128  0.10175150
   0.65035793  0.64654397  0.10169419
   0.32905309  0.32524500  0.10141657
   0.68186322  0.00168957  0.10142777
   0.00541146  0.67809980  0.10143983
   0.11003303  0.38982341  0.33777173
   0.27669902  0.22315169  0.33789172
   0.11006469  0.88987035  0.33783455
   0.27672519  0.72318808  0.33773990
   0.61001863  0.38981684  0.33774203
   0.77670508  0.22317342  0.33778059
   0.61002496  0.88981470  0.33786564
   0.77667831  0.72317052  0.33779413
Direct configuration=    46
   0.00534620  0.00172252  0.10003376
   0.36048906  0.00168695  0.10158680
   0.00541069  0.35683896  0.10174868
   0.65036350  0.64652734  0.10169270
   0.32908161  0.32523455  0.10140524
   0.68187167  0.00169193  0.10144163
   0.00543624  0.67807977  0.10142993
   0.11002072  0.38983795  0.33777662
   0.27668896  0.22316297  0.33788944
   0.11005555  0.88988402  0.33783793
   0.27672106  0.72319862  0.33774190
   0.61000854  0.38982745  0.33774825
   0.77668802  0.22318032  0.33778200
   0.61000769  0.88982840  0.33787040
   0.77666005  0.72317670  0.33779405
Direct configuration=    47
   0.00536684  0.00170764  0.10002123
   0.36050805  0.00165610  0.10158634
   0.00541777  0.35682041  0.10174444
   0.65037189  0.64650229  0.10169045
   0.32912461  0.32521879  0.10138817
   0.68188440  0.00169547  0.10146253
   0.00547359  0.67804958  0.10141501
   0.11000215  0.38985986  0.33778399
   0.27667379  0.22317997  0.33788599
   0.11004179  0.88990461  0.33784303
   0.27671483  0.72321450  0.33774492
   0.60999335  0.38984345  0.33775762
   0.77666231  0.22319072  0.33778412
   0.60998166  0.88984903  0.33787756
   0.77663252  0.72318602  0.33779391
Direct configuration=    48
   0.00538979  0.00169310  0.10001837
   0.36052465  0.00163217  0.10158818
   0.00543778  0.35679475  0.10173826
   0.65039649  0.64648621  0.10168745
   0.32914574  0.32519414  0.10137428
   0.68190484  0.00168279  0.10147193
   0.00549727  0.67803422  0.10140231
   0.10997950  0.38987689  0.33778518
   0.27665949  0.22320224  0.33788857
   0.11001700  0.88991332  0.33784210
   0.27669056  0.72322704  0.33775314
   0.60997210  0.38986142  0.33776050
   0.77664674  0.22320210  0.33779149
   0.60997164  0.88987242  0.33787835
   0.77661595  0.72320563  0.33779923
Direct configuration=    49
   0.00545665  0.00165075  0.10001001
   0.36057303  0.00156245  0.10159354
   0.00549608  0.35672002  0.10172026
   0.65046817  0.64643937  0.10167871
   0.32920732  0.32512231  0.10133380
   0.68196438  0.00164584  0.10149932
   0.00556628  0.67798946  0.10136530
   0.10991350  0.38992650  0.33778865
   0.27661782  0.22326712  0.33789606
   0.10994478  0.88993870  0.33783937
   0.27661982  0.72326358  0.33777710
   0.60991022  0.38991378  0.33776890
   0.77660139  0.22323527  0.33781296
   0.60994245  0.88994055  0.33788064
   0.77656766  0.72326276  0.33781473
Direct configuration=    50
   0.00546747  0.00164110  0.10000952
   0.36058248  0.00155163  0.10159395
   0.00550821  0.35670928  0.10171685
   0.65048188  0.64643104  0.10167677
   0.32921765  0.32511167  0.10132803
   0.68197717  0.00163499  0.10150217
   0.00557591  0.67798032  0.10135995
   0.10990594  0.38993416  0.33778951
   0.27660427  0.22327222  0.33789757
   0.10993817  0.88995172  0.33783939
   0.27661227  0.72327494  0.33778051
   0.60990240  0.38992197  0.33777023