Lattice                                 
           1
     4.321467    2.495000    0.000000
    -4.321467    2.495000    0.000000
     0.000000    0.000000   15.000000
   B    C 
   2  14
Direct configuration=     1
   0.33833034  0.66916432  0.10000000
   0.67165522  0.33584146  0.10000000
   0.16373946  0.31999962  0.10000000
   0.32250218  0.16126397  0.10000000
   0.16376430  0.84376384  0.10000000
   0.84623863  0.16123684  0.10000000
   0.68749850  0.84373000  0.10000000
   0.84626736  0.68499594  0.10000000
   0.33333267  0.16666633  0.32553333
   0.49999967  0.99999933  0.32553333
   0.33333267  0.66666633  0.32553333
   0.49999967  0.49999933  0.32553333
   0.83333267  0.16666633  0.32553333
   0.99999967  0.99999933  0.32553333
   0.83333267  0.66666633  0.32553333
   0.99999967  0.49999933  0.32553333
Direct configuration=     2
   0.33834475  0.66917124  0.10016209
   0.67169494  0.33581910  0.09997859
   0.16859933  0.32972800  0.09995090
   0.33196736  0.16599266  0.10001955
   0.16863135  0.83889057  0.09995090
   0.84147736  0.16597754  0.10001898
   0.67776819  0.83888496  0.09995071
   0.84150393  0.67552745  0.10001897
   0.33337896  0.16668830  0.32554090
   0.50012522  0.00026725  0.32558013
   0.33332866  0.66666320  0.32533101
   0.50012522  0.49985932  0.32558012
   0.83331852  0.16669203  0.32553750
   0.00000501  0.00000318  0.32552734
   0.83331856  0.66662420  0.32553753
   0.99973798  0.49986966  0.32558146
Direct configuration=     3
   0.33833393  0.66916605  0.10004038
   0.67166511  0.33583589  0.09999467
   0.16495025  0.32242336  0.09998777
   0.32486035  0.16244208  0.10000487
   0.16497688  0.84254971  0.09998777
   0.84505241  0.16241794  0.10000473
   0.68507428  0.84252290  0.09998772
   0.84508059  0.68263695  0.10000473
   0.33334420  0.16667180  0.32553522
   0.50003095  0.00006608  0.32554499
   0.33333167  0.66666555  0.32548293
   0.50003095  0.49996445  0.32554499
   0.83332914  0.16667273  0.32553437
   0.00000100  0.00000029  0.32553184
   0.83332915  0.66665584  0.32553438
   0.99993447  0.49996703  0.32554532
Direct configuration=     4
   0.33833393  0.66916604  0.10004033
   0.67166510  0.33583590  0.09999467
   0.16494859  0.32242003  0.09998778
   0.32485711  0.16244046  0.10000486
   0.16497522  0.84255138  0.09998778
   0.84505403  0.16241632  0.10000472
   0.68507761  0.84252456  0.09998774
   0.84508222  0.68264019  0.10000472
   0.33334418  0.16667180  0.32553521
   0.50003090  0.00006599  0.32554498
   0.33333167  0.66666555  0.32548300
   0.50003090  0.49996450  0.32554497
   0.83332915  0.16667273  0.32553437
   0.00000100  0.00000029  0.32553184
   0.83332916  0.66665585  0.32553438
   0.99993456  0.49996707  0.32554531
Direct configuration=     5
   0.33833393  0.66916604  0.10004032
   0.67166510  0.33583590  0.09999468
   0.16494828  0.32241940  0.09998779
   0.32485650  0.16244015  0.10000486
   0.16497490  0.84255169  0.09998779
   0.84505434  0.16241602  0.10000472
   0.68507824  0.84252487  0.09998774
   0.84508253  0.68264080  0.10000472
   0.33334418  0.16667180  0.32553521
   0.50003090  0.00006597  0.32554497
   0.33333167  0.66666555  0.32548301
   0.50003090  0.49996451  0.32554497
   0.83332915  0.16667272  0.32553437
   0.00000100  0.00000029  0.32553184
   0.83332916  0.66665585  0.32553438
   0.99993458  0.49996708  0.32554530
Direct configuration=     6
   0.33833393  0.66916604  0.10004032
   0.67166510  0.33583590  0.09999467
   0.16494846  0.32241976  0.09998778
   0.32485684  0.16244033  0.10000486
   0.16497508  0.84255151  0.09998779
   0.84505417  0.16241619  0.10000472
   0.68507788  0.84252470  0.09998774
   0.84508235  0.68264046  0.10000472
   0.33334418  0.16667180  0.32553521
   0.50003090  0.00006598  0.32554497
   0.33333167  0.66666555  0.32548300
   0.50003090  0.49996450  0.32554497
   0.83332915  0.16667273  0.32553437
   0.00000100  0.00000029  0.32553184
   0.83332916  0.66665585  0.32553438
   0.99993457  0.49996707  0.32554531
Direct configuration=     7
   0.33833821  0.66916615  0.10014328
   0.67166936  0.33583225  0.09997500
   0.16494844  0.32242702  0.09996497
   0.32484474  0.16242893  0.10001227
   0.16496756  0.84253986  0.09996497
   0.84506874  0.16241336  0.10001184
   0.68506428  0.84252818  0.09996462
   0.84508538  0.68265550  0.10001184
   0.33335368  0.16667672  0.32554489
   0.50004153  0.00008565  0.32556996
   0.33333094  0.66666533  0.32535429
   0.50004153  0.49995520  0.32556996
   0.83332477  0.16667827  0.32554181
   0.00000356  0.00000144  0.32552402
   0.83332476  0.66664623  0.32554182
   0.99991783  0.49995857  0.32557113
Direct configuration=     8
   0.33833949  0.66916618  0.10017417
   0.67167064  0.33583116  0.09996909
   0.16494844  0.32242920  0.09995812
   0.32484110  0.16242551  0.10001449
   0.16496530  0.84253636  0.09995812
   0.84507312  0.16241251  0.10001397
   0.68506020  0.84252923  0.09995768
   0.84508629  0.68266001  0.10001398
   0.33335653  0.16667820  0.32554779
   0.50004472  0.00009155  0.32557746
   0.33333073  0.66666527  0.32531568
   0.50004472  0.49995241  0.32557746
   0.83332346  0.16667993  0.32554404
   0.00000433  0.00000179  0.32552168
   0.83332344  0.66664334  0.32554405
   0.99991281  0.49995602  0.32557888
Direct configuration=     9
   0.33831623  0.66916384  0.10023990
   0.67166793  0.33583820  0.09997255
   0.16497307  0.32240072  0.09997449
   0.32485924  0.16243832  0.09999312
   0.16496848  0.84255894  0.09997449
   0.84504033  0.16242697  0.09999216
   0.68510887  0.84253821  0.09997363
   0.84504103  0.68262009  0.09999217
   0.33333799  0.16666833  0.32557073
   0.50001944  0.00004190  0.32555663
   0.33333743  0.66666806  0.32526696
   0.50001942  0.49997800  0.32555664
   0.83333894  0.16666840  0.32556595
  -0.00000016  0.00000014  0.32551331
   0.83333896  0.66666927  0.32556594
   0.99995814  0.49997928  0.32555799
Direct configuration=    10
   0.33832204  0.66916442  0.10022347
   0.67166861  0.33583644  0.09997169
   0.16496691  0.32240784  0.09997040
   0.32485471  0.16243512  0.09999846
   0.16496768  0.84255330  0.09997040
   0.84504853  0.16242336  0.09999761
   0.68509671  0.84253596  0.09996965
   0.84505234  0.68263007  0.09999762
   0.33334262  0.16667080  0.32556499
   0.50002576  0.00005431  0.32556183
   0.33333575  0.66666736  0.32527913
   0.50002575  0.49997160  0.32556184
   0.83333507  0.16667128  0.32556048
   0.00000096  0.00000055  0.32551540
   0.83333508  0.66666279  0.32556047
   0.99994681  0.49997347  0.32556321
Direct configuration=    11
   0.33834655  0.66916834  0.10028057
   0.67164766  0.33582951  0.09997691
   0.16491681  0.32241835  0.09999169
   0.32487195  0.16241803  0.09997937
   0.16492165  0.84252349  0.09999178
   0.84510775  0.16243185  0.09997796
   0.68503899  0.84253656  0.09999049
   0.84511326  0.68265368  0.09997798
   0.33335222  0.16667634  0.32557915
   0.50004455  0.00008407  0.32553442
   0.33333175  0.66666618  0.32525062
   0.50004461  0.49995924  0.32553442
   0.83332656  0.16667774  0.32557407
   0.00000815  0.00000344  0.32551777
   0.83332658  0.66664931  0.32557406
   0.99992627  0.49996255  0.32553540
Direct configuration=    12
   0.33833259  0.66916611  0.10024804
   0.67165960  0.33583346  0.09997394
   0.16494536  0.32241236  0.09997956
   0.32486213  0.16242777  0.09999025
   0.16494787  0.84254047  0.09997960
   0.84507401  0.16242701  0.09998916
   0.68507188  0.84253622  0.09997862
   0.84507855  0.68264023  0.09998917
   0.33334675  0.16667318  0.32557109
   0.50003385  0.00006711  0.32555004
   0.33333403  0.66666685  0.32526686
   0.50003386  0.49996628  0.32555004
   0.83333141  0.16667406  0.32556632
   0.00000405  0.00000179  0.32551642
   0.83333142  0.66665699  0.32556632
   0.99993797  0.49996877  0.32555124
Direct configuration=    13
   0.33832556  0.66916438  0.10027881
   0.67167807  0.33583011  0.09997497
   0.16497019  0.32243221  0.09999194
   0.32482231  0.16241529  0.09998652
   0.16497221  0.84253119  0.09999210
   0.84506404  0.16241148  0.09998496
   0.68506640  0.84253231  0.09999059
   0.84506291  0.68266112  0.09998505
   0.33336176  0.16668095  0.32556817
   0.50005095  0.00009974  0.32553402
   0.33333321  0.66666661  0.32525695
   0.50005095  0.49995053  0.32553402
   0.83332484  0.16668283  0.32556339
   0.00000771  0.00000351  0.32552701
   0.83332479  0.66664205  0.32556338
   0.99990943  0.49995437  0.32553478
Direct configuration=    14
   0.33832867  0.66916514  0.10026521
   0.67166991  0.33583159  0.09997451
   0.16495921  0.32242344  0.09998647
   0.32483991  0.16242080  0.09998817
   0.16496145  0.84253529  0.09998657
   0.84506845  0.16241835  0.09998681
   0.68506882  0.84253404  0.09998530
   0.84506983  0.68265189  0.09998687
   0.33335513  0.16667751  0.32556946
   0.50004339  0.00008532  0.32554110
   0.33333357  0.66666672  0.32526133
   0.50004340  0.49995749  0.32554110
   0.83332774  0.16667895  0.32556469
   0.00000610  0.00000275  0.32552233
   0.83332772  0.66664865  0.32556468
   0.99992205  0.49996074  0.32554206
Direct configuration=    15
   0.33832986  0.66916350  0.10028678
   0.67166687  0.33583143  0.09997400
   0.16495799  0.32241925  0.09999396
   0.32484396  0.16242289  0.09999222
   0.16495630  0.84253585  0.09999409
   0.84506641  0.16242002  0.09999038
   0.68507004  0.84253510  0.09999239
   0.84506320  0.68264659  0.09999048
   0.33335445  0.16667692  0.32555995
   0.50003976  0.00007819  0.32553075
   0.33333699  0.66666816  0.32525582
   0.50003974  0.49996157  0.32553075
   0.83333273  0.16667812  0.32555530
   0.00000545  0.00000273  0.32553317
   0.83333270  0.66665394  0.32555529
   0.99992888  0.49996442  0.32553135
Direct configuration=    16
   0.33833139  0.66916140  0.10031437
   0.67166298  0.33583123  0.09997333
   0.16495643  0.32241389  0.10000354
   0.32484913  0.16242555  0.09999739
   0.16494971  0.84253656  0.10000370
   0.84506380  0.16242216  0.09999495
   0.68507160  0.84253646  0.10000147
   0.84505473  0.68263981  0.09999510
   0.33335359  0.16667615  0.32554778
   0.50003512  0.00006907  0.32551752
   0.33334137  0.66667001  0.32524876
   0.50003507  0.49996677  0.32551752
   0.83333910  0.16667705  0.32554328
   0.00000463  0.00000270  0.32554702
   0.83333907  0.66666070  0.32554328
   0.99993761  0.49996914  0.32551766
Direct configuration=    17
   0.33833096  0.66916199  0.10030653
   0.67166409  0.33583128  0.09997352
   0.16495687  0.32241541  0.10000082
   0.32484766  0.16242479  0.09999592
   0.16495158  0.84253636  0.10000097
   0.84506454  0.16242155  0.09999366
   0.68507116  0.84253607  0.09999889
   0.84505714  0.68264174  0.09999379
   0.33335383  0.16667637  0.32555123
   0.50003644  0.00007166  0.32552127
   0.33334013  0.66666949  0.32525077
   0.50003640  0.49996530  0.32552127
   0.83333729  0.16667736  0.32554669
   0.00000486  0.00000271  0.32554309
   0.83333726  0.66665878  0.32554669
   0.99993513  0.49996780  0.32552155
Direct configuration=    18
   0.33832344  0.66916425  0.10031985
   0.67165737  0.33582984  0.09997633
   0.16494550  0.32241371  0.10000862
   0.32484692  0.16241437  0.10000659
   0.16494330  0.84253113  0.10000879
   0.84507303  0.16242566  0.10000369
   0.68506405  0.84253766  0.10000614
   0.84507349  0.68264403  0.10000384
   0.33335353  0.16667743  0.32554141
   0.50005000  0.00008350  0.32551251
   0.33333426  0.66666786  0.32524251
   0.50005005  0.49996457  0.32551251
   0.83332889  0.16667877  0.32553688
   0.00001538  0.00000666  0.32553737
   0.83332893  0.66665155  0.32553688
   0.99993720  0.49996766  0.32551274
Direct configuration=    19
   0.33832285  0.66916442  0.10032089
   0.67165684  0.33582973  0.09997654
   0.16494461  0.32241358  0.10000923
   0.32484687  0.16241355  0.10000742
   0.16494266  0.84253073  0.10000940
   0.84507369  0.16242598  0.10000447
   0.68506350  0.84253779  0.10000670
   0.84507476  0.68264421  0.10000463
   0.33335350  0.16667751  0.32554064
   0.50005106  0.00008442  0.32551183
   0.33333381  0.66666774  0.32524187
   0.50005111  0.49996452  0.32551183
   0.83332823  0.16667888  0.32553612
   0.00001620  0.00000697  0.32553693
   0.83332828  0.66665099  0.32553612
   0.99993736  0.49996765  0.32551205
Direct configuration=    20
   0.33832028  0.66916438  0.10032449
   0.67165648  0.33582938  0.09997822
   0.16494571  0.32241358  0.10001226
   0.32484427  0.16241235  0.10001138
   0.16494370  0.84253024  0.10001243
   0.84507204  0.16242545  0.10000820
   0.68506373  0.84253716  0.10000952
   0.84507364  0.68264445  0.10000836
   0.33335504  0.16667828  0.32553736
   0.50005242  0.00008615  0.32550887
   0.33333451  0.66666810  0.32523872
   0.50005248  0.49996416  0.32550887
   0.83332858  0.16667970  0.32553283
   0.00001701  0.00000738  0.32553322
   0.83332864  0.66665053  0.32553284
   0.99993681  0.49996738  0.32550911
Direct configuration=    21
   0.33831256  0.66916424  0.10033527
   0.67165539  0.33582832  0.09998325
   0.16494900  0.32241359  0.10002134
   0.32483647  0.16240874  0.10002326
   0.16494681  0.84252879  0.10002152
   0.84506709  0.16242385  0.10001937
   0.68506443  0.84253530  0.10001795
   0.84507025  0.68264515  0.10001956
   0.33335964  0.16668059  0.32552754
   0.50005652  0.00009133  0.32549998
   0.33333664  0.66666917  0.32522930
   0.50005660  0.49996310  0.32549999
   0.83332964  0.16668217  0.32552299
   0.00001945  0.00000860  0.32552208
   0.83332971  0.66664916  0.32552300
   0.99993515  0.49996657  0.32550028
Direct configuration=    22
   0.33829713  0.66916396  0.10035683
   0.67165320  0.33582621  0.09999332
   0.16495559  0.32241360  0.10003950
   0.32482087  0.16240153  0.10004702
   0.16495304  0.84252589  0.10003969
   0.84505718  0.16242066  0.10004171
   0.68506582  0.84253156  0.10003483
   0.84506349  0.68264655  0.10004195
   0.33336884  0.16668519  0.32550788
   0.50006471  0.00010169  0.32548222
   0.33334089  0.66667132  0.32521045
   0.50006484  0.49996098  0.32548223
   0.83333174  0.16668710  0.32550330
   0.00002432  0.00001104  0.32549979
   0.83333185  0.66664642  0.32550332
   0.99993183  0.49996496  0.32548262
Direct configuration=    23
   0.33830101  0.66916187  0.10036167
   0.67165103  0.33582568  0.09999820
   0.16495226  0.32241276  0.10004582
   0.32482336  0.16240433  0.10005334
   0.16494894  0.84252599  0.10004601
   0.84505639  0.16241924  0.10004759
   0.68506274  0.84253056  0.10004074
   0.84505987  0.68264418  0.10004785
   0.33337037  0.16668552  0.32550233
   0.50006126  0.00009721  0.32547692
   0.33334523  0.66667301  0.32520470
   0.50006137  0.49996292  0.32547693
   0.83333731  0.16668727  0.32549773
   0.00002247  0.00001061  0.32549172
   0.83333739  0.66665087  0.32549775
   0.99993434  0.49996666  0.32547738
Direct configuration=    24
   0.33831266  0.66915559  0.10037617
   0.67164451  0.33582410  0.10001284
   0.16494229  0.32241023  0.10006476
   0.32483084  0.16241273  0.10007230
   0.16493665  0.84252626  0.10006495
   0.84505400  0.16241497  0.10006521
   0.68505349  0.84252758  0.10005846
   0.84504900  0.68263705  0.10006553
   0.33337496  0.16668649  0.32548569
   0.50005094  0.00008378  0.32546104
   0.33335825  0.66667809  0.32518746
   0.50005096  0.49996875  0.32546104
   0.83335401  0.16668778  0.32548103
   0.00001690  0.00000932  0.32546749
   0.83335400  0.66666422  0.32548106
   0.99994188  0.49997175  0.32546165
Direct configuration=    25
   0.33833596  0.66914305  0.10040517
   0.67163149  0.33582093  0.10004213
   0.16492233  0.32240517  0.10010265
   0.32484580  0.16242953  0.10011022
   0.16491205  0.84252680  0.10010284
   0.84504921  0.16240642  0.10010046
   0.68503500  0.84252161  0.10009390
   0.84502728  0.68262279  0.10010089
   0.33338414  0.16668843  0.32545240
   0.50003028  0.00005691  0.32542926
   0.33338430  0.66668823  0.32515297
   0.50003013  0.49998040  0.32542927
   0.83338740  0.16668881  0.32544763
   0.00000577  0.00000673  0.32541902
   0.83338722  0.66669092  0.32544767
   0.99995696  0.49998193  0.32543020
Direct configuration=    26
   0.33832514  0.66914887  0.10039170
   0.67163754  0.33582240  0.10002853
   0.16493160  0.32240752  0.10008505
   0.32483885  0.16242173  0.10009261
   0.16492347  0.84252655  0.10008524
   0.84505143  0.16241039  0.10008409
   0.68504359  0.84252438  0.10007744
   0.84503737  0.68262941  0.10008447
   0.33337988  0.16668753  0.32546785
   0.50003987  0.00006939  0.32544402
   0.33337220  0.66668352  0.32516899
   0.50003980  0.49997499  0.32544402
   0.83337189  0.16668834  0.32546314
   0.00001094  0.00000793  0.32544153
   0.83337179  0.66667852  0.32546317
   0.99994996  0.49997720  0.32544480
Direct configuration=    27
   0.33833061  0.66914593  0.10039850
   0.67163448  0.33582166  0.10003540
   0.16492692  0.32240633  0.10009394
   0.32484236  0.16242567  0.10010151
   0.16491770  0.84252668  0.10009413
   0.84505031  0.16240839  0.10009236
   0.68503925  0.84252298  0.10008575
   0.84503227  0.68262606  0.10009277
   0.33338203  0.16668798  0.32546005
   0.50003503  0.00006308  0.32543656
   0.33337831  0.66668590  0.32516090
   0.50003492  0.49997772  0.32543657
   0.83337973  0.16668858  0.32545530
   0.00000833  0.00000732  0.32543016
   0.83337958  0.66668479  0.32545534
   0.99995350  0.49997959  0.32543743
Direct configuration=    28
   0.33832742  0.66914764  0.10039454
   0.67163626  0.33582209  0.10003140
   0.16492964  0.32240702  0.10008877
   0.32484032  0.16242338  0.10009633
   0.16492106  0.84252660  0.10008896
   0.84505096  0.16240955  0.10008755
   0.68504178  0.84252379  0.10008092
   0.84503524  0.68262801  0.10008794
   0.33338078  0.16668772  0.32546459
   0.50003785  0.00006675  0.32544090
   0.33337476  0.66668452  0.32516561
   0.50003776  0.49997613  0.32544091
   0.83337517  0.16668844  0.32545986
   0.00000984  0.00000767  0.32543678
   0.83337505  0.66668114  0.32545990
   0.99995144  0.49997820  0.32544172
Direct configuration=    29
   0.33832784  0.66914646  0.10039891
   0.67163559  0.33582132  0.10003711
   0.16492779  0.32240602  0.10009530
   0.32483959  0.16242407  0.10010230
   0.16491931  0.84252650  0.10009549
   0.84504886  0.16240842  0.10009307
   0.68504051  0.84252318  0.10008703
   0.84503228  0.68262667  0.10009348
   0.33338059  0.16668771  0.32545903
   0.50003901  0.00006599  0.32543559
   0.33337564  0.66668503  0.32515988
   0.50003891  0.49997788  0.32543560
   0.83337649  0.16668837  0.32545429
   0.00001164  0.00000849  0.32542880
   0.83337636  0.66668270  0.32545433
   0.99995492  0.49997984  0.32543646
Direct configuration=    30
   0.33832910  0.66914291  0.10041199
   0.67163358  0.33581902  0.10005422
   0.16492223  0.32240302  0.10011489
   0.32483738  0.16242616  0.10012022
   0.16491406  0.84252619  0.10011509
   0.84504253  0.16240502  0.10010964
   0.68503672  0.84252133  0.10010535
   0.84502342  0.68262264  0.10011010
   0.33338002  0.16668769  0.32544236
   0.50004251  0.00006371  0.32541966
   0.33337827  0.66668659  0.32514271
   0.50004237  0.49998313  0.32541967
   0.83338045  0.16668818  0.32543759
   0.00001703  0.00001095  0.32540489
   0.83338031  0.66668736  0.32543763
   0.99996535  0.49998478  0.32542066
Direct configuration=    31
   0.33833163  0.66913580  0.10043816
   0.67162956  0.33581441  0.10008844
   0.16491112  0.32239702  0.10015406
   0.32483297  0.16243034  0.10015605
   0.16490356  0.84252556  0.10015428
   0.84502988  0.16239822  0.10014278
   0.68502913  0.84251763  0.10014201
   0.84500570  0.68261458  0.10014333
   0.33337888  0.16668766  0.32540903
   0.50004949  0.00005914  0.32538780
   0.33338353  0.66668970  0.32510837
   0.50004929  0.49999362  0.32538781
   0.83338836  0.16668779  0.32540418
   0.00002781  0.00001586  0.32535707
   0.83338821  0.66669669  0.32540422
   0.99998622  0.49999466  0.32538907
Direct configuration=    32
   0.33833667  0.66912158  0.10049049
   0.67162152  0.33580519  0.10015688
   0.16488889  0.32238501  0.10023241
   0.32482415  0.16243870  0.10022771
   0.16488256  0.84252431  0.10023266
   0.84500457  0.16238461  0.10020907
   0.68501395  0.84251024  0.10021533
   0.84497025  0.68259846  0.10020980
   0.33337659  0.16668758  0.32534235
   0.50006346  0.00005000  0.32532409
   0.33339407  0.66669593  0.32503970
   0.50006313  0.50001460  0.32532410
   0.83340419  0.16668702  0.32533736
   0.00004936  0.00002569  0.32526142
   0.83340401  0.66671535  0.32533742
   0.00002796  0.50001440  0.32532589
Direct configuration=    33
   0.33833406  0.66912894  0.10046339
   0.67162568  0.33580996  0.10012143
   0.16490040  0.32239123  0.10019184
   0.32482872  0.16243437  0.10019060
   0.16489344  0.84252496  0.10019207
   0.84501767  0.16239166  0.10017474
   0.68502181  0.84251407  0.10017736
   0.84498861  0.68260681  0.10017538
   0.33337777  0.16668762  0.32537688
   0.50005623  0.00005473  0.32535708
   0.33338861  0.66669271  0.32507526
   0.50005597  0.50000373  0.32535710
   0.83339599  0.16668742  0.32537196
   0.00003820  0.00002060  0.32531095
   0.83339583  0.66670569  0.32537201
   0.00000635  0.50000418  0.32535861
Direct configuration=    34
   0.33831281  0.66913120  0.10047948
   0.67162353  0.33580674  0.10014333
   0.16489955  0.32238963  0.10021353
   0.32481188  0.16242127  0.10021142
   0.16489721  0.84251996  0.10021380
   0.84501163  0.16239092  0.10019398
   0.68502180  0.84251234  0.10019752
   0.84499336  0.68261063  0.10019465
   0.33338480  0.16669217  0.32535654
   0.50007445  0.00007375  0.32533827
   0.33338614  0.66669263  0.32505557
   0.50007429  0.50000079  0.32533829
   0.83338939  0.16669250  0.32535163
   0.00005100  0.00002578  0.32528711
   0.83338933  0.66669629  0.32535168
   0.00000418  0.50000207  0.32533986
Direct configuration=    35
   0.33829685  0.66913290  0.10049156
   0.67162190  0.33580432  0.10015978
   0.16489891  0.32238843  0.10022983
   0.32479922  0.16241142  0.10022706
   0.16490005  0.84251620  0.10023013
   0.84500709  0.16239037  0.10020843
   0.68502179  0.84251104  0.10021267
   0.84499693  0.68261350  0.10020912
   0.33339007  0.16669558  0.32534127
   0.50008814  0.00008804  0.32532414
   0.33338428  0.66669258  0.32504078
   0.50008806  0.49999858  0.32532416
   0.83338442  0.16669632  0.32533636
   0.00006061  0.00002967  0.32526920
   0.83338444  0.66668923  0.32533641
   0.00000255  0.50000049  0.32532578
Direct configuration=    36
   0.33826492  0.66913629  0.10051573
   0.67161866  0.33579948  0.10019269
   0.16489764  0.32238603  0.10026244
   0.32477392  0.16239173  0.10025835
   0.16490572  0.84250868  0.10026278
   0.84499802  0.16238927  0.10023733
   0.68502178  0.84250845  0.10024296
   0.84500407  0.68261924  0.10023808
   0.33340062  0.16670241  0.32531071
   0.50011552  0.00011662  0.32529587
   0.33338055  0.66669247  0.32501119
   0.50011561  0.49999416  0.32529590
   0.83337450  0.16670395  0.32530581
   0.00007984  0.00003745  0.32523337
   0.83337468  0.66667511  0.32530586
  -0.00000070  0.49999732  0.32529760
Direct configuration=    37
   0.33825355  0.66913706  0.10053262
   0.67160537  0.33579839  0.10021313
   0.16488976  0.32238599  0.10027802
   0.32477246  0.16238269  0.10027682
   0.16489874  0.84250370  0.10027840
   0.84500356  0.16238975  0.10025437
   0.68501165  0.84250460  0.10025710
   0.84501649  0.68262043  0.10025512
   0.33341763  0.16670975  0.32529217
   0.50011632  0.00012483  0.32527906
   0.33339162  0.66669688  0.32499505
   0.50011647  0.49998907  0.32527909
   0.83338321  0.16671154  0.32528731
   0.00007733  0.00003732  0.32522035
   0.83338338  0.66667388  0.32528736
  -0.00001221  0.49999276  0.32528070
Direct configuration=    38
   0.33824970  0.66913733  0.10053835
   0.67160086  0.33579803  0.10022006
   0.16488708  0.32238598  0.10028330
   0.32477197  0.16237963  0.10028308
   0.16489637  0.84250202  0.10028369
   0.84500544  0.16238991  0.10026015
   0.68500822  0.84250330  0.10026189
   0.84502070  0.68262083  0.10026090
   0.33342339  0.16671224  0.32528588
   0.50011659  0.00012762  0.32527336
   0.33339538  0.66669838  0.32498958
   0.50011676  0.49998734  0.32527339
   0.83338617  0.16671412  0.32528104
   0.00007648  0.00003728  0.32521594
   0.83338632  0.66667347  0.32528109
  -0.00001611  0.49999121  0.32527496
Direct configuration=    39
   0.33824199  0.66913785  0.10054980
   0.67159185  0.33579729  0.10023392
   0.16488174  0.32238595  0.10029386
   0.32477099  0.16237350  0.10029561
   0.16489163  0.84249864  0.10029427
   0.84500920  0.16239024  0.10027169
   0.68500136  0.84250069  0.10027148
   0.84502913  0.68262164  0.10027246
   0.33343492  0.16671721  0.32527331
   0.50011714  0.00013319  0.32526197
   0.33340288  0.66670137  0.32497864
   0.50011735  0.49998389  0.32526200
   0.83339207  0.16671926  0.32526850
   0.00007478  0.00003719  0.32520711
   0.83339222  0.66667264  0.32526855
  -0.00002390  0.49998812  0.32526350
Direct configuration=    40
   0.33824817  0.66913247  0.10056585
   0.67158640  0.33579743  0.10025057
   0.16488428  0.32238411  0.10030266
   0.32477369  0.16238160  0.10030967
   0.16488794  0.84250196  0.10030309
   0.84500178  0.16238555  0.10028455
   0.68499814  0.84249559  0.10027904
   0.84501230  0.68261459  0.10028532
   0.33343542  0.16671676  0.32525924
   0.50011000  0.00012110  0.32524828
   0.33341122  0.66670469  0.32496726
   0.50011008  0.49999033  0.32524831
   0.83340390  0.16671825  0.32525452
   0.00007212  0.00003675  0.32520415
   0.83340391  0.66668377  0.32525455
  -0.00001401  0.49999375  0.32524960
Direct configuration=    41
   0.33825387  0.66912751  0.10058065
   0.67158137  0.33579756  0.10026592
   0.16488662  0.32238242  0.10031079
   0.32477618  0.16238907  0.10032264
   0.16488454  0.84250501  0.10031123
   0.84499493  0.16238122  0.10029641
   0.68499517  0.84249088  0.10028601
   0.84499678  0.68260808  0.10029718
   0.33343589  0.16671633  0.32524627
   0.50010341  0.00010994  0.32523566
   0.33341891  0.66670775  0.32495676
   0.50010338  0.49999626  0.32523569
   0.83341480  0.16671731  0.32524162
   0.00006966  0.00003634  0.32520142
   0.83341469  0.66669404  0.32524164
  -0.00000488  0.49999894  0.32523678
Direct configuration=    42
   0.33825610  0.66912627  0.10058842
   0.67158901  0.33579494  0.10027292
   0.16488096  0.32237958  0.10031280
   0.32477173  0.16238882  0.10032662
   0.16488228  0.84250319  0.10031324
   0.84499094  0.16238104  0.10029978
   0.68499693  0.84249508  0.10028739
   0.84499203  0.68260806  0.10030055
   0.33342484  0.16671252  0.32524256
   0.50011472  0.00011247  0.32522962
   0.33340923  0.66670468  0.32495284
   0.50011469  0.50000158  0.32522965
   0.83340559  0.16671347  0.32523793
   0.00008175  0.00004058  0.32520385
   0.83340554  0.66669224  0.32523795
   0.00000898  0.50000414  0.32523057
Direct configuration=    43
   0.33825706  0.66912574  0.10059174
   0.67159227  0.33579381  0.10027592
   0.16487854  0.32237836  0.10031366
   0.32476982  0.16238871  0.10032832
   0.16488132  0.84250241  0.10031409
   0.84498923  0.16238096  0.10030123
   0.68499768  0.84249687  0.10028797
   0.84499000  0.68260806  0.10030199
   0.33342011  0.16671089  0.32524098
   0.50011957  0.00011355  0.32522704
   0.33340509  0.66670337  0.32495116
   0.50011953  0.50000386  0.32522706
   0.83340164  0.16671183  0.32523634
   0.00008692  0.00004240  0.32520488
   0.83340163  0.66669146  0.32523636
   0.00001491  0.50000636  0.32522791
Direct configuration=    44
   0.33825603  0.66912570  0.10059970
   0.67159434  0.33579196  0.10028293
   0.16487273  0.32237749  0.10031562
   0.32476740  0.16238539  0.10033102
   0.16487807  0.84249920  0.10031606
   0.84498996  0.16238162  0.10030321
   0.68499605  0.84249949  0.10028915
   0.84499224  0.68260935  0.10030394
   0.33342297  0.16671229  0.32523866
   0.50012196  0.00011712  0.32522088
   0.33340632  0.66670401  0.32494681
   0.50012195  0.50000279  0.32522090
   0.83340196  0.16671352  0.32523399
   0.00008834  0.00004307  0.32520821
   0.83340203  0.66669019  0.32523401
   0.00001300  0.50000548  0.32522158
Direct configuration=    45
   0.33825480  0.66912565  0.10060920
   0.67159680  0.33578975  0.10029130
   0.16486579  0.32237644  0.10031795
   0.32476450  0.16238141  0.10033425
   0.16487418  0.84249537  0.10031841
   0.84499082  0.16238241  0.10030557
   0.68499410  0.84250261  0.10029056
   0.84499492  0.68261090  0.10030628
   0.33342640  0.16671397  0.32523589
   0.50012482  0.00012139  0.32521352
   0.33340779  0.66670477  0.32494162
   0.50012484  0.50000152  0.32521353
   0.83340233  0.16671552  0.32523119
   0.00009002  0.00004387  0.32521218
   0.83340250  0.66668867  0.32523120
   0.00001072  0.50000442  0.32521401
Direct configuration=    46
   0.33824922  0.66912480  0.10061679
   0.67158708  0.33579207  0.10029819
   0.16487710  0.32237812  0.10032123
   0.32476470  0.16238265  0.10033658
   0.16487809  0.84249767  0.10032171
   0.84498806  0.16238032  0.10030686
   0.68499336  0.84249568  0.10029273
   0.84498855  0.68260807  0.10030753
   0.33343792  0.16671823  0.32523382
   0.50011579  0.00011820  0.32520797
   0.33341896  0.66670875  0.32493506
   0.50011580  0.49999891  0.32520798
   0.83341375  0.16671950  0.32522905
   0.00008082  0.00004104  0.32521378
   0.83341375  0.66669279  0.32522905
   0.00000239  0.50000186  0.32520833
Direct configuration=    47
   0.33825020  0.66912495  0.10061545
   0.67158878  0.33579166  0.10029698
   0.16487511  0.32237783  0.10032066
   0.32476466  0.16238244  0.10033617
   0.16487740  0.84249727  0.10032113
   0.84498854  0.16238069  0.10030664
   0.68499349  0.84249689  0.10029235
   0.84498967  0.68260857  0.10030731
   0.33343590  0.16671748  0.32523418
   0.50011737  0.00011876  0.32520894
   0.33341700  0.66670805  0.32493622
   0.50011738  0.49999937  0.32520895
   0.83341175  0.16671881  0.32522943