 vasp.6.3.2 27Jun22 (build Dec 22 2022 13:13:19) complex                        
  
 executed on             LinuxIFC date 2023.09.11  16:02:26
 running   48 mpi-ranks, with    1 threads/rank
 distrk:  each k-point on   48 cores,    1 groups
 distr:  one band on NCORE=   1 cores,   48 groups


--------------------------------------------------------------------------------------------------------


 INCAR:
   SYSTEM = SC
   ISTART = 0
   ICHARG = 2
   PREC = Accurate
   ENCUT = 450
   LCHARG = .TRUE.
   LWAVE = .TRUE.
   ALGO = Normal
   NELM = 64
   EDIFF = 1E-6
   EDIFFG = -1E-3
   SIGMA = 0.1
   ISMEAR = 0
   GGA = PE
   IVDW = 12

 POTCAR:    PAW_PBE B 06Sep2000                   
 POTCAR:    PAW_PBE C 08Apr2002                   
 POTCAR:    PAW_PBE B 06Sep2000                   
   SHA256 =  a32ced30f5ae56fd4d10b4325ff17eb3e4e38ee0f4288bc219fb012fddfa6e97 B/POTCAR              
   COPYR  = (c) Copyright 06Sep2000 Georg Kresse                                                    
   COPYR  = This file is part of the software VASP. Any use, copying, and all other rights are regul
   COPYR  = If you do not have a valid VASP license, you may not use, copy or distribute this file. 
   VRHFIN =B: s2p1                                                                                  
   LEXCH  = PE                                                                                      
   EATOM  =    71.1703 eV,    5.2309 Ry                                                             
                                                                                                    
   TITEL  = PAW_PBE B 06Sep2000                                                                     
   LULTRA =        F    use ultrasoft PP ?                                                          
   IUNSCR =        1    unscreen: 0-lin 1-nonlin 2-no                                               
   RPACOR =    1.200    partial core radius                                                         
   POMASS =   10.811; ZVAL   =    3.000    mass and valenz                                          
   RCORE  =    1.700    outmost cutoff radius                                                       
   RWIGS  =    1.710; RWIGS  =    0.905    wigner-seitz radius (au A)                               
   ENMAX  =  318.614; ENMIN  =  238.960 eV                                                          
   ICORE  =        2    local potential                                                             
   LCOR   =        T    correct aug charges                                                         
   LPAW   =        T    paw PP                                                                      
   EAUG   =  535.514                                                                                
   DEXC   =    0.000                                                                                
   RMAX   =    1.732    core radius for proj-oper                                                   
   RAUG   =    1.300    factor for augmentation sphere                                              
   RDEP   =    1.757    radius for radial grids                                                     
   RDEPT  =    1.436    core radius for aug-charge                                                  
                                                                                                    
   Atomic configuration                                                                             
    4 entries                                                                                       
     n  l   j            E        occ.                                                              
     1  0  0.50      -180.5896   2.0000                                                             
     2  0  0.50        -9.4431   2.0000                                                             
     2  1  0.50        -3.6068   1.0000                                                             
     3  2  1.50        -4.0817   0.0000                                                             
   Description                                                                                      
     l       E           TYP  RCUT    TYP  RCUT                                                     
     0     -9.4430752     23  1.500                                                                 
     0      0.8675899     23  1.500                                                                 
     1     -3.6067955     23  1.700                                                                 
     1      6.1086146     23  1.700                                                                 
     2     -4.0817478      7  1.700                                                                 
  local pseudopotential read in
  partial core-charges read in
  partial kinetic energy density read in
  atomic valenz-charges read in
  non local Contribution for L=           0  read in
    real space projection operators read in
  non local Contribution for L=           0  read in
    real space projection operators read in
  non local Contribution for L=           1  read in
    real space projection operators read in
  non local Contribution for L=           1  read in
    real space projection operators read in
    PAW grid and wavefunctions read in
 
   number of l-projection  operators is LMAX  =           4
   number of lm-projection operators is LMMAX =           8
 
 POTCAR:    PAW_PBE C 08Apr2002                   
   SHA256 =  253f7b50bb8d59471dbedb8285d89021f4a42ed1a2c5d38a03a736e69125dd95 C/POTCAR              
   COPYR  = (c) Copyright 08Apr2002 Georg Kresse                                                    
   COPYR  = This file is part of the software VASP. Any use, copying, and all other rights are regul
   COPYR  = If you do not have a valid VASP license, you may not use, copy or distribute this file. 
   VRHFIN =C: s2p2                                                                                  
   LEXCH  = PE                                                                                      
   EATOM  =   147.1560 eV,   10.8157 Ry                                                             
                                                                                                    
   TITEL  = PAW_PBE C 08Apr2002                                                                     
   LULTRA =        F    use ultrasoft PP ?                                                          
   IUNSCR =        1    unscreen: 0-lin 1-nonlin 2-no                                               
   RPACOR =    1.200    partial core radius                                                         
   POMASS =   12.011; ZVAL   =    4.000    mass and valenz                                          
   RCORE  =    1.500    outmost cutoff radius                                                       
   RWIGS  =    1.630; RWIGS  =    0.863    wigner-seitz radius (au A)                               
   ENMAX  =  400.000; ENMIN  =  300.000 eV                                                          
   ICORE  =        2    local potential                                                             
   LCOR   =        T    correct aug charges                                                         
   LPAW   =        T    paw PP                                                                      
   EAUG   =  644.873                                                                                
   DEXC   =    0.000                                                                                
   RMAX   =    1.529    core radius for proj-oper                                                   
   RAUG   =    1.300    factor for augmentation sphere                                              
   RDEP   =    1.501    radius for radial grids                                                     
   RDEPT  =    1.300    core radius for aug-charge                                                  
                                                                                                    
   Atomic configuration                                                                             
    4 entries                                                                                       
     n  l   j            E        occ.                                                              
     1  0  0.50      -273.3789   2.0000                                                             
     2  0  0.50       -13.7508   2.0000                                                             
     2  1  0.50        -5.2854   2.0000                                                             
     3  2  1.50        -5.4423   0.0000                                                             
   Description                                                                                      
     l       E           TYP  RCUT    TYP  RCUT                                                     
     0    -13.7508458     23  1.200                                                                 
     0     -8.2022199     23  1.200                                                                 
     1     -5.2854383     23  1.500                                                                 
     1     34.0145650     23  1.500                                                                 
     2     -5.4423304      7  1.500                                                                 
  local pseudopotential read in
  partial core-charges read in
  partial kinetic energy density read in
  atomic valenz-charges read in
  non local Contribution for L=           0  read in
    real space projection operators read in
  non local Contribution for L=           0  read in
    real space projection operators read in
  non local Contribution for L=           1  read in
    real space projection operators read in
  non local Contribution for L=           1  read in
    real space projection operators read in
    PAW grid and wavefunctions read in
 
   number of l-projection  operators is LMAX  =           4
   number of lm-projection operators is LMMAX =           8
 
  PAW_PBE B 06Sep2000                   :
 energy of atom  1       EATOM=  -71.1703
 kinetic energy error for atom=    0.0015 (will be added to EATOM!!)
  PAW_PBE C 08Apr2002                   :
 energy of atom  2       EATOM= -147.1560
 kinetic energy error for atom=    0.0116 (will be added to EATOM!!)
 
 
 POSCAR: Graphene-Borophene Top with lattice para
  positions in direct lattice
  velocities in cartesian coordinates
 exchange correlation table for  LEXCH =        8
   RHO(1)=    0.500       N(1)  =     2000
   RHO(2)=  100.500       N(2)  =     4000

 VTST: version 4.2, (08/11/21)

 CHAIN: initializing optimizer
 
 OPT: Using VASP Dynamics algorithm
 CHAIN: Read ICHAIN            0
 
 POSCAR: Graphene-Borophene Top with lattice para
  positions in direct lattice
  velocities in cartesian coordinates
 


--------------------------------------------------------------------------------------------------------


 ion  position               nearest neighbor table
   1  0.669  0.000  0.101-   3 1.65   6 1.65   7 1.68   8 1.68   2 1.68
   2  0.332  0.000  0.101-   5 1.65   4 1.65   7 1.68   8 1.68   1 1.68
   3  1.000  0.331  0.101-   1 1.65   5 1.65   7 1.68   8 1.68   4 1.68
   4  1.000  0.668  0.101-   6 1.65   2 1.65   7 1.68   8 1.68   3 1.68
   5  0.332  0.331  0.101-   2 1.65   3 1.65   7 1.68   8 1.68   6 1.68
   6  0.669  0.668  0.101-   4 1.65   1 1.65   7 1.68   8 1.68   5 1.68
   7  0.667  0.333  0.088-   5 1.68   6 1.68   2 1.68   1 1.68   4 1.68   3 1.68
   8  0.333  0.667  0.114-   5 1.68   6 1.68   3 1.68   4 1.68   1 1.68   2 1.68
   9  0.167  0.333  0.335-  14 1.44  10 1.44  12 1.44
  10  0.333  0.167  0.334-  11 1.44   9 1.44  13 1.44
  11  0.167  0.833  0.335-  16 1.44  10 1.44  12 1.44
  12  0.333  0.667  0.335-   9 1.44  15 1.44  11 1.44
  13  0.667  0.333  0.334-  10 1.44  16 1.44  14 1.44
  14  0.833  0.167  0.334-   9 1.44  15 1.44  13 1.44
  15  0.667  0.833  0.335-  14 1.44  16 1.44  12 1.44
  16  0.833  0.667  0.334-  11 1.44  15 1.44  13 1.44
 
  LATTYP: Found a hexagonal cell.
 ALAT       =     4.9790000000
 C/A-ratio  =     3.0126531432
  
  Lattice vectors:
  
 A1 = (   4.3119404854,   2.4895000000,   0.0000000000)
 A2 = (  -4.3119404854,   2.4895000000,   0.0000000000)
 A3 = (   0.0000000000,   0.0000000000,  15.0000000000)


Analysis of symmetry for initial positions (statically):
=====================================================================
 Subroutine PRICEL returns:
 Original cell was already a primitive cell.
 

 Routine SETGRP: Setting up the symmetry group for a 
 hexagonal supercell.


 Subroutine GETGRP returns: Found  6 space group operations
 (whereof  6 operations were pure point group operations)
 out of a pool of 24 trial point group operations.


The static configuration has the point symmetry C_3v.


Analysis of symmetry for dynamics (positions and initial velocities):
=====================================================================
 Subroutine PRICEL returns:
 Original cell was already a primitive cell.
 

 Routine SETGRP: Setting up the symmetry group for a 
 hexagonal supercell.


 Subroutine GETGRP returns: Found  6 space group operations
 (whereof  6 operations were pure point group operations)
 out of a pool of 24 trial point group operations.


The dynamic configuration has the point symmetry C_3v.


 Subroutine INISYM returns: Found  6 space group operations
 (whereof  6 operations are pure point group operations),
 and found     1 'primitive' translations


----------------------------------------------------------------------------------------

                                     Primitive cell                                     

  volume of cell :     322.0373

  direct lattice vectors                    reciprocal lattice vectors
     4.311940485  2.489500000  0.000000000     0.115957074  0.200843543  0.000000000
    -4.311940485  2.489500000  0.000000000    -0.115957074  0.200843543  0.000000000
     0.000000000  0.000000000 15.000000000     0.000000000  0.000000000  0.066666667

  length of vectors
     4.979000000  4.979000000 15.000000000     0.231914147  0.231914147  0.066666667

  position of ions in fractional coordinates (direct lattice)
     0.668529486  0.000031744  0.101490874
     0.331501257  0.000031744  0.101490874
     0.999968256  0.331469514  0.101490874
     0.999968256  0.668497743  0.101490874
     0.331501257  0.331469514  0.101490874
     0.668529486  0.668497743  0.101490874
     0.666666000  0.333333000  0.088455217
     0.333333000  0.666666000  0.114424057
     0.166653576  0.333308152  0.334568638
     0.333330518  0.166664759  0.334466239
     0.166653576  0.833345424  0.334568638
     0.333333000  0.666666000  0.334626021
     0.666666000  0.333333000  0.334444829
     0.833334241  0.166664759  0.334466239
     0.666690848  0.833345424  0.334568638
     0.833334241  0.666668482  0.334466239

  ion indices of the primitive-cell ions
   primitive index   ion index
                 1           1
                 2           2
                 3           3
                 4           4
                 5           5
                 6           6
                 7           7
                 8           8
                 9           9
                10          10
                11          11
                12          12
                13          13
                14          14
                15          15
                16          16

----------------------------------------------------------------------------------------

 
 
 KPOINTS: k-points                                

Automatic generation of k-mesh.
 Grid dimensions read from file:
 generate k-points for:   11   11    1

 Generating k-lattice:

  Cartesian coordinates                     Fractional coordinates (reciprocal lattice)
     0.010541552  0.018258504  0.000000000     0.090909091 -0.000000000  0.000000000
    -0.010541552  0.018258504  0.000000000    -0.000000000  0.090909091  0.000000000
     0.000000000  0.000000000  0.066666667     0.000000000  0.000000000  1.000000000

  Length of vectors
     0.021083104  0.021083104  0.066666667

  Shift w.r.t. Gamma in fractional coordinates (k-lattice)
     0.000000000  0.000000000  0.000000000

 
 Subroutine IBZKPT returns following result:
 ===========================================
 
 Found     16 irreducible k-points:
 
 Following reciprocal coordinates:
            Coordinates               Weight
  0.000000  0.000000  0.000000      1.000000
  0.090909  0.000000  0.000000      6.000000
  0.181818 -0.000000  0.000000      6.000000
  0.272727  0.000000  0.000000      6.000000
  0.363636  0.000000  0.000000      6.000000
  0.454545 -0.000000  0.000000      6.000000
  0.090909  0.090909  0.000000      6.000000
  0.181818  0.090909  0.000000     12.000000
  0.272727  0.090909  0.000000     12.000000
  0.363636  0.090909  0.000000     12.000000
  0.454545  0.090909  0.000000      6.000000
  0.181818  0.181818  0.000000      6.000000
  0.272727  0.181818  0.000000     12.000000
  0.363636  0.181818  0.000000     12.000000
  0.272727  0.272727  0.000000      6.000000
  0.363636  0.272727  0.000000      6.000000
 
 Following cartesian coordinates:
            Coordinates               Weight
  0.000000  0.000000  0.000000      1.000000
  0.010542  0.018259  0.000000      6.000000
  0.021083  0.036517  0.000000      6.000000
  0.031625  0.054776  0.000000      6.000000
  0.042166  0.073034  0.000000      6.000000
  0.052708  0.091293  0.000000      6.000000
 -0.000000  0.036517  0.000000      6.000000
  0.010542  0.054776  0.000000     12.000000
  0.021083  0.073034  0.000000     12.000000
  0.031625  0.091293  0.000000     12.000000
  0.042166  0.109551  0.000000      6.000000
  0.000000  0.073034  0.000000      6.000000
  0.010542  0.091293  0.000000     12.000000
  0.021083  0.109551  0.000000     12.000000
  0.000000  0.109551  0.000000      6.000000
  0.010542  0.127810  0.000000      6.000000
 


--------------------------------------------------------------------------------------------------------




 Dimension of arrays:
   k-points           NKPTS =     16   k-points in BZ     NKDIM =     16   number of bands    NBANDS=     48
   number of dos      NEDOS =    301   number of ions     NIONS =     16
   non local maximal  LDIM  =      4   non local SUM 2l+1 LMDIM =      8
   total plane-waves  NPLWV = 139968
   max r-space proj   IRMAX =      1   max aug-charges    IRDMAX=   6977
   dimension x,y,z NGX =    36 NGY =   36 NGZ =  108
   dimension x,y,z NGXF=    72 NGYF=   72 NGZF=  216
   support grid    NGXF=    72 NGYF=   72 NGZF=  216
   ions per type =               8   8
   NGX,Y,Z   is equivalent  to a cutoff of  12.02, 12.02, 11.97 a.u.
   NGXF,Y,Z  is equivalent  to a cutoff of  24.04, 24.04, 23.94 a.u.

 SYSTEM =  SC                                      
 POSCAR =  Graphene-Borophene Top with lattice para

 Startparameter for this run:
   NWRITE =      2    write-flag & timer
   PREC   = accura    normal or accurate (medium, high low for compatibility)
   ISTART =      0    job   : 0-new  1-cont  2-samecut
   ICHARG =      2    charge: 1-file 2-atom 10-const
   ISPIN  =      1    spin polarized calculation?
   LNONCOLLINEAR =      F non collinear calculations
   LSORBIT =      F    spin-orbit coupling
   INIWAV =      1    electr: 0-lowe 1-rand  2-diag
   LASPH  =      F    aspherical Exc in radial PAW
 Electronic Relaxation 1
   ENCUT  =  450.0 eV  33.07 Ry    5.75 a.u.   8.61  8.61 25.95*2*pi/ulx,y,z
   ENINI  =  450.0     initial cutoff
   ENAUG  =  644.9 eV  augmentation charge cutoff
   NELM   =     64;   NELMIN=  2; NELMDL= -5     # of ELM steps 
   EDIFF  = 0.1E-05   stopping-criterion for ELM
   LREAL  =      F    real-space projection
   NLSPLINE    = F    spline interpolate recip. space projectors
   LCOMPAT=      F    compatible to vasp.4.4
   GGA_COMPAT  = T    GGA compatible to vasp.4.4-vasp.4.6
   LMAXPAW     = -100 max onsite density
   LMAXMIX     =    2 max onsite mixed and CHGCAR
   VOSKOWN=      0    Vosko Wilk Nusair interpolation
   ROPT   =    0.00000   0.00000
 Ionic relaxation
   EDIFFG = -.1E-02   stopping-criterion for IOM
   NSW    =      0    number of steps for IOM
   NBLOCK =      1;   KBLOCK =      1    inner block; outer block 
   IBRION =     -1    ionic relax: 0-MD 1-quasi-New 2-CG
   NFREE  =      0    steps in history (QN), initial steepest desc. (CG)
   ISIF   =      2    stress and relaxation
   IWAVPR =     10    prediction:  0-non 1-charg 2-wave 3-comb
   ISYM   =      2    0-nonsym 1-usesym 2-fastsym
   LCORR  =      T    Harris-Foulkes like correction to forces

   POTIM  = 0.5000    time-step for ionic-motion
   TEIN   =    0.0    initial temperature
   TEBEG  =    0.0;   TEEND  =   0.0 temperature during run
   SMASS  =  -3.00    Nose mass-parameter (am)
   estimated Nose-frequenzy (Omega)   =  0.10E-29 period in steps = 0.13E+47 mass=  -0.567E-27a.u.
   SCALEE = 1.0000    scale energy and forces
   NPACO  =    256;   APACO  = 10.0  distance and # of slots for P.C.
   PSTRESS=    0.0 pullay stress

  Mass of Ions in am
   POMASS =  10.81 12.01
  Ionic Valenz
   ZVAL   =   3.00  4.00
  Atomic Wigner-Seitz radii
   RWIGS  =  -1.00 -1.00
  virtual crystal weights 
   VCA    =   1.00  1.00
   NELECT =      56.0000    total number of electrons
   NUPDOWN=      -1.0000    fix difference up-down

 DOS related values:
   EMIN   =  10.00;   EMAX   =-10.00  energy-range for DOS
   EFERMI =   0.00
   ISMEAR =     0;   SIGMA  =   0.10  broadening in eV -4-tet -1-fermi 0-gaus

 Electronic relaxation 2 (details)
   IALGO  =     38    algorithm
   LDIAG  =      T    sub-space diagonalisation (order eigenvalues)
   LSUBROT=      F    optimize rotation matrix (better conditioning)
   TURBO    =      0    0=normal 1=particle mesh
   IRESTART =      0    0=no restart 2=restart with 2 vectors
   NREBOOT  =      0    no. of reboots
   NMIN     =      0    reboot dimension
   EREF     =   0.00    reference energy to select bands
   IMIX   =      4    mixing-type and parameters
     AMIX     =   0.40;   BMIX     =  1.00
     AMIX_MAG =   1.60;   BMIX_MAG =  1.00
     AMIN     =   0.10
     WC   =   100.;   INIMIX=   1;  MIXPRE=   1;  MAXMIX= -45

 Intra band minimization:
   WEIMIN = 0.0000     energy-eigenvalue tresh-hold
   EBREAK =  0.52E-08  absolut break condition
   DEPER  =   0.30     relativ break condition  

   TIME   =   0.40     timestep for ELM

  volume/ion in A,a.u.               =      20.13       135.83
  Fermi-wavevector in a.u.,A,eV,Ry     =   0.913767  1.726769 11.360458  0.834970
  Thomas-Fermi vector in A             =   2.038317
 
 Write flags
   LWAVE        =      T    write WAVECAR
   LDOWNSAMPLE  =      F    k-point downsampling of WAVECAR
   LCHARG       =      T    write CHGCAR
   LVTOT        =      F    write LOCPOT, total local potential
   LVHAR        =      F    write LOCPOT, Hartree potential only
   LELF         =      F    write electronic localiz. function (ELF)
   LORBIT       =      0    0 simple, 1 ext, 2 COOP (PROOUT), +10 PAW based schemes


 Dipole corrections
   LMONO  =      F    monopole corrections only (constant potential shift)
   LDIPOL =      F    correct potential (dipole corrections)
   IDIPOL =      0    1-x, 2-y, 3-z, 4-all directions 
   EPSILON=  1.0000000 bulk dielectric constant

 Exchange correlation treatment:
   GGA     =    PE    GGA type
   LEXCH   =     8    internal setting for exchange type
   LIBXC   =     F    Libxc                    
   VOSKOWN =     0    Vosko Wilk Nusair interpolation
   LHFCALC =     F    Hartree Fock is set to
   LHFONE  =     F    Hartree Fock one center treatment
   AEXX    =    0.0000 exact exchange contribution

 Linear response parameters
   LEPSILON=     F    determine dielectric tensor
   LRPA    =     F    only Hartree local field effects (RPA)
   LNABLA  =     F    use nabla operator in PAW spheres
   LVEL    =     F    velocity operator in full k-point grid
   CSHIFT  =0.1000    complex shift for real part using Kramers Kronig
   OMEGAMAX=  -1.0    maximum frequency
   DEG_THRESHOLD= 0.2000000E-02 threshold for treating states as degnerate
   RTIME   =   -0.100 relaxation time in fs
  (WPLASMAI=    0.000 imaginary part of plasma frequency in eV, 0.658/RTIME)
   DFIELD  = 0.0000000 0.0000000 0.0000000 field for delta impulse in time
 
  Optional k-point grid parameters
   LKPOINTS_OPT  =     F    use optional k-point grid
   KPOINTS_OPT_MODE=     1    mode for optional k-point grid
 
 Orbital magnetization related:
   ORBITALMAG=     F  switch on orbital magnetization
   LCHIMAG   =     F  perturbation theory with respect to B field
   DQ        =  0.001000  dq finite difference perturbation B field
   LLRAUG    =     F  two centre corrections for induced B field



--------------------------------------------------------------------------------------------------------


 Static calculation
 charge density and potential will be updated during run
 non-spin polarized calculation
 Variant of blocked Davidson
 Davidson routine will perform the subspace rotation
 perform sub-space diagonalisation
    after iterative eigenvector-optimisation
 modified Broyden-mixing scheme, WC =      100.0
 initial mixing is a Kerker type mixing with AMIX =  0.4000 and BMIX =      1.0000
 Hartree-type preconditioning will be used
 using additional bands           20
 reciprocal scheme for non local part
 use partial core corrections
 calculate Harris-corrections to forces 
   (improved forces if not selfconsistent)
 use gradient corrections 
 use of overlap-Matrix (Vanderbilt PP)
 Gauss-broadening in eV      SIGMA  =   0.10


--------------------------------------------------------------------------------------------------------


  energy-cutoff  :      450.00
  volume of cell :      322.04
      direct lattice vectors                 reciprocal lattice vectors
     4.311940485  2.489500000  0.000000000     0.115957074  0.200843543  0.000000000
    -4.311940485  2.489500000  0.000000000    -0.115957074  0.200843543  0.000000000
     0.000000000  0.000000000 15.000000000     0.000000000  0.000000000  0.066666667

  length of vectors
     4.979000000  4.979000000 15.000000000     0.231914147  0.231914147  0.066666667


 
 k-points in units of 2pi/SCALE and weight: k-points                                
   0.00000000  0.00000000  0.00000000       0.008
   0.01054155  0.01825850  0.00000000       0.050
   0.02108310  0.03651701  0.00000000       0.050
   0.03162466  0.05477551  0.00000000       0.050
   0.04216621  0.07303402  0.00000000       0.050
   0.05270776  0.09129252  0.00000000       0.050
  -0.00000000  0.03651701  0.00000000       0.050
   0.01054155  0.05477551  0.00000000       0.099
   0.02108310  0.07303402  0.00000000       0.099
   0.03162466  0.09129252  0.00000000       0.099
   0.04216621  0.10955102  0.00000000       0.050
   0.00000000  0.07303402  0.00000000       0.050
   0.01054155  0.09129252  0.00000000       0.099
   0.02108310  0.10955102  0.00000000       0.099
   0.00000000  0.10955102  0.00000000       0.050
   0.01054155  0.12780953  0.00000000       0.050
 
 k-points in reciprocal lattice and weights: k-points                                
   0.00000000  0.00000000  0.00000000       0.008
   0.09090909  0.00000000  0.00000000       0.050
   0.18181818 -0.00000000  0.00000000       0.050
   0.27272727  0.00000000  0.00000000       0.050
   0.36363636  0.00000000  0.00000000       0.050
   0.45454545 -0.00000000  0.00000000       0.050
   0.09090909  0.09090909  0.00000000       0.050
   0.18181818  0.09090909  0.00000000       0.099
   0.27272727  0.09090909  0.00000000       0.099
   0.36363636  0.09090909  0.00000000       0.099
   0.45454545  0.09090909  0.00000000       0.050
   0.18181818  0.18181818  0.00000000       0.050
   0.27272727  0.18181818  0.00000000       0.099
   0.36363636  0.18181818  0.00000000       0.099
   0.27272727  0.27272727  0.00000000       0.050
   0.36363636  0.27272727  0.00000000       0.050
 
 position of ions in fractional coordinates (direct lattice) 
   0.66852949  0.00003174  0.10149087
   0.33150126  0.00003174  0.10149087
   0.99996826  0.33146951  0.10149087
   0.99996826  0.66849774  0.10149087
   0.33150126  0.33146951  0.10149087
   0.66852949  0.66849774  0.10149087
   0.66666600  0.33333300  0.08845522
   0.33333300  0.66666600  0.11442406
   0.16665358  0.33330815  0.33456864
   0.33333052  0.16666476  0.33446624
   0.16665358  0.83334542  0.33456864
   0.33333300  0.66666600  0.33462602
   0.66666600  0.33333300  0.33444483
   0.83333424  0.16666476  0.33446624
   0.66669085  0.83334542  0.33456864
   0.83333424  0.66666848  0.33446624
 
 position of ions in cartesian coordinates  (Angst):
   2.88252248  1.66438318  1.52236312
   1.42927682  0.82535141  1.52236312
   2.88252679  3.31461433  1.52236312
   1.42928113  4.15364610  1.52236312
   0.00013688  1.65046573  1.52236312
   0.00013688  3.32852929  1.52236312
   1.43731206  2.48949751  1.32682825
  -1.43731206  2.48949751  1.71636086
  -0.71860461  1.24465472  5.01852957
   0.71865283  1.24473824  5.01699358
  -2.87473557  2.48949751  5.01852957
  -1.43731206  2.48949751  5.01939032
   1.43731206  2.48949751  5.01667243
   2.87463913  2.48949751  5.01699358
  -0.71860461  3.73434030  5.01852957
   0.71865283  3.73425678  5.01699358
 


--------------------------------------------------------------------------------------------------------


 k-point   1 :   0.0000 0.0000 0.0000  plane waves:    7005
 k-point   2 :   0.0909 0.0000 0.0000  plane waves:    6987
 k-point   3 :   0.1818-0.0000 0.0000  plane waves:    6993
 k-point   4 :   0.2727 0.0000 0.0000  plane waves:    6999
 k-point   5 :   0.3636 0.0000 0.0000  plane waves:    6969
 k-point   6 :   0.4545-0.0000 0.0000  plane waves:    6965
 k-point   7 :   0.0909 0.0909 0.0000  plane waves:    7001
 k-point   8 :   0.1818 0.0909 0.0000  plane waves:    7003
 k-point   9 :   0.2727 0.0909 0.0000  plane waves:    6981
 k-point  10 :   0.3636 0.0909 0.0000  plane waves:    6969
 k-point  11 :   0.4545 0.0909 0.0000  plane waves:    6972
 k-point  12 :   0.1818 0.1818 0.0000  plane waves:    6997
 k-point  13 :   0.2727 0.1818 0.0000  plane waves:    6965
 k-point  14 :   0.3636 0.1818 0.0000  plane waves:    6950
 k-point  15 :   0.2727 0.2727 0.0000  plane waves:    6943
 k-point  16 :   0.3636 0.2727 0.0000  plane waves:    6928

 maximum and minimum number of plane-waves per node :      7005     6928

 maximum number of plane-waves:      7005
 maximum index in each direction: 
   IXMAX=    8   IYMAX=    8   IZMAX=   25
   IXMIN=   -9   IYMIN=   -8   IZMIN=  -25


 serial   3D FFT for wavefunctions
 parallel 3D FFT for charge:
    minimum data exchange during FFTs selected (reduces bandwidth)


 total amount of memory used by VASP MPI-rank0    56957. kBytes
=======================================================================

   base      :      30000. kBytes
   nonl-proj :      16146. kBytes
   fftplans  :       1560. kBytes
   grid      :       7372. kBytes
   one-center:         49. kBytes
   wavefun   :       1830. kBytes
 
     INWAV:  cpu time      0.0000: real time      0.0001
 Broyden mixing: mesh for mixing (old mesh)
   NGX = 17   NGY = 17   NGZ = 51
  (NGX  = 72   NGY  = 72   NGZ  =216)
  gives a total of  14739 points

 initial charge density was supplied:
 charge density of overlapping atoms calculated
 number of electron      56.0000000 magnetization 
 keeping initial charge density in first step


--------------------------------------------------------------------------------------------------------


 Maximum index for augmentation-charges          383 (set IRDMAX)


--------------------------------------------------------------------------------------------------------


 First call to EWALD:  gamma=   0.259
 Maximum number of real-space cells 4x 4x 2
 Maximum number of reciprocal cells 2x 2x 5

    FEWALD:  cpu time      0.0017: real time      0.0020


--------------------------------------- Iteration      1(   1)  ---------------------------------------


    POTLOK:  cpu time      0.0205: real time      0.0236
    SETDIJ:  cpu time      0.0020: real time      0.0020
     EDDAV:  cpu time      0.6272: real time      0.6518
       DOS:  cpu time      0.0015: real time      0.0017
    --------------------------------------------
      LOOP:  cpu time      0.6511: real time      0.6791

 eigenvalue-minimisations  :  1536
 total energy-change (2. order) : 0.1823370E+03  (-0.2538812E+04)
 number of electron      56.0000000 magnetization 
 augmentation part       56.0000000 magnetization 

 Free energy of the ion-electron system (eV)
  ---------------------------------------------------
  alpha Z        PSCENC =        60.47074313
  Ewald energy   TEWEN  =      4495.95153103
  -Hartree energ DENC   =     -5910.63168057
  -exchange      EXHF   =         0.00000000
  -V(xc)+E(xc)   XCENC  =       161.30414655
  PAW double counting   =      1216.17529508    -1213.88798198
  entropy T*S    EENTRO =        -0.02500846
  eigenvalues    EBANDS =      -373.52560308
  atomic energy  EATOM  =      1746.50554237
  Solvation  Ediel_sol  =         0.00000000
  ---------------------------------------------------
  free energy    TOTEN  =       182.33698407 eV

  energy without entropy =      182.36199253  energy(sigma->0) =      182.34948830


--------------------------------------------------------------------------------------------------------




--------------------------------------- Iteration      1(   2)  ---------------------------------------


     EDDAV:  cpu time      0.9229: real time      0.9519
       DOS:  cpu time      0.0005: real time      0.0005
    --------------------------------------------
      LOOP:  cpu time      0.9233: real time      0.9523

 eigenvalue-minimisations  :  2304
 total energy-change (2. order) :-0.3055563E+03  (-0.3050510E+03)
 number of electron      56.0000000 magnetization 
 augmentation part       56.0000000 magnetization 

 Free energy of the ion-electron system (eV)
  ---------------------------------------------------
  alpha Z        PSCENC =        60.47074313
  Ewald energy   TEWEN  =      4495.95153103
  -Hartree energ DENC   =     -5910.63168057
  -exchange      EXHF   =         0.00000000
  -V(xc)+E(xc)   XCENC  =       161.30414655
  PAW double counting   =      1216.17529508    -1213.88798198
  entropy T*S    EENTRO =        -0.00290668
  eigenvalues    EBANDS =      -679.10404169
  atomic energy  EATOM  =      1746.50554237
  Solvation  Ediel_sol  =         0.00000000
  ---------------------------------------------------
  free energy    TOTEN  =      -123.21935276 eV

  energy without entropy =     -123.21644608  energy(sigma->0) =     -123.21789942


--------------------------------------------------------------------------------------------------------




--------------------------------------- Iteration      1(   3)  ---------------------------------------


     EDDAV:  cpu time      1.1527: real time      1.1722
       DOS:  cpu time      0.0004: real time      0.0004
    --------------------------------------------
      LOOP:  cpu time      1.1531: real time      1.1726

 eigenvalue-minimisations  :  2688
 total energy-change (2. order) :-0.1053350E+02  (-0.1052286E+02)
 number of electron      56.0000000 magnetization 
 augmentation part       56.0000000 magnetization 

 Free energy of the ion-electron system (eV)
  ---------------------------------------------------
  alpha Z        PSCENC =        60.47074313
  Ewald energy   TEWEN  =      4495.95153103
  -Hartree energ DENC   =     -5910.63168057
  -exchange      EXHF   =         0.00000000
  -V(xc)+E(xc)   XCENC  =       161.30414655
  PAW double counting   =      1216.17529508    -1213.88798198
  entropy T*S    EENTRO =        -0.00436755
  eigenvalues    EBANDS =      -689.63608172
  atomic energy  EATOM  =      1746.50554237
  Solvation  Ediel_sol  =         0.00000000
  ---------------------------------------------------
  free energy    TOTEN  =      -133.75285366 eV

  energy without entropy =     -133.74848611  energy(sigma->0) =     -133.75066988


--------------------------------------------------------------------------------------------------------




--------------------------------------- Iteration      1(   4)  ---------------------------------------


     EDDAV:  cpu time      0.8931: real time      0.9112
       DOS:  cpu time      0.0005: real time      0.0005
    --------------------------------------------
      LOOP:  cpu time      0.8937: real time      0.9118

 eigenvalue-minimisations  :  2160
 total energy-change (2. order) :-0.3173449E-01  (-0.3173445E-01)
 number of electron      56.0000000 magnetization 
 augmentation part       56.0000000 magnetization 

 Free energy of the ion-electron system (eV)
  ---------------------------------------------------
  alpha Z        PSCENC =        60.47074313
  Ewald energy   TEWEN  =      4495.95153103
  -Hartree energ DENC   =     -5910.63168057
  -exchange      EXHF   =         0.00000000
  -V(xc)+E(xc)   XCENC  =       161.30414655
  PAW double counting   =      1216.17529508    -1213.88798198
  entropy T*S    EENTRO =        -0.00437711
  eigenvalues    EBANDS =      -689.66780664
  atomic energy  EATOM  =      1746.50554237
  Solvation  Ediel_sol  =         0.00000000
  ---------------------------------------------------
  free energy    TOTEN  =      -133.78458815 eV

  energy without entropy =     -133.78021104  energy(sigma->0) =     -133.78239959


--------------------------------------------------------------------------------------------------------




--------------------------------------- Iteration      1(   5)  ---------------------------------------


     EDDAV:  cpu time      1.0864: real time      1.1046
       DOS:  cpu time      0.0004: real time      0.0004
    CHARGE:  cpu time      0.0469: real time      0.0527
    MIXING:  cpu time      0.0018: real time      0.0026
    --------------------------------------------
      LOOP:  cpu time      1.1355: real time      1.1602

 eigenvalue-minimisations  :  2544
 total energy-change (2. order) :-0.5963968E-04  (-0.5963963E-04)
 number of electron      55.9999990 magnetization 
 augmentation part        0.8478582 magnetization 

 Broyden mixing:
  rms(total) = 0.15774E+01    rms(broyden)= 0.15772E+01
  rms(prec ) = 0.18013E+01
  weight for this iteration     100.00

 Free energy of the ion-electron system (eV)
  ---------------------------------------------------
  alpha Z        PSCENC =        60.47074313
  Ewald energy   TEWEN  =      4495.95153103
  -Hartree energ DENC   =     -5910.63168057
  -exchange      EXHF   =         0.00000000
  -V(xc)+E(xc)   XCENC  =       161.30414655
  PAW double counting   =      1216.17529508    -1213.88798198
  entropy T*S    EENTRO =        -0.00437712
  eigenvalues    EBANDS =      -689.66786628
  atomic energy  EATOM  =      1746.50554237
  Solvation  Ediel_sol  =         0.00000000
  ---------------------------------------------------
  free energy    TOTEN  =      -133.78464779 eV

  energy without entropy =     -133.78027067  energy(sigma->0) =     -133.78245923


--------------------------------------------------------------------------------------------------------




--------------------------------------- Iteration      1(   6)  ---------------------------------------


    POTLOK:  cpu time      0.0180: real time      0.0202
    SETDIJ:  cpu time      0.0027: real time      0.0029
     EDDAV:  cpu time      1.0962: real time      1.1153
       DOS:  cpu time      0.0005: real time      0.0005
    CHARGE:  cpu time      0.0448: real time      0.0493
    MIXING:  cpu time      0.0008: real time      0.0011
    --------------------------------------------
      LOOP:  cpu time      1.1630: real time      1.1892

 eigenvalue-minimisations  :  2592
 total energy-change (2. order) : 0.6918661E+01  (-0.6881662E+00)
 number of electron      55.9999991 magnetization 
 augmentation part        0.7845021 magnetization 

 Broyden mixing:
  rms(total) = 0.91970E+00    rms(broyden)= 0.91968E+00
  rms(prec ) = 0.10350E+01
  weight for this iteration     100.00

 eigenvalues of (default mixing * dielectric matrix)
  average eigenvalue GAMMA=   2.2235
  2.2235

 Free energy of the ion-electron system (eV)
  ---------------------------------------------------
  alpha Z        PSCENC =        60.47074313
  Ewald energy   TEWEN  =      4495.95153103
  -Hartree energ DENC   =     -5975.22779677
  -exchange      EXHF   =         0.00000000
  -V(xc)+E(xc)   XCENC  =       164.17423427
  PAW double counting   =      2526.59509007    -2525.28863380
  entropy T*S    EENTRO =        -0.00125510
  eigenvalues    EBANDS =      -620.04544205
  atomic energy  EATOM  =      1746.50554237
  Solvation  Ediel_sol  =         0.00000000
  ---------------------------------------------------
  free energy    TOTEN  =      -126.86598686 eV

  energy without entropy =     -126.86473176  energy(sigma->0) =     -126.86535931


--------------------------------------------------------------------------------------------------------




--------------------------------------- Iteration      1(   7)  ---------------------------------------


    POTLOK:  cpu time      0.0153: real time      0.0175
    SETDIJ:  cpu time      0.0012: real time      0.0013
     EDDAV:  cpu time      1.3041: real time      1.3340
       DOS:  cpu time      0.0004: real time      0.0004
    CHARGE:  cpu time      0.0685: real time      0.0996
    MIXING:  cpu time      0.0011: real time      0.0015
    --------------------------------------------
      LOOP:  cpu time      1.3907: real time      1.4544

 eigenvalue-minimisations  :  3024
 total energy-change (2. order) : 0.2713769E+01  (-0.8804856E+00)
 number of electron      55.9999991 magnetization 
 augmentation part        0.7137478 magnetization 

 Broyden mixing:
  rms(total) = 0.20235E+00    rms(broyden)= 0.20223E+00
  rms(prec ) = 0.23004E+00
  weight for this iteration     100.00

 eigenvalues of (default mixing * dielectric matrix)
  average eigenvalue GAMMA=   2.1385
  2.0386  2.2385

 Free energy of the ion-electron system (eV)
  ---------------------------------------------------
  alpha Z        PSCENC =        60.47074313
  Ewald energy   TEWEN  =      4495.95153103
  -Hartree energ DENC   =     -6062.68013936
  -exchange      EXHF   =         0.00000000
  -V(xc)+E(xc)   XCENC  =       168.03432336
  PAW double counting   =      5214.98106303    -5214.60297076
  entropy T*S    EENTRO =        -0.00248979
  eigenvalues    EBANDS =      -532.80982069
  atomic energy  EATOM  =      1746.50554237
  Solvation  Ediel_sol  =         0.00000000
  ---------------------------------------------------
  free energy    TOTEN  =      -124.15221769 eV

  energy without entropy =     -124.14972790  energy(sigma->0) =     -124.15097280


--------------------------------------------------------------------------------------------------------




--------------------------------------- Iteration      1(   8)  ---------------------------------------


    POTLOK:  cpu time      0.0225: real time      0.0247
    SETDIJ:  cpu time      0.0012: real time      0.0013
     EDDAV:  cpu time      1.1440: real time      1.1670
       DOS:  cpu time      0.0006: real time      0.0006
    CHARGE:  cpu time      0.0526: real time      0.0645
    MIXING:  cpu time      0.0008: real time      0.0008
    --------------------------------------------
      LOOP:  cpu time      1.2218: real time      1.2589

 eigenvalue-minimisations  :  2640
 total energy-change (2. order) : 0.6901242E-01  (-0.2151422E-01)
 number of electron      55.9999991 magnetization 
 augmentation part        0.7168588 magnetization 

 Broyden mixing:
  rms(total) = 0.30949E-01    rms(broyden)= 0.30938E-01
  rms(prec ) = 0.66756E-01
  weight for this iteration     100.00

 eigenvalues of (default mixing * dielectric matrix)
  average eigenvalue GAMMA=   1.8812
  1.1952  2.4480  2.0004

 Free energy of the ion-electron system (eV)
  ---------------------------------------------------
  alpha Z        PSCENC =        60.47074313
  Ewald energy   TEWEN  =      4495.95153103
  -Hartree energ DENC   =     -6073.78756959
  -exchange      EXHF   =         0.00000000
  -V(xc)+E(xc)   XCENC  =       168.09135624
  PAW double counting   =      5747.06509845    -5746.45560376
  entropy T*S    EENTRO =        -0.00215964
  eigenvalues    EBANDS =      -521.92214350
  atomic energy  EATOM  =      1746.50554237
  Solvation  Ediel_sol  =         0.00000000
  ---------------------------------------------------
  free energy    TOTEN  =      -124.08320528 eV

  energy without entropy =     -124.08104564  energy(sigma->0) =     -124.08212546


--------------------------------------------------------------------------------------------------------




--------------------------------------- Iteration      1(   9)  ---------------------------------------


    POTLOK:  cpu time      0.0157: real time      0.0174
    SETDIJ:  cpu time      0.0013: real time      0.0013
     EDDAV:  cpu time      1.1077: real time      1.1289
       DOS:  cpu time      0.0004: real time      0.0004
    CHARGE:  cpu time      0.0445: real time      0.0529
    MIXING:  cpu time      0.0007: real time      0.0007
    --------------------------------------------
      LOOP:  cpu time      1.1703: real time      1.2017

 eigenvalue-minimisations  :  2592
 total energy-change (2. order) : 0.1841009E-01  (-0.1632874E-02)
 number of electron      55.9999991 magnetization 
 augmentation part        0.7161085 magnetization 

 Broyden mixing:
  rms(total) = 0.22121E-01    rms(broyden)= 0.22121E-01
  rms(prec ) = 0.48873E-01
  weight for this iteration     100.00

 eigenvalues of (default mixing * dielectric matrix)
  average eigenvalue GAMMA=   1.9214
  0.9536  2.3920  2.3920  1.9482

 Free energy of the ion-electron system (eV)
  ---------------------------------------------------
  alpha Z        PSCENC =        60.47074313
  Ewald energy   TEWEN  =      4495.95153103
  -Hartree energ DENC   =     -6081.61034376
  -exchange      EXHF   =         0.00000000
  -V(xc)+E(xc)   XCENC  =       168.23025912
  PAW double counting   =      5825.47511600    -5824.84923344
  entropy T*S    EENTRO =        -0.00280105
  eigenvalues    EBANDS =      -514.23560857
  atomic energy  EATOM  =      1746.50554237
  Solvation  Ediel_sol  =         0.00000000
  ---------------------------------------------------
  free energy    TOTEN  =      -124.06479518 eV

  energy without entropy =     -124.06199413  energy(sigma->0) =     -124.06339465


--------------------------------------------------------------------------------------------------------




--------------------------------------- Iteration      1(  10)  ---------------------------------------


    POTLOK:  cpu time      0.0153: real time      0.0160
    SETDIJ:  cpu time      0.0012: real time      0.0012
     EDDAV:  cpu time      1.1266: real time      1.1379
       DOS:  cpu time      0.0005: real time      0.0005
    CHARGE:  cpu time      0.0432: real time      0.0443
    MIXING:  cpu time      0.0008: real time      0.0008
    --------------------------------------------
      LOOP:  cpu time      1.1876: real time      1.2007

 eigenvalue-minimisations  :  2640
 total energy-change (2. order) : 0.1285333E-01  (-0.1229569E-02)
 number of electron      55.9999991 magnetization 
 augmentation part        0.7158130 magnetization 

 Broyden mixing:
  rms(total) = 0.99794E-02    rms(broyden)= 0.99788E-02
  rms(prec ) = 0.27785E-01
  weight for this iteration     100.00

 eigenvalues of (default mixing * dielectric matrix)
  average eigenvalue GAMMA=   1.8945
  2.9590  2.4764  1.8196  1.0181  1.1993

 Free energy of the ion-electron system (eV)
  ---------------------------------------------------
  alpha Z        PSCENC =        60.47074313
  Ewald energy   TEWEN  =      4495.95153103
  -Hartree energ DENC   =     -6091.52326460
  -exchange      EXHF   =         0.00000000
  -V(xc)+E(xc)   XCENC  =       168.34281975
  PAW double counting   =      5759.45242453    -5758.82060646
  entropy T*S    EENTRO =        -0.00387852
  eigenvalues    EBANDS =      -504.42725306
  atomic energy  EATOM  =      1746.50554237
  Solvation  Ediel_sol  =         0.00000000
  ---------------------------------------------------
  free energy    TOTEN  =      -124.05194185 eV

  energy without entropy =     -124.04806333  energy(sigma->0) =     -124.05000259


--------------------------------------------------------------------------------------------------------




--------------------------------------- Iteration      1(  11)  ---------------------------------------


    POTLOK:  cpu time      0.0143: real time      0.0158
    SETDIJ:  cpu time      0.0014: real time      0.0014
     EDDAV:  cpu time      0.9316: real time      0.9390
       DOS:  cpu time      0.0004: real time      0.0004
    CHARGE:  cpu time      0.0438: real time      0.0449
    MIXING:  cpu time      0.0008: real time      0.0008
    --------------------------------------------
      LOOP:  cpu time      0.9923: real time      1.0023

 eigenvalue-minimisations  :  2256
 total energy-change (2. order) : 0.3318858E-02  (-0.6333448E-03)
 number of electron      55.9999991 magnetization 
 augmentation part        0.7155333 magnetization 

 Broyden mixing:
  rms(total) = 0.74173E-02    rms(broyden)= 0.74171E-02
  rms(prec ) = 0.17086E-01
  weight for this iteration     100.00

 eigenvalues of (default mixing * dielectric matrix)
  average eigenvalue GAMMA=   2.1107
  4.1094  2.5180  2.1349  1.7396  0.9778  1.1845

 Free energy of the ion-electron system (eV)
  ---------------------------------------------------
  alpha Z        PSCENC =        60.47074313
  Ewald energy   TEWEN  =      4495.95153103
  -Hartree energ DENC   =     -6098.08997994
  -exchange      EXHF   =         0.00000000
  -V(xc)+E(xc)   XCENC  =       168.40286435
  PAW double counting   =      5779.58356981    -5778.94138411
  entropy T*S    EENTRO =        -0.00417345
  eigenvalues    EBANDS =      -497.92733618
  atomic energy  EATOM  =      1746.50554237
  Solvation  Ediel_sol  =         0.00000000
  ---------------------------------------------------
  free energy    TOTEN  =      -124.04862299 eV

  energy without entropy =     -124.04444954  energy(sigma->0) =     -124.04653627


--------------------------------------------------------------------------------------------------------




--------------------------------------- Iteration      1(  12)  ---------------------------------------


    POTLOK:  cpu time      0.0147: real time      0.0157
    SETDIJ:  cpu time      0.0012: real time      0.0012
     EDDAV:  cpu time      0.7598: real time      0.7702
       DOS:  cpu time      0.0004: real time      0.0004
    CHARGE:  cpu time      0.0450: real time      0.0454
    MIXING:  cpu time      0.0008: real time      0.0008
    --------------------------------------------
      LOOP:  cpu time      0.8219: real time      0.8337

 eigenvalue-minimisations  :  1872
 total energy-change (2. order) :-0.6013459E-03  (-0.2499362E-03)
 number of electron      55.9999991 magnetization 
 augmentation part        0.7147812 magnetization 

 Broyden mixing:
  rms(total) = 0.56475E-02    rms(broyden)= 0.56453E-02
  rms(prec ) = 0.89122E-02
  weight for this iteration     100.00

 eigenvalues of (default mixing * dielectric matrix)
  average eigenvalue GAMMA=   2.0970
  4.3013  2.5244  2.0900  2.0900  1.6556  1.0089  1.0089

 Free energy of the ion-electron system (eV)
  ---------------------------------------------------
  alpha Z        PSCENC =        60.47074313
  Ewald energy   TEWEN  =      4495.95153103
  -Hartree energ DENC   =     -6103.58257255
  -exchange      EXHF   =         0.00000000
  -V(xc)+E(xc)   XCENC  =       168.43566915
  PAW double counting   =      5755.35470606    -5754.72259550
  entropy T*S    EENTRO =        -0.00349138
  eigenvalues    EBANDS =      -492.45875663
  atomic energy  EATOM  =      1746.50554237
  Solvation  Ediel_sol  =         0.00000000
  ---------------------------------------------------
  free energy    TOTEN  =      -124.04922434 eV

  energy without entropy =     -124.04573296  energy(sigma->0) =     -124.04747865


--------------------------------------------------------------------------------------------------------




--------------------------------------- Iteration      1(  13)  ---------------------------------------


    POTLOK:  cpu time      0.0146: real time      0.0155
    SETDIJ:  cpu time      0.0012: real time      0.0012
     EDDAV:  cpu time      0.9808: real time      0.9877
       DOS:  cpu time      0.0005: real time      0.0005
    CHARGE:  cpu time      0.0428: real time      0.0432
    MIXING:  cpu time      0.0008: real time      0.0008
    --------------------------------------------
      LOOP:  cpu time      1.0409: real time      1.0490

 eigenvalue-minimisations  :  2352
 total energy-change (2. order) :-0.8794673E-03  (-0.2347731E-04)
 number of electron      55.9999991 magnetization 
 augmentation part        0.7148463 magnetization 

 Broyden mixing:
  rms(total) = 0.25028E-02    rms(broyden)= 0.25027E-02
  rms(prec ) = 0.50041E-02
  weight for this iteration     100.00

 eigenvalues of (default mixing * dielectric matrix)
  average eigenvalue GAMMA=   2.3086
  6.1695  3.0256  2.4805  2.0152  1.6418  1.2309  0.9527  0.9527

 Free energy of the ion-electron system (eV)
  ---------------------------------------------------
  alpha Z        PSCENC =        60.47074313
  Ewald energy   TEWEN  =      4495.95153103
  -Hartree energ DENC   =     -6104.86486922
  -exchange      EXHF   =         0.00000000
  -V(xc)+E(xc)   XCENC  =       168.43635890
  PAW double counting   =      5765.55105968    -5764.91405738
  entropy T*S    EENTRO =        -0.00372343
  eigenvalues    EBANDS =      -491.18268888
  atomic energy  EATOM  =      1746.50554237
  Solvation  Ediel_sol  =         0.00000000
  ---------------------------------------------------
  free energy    TOTEN  =      -124.05010381 eV

  energy without entropy =     -124.04638038  energy(sigma->0) =     -124.04824209


--------------------------------------------------------------------------------------------------------




--------------------------------------- Iteration      1(  14)  ---------------------------------------


    POTLOK:  cpu time      0.0142: real time      0.0153
    SETDIJ:  cpu time      0.0012: real time      0.0012
     EDDAV:  cpu time      0.9735: real time      0.9799
       DOS:  cpu time      0.0005: real time      0.0005
    CHARGE:  cpu time      0.0433: real time      0.0441
    MIXING:  cpu time      0.0007: real time      0.0007
    --------------------------------------------
      LOOP:  cpu time      1.0335: real time      1.0418

 eigenvalue-minimisations  :  2352
 total energy-change (2. order) :-0.2851308E-02  (-0.3200380E-04)
 number of electron      55.9999991 magnetization 
 augmentation part        0.7148430 magnetization 

 Broyden mixing:
  rms(total) = 0.17838E-02    rms(broyden)= 0.17837E-02
  rms(prec ) = 0.23547E-02
  weight for this iteration     100.00

 eigenvalues of (default mixing * dielectric matrix)
  average eigenvalue GAMMA=   2.4377
  7.1879  3.1669  2.6012  2.1710  2.1710  1.6235  1.1075  0.9552  0.9552

 Free energy of the ion-electron system (eV)
  ---------------------------------------------------
  alpha Z        PSCENC =        60.47074313
  Ewald energy   TEWEN  =      4495.95153103
  -Hartree energ DENC   =     -6105.73994331
  -exchange      EXHF   =         0.00000000
  -V(xc)+E(xc)   XCENC  =       168.42569846
  PAW double counting   =      5767.32928403    -5766.69198212
  entropy T*S    EENTRO =        -0.00366619
  eigenvalues    EBANDS =      -490.30016250
  atomic energy  EATOM  =      1746.50554237
  Solvation  Ediel_sol  =         0.00000000
  ---------------------------------------------------
  free energy    TOTEN  =      -124.05295511 eV

  energy without entropy =     -124.04928892  energy(sigma->0) =     -124.05112202


--------------------------------------------------------------------------------------------------------




--------------------------------------- Iteration      1(  15)  ---------------------------------------


    POTLOK:  cpu time      0.0142: real time      0.0150
    SETDIJ:  cpu time      0.0012: real time      0.0012
     EDDAV:  cpu time      0.9171: real time      0.9297
       DOS:  cpu time      0.0004: real time      0.0004
    CHARGE:  cpu time      0.0432: real time      0.0434
    MIXING:  cpu time      0.0009: real time      0.0009
    --------------------------------------------
      LOOP:  cpu time      0.9770: real time      0.9906

 eigenvalue-minimisations  :  2208
 total energy-change (2. order) :-0.1217699E-02  (-0.1954955E-04)
 number of electron      55.9999991 magnetization 
 augmentation part        0.7148316 magnetization 

 Broyden mixing:
  rms(total) = 0.48930E-03    rms(broyden)= 0.48929E-03
  rms(prec ) = 0.80962E-03
  weight for this iteration     100.00

 eigenvalues of (default mixing * dielectric matrix)
  average eigenvalue GAMMA=   2.4560
  7.8936  4.0310  2.4876  2.4876  1.9129  1.6261  1.2590  0.9677  0.9677  0.9265

 Free energy of the ion-electron system (eV)
  ---------------------------------------------------
  alpha Z        PSCENC =        60.47074313
  Ewald energy   TEWEN  =      4495.95153103
  -Hartree energ DENC   =     -6105.65894545
  -exchange      EXHF   =         0.00000000
  -V(xc)+E(xc)   XCENC  =       168.42475958
  PAW double counting   =      5766.10300106    -5765.46674111
  entropy T*S    EENTRO =        -0.00369232
  eigenvalues    EBANDS =      -490.38037109
  atomic energy  EATOM  =      1746.50554237
  Solvation  Ediel_sol  =         0.00000000
  ---------------------------------------------------
  free energy    TOTEN  =      -124.05417281 eV

  energy without entropy =     -124.05048049  energy(sigma->0) =     -124.05232665


--------------------------------------------------------------------------------------------------------




--------------------------------------- Iteration      1(  16)  ---------------------------------------


    POTLOK:  cpu time      0.0143: real time      0.0154
    SETDIJ:  cpu time      0.0014: real time      0.0014
     EDDAV:  cpu time      0.9458: real time      0.9534
       DOS:  cpu time      0.0006: real time      0.0006
    CHARGE:  cpu time      0.0428: real time      0.0429
    MIXING:  cpu time      0.0009: real time      0.0009
    --------------------------------------------
      LOOP:  cpu time      1.0058: real time      1.0145

 eigenvalue-minimisations  :  2256
 total energy-change (2. order) :-0.3518774E-03  (-0.2449678E-05)
 number of electron      55.9999991 magnetization 
 augmentation part        0.7148439 magnetization 

 Broyden mixing:
  rms(total) = 0.28089E-03    rms(broyden)= 0.28089E-03
  rms(prec ) = 0.34696E-03
  weight for this iteration     100.00

 eigenvalues of (default mixing * dielectric matrix)
  average eigenvalue GAMMA=   2.5312
  8.2349  4.5093  2.6657  2.6657  2.2290  1.8731  1.5662  1.1261  0.9704  1.0015
  1.0015

 Free energy of the ion-electron system (eV)
  ---------------------------------------------------
  alpha Z        PSCENC =        60.47074313
  Ewald energy   TEWEN  =      4495.95153103
  -Hartree energ DENC   =     -6105.74012930
  -exchange      EXHF   =         0.00000000
  -V(xc)+E(xc)   XCENC  =       168.42425117
  PAW double counting   =      5765.93268584    -5765.29611024
  entropy T*S    EENTRO =        -0.00369908
  eigenvalues    EBANDS =      -490.29933960
  atomic energy  EATOM  =      1746.50554237
  Solvation  Ediel_sol  =         0.00000000
  ---------------------------------------------------
  free energy    TOTEN  =      -124.05452469 eV

  energy without entropy =     -124.05082560  energy(sigma->0) =     -124.05267515


--------------------------------------------------------------------------------------------------------




--------------------------------------- Iteration      1(  17)  ---------------------------------------


    POTLOK:  cpu time      0.0148: real time      0.0163
    SETDIJ:  cpu time      0.0013: real time      0.0012
     EDDAV:  cpu time      0.9067: real time      0.9150
       DOS:  cpu time      0.0004: real time      0.0004
    CHARGE:  cpu time      0.0433: real time      0.0441
    MIXING:  cpu time      0.0008: real time      0.0008
    --------------------------------------------
      LOOP:  cpu time      0.9673: real time      0.9778

 eigenvalue-minimisations  :  2208
 total energy-change (2. order) :-0.8292710E-04  (-0.9798191E-06)
 number of electron      55.9999991 magnetization 
 augmentation part        0.7148366 magnetization 

 Broyden mixing:
  rms(total) = 0.13022E-03    rms(broyden)= 0.13021E-03
  rms(prec ) = 0.15479E-03
  weight for this iteration     100.00

 eigenvalues of (default mixing * dielectric matrix)
  average eigenvalue GAMMA=   2.4779
  8.2794  4.6737  2.9222  2.3994  2.3994  1.9750  1.7032  1.4113  1.0644  0.9708
  0.9708  0.9652

 Free energy of the ion-electron system (eV)
  ---------------------------------------------------
  alpha Z        PSCENC =        60.47074313
  Ewald energy   TEWEN  =      4495.95153103
  -Hartree energ DENC   =     -6105.72531113
  -exchange      EXHF   =         0.00000000
  -V(xc)+E(xc)   XCENC  =       168.42466706
  PAW double counting   =      5765.84067215    -5765.20417230
  entropy T*S    EENTRO =        -0.00368932
  eigenvalues    EBANDS =      -490.31459060
  atomic energy  EATOM  =      1746.50554237
  Solvation  Ediel_sol  =         0.00000000
  ---------------------------------------------------
  free energy    TOTEN  =      -124.05460762 eV

  energy without entropy =     -124.05091829  energy(sigma->0) =     -124.05276296


--------------------------------------------------------------------------------------------------------




--------------------------------------- Iteration      1(  18)  ---------------------------------------


    POTLOK:  cpu time      0.0222: real time      0.0239
    SETDIJ:  cpu time      0.0014: real time      0.0014
     EDDAV:  cpu time      1.0243: real time      1.0327
       DOS:  cpu time      0.0005: real time      0.0005
    CHARGE:  cpu time      0.0415: real time      0.0416
    MIXING:  cpu time      0.0010: real time      0.0010
    --------------------------------------------
      LOOP:  cpu time      1.0909: real time      1.1011

 eigenvalue-minimisations  :  2448
 total energy-change (2. order) :-0.4434284E-05  (-0.2889309E-07)
 number of electron      55.9999991 magnetization 
 augmentation part        0.7148404 magnetization 

 Broyden mixing:
  rms(total) = 0.24940E-04    rms(broyden)= 0.24932E-04
  rms(prec ) = 0.42175E-04
  weight for this iteration     100.00

 eigenvalues of (default mixing * dielectric matrix)
  average eigenvalue GAMMA=   2.4199
  8.2793  4.6963  3.0233  2.5480  2.4132  1.9270  1.6805  1.6805  1.2323  0.9811
  0.9811  0.9898  1.0263

 Free energy of the ion-electron system (eV)
  ---------------------------------------------------
  alpha Z        PSCENC =        60.47074313
  Ewald energy   TEWEN  =      4495.95153103
  -Hartree energ DENC   =     -6105.72638924
  -exchange      EXHF   =         0.00000000
  -V(xc)+E(xc)   XCENC  =       168.42458645
  PAW double counting   =      5766.02033396    -5765.38370649
  entropy T*S    EENTRO =        -0.00369596
  eigenvalues    EBANDS =      -490.31355730
  atomic energy  EATOM  =      1746.50554237
  Solvation  Ediel_sol  =         0.00000000
  ---------------------------------------------------
  free energy    TOTEN  =      -124.05461205 eV

  energy without entropy =     -124.05091609  energy(sigma->0) =     -124.05276407


--------------------------------------------------------------------------------------------------------




--------------------------------------- Iteration      1(  19)  ---------------------------------------


    POTLOK:  cpu time      0.0146: real time      0.0157
    SETDIJ:  cpu time      0.0013: real time      0.0013
     EDDAV:  cpu time      0.8725: real time      0.8787
       DOS:  cpu time      0.0004: real time      0.0004
    CHARGE:  cpu time      0.0419: real time      0.0421
    MIXING:  cpu time      0.0008: real time      0.0008
    --------------------------------------------
      LOOP:  cpu time      0.9315: real time      0.9390

 eigenvalue-minimisations  :  2112
 total energy-change (2. order) :-0.1035864E-05  (-0.5022208E-08)
 number of electron      55.9999991 magnetization 
 augmentation part        0.7148400 magnetization 

 Broyden mixing:
  rms(total) = 0.14722E-04    rms(broyden)= 0.14721E-04
  rms(prec ) = 0.27691E-04
  weight for this iteration     100.00

 eigenvalues of (default mixing * dielectric matrix)
  average eigenvalue GAMMA=   2.3946
  8.2665  4.7491  3.0085  2.5685  2.3866  2.3866  1.9923  1.6672  1.4327  0.9843
  0.9843  0.9800  0.9800  1.1375

 Free energy of the ion-electron system (eV)
  ---------------------------------------------------
  alpha Z        PSCENC =        60.47074313
  Ewald energy   TEWEN  =      4495.95153103
  -Hartree energ DENC   =     -6105.72803292
  -exchange      EXHF   =         0.00000000
  -V(xc)+E(xc)   XCENC  =       168.42462401
  PAW double counting   =      5765.97717528    -5765.34055626
  entropy T*S    EENTRO =        -0.00369593
  eigenvalues    EBANDS =      -490.31194378
  atomic energy  EATOM  =      1746.50554237
  Solvation  Ediel_sol  =         0.00000000
  ---------------------------------------------------
  free energy    TOTEN  =      -124.05461309 eV

  energy without entropy =     -124.05091716  energy(sigma->0) =     -124.05276512


--------------------------------------------------------------------------------------------------------




--------------------------------------- Iteration      1(  20)  ---------------------------------------


    POTLOK:  cpu time      0.0132: real time      0.0149
    SETDIJ:  cpu time      0.0012: real time      0.0012
     EDDAV:  cpu time      0.9712: real time      0.9777
       DOS:  cpu time      0.0004: real time      0.0004
    --------------------------------------------
      LOOP:  cpu time      0.9859: real time      0.9942

 eigenvalue-minimisations  :  2304
 total energy-change (2. order) :-0.4294898E-06  (-0.3190141E-08)
 number of electron      55.9999991 magnetization 
 augmentation part        0.7148400 magnetization 

 Free energy of the ion-electron system (eV)
  ---------------------------------------------------
  alpha Z        PSCENC =        60.47074313
  Ewald energy   TEWEN  =      4495.95153103
  -Hartree energ DENC   =     -6105.72593754
  -exchange      EXHF   =         0.00000000
  -V(xc)+E(xc)   XCENC  =       168.42460920
  PAW double counting   =      5765.96465840    -5765.32804461
  entropy T*S    EENTRO =        -0.00369667
  eigenvalues    EBANDS =      -490.31401882
  atomic energy  EATOM  =      1746.50554237
  Solvation  Ediel_sol  =         0.00000000
  ---------------------------------------------------
  free energy    TOTEN  =      -124.05461352 eV

  energy without entropy =     -124.05091685  energy(sigma->0) =     -124.05276518


--------------------------------------------------------------------------------------------------------




 average (electrostatic) potential at core
  the test charge radii are     0.7672  0.6991
  (the norm of the test charge is              1.0000)
       1 -33.1280       2 -33.1281       3 -33.1281       4 -33.1280       5 -33.1282
       6 -33.1280       7 -34.4691       8 -34.4778       9 -55.9968      10 -55.9948
      11 -55.9968      12 -55.9994      13 -55.9991      14 -55.9948      15 -55.9968
      16 -55.9948
 
 
 
 E-fermi :  -0.2205     XC(G=0):  -5.2156     alpha+bet : -5.2469

 Fermi energy:        -0.2205015401

 k-point     1 :       0.0000    0.0000    0.0000
  band No.  band energies     occupation 
      1     -19.7986      2.00000
      2     -15.8660      2.00000
      3     -14.6867      2.00000
      4     -14.6820      2.00000
      5     -14.6820      2.00000
      6     -13.5589      2.00000
      7     -13.5588      2.00000
      8     -13.5565      2.00000
      9     -11.6752      2.00000
     10     -11.4895      2.00000
     11     -11.4895      2.00000
     12      -9.2898      2.00000
     13      -9.2898      2.00000
     14      -8.1046      2.00000
     15      -7.2938      2.00000
     16      -6.8370      2.00000
     17      -6.8370      2.00000
     18      -6.8364      2.00000
     19      -6.5271      2.00000
     20      -3.5483      2.00000
     21      -3.5482      2.00000
     22      -2.8823      2.00000
     23      -2.8492      2.00000
     24      -2.8492      2.00000
     25      -1.4981      2.00000
     26      -1.4981      2.00000
     27      -0.3423      1.91496
     28      -0.3423      1.91492
     29      -0.2101      0.88302
     30       0.9762      0.00000
     31       0.9762      0.00000
     32       1.1038      0.00000
     33       1.1133      0.00000
     34       1.1134      0.00000
     35       1.7820      0.00000
     36       1.7820      0.00000
     37       2.9908      0.00000
     38       3.5985      0.00000
     39       4.5159      0.00000
     40       4.8163      0.00000
     41       6.5848      0.00000
     42       6.5876      0.00000
     43       6.5876      0.00000
     44       7.0722      0.00000
     45       7.6313      0.00000
     46       7.6315      0.00000
     47       7.6800      0.00000
     48       8.4296      0.00000

 k-point     2 :       0.0909    0.0000    0.0000
  band No.  band energies     occupation 
      1     -19.7505      2.00000
      2     -15.8275      2.00000
      3     -15.2203      2.00000
      4     -14.8300      2.00000
      5     -14.8275      2.00000
      6     -13.3346      2.00000
      7     -13.3336      2.00000
      8     -12.9498      2.00000
      9     -12.1819      2.00000
     10     -11.5277      2.00000
     11     -11.0149      2.00000
     12      -9.3577      2.00000
     13      -9.1902      2.00000
     14      -8.0439      2.00000
     15      -7.1100      2.00000
     16      -6.9862      2.00000
     17      -6.9858      2.00000
     18      -6.7895      2.00000
     19      -6.4684      2.00000
     20      -3.7474      2.00000
     21      -3.6508      2.00000
     22      -3.1608      2.00000
     23      -2.9059      2.00000
     24      -2.8889      2.00000
     25      -1.9705      2.00000
     26      -1.9191      2.00000
     27      -0.9407      2.00000
     28      -0.2923      1.68975
     29       0.3310      0.00000
     30       0.9209      0.00000
     31       1.0660      0.00000
     32       1.2236      0.00000
     33       1.2853      0.00000
     34       1.4755      0.00000
     35       2.1866      0.00000
     36       2.2498      0.00000
     37       3.0708      0.00000
     38       3.6764      0.00000
     39       4.6845      0.00000
     40       4.8977      0.00000
     41       6.6127      0.00000
     42       6.8104      0.00000
     43       6.8122      0.00000
     44       7.1244      0.00000
     45       7.6443      0.00000
     46       7.7393      0.00000
     47       7.8377      0.00000
     48       8.0608      0.00000

 k-point     3 :       0.1818   -0.0000    0.0000
  band No.  band energies     occupation 
      1     -19.6065      2.00000
      2     -16.0230      2.00000
      3     -15.7131      2.00000
      4     -15.0927      2.00000
      5     -15.0908      2.00000
      6     -12.8389      2.00000
      7     -12.8386      2.00000
      8     -12.7622      2.00000
      9     -11.9350      2.00000
     10     -11.6197      2.00000
     11     -10.6052      2.00000
     12      -9.3777      2.00000
     13      -8.9193      2.00000
     14      -7.8671      2.00000
     15      -7.4003      2.00000
     16      -7.3998      2.00000
     17      -6.6985      2.00000
     18      -6.6486      2.00000
     19      -6.2938      2.00000
     20      -4.3085      2.00000
     21      -3.9341      2.00000
     22      -3.8333      2.00000
     23      -3.0118      2.00000
     24      -3.0026      2.00000
     25      -2.7832      2.00000
     26      -2.6468      2.00000
     27      -1.7634      2.00000
     28      -0.5157      1.99997
     29       0.3395      0.00000
     30       1.3358      0.00000
     31       1.3683      0.00000
     32       1.7398      0.00000
     33       1.9147      0.00000
     34       2.3372      0.00000
     35       2.9755      0.00000
     36       3.0098      0.00000
     37       3.3744      0.00000
     38       3.9061      0.00000
     39       5.0201      0.00000
     40       5.2404      0.00000
     41       6.6880      0.00000
     42       6.9762      0.00000
     43       7.3228      0.00000
     44       7.4490      0.00000
     45       7.4500      0.00000
     46       7.6805      0.00000
     47       7.9017      0.00000
     48       8.0370      0.00000

 k-point     4 :       0.2727    0.0000    0.0000
  band No.  band energies     occupation 
      1     -19.3670      2.00000
      2     -16.7877      2.00000
      3     -15.5290      2.00000
      4     -15.3275      2.00000
      5     -15.3262      2.00000
      6     -13.3131      2.00000
      7     -12.2308      2.00000
      8     -12.2303      2.00000
      9     -11.7231      2.00000
     10     -10.8229      2.00000
     11     -10.4997      2.00000
     12      -9.0754      2.00000
     13      -8.5386      2.00000
     14      -7.9957      2.00000
     15      -7.9951      2.00000
     16      -7.5788      2.00000
     17      -6.4180      2.00000
     18      -6.3243      2.00000
     19      -6.0106      2.00000
     20      -5.1465      2.00000
     21      -4.6024      2.00000
     22      -4.3399      2.00000
     23      -3.6773      2.00000
     24      -3.2795      2.00000
     25      -3.1137      2.00000
     26      -3.0783      2.00000
     27      -2.6094      2.00000
     28      -0.8055      2.00000
     29       0.1550      0.00000
     30       1.6895      0.00000
     31       1.6968      0.00000
     32       2.6284      0.00000
     33       2.8279      0.00000
     34       3.4018      0.00000
     35       3.5113      0.00000
     36       3.9567      0.00000
     37       3.9830      0.00000
     38       4.3182      0.00000
     39       5.3638      0.00000
     40       5.6962      0.00000
     41       5.9220      0.00000
     42       6.7958      0.00000
     43       7.1427      0.00000
     44       7.5460      0.00000
     45       7.6413      0.00000
     46       7.7559      0.00000
     47       7.8060      0.00000
     48       7.9801      0.00000

 k-point     5 :       0.3636    0.0000    0.0000
  band No.  band energies     occupation 
      1     -19.0329      2.00000
      2     -17.4790      2.00000
      3     -15.4951      2.00000
      4     -15.4929      2.00000
      5     -15.2888      2.00000
      6     -13.8038      2.00000
      7     -11.8075      2.00000
      8     -11.5884      2.00000
      9     -11.5876      2.00000
     10     -10.5629      2.00000
     11      -9.6603      2.00000
     12      -8.6626      2.00000
     13      -8.6618      2.00000
     14      -8.5673      2.00000
     15      -8.1307      2.00000
     16      -7.1828      2.00000
     17      -6.2520      2.00000
     18      -6.1681      2.00000
     19      -6.1043      2.00000
     20      -5.6596      2.00000
     21      -5.3168      2.00000
     22      -4.8046      2.00000
     23      -4.3969      2.00000
     24      -3.5996      2.00000
     25      -3.4617      2.00000
     26      -3.1802      2.00000
     27      -3.1203      2.00000
     28      -1.0222      2.00000
     29       0.0049      0.00144
     30       1.9910      0.00000
     31       1.9964      0.00000
     32       3.4581      0.00000
     33       3.8397      0.00000
     34       4.0210      0.00000
     35       4.5098      0.00000
     36       4.6077      0.00000
     37       4.8859      0.00000
     38       4.8970      0.00000
     39       4.9685      0.00000
     40       5.6186      0.00000
     41       5.9662      0.00000
     42       6.5218      0.00000
     43       6.9346      0.00000
     44       7.0179      0.00000
     45       7.0410      0.00000
     46       7.2442      0.00000
     47       7.5499      0.00000
     48       7.9622      0.00000

 k-point     6 :       0.4545   -0.0000    0.0000
  band No.  band energies     occupation 
      1     -18.6055      2.00000
      2     -18.0865      2.00000
      3     -15.5801      2.00000
      4     -15.5783      2.00000
      5     -15.0591      2.00000
      6     -14.1619      2.00000
      7     -11.8521      2.00000
      8     -11.0610      2.00000
      9     -11.0610      2.00000
     10     -10.6205      2.00000
     11      -9.2131      2.00000
     12      -9.2123      2.00000
     13      -8.4750      2.00000
     14      -8.1350      2.00000
     15      -7.8338      2.00000
     16      -7.2967      2.00000
     17      -6.7045      2.00000
     18      -6.4300      2.00000
     19      -6.0525      2.00000
     20      -5.7183      2.00000
     21      -5.2766      2.00000
     22      -5.1863      2.00000
     23      -4.8526      2.00000
     24      -4.1157      2.00000
     25      -3.5475      2.00000
     26      -3.2353      2.00000
     27      -3.2028      2.00000
     28      -1.1345      2.00000
     29      -0.0758      0.04073
     30       2.1724      0.00000
     31       2.1781      0.00000
     32       4.0868      0.00000
     33       4.3189      0.00000
     34       4.6345      0.00000
     35       4.8446      0.00000
     36       4.9625      0.00000
     37       5.1522      0.00000
     38       5.5011      0.00000
     39       5.5860      0.00000
     40       5.7550      0.00000
     41       6.0355      0.00000
     42       6.2453      0.00000
     43       6.3517      0.00000
     44       6.5307      0.00000
     45       6.7258      0.00000
     46       7.1154      0.00000
     47       7.1633      0.00000
     48       7.3732      0.00000

 k-point     7 :       0.0909    0.0909    0.0000
  band No.  band energies     occupation 
      1     -19.6545      2.00000
      2     -15.7517      2.00000
      3     -15.5897      2.00000
      4     -15.5861      2.00000
      5     -14.5590      2.00000
      6     -13.4400      2.00000
      7     -12.6033      2.00000
      8     -12.4345      2.00000
      9     -12.4324      2.00000
     10     -11.6192      2.00000
     11     -10.6486      2.00000
     12      -9.4382      2.00000
     13      -8.9840      2.00000
     14      -7.9255      2.00000
     15      -7.4487      2.00000
     16      -6.8914      2.00000
     17      -6.8910      2.00000
     18      -6.8168      2.00000
     19      -6.3516      2.00000
     20      -4.1151      2.00000
     21      -3.8563      2.00000
     22      -3.4534      2.00000
     23      -3.4088      2.00000
     24      -2.6944      2.00000
     25      -2.6104      2.00000
     26      -2.3985      2.00000
     27      -1.5232      2.00000
     28      -0.5667      2.00000
     29       0.6499      0.00000
     30       0.9267      0.00000
[...]
     33       4.1542      0.00000
     34       4.5358      0.00000
     35       4.7000      0.00000
     36       5.1072      0.00000
     37       5.3195      0.00000
     38       5.5699      0.00000
     39       5.5794      0.00000
     40       5.6731      0.00000
     41       6.2360      0.00000
     42       6.3269      0.00000
     43       6.3490      0.00000
     44       6.4803      0.00000
     45       6.5430      0.00000
     46       6.9654      0.00000
     47       7.2437      0.00000
     48       7.5034      0.00000

 k-point    12 :       0.1818    0.1818    0.0000
  band No.  band energies     occupation 
      1     -19.2237      2.00000
      2     -16.6531      2.00000
      3     -16.6496      2.00000
      4     -15.4192      2.00000
      5     -14.1856      2.00000
      6     -13.5130      2.00000
      7     -13.1130      2.00000
      8     -12.0033      2.00000
      9     -10.7465      2.00000
     10     -10.7444      2.00000
     11      -9.9580      2.00000
     12      -9.3598      2.00000
     13      -8.8915      2.00000
     14      -8.2069      2.00000
     15      -7.4074      2.00000
     16      -7.0167      2.00000
     17      -7.0163      2.00000
     18      -6.3071      2.00000
     19      -5.8460      2.00000
     20      -5.4761      2.00000
     21      -4.7073      2.00000
     22      -4.4848      2.00000
     23      -4.4085      2.00000
     24      -3.8590      2.00000
     25      -3.4648      2.00000
     26      -2.8977      2.00000
     27      -2.1574      2.00000
     28      -1.5755      2.00000
     29       0.7724      0.00000
     30       1.2459      0.00000
     31       2.2389      0.00000
     32       2.8132      0.00000
     33       3.3173      0.00000
     34       3.3786      0.00000
     35       3.6903      0.00000
     36       4.3471      0.00000
     37       4.6129      0.00000
     38       4.9113      0.00000
     39       5.6171      0.00000
     40       5.6781      0.00000
     41       5.8791      0.00000
     42       6.2088      0.00000
     43       7.2575      0.00000
     44       7.3009      0.00000
     45       7.6485      0.00000
     46       7.6620      0.00000
     47       7.7552      0.00000
     48       7.9300      0.00000

 k-point    13 :       0.2727    0.1818    0.0000
  band No.  band energies     occupation 
      1     -18.8902      2.00000
      2     -17.3403      2.00000
      3     -16.8342      2.00000
      4     -15.1810      2.00000
      5     -14.0793      2.00000
      6     -13.9177      2.00000
      7     -12.7303      2.00000
      8     -12.1947      2.00000
      9     -10.1230      2.00000
     10      -9.8141      2.00000
     11      -9.6839      2.00000
     12      -9.6135      2.00000
     13      -9.0083      2.00000
     14      -7.8168      2.00000
     15      -7.4848      2.00000
     16      -7.0166      2.00000
     17      -6.6883      2.00000
     18      -6.5575      2.00000
     19      -6.3504      2.00000
     20      -5.5074      2.00000
     21      -5.2581      2.00000
     22      -5.1682      2.00000
     23      -4.6287      2.00000
     24      -4.0957      2.00000
     25      -3.7320      2.00000
     26      -3.5176      2.00000
     27      -1.9732      2.00000
     28      -1.8615      2.00000
     29       0.6430      0.00000
     30       1.4002      0.00000
     31       2.8776      0.00000
     32       3.3116      0.00000
     33       3.7668      0.00000
     34       4.1292      0.00000
     35       4.4761      0.00000
     36       4.7922      0.00000
     37       4.8844      0.00000
     38       5.3609      0.00000
     39       5.4330      0.00000
     40       5.6768      0.00000
     41       6.0307      0.00000
     42       6.3295      0.00000
     43       6.4951      0.00000
     44       6.9103      0.00000
     45       7.0322      0.00000
     46       7.5059      0.00000
     47       7.7522      0.00000
     48       7.8418      0.00000

 k-point    14 :       0.3636    0.1818    0.0000
  band No.  band energies     occupation 
      1     -18.4637      2.00000
      2     -17.9460      2.00000
      3     -16.9261      2.00000
      4     -14.9396      2.00000
      5     -14.2490      2.00000
      6     -14.0906      2.00000
      7     -12.2977      2.00000
      8     -12.2661      2.00000
      9     -10.2950      2.00000
     10      -9.8181      2.00000
     11      -9.6304      2.00000
     12      -8.5468      2.00000
     13      -8.4737      2.00000
     14      -7.9167      2.00000
     15      -7.5677      2.00000
     16      -7.3692      2.00000
     17      -7.0049      2.00000
     18      -6.5061      2.00000
     19      -6.2775      2.00000
     20      -5.9073      2.00000
     21      -5.7946      2.00000
     22      -5.0565      2.00000
     23      -4.7461      2.00000
     24      -4.2898      2.00000
     25      -4.0523      2.00000
     26      -3.6709      2.00000
     27      -2.1547      2.00000
     28      -1.7135      2.00000
     29       0.5909      0.00000
     30       1.3878      0.00000
     31       3.6392      0.00000
     32       3.7575      0.00000
     33       4.0363      0.00000
     34       4.2252      0.00000
     35       4.6714      0.00000
     36       4.9661      0.00000
     37       5.0724      0.00000
     38       5.3811      0.00000
     39       5.5394      0.00000
     40       5.7057      0.00000
     41       6.1254      0.00000
     42       6.2463      0.00000
     43       6.6482      0.00000
     44       6.8293      0.00000
     45       6.8670      0.00000
     46       7.0522      0.00000
     47       7.1895      0.00000
     48       7.5338      0.00000

 k-point    15 :       0.2727    0.2727    0.0000
  band No.  band energies     occupation 
      1     -18.5110      2.00000
      2     -17.4816      2.00000
      3     -17.4779      2.00000
      4     -14.9287      2.00000
      5     -14.2353      2.00000
      6     -13.5651      2.00000
      7     -12.7735      2.00000
      8     -12.4087      2.00000
      9     -10.4188      2.00000
     10      -9.3514      2.00000
     11      -9.0498      2.00000
     12      -9.0488      2.00000
     13      -8.9412      2.00000
     14      -7.5312      2.00000
     15      -7.1233      2.00000
     16      -7.1172      2.00000
     17      -7.0725      2.00000
     18      -7.0723      2.00000
     19      -6.5604      2.00000
     20      -5.9223      2.00000
     21      -5.4294      2.00000
     22      -5.3580      2.00000
     23      -4.9981      2.00000
     24      -4.0473      2.00000
     25      -3.9284      2.00000
     26      -3.8197      2.00000
     27      -2.3975      2.00000
     28      -1.3005      2.00000
     29       0.1662      0.00000
     30       2.1175      0.00000
     31       2.9755      0.00000
     32       3.5250      0.00000
     33       4.2614      0.00000
     34       4.6030      0.00000
     35       4.7757      0.00000
     36       4.9005      0.00000
     37       4.9224      0.00000
     38       5.0106      0.00000
     39       5.3316      0.00000
     40       5.9304      0.00000
     41       6.0334      0.00000
     42       6.3452      0.00000
     43       6.6641      0.00000
     44       6.8243      0.00000
     45       6.9712      0.00000
     46       7.1171      0.00000
     47       7.1928      0.00000
     48       7.4269      0.00000

 k-point    16 :       0.3636    0.2727    0.0000
  band No.  band energies     occupation 
      1     -18.0419      2.00000
      2     -18.0381      2.00000
      3     -17.5263      2.00000
      4     -14.7313      2.00000
      5     -14.4543      2.00000
      6     -13.3874      2.00000
      7     -12.7015      2.00000
      8     -12.4851      2.00000
      9     -10.7588      2.00000
     10      -9.2348      2.00000
     11      -8.7687      2.00000
     12      -8.7422      2.00000
     13      -8.0310      2.00000
     14      -8.0295      2.00000
     15      -7.4575      2.00000
     16      -7.4243      2.00000
     17      -7.2993      2.00000
     18      -6.5495      2.00000
     19      -6.5488      2.00000
     20      -6.0721      2.00000
     21      -5.9647      2.00000
     22      -5.4221      2.00000
     23      -4.7366      2.00000
     24      -4.3369      2.00000
     25      -3.9753      2.00000
     26      -3.7659      2.00000
     27      -2.5467      2.00000
     28      -0.9813      2.00000
     29      -0.1185      0.14930
     30       2.3433      0.00000
     31       3.2786      0.00000
     32       3.7032      0.00000
     33       3.9445      0.00000
     34       4.4698      0.00000
     35       4.6534      0.00000
     36       5.0183      0.00000
     37       5.1537      0.00000
     38       5.3129      0.00000
     39       5.8451      0.00000
     40       5.8919      0.00000
     41       5.9808      0.00000
     42       6.0060      0.00000
     43       6.1212      0.00000
     44       6.6493      0.00000
     45       6.7876      0.00000
     46       7.0452      0.00000
     47       7.5361      0.00000
     48       7.7726      0.00000


--------------------------------------------------------------------------------------------------------


 soft charge-density along one line, spin component           1
         0         1         2         3         4         5         6         7         8         9
 total charge-density along one line
 
 pseudopotential strength for first ion, spin component:           1
  6.649  10.138  -0.005   0.000  -0.008  -0.007   0.000  -0.012
 10.138  15.455  -0.007   0.000  -0.012  -0.011   0.000  -0.018
 -0.005  -0.007  -2.273   0.001   0.003  -3.893   0.002   0.005
  0.000   0.000   0.001  -2.268  -0.001   0.002  -3.879  -0.001
 -0.008  -0.012   0.003  -0.001  -2.271   0.005  -0.001  -3.887
 -0.007  -0.011  -3.893   0.002   0.005  -6.467   0.004   0.010
  0.000   0.000   0.002  -3.879  -0.001   0.004  -6.438  -0.002
 -0.012  -0.018   0.005  -0.001  -3.887   0.010  -0.002  -6.455
 total augmentation occupancy for first ion, spin component:           1
  3.791  -1.048  -0.198   0.002  -0.343   0.093  -0.001   0.161
 -1.048   0.308   0.110  -0.000   0.191  -0.041   0.000  -0.071
 -0.198   0.110   4.302  -0.100  -0.256  -1.219   0.048   0.118
  0.002  -0.000  -0.100   1.844   0.059   0.049  -0.400  -0.029
 -0.343   0.191  -0.256   0.059   4.005   0.118  -0.028  -1.082
  0.093  -0.041  -1.219   0.049   0.118   0.355  -0.018  -0.045
 -0.001   0.000   0.048  -0.400  -0.028  -0.018   0.091   0.010
  0.161  -0.071   0.118  -0.029  -1.082  -0.045   0.010   0.303


------------------------ aborting loop because EDIFF is reached ----------------------------------------


    CHARGE:  cpu time      0.0426: real time      0.0439
    FORLOC:  cpu time      0.0016: real time      0.0016
    FORNL :  cpu time      0.1201: real time      0.1212
    STRESS:  cpu time      0.7174: real time      0.7200
    FORCOR:  cpu time      0.0126: real time      0.0127
    FORHAR:  cpu time      0.0040: real time      0.0040
    MIXING:  cpu time      0.0008: real time      0.0008
    OFIELD:  cpu time      0.0000: real time      0.0000

 ---------------------------------------------------------------------------------------------

         DFTD3 V3.0 Rev 1        
 IVDW         = 12
 DF pbe       
 parameters
 VDW_S6       =    1.0000
 VDW_S8       =    0.7875
 VDW_A1       =    0.4289
 VDW_A2       =    4.4407
 k1-k3        =   16.0000    1.3333   -4.0000
 VDW_RADIUS   =   50.2022 A
 VDW_CNRADIUS =   21.1671 A
 Edisp (eV)   -1.86926

 E6    (eV) :    -1.2706
 E8    (eV) :    -0.5986
 % E8        : 32.02
    FORVDW:  cpu time      0.0470: real time      0.0471

  FORCE on cell =-STRESS in cart. coord.  units (eV):
  Direction    XX          YY          ZZ          XY          YZ          ZX
  --------------------------------------------------------------------------------------
  Alpha Z    60.47074    60.47074    60.47074
  Ewald    6159.79023  6159.79504 -7823.63738     0.00000     0.00000    -0.00008
  Hartree  6044.93674  6044.93678 -5984.14715    -0.00000    -0.00000     0.00000
  E(xc)    -195.83841  -195.83841  -202.25314    -0.00000    -0.00000     0.00000
  Local  -12754.69689-12754.69926 13138.19657    -0.00000    -0.00000     0.00003
  n-local   -36.60535   -39.58689   -39.07083    -1.39927     0.04324    -0.01790
  augment    -2.75845    -2.75839    -2.47078     0.00000     0.00000    -0.00000
  Kinetic   733.16641   721.21346   853.98802    -5.88028    -0.39697    -0.24507
  Fock        0.00000     0.00000     0.00000     0.00000     0.00000     0.00000
  vdW        -1.34155    -1.34155    -1.33820    -0.00000     0.00000    -0.00000
  -------------------------------------------------------------------------------------
  Total      -0.34250    -0.34250    -0.26215     0.00000     0.00000     0.00000
  in kB      -1.70399    -1.70399    -1.30422     0.00000     0.00000     0.00000
  external pressure =       -1.57 kB  Pullay stress =        0.00 kB


 VOLUME and BASIS-vectors are now :
 -----------------------------------------------------------------------------
  energy-cutoff  :      450.00
  volume of cell :      322.04
      direct lattice vectors                 reciprocal lattice vectors
     4.311940485  2.489500000  0.000000000     0.115957074  0.200843543  0.000000000
    -4.311940485  2.489500000  0.000000000    -0.115957074  0.200843543  0.000000000
     0.000000000  0.000000000 15.000000000     0.000000000  0.000000000  0.066666667

  length of vectors
     4.979000000  4.979000000 15.000000000     0.231914147  0.231914147  0.066666667


 FORCES acting on ions
    electron-ion (+dipol)            ewald-force                    non-local-force                 convergence-correction
 -----------------------------------------------------------------------------------------------
   -.259E+02 -.149E+02 0.216E+03   0.288E+02 0.166E+02 -.216E+03   -.292E+01 -.169E+01 -.214E-01   -.134E-04 -.376E-05 0.869E-04
   0.258E+02 0.150E+02 0.216E+03   -.287E+02 -.166E+02 -.216E+03   0.292E+01 0.168E+01 -.214E-01   0.998E-05 0.976E-05 0.869E-04
   -.259E+02 0.149E+02 0.216E+03   0.288E+02 -.166E+02 -.216E+03   -.292E+01 0.169E+01 -.214E-01   -.134E-04 0.376E-05 0.869E-04
   0.258E+02 -.150E+02 0.216E+03   -.287E+02 0.166E+02 -.216E+03   0.292E+01 -.168E+01 -.214E-01   0.998E-05 -.977E-05 0.869E-04
   0.399E-01 0.299E+02 0.216E+03   -.365E-01 -.332E+02 -.216E+03   -.314E-02 0.337E+01 -.214E-01   0.347E-05 0.135E-04 0.869E-04
   0.399E-01 -.299E+02 0.216E+03   -.365E-01 0.332E+02 -.216E+03   -.314E-02 -.337E+01 -.214E-01   0.347E-05 -.135E-04 0.869E-04
   0.478E-04 0.827E-04 0.254E+03   0.206E-03 0.308E-03 -.255E+03   0.738E-17 -.563E-18 0.121E+01   0.492E-09 0.848E-09 0.865E-04
   -.478E-04 0.826E-04 0.178E+03   -.206E-03 0.308E-03 -.177E+03   -.176E-17 0.807E-17 -.123E+01   -.488E-09 0.840E-09 0.876E-04
   -.662E+00 0.115E+01 -.216E+03   0.671E+00 -.116E+01 0.216E+03   -.793E-02 0.137E-01 0.345E-01   0.268E-06 -.464E-06 0.159E-03
   0.367E+00 0.637E+00 -.215E+03   -.371E+00 -.642E+00 0.215E+03   0.352E-02 0.610E-02 0.523E-01   -.336E-05 -.581E-05 0.161E-03
   0.133E+01 0.473E-03 -.216E+03   -.134E+01 -.328E-05 0.216E+03   0.159E-01 -.407E-18 0.345E-01   -.536E-06 0.275E-09 0.159E-03
   -.262E-03 0.476E-03 -.218E+03   -.498E-03 0.354E-05 0.218E+03   -.823E-17 -.343E-18 0.425E-02   0.140E-09 -.349E-09 0.155E-03
   0.261E-03 0.473E-03 -.216E+03   0.500E-03 0.355E-05 0.216E+03   0.215E-17 0.575E-17 0.265E-01   -.249E-09 -.387E-09 0.162E-03
   -.735E+00 0.470E-03 -.215E+03   0.741E+00 -.329E-05 0.215E+03   -.704E-02 -.143E-16 0.523E-01   0.671E-05 0.235E-09 0.161E-03
   -.662E+00 -.115E+01 -.216E+03   0.671E+00 0.116E+01 0.216E+03   -.793E-02 -.137E-01 0.345E-01   0.268E-06 0.464E-06 0.159E-03
   0.367E+00 -.636E+00 -.215E+03   -.371E+00 0.642E+00 0.215E+03   0.352E-02 -.610E-02 0.523E-01   -.336E-05 0.581E-05 0.161E-03
 -----------------------------------------------------------------------------------------------
   -.204E-06 0.470E-02 -.144E+00   -.160E-13 -.103E-13 0.171E-12   0.376E-15 -.439E-15 0.141E+00   -.203E-11 0.120E-08 0.197E-02
 
 
 POSITION                                       TOTAL-FORCE (eV/Angst)
 -----------------------------------------------------------------------------------
      2.88252      1.66438      1.52236        -0.012721     -0.007036      0.000400
      1.42928      0.82535      1.52236         0.012454      0.007499      0.000400
      2.88253      3.31461      1.52236        -0.012721      0.007036      0.000400
      1.42928      4.15365      1.52236         0.012454     -0.007499      0.000400
      0.00014      1.65047      1.52236         0.000267      0.014535      0.000400
      0.00014      3.32853      1.52236         0.000267     -0.014535      0.000400
      1.43731      2.48950      1.32683         0.000000     -0.000000     -0.026052
     -1.43731      2.48950      1.71636         0.000000     -0.000000      0.009972
     -0.71860      1.24465      5.01853        -0.000233      0.000404      0.001690
      0.71865      1.24474      5.01699         0.000706      0.001223      0.001234
     -2.87474      2.48950      5.01853         0.000467     -0.000000      0.001690
     -1.43731      2.48950      5.01939         0.000000     -0.000000      0.003227
      1.43731      2.48950      5.01667         0.000000     -0.000000      0.001679
      2.87464      2.48950      5.01699        -0.001412      0.000000      0.001234
     -0.71860      3.73434      5.01853        -0.000233     -0.000404      0.001690
      0.71865      3.73426      5.01699         0.000706     -0.001223      0.001234
 -----------------------------------------------------------------------------------
    total drift:                               -0.000000      0.004702     -0.000491


--------------------------------------------------------------------------------------------------------



  FREE ENERGIE OF THE ION-ELECTRON SYSTEM (eV)
  ---------------------------------------------------
  free  energy   TOTEN  =      -125.92387575 eV

  energy  without entropy=     -125.92017908  energy(sigma->0) =     -125.92202742
 


--------------------------------------------------------------------------------------------------------


    POTLOK:  cpu time      0.0196: real time      0.0204


--------------------------------------------------------------------------------------------------------


 stress matrix after NEB project (eV)
     -0.34250      0.00000      0.00000
      0.00000     -0.34250      0.00000
      0.00000      0.00000     -0.26215
  FORCES: max atom, RMS     0.026052    0.011402
  FORCE total and by dimension    0.045608    0.026052
  Stress total and by dimension    0.550760    0.342502
 writing wavefunctions
     LOOP+:  cpu time     22.5094: real time     22.9699
    4ORBIT:  cpu time      0.0000: real time      0.0000

 total amount of memory used by VASP MPI-rank0    56957. kBytes
=======================================================================

   base      :      30000. kBytes
   nonl-proj :      16146. kBytes
   fftplans  :       1560. kBytes
   grid      :       7372. kBytes
   one-center:         49. kBytes
   wavefun   :       1830. kBytes
 
  
  
 General timing and accounting informations for this job:
 ========================================================
  
                  Total CPU time used (sec):       26.620
                            User time (sec):       23.558
                          System time (sec):        3.062
                         Elapsed time (sec):       29.043
  
                   Maximum memory used (kb):      578556.
                   Average memory used (kb):          N/A
  
                          Minor page faults:       114492
                          Major page faults:         3784
                 Voluntary context switches:         8339
