 vasp.6.3.2 27Jun22 (build Dec 22 2022 13:13:19) complex                        
  
 executed on             LinuxIFC date 2023.09.11  16:02:28
 running   48 mpi-ranks, with    1 threads/rank
 distrk:  each k-point on   48 cores,    1 groups
 distr:  one band on NCORE=   1 cores,   48 groups


--------------------------------------------------------------------------------------------------------


 INCAR:
   SYSTEM = SC
   ISTART = 0
   ICHARG = 2
   PREC = Accurate
   ENCUT = 450
   LCHARG = .TRUE.
   LWAVE = .TRUE.
   ALGO = Normal
   NELM = 64
   EDIFF = 1E-6
   EDIFFG = -1E-3
   SIGMA = 0.1
   ISMEAR = 0
   GGA = PE
   IVDW = 12

 POTCAR:    PAW_PBE B 06Sep2000                   
 POTCAR:    PAW_PBE C 08Apr2002                   
 POTCAR:    PAW_PBE B 06Sep2000                   
   SHA256 =  a32ced30f5ae56fd4d10b4325ff17eb3e4e38ee0f4288bc219fb012fddfa6e97 B/POTCAR              
   COPYR  = (c) Copyright 06Sep2000 Georg Kresse                                                    
   COPYR  = This file is part of the software VASP. Any use, copying, and all other rights are regul
   COPYR  = If you do not have a valid VASP license, you may not use, copy or distribute this file. 
   VRHFIN =B: s2p1                                                                                  
   LEXCH  = PE                                                                                      
   EATOM  =    71.1703 eV,    5.2309 Ry                                                             
                                                                                                    
   TITEL  = PAW_PBE B 06Sep2000                                                                     
   LULTRA =        F    use ultrasoft PP ?                                                          
   IUNSCR =        1    unscreen: 0-lin 1-nonlin 2-no                                               
   RPACOR =    1.200    partial core radius                                                         
   POMASS =   10.811; ZVAL   =    3.000    mass and valenz                                          
   RCORE  =    1.700    outmost cutoff radius                                                       
   RWIGS  =    1.710; RWIGS  =    0.905    wigner-seitz radius (au A)                               
   ENMAX  =  318.614; ENMIN  =  238.960 eV                                                          
   ICORE  =        2    local potential                                                             
   LCOR   =        T    correct aug charges                                                         
   LPAW   =        T    paw PP                                                                      
   EAUG   =  535.514                                                                                
   DEXC   =    0.000                                                                                
   RMAX   =    1.732    core radius for proj-oper                                                   
   RAUG   =    1.300    factor for augmentation sphere                                              
   RDEP   =    1.757    radius for radial grids                                                     
   RDEPT  =    1.436    core radius for aug-charge                                                  
                                                                                                    
   Atomic configuration                                                                             
    4 entries                                                                                       
     n  l   j            E        occ.                                                              
     1  0  0.50      -180.5896   2.0000                                                             
     2  0  0.50        -9.4431   2.0000                                                             
     2  1  0.50        -3.6068   1.0000                                                             
     3  2  1.50        -4.0817   0.0000                                                             
   Description                                                                                      
     l       E           TYP  RCUT    TYP  RCUT                                                     
     0     -9.4430752     23  1.500                                                                 
     0      0.8675899     23  1.500                                                                 
     1     -3.6067955     23  1.700                                                                 
     1      6.1086146     23  1.700                                                                 
     2     -4.0817478      7  1.700                                                                 
  local pseudopotential read in
  partial core-charges read in
  partial kinetic energy density read in
  atomic valenz-charges read in
  non local Contribution for L=           0  read in
    real space projection operators read in
  non local Contribution for L=           0  read in
    real space projection operators read in
  non local Contribution for L=           1  read in
    real space projection operators read in
  non local Contribution for L=           1  read in
    real space projection operators read in
    PAW grid and wavefunctions read in
 
   number of l-projection  operators is LMAX  =           4
   number of lm-projection operators is LMMAX =           8
 
 POTCAR:    PAW_PBE C 08Apr2002                   
   SHA256 =  253f7b50bb8d59471dbedb8285d89021f4a42ed1a2c5d38a03a736e69125dd95 C/POTCAR              
   COPYR  = (c) Copyright 08Apr2002 Georg Kresse                                                    
   COPYR  = This file is part of the software VASP. Any use, copying, and all other rights are regul
   COPYR  = If you do not have a valid VASP license, you may not use, copy or distribute this file. 
   VRHFIN =C: s2p2                                                                                  
   LEXCH  = PE                                                                                      
   EATOM  =   147.1560 eV,   10.8157 Ry                                                             
                                                                                                    
   TITEL  = PAW_PBE C 08Apr2002                                                                     
   LULTRA =        F    use ultrasoft PP ?                                                          
   IUNSCR =        1    unscreen: 0-lin 1-nonlin 2-no                                               
   RPACOR =    1.200    partial core radius                                                         
   POMASS =   12.011; ZVAL   =    4.000    mass and valenz                                          
   RCORE  =    1.500    outmost cutoff radius                                                       
   RWIGS  =    1.630; RWIGS  =    0.863    wigner-seitz radius (au A)                               
   ENMAX  =  400.000; ENMIN  =  300.000 eV                                                          
   ICORE  =        2    local potential                                                             
   LCOR   =        T    correct aug charges                                                         
   LPAW   =        T    paw PP                                                                      
   EAUG   =  644.873                                                                                
   DEXC   =    0.000                                                                                
   RMAX   =    1.529    core radius for proj-oper                                                   
   RAUG   =    1.300    factor for augmentation sphere                                              
   RDEP   =    1.501    radius for radial grids                                                     
   RDEPT  =    1.300    core radius for aug-charge                                                  
                                                                                                    
   Atomic configuration                                                                             
    4 entries                                                                                       
     n  l   j            E        occ.                                                              
     1  0  0.50      -273.3789   2.0000                                                             
     2  0  0.50       -13.7508   2.0000                                                             
     2  1  0.50        -5.2854   2.0000                                                             
     3  2  1.50        -5.4423   0.0000                                                             
   Description                                                                                      
     l       E           TYP  RCUT    TYP  RCUT                                                     
     0    -13.7508458     23  1.200                                                                 
     0     -8.2022199     23  1.200                                                                 
     1     -5.2854383     23  1.500                                                                 
     1     34.0145650     23  1.500                                                                 
     2     -5.4423304      7  1.500                                                                 
  local pseudopotential read in
  partial core-charges read in
  partial kinetic energy density read in
  atomic valenz-charges read in
  non local Contribution for L=           0  read in
    real space projection operators read in
  non local Contribution for L=           0  read in
    real space projection operators read in
  non local Contribution for L=           1  read in
    real space projection operators read in
  non local Contribution for L=           1  read in
    real space projection operators read in
    PAW grid and wavefunctions read in
 
   number of l-projection  operators is LMAX  =           4
   number of lm-projection operators is LMMAX =           8
 
  PAW_PBE B 06Sep2000                   :
 energy of atom  1       EATOM=  -71.1703
 kinetic energy error for atom=    0.0015 (will be added to EATOM!!)
  PAW_PBE C 08Apr2002                   :
 energy of atom  2       EATOM= -147.1560
 kinetic energy error for atom=    0.0116 (will be added to EATOM!!)
 
 
 POSCAR: Graphene-B4C3 Bridge with lattice parame
  positions in direct lattice
  velocities in cartesian coordinates
 exchange correlation table for  LEXCH =        8
   RHO(1)=    0.500       N(1)  =     2000
   RHO(2)=  100.500       N(2)  =     4000

 VTST: version 4.2, (08/11/21)

 CHAIN: initializing optimizer
 
 OPT: Using VASP Dynamics algorithm
 CHAIN: Read ICHAIN            0
 
 POSCAR: Graphene-B4C3 Bridge with lattice parame
  positions in direct lattice
  velocities in cartesian coordinates
 


--------------------------------------------------------------------------------------------------------


 ion  position               nearest neighbor table
   1  0.023  0.985  0.104-   6 1.57   5 1.57   7 1.57   3 1.72   4 1.72   2 1.72
   2  0.378  0.985  0.100-   6 1.56   5 1.65   7 1.65   1 1.72
   3  0.022  0.340  0.099-   7 1.56   6 1.65   5 1.65   1 1.72
   4  0.668  0.630  0.100-   5 1.56   7 1.65   6 1.65   1 1.72
   5  0.346  0.309  0.100-   4 1.56   1 1.57   2 1.65   3 1.65
   6  0.699  0.985  0.100-   2 1.56   1 1.57   3 1.65   4 1.65
   7  0.023  0.662  0.100-   3 1.56   1 1.57   4 1.65   2 1.65
   8  0.067  0.432  0.336-  11 1.40   9 1.40  13 1.40
   9  0.234  0.265  0.336-  12 1.40  10 1.40   8 1.40
  10  0.067  0.932  0.336-  15 1.40   9 1.40  11 1.40
  11  0.234  0.765  0.336-  14 1.40   8 1.40  10 1.40
  12  0.567  0.432  0.336-   9 1.40  15 1.40  13 1.40
  13  0.734  0.265  0.336-  14 1.40  12 1.40   8 1.40
  14  0.567  0.932  0.336-  11 1.40  13 1.40  15 1.40
  15  0.734  0.765  0.336-  12 1.40  10 1.40  14 1.40
 
  LATTYP: Found a hexagonal cell.
 ALAT       =     4.8460000000
 C/A-ratio  =     3.0953363599
  
  Lattice vectors:
  
 A1 = (   4.1967591067,   2.4230000000,   0.0000000000)
 A2 = (  -4.1967591067,   2.4230000000,   0.0000000000)
 A3 = (   0.0000000000,   0.0000000000,  15.0000000000)


Analysis of symmetry for initial positions (statically):
=====================================================================
 Subroutine PRICEL returns:
 Original cell was already a primitive cell.
 

 Routine SETGRP: Setting up the symmetry group for a 
 hexagonal supercell.


 Subroutine GETGRP returns: Found  1 space group operations
 (whereof  1 operations were pure point group operations)
 out of a pool of 24 trial point group operations.


The static configuration has the point symmetry C_1 .


Analysis of symmetry for dynamics (positions and initial velocities):
=====================================================================
 Subroutine PRICEL returns:
 Original cell was already a primitive cell.
 

 Routine SETGRP: Setting up the symmetry group for a 
 hexagonal supercell.


 Subroutine GETGRP returns: Found  1 space group operations
 (whereof  1 operations were pure point group operations)
 out of a pool of 24 trial point group operations.


The dynamic configuration has the point symmetry C_1 .


 Subroutine INISYM returns: Found  1 space group operations
 (whereof  1 operations are pure point group operations),
 and found     1 'primitive' translations


----------------------------------------------------------------------------------------

                                     Primitive cell                                     

  volume of cell :     305.0624

  direct lattice vectors                    reciprocal lattice vectors
     4.196759107  2.423000000  0.000000000     0.119139552  0.206355757  0.000000000
    -4.196759107  2.423000000  0.000000000    -0.119139552  0.206355757  0.000000000
     0.000000000  0.000000000 15.000000000     0.000000000  0.000000000  0.066666667

  length of vectors
     4.846000000  4.846000000 15.000000000     0.238279104  0.238279104  0.066666667

  position of ions in fractional coordinates (direct lattice)
     0.022609058  0.985243782  0.103736434
     0.377798931  0.985414352  0.099726617
     0.022453624  0.340186934  0.099474860
     0.667568379  0.630134382  0.099562886
     0.346147315  0.308673834  0.099849666
     0.699228702  0.985369351  0.100108028
     0.022579128  0.661737205  0.099878015
     0.067447511  0.432101189  0.336074102
     0.233940062  0.265256887  0.336094822
     0.067129553  0.932040389  0.336044075
     0.233880728  0.765414764  0.336090887
     0.567027668  0.432146329  0.336086251
     0.733742936  0.265240172  0.336043862
     0.567100606  0.931869237  0.336153997
     0.733973134  0.765271860  0.336054831

  ion indices of the primitive-cell ions
   primitive index   ion index
                 1           1
                 2           2
                 3           3
                 4           4
                 5           5
                 6           6
                 7           7
                 8           8
                 9           9
                10          10
                11          11
                12          12
                13          13
                14          14
                15          15

----------------------------------------------------------------------------------------

 
 
 KPOINTS: k-points                                

Automatic generation of k-mesh.
 Grid dimensions read from file:
 generate k-points for:   11   11    1

 Generating k-lattice:

  Cartesian coordinates                     Fractional coordinates (reciprocal lattice)
     0.010830868  0.018759614  0.000000000     0.090909091 -0.000000000  0.000000000
    -0.010830868  0.018759614  0.000000000    -0.000000000  0.090909091  0.000000000
     0.000000000  0.000000000  0.066666667     0.000000000  0.000000000  1.000000000

  Length of vectors
     0.021661737  0.021661737  0.066666667

  Shift w.r.t. Gamma in fractional coordinates (k-lattice)
     0.000000000  0.000000000  0.000000000

 
 Subroutine IBZKPT returns following result:
 ===========================================
 
 Found     61 irreducible k-points:
 
 Following reciprocal coordinates:
            Coordinates               Weight
  0.000000  0.000000  0.000000      1.000000
  0.090909  0.000000  0.000000      2.000000
  0.000000  0.090909  0.000000      2.000000
 -0.090909  0.090909  0.000000      2.000000
  0.181818  0.000000  0.000000      2.000000
  0.000000  0.181818  0.000000      2.000000
 -0.181818  0.181818  0.000000      2.000000
  0.272727  0.000000  0.000000      2.000000
  0.000000  0.272727  0.000000      2.000000
 -0.272727  0.272727  0.000000      2.000000
  0.363636  0.000000  0.000000      2.000000
  0.000000  0.363636  0.000000      2.000000
 -0.363636  0.363636  0.000000      2.000000
  0.454545  0.000000  0.000000      2.000000
  0.000000  0.454545  0.000000      2.000000
 -0.454545  0.454545  0.000000      2.000000
  0.090909  0.090909  0.000000      2.000000
 -0.090909  0.181818  0.000000      2.000000
 -0.181818  0.090909  0.000000      2.000000
  0.181818  0.090909  0.000000      2.000000
 -0.090909  0.272727  0.000000      2.000000
 -0.272727  0.181818  0.000000      2.000000
 -0.181818  0.272727  0.000000      2.000000
  0.090909  0.181818  0.000000      2.000000
  0.272727 -0.090909  0.000000      2.000000
  0.272727  0.090909  0.000000      2.000000
 -0.090909  0.363636  0.000000      2.000000
 -0.363636  0.272727  0.000000      2.000000
 -0.272727  0.363636  0.000000      2.000000
  0.090909  0.272727  0.000000      2.000000
  0.363636 -0.090909  0.000000      2.000000
  0.363636  0.090909  0.000000      2.000000
 -0.090909  0.454545  0.000000      2.000000
 -0.454545  0.363636  0.000000      2.000000
 -0.363636  0.454545  0.000000      2.000000
  0.090909  0.363636  0.000000      2.000000
  0.454545 -0.090909  0.000000      2.000000
  0.454545  0.090909  0.000000      2.000000
 -0.090909 -0.454545  0.000000      2.000000
  0.454545  0.454545  0.000000      2.000000
  0.181818  0.181818  0.000000      2.000000
 -0.181818  0.363636  0.000000      2.000000
 -0.363636  0.181818  0.000000      2.000000
  0.272727  0.181818  0.000000      2.000000
 -0.181818  0.454545  0.000000      2.000000
 -0.454545  0.272727  0.000000      2.000000
 -0.272727  0.454545  0.000000      2.000000
  0.181818  0.272727  0.000000      2.000000
  0.454545 -0.181818  0.000000      2.000000
  0.363636  0.181818  0.000000      2.000000
 -0.181818 -0.454545  0.000000      2.000000
  0.454545  0.363636  0.000000      2.000000
 -0.363636 -0.454545  0.000000      2.000000
  0.181818  0.363636  0.000000      2.000000
 -0.454545 -0.181818  0.000000      2.000000
  0.272727  0.272727  0.000000      2.000000
 -0.272727 -0.454545  0.000000      2.000000
  0.454545  0.272727  0.000000      2.000000
  0.363636  0.272727  0.000000      2.000000
 -0.272727 -0.363636  0.000000      2.000000
  0.363636  0.363636  0.000000      2.000000
 
 Following cartesian coordinates:
            Coordinates               Weight
  0.000000  0.000000  0.000000      1.000000
  0.010831  0.018760  0.000000      2.000000
 -0.010831  0.018760  0.000000      2.000000
 -0.021662 -0.000000  0.000000      2.000000
  0.021662  0.037519  0.000000      2.000000
 -0.021662  0.037519  0.000000      2.000000
 -0.043323  0.000000  0.000000      2.000000
  0.032493  0.056279  0.000000      2.000000
 -0.032493  0.056279  0.000000      2.000000
 -0.064985 -0.000000  0.000000      2.000000
  0.043323  0.075038  0.000000      2.000000
 -0.043323  0.075038  0.000000      2.000000
 -0.086647 -0.000000  0.000000      2.000000
  0.054154  0.093798  0.000000      2.000000
 -0.054154  0.093798  0.000000      2.000000
 -0.108309  0.000000  0.000000      2.000000
  0.000000  0.037519  0.000000      2.000000
 -0.032493  0.018760  0.000000      2.000000
 -0.032493 -0.018760  0.000000      2.000000
  0.010831  0.056279  0.000000      2.000000
 -0.043323  0.037519  0.000000      2.000000
 -0.054154 -0.018760  0.000000      2.000000
 -0.054154  0.018760  0.000000      2.000000
 -0.010831  0.056279  0.000000      2.000000
  0.043323  0.037519  0.000000      2.000000
  0.021662  0.075038  0.000000      2.000000
 -0.054154  0.056279  0.000000      2.000000
 -0.075816 -0.018760  0.000000      2.000000
 -0.075816  0.018760  0.000000      2.000000
 -0.021662  0.075038  0.000000      2.000000
  0.054154  0.056279  0.000000      2.000000
  0.032493  0.093798  0.000000      2.000000
 -0.064985  0.075038  0.000000      2.000000
 -0.097478 -0.018760  0.000000      2.000000
 -0.097478  0.018760  0.000000      2.000000
 -0.032493  0.093798  0.000000      2.000000
  0.064985  0.075038  0.000000      2.000000
  0.043323  0.112558  0.000000      2.000000
  0.043323 -0.112558  0.000000      2.000000
 -0.000000  0.187596  0.000000      2.000000
  0.000000  0.075038  0.000000      2.000000
 -0.064985  0.037519  0.000000      2.000000
 -0.064985 -0.037519  0.000000      2.000000
  0.010831  0.093798  0.000000      2.000000
 -0.075816  0.056279  0.000000      2.000000
 -0.086647 -0.037519  0.000000      2.000000
 -0.086647  0.037519  0.000000      2.000000
 -0.010831  0.093798  0.000000      2.000000
  0.075816  0.056279  0.000000      2.000000
  0.021662  0.112558  0.000000      2.000000
  0.032493 -0.131317  0.000000      2.000000
  0.010831  0.168837  0.000000      2.000000
  0.010831 -0.168837  0.000000      2.000000
 -0.021662  0.112558  0.000000      2.000000
 -0.032493 -0.131317  0.000000      2.000000
 -0.000000  0.112558  0.000000      2.000000
  0.021662 -0.150077  0.000000      2.000000
  0.021662  0.150077  0.000000      2.000000
  0.010831  0.131317  0.000000      2.000000
  0.010831 -0.131317  0.000000      2.000000
 -0.000000  0.150077  0.000000      2.000000
 


--------------------------------------------------------------------------------------------------------




 Dimension of arrays:
   k-points           NKPTS =     61   k-points in BZ     NKDIM =     61   number of bands    NBANDS=     48
   number of dos      NEDOS =    301   number of ions     NIONS =     15
   non local maximal  LDIM  =      4   non local SUM 2l+1 LMDIM =      8
   total plane-waves  NPLWV = 139968
   max r-space proj   IRMAX =      1   max aug-charges    IRDMAX=   7354
   dimension x,y,z NGX =    36 NGY =   36 NGZ =  108
   dimension x,y,z NGXF=    72 NGYF=   72 NGZF=  216
   support grid    NGXF=    72 NGYF=   72 NGZF=  216
   ions per type =               4  11
   NGX,Y,Z   is equivalent  to a cutoff of  12.35, 12.35, 11.97 a.u.
   NGXF,Y,Z  is equivalent  to a cutoff of  24.70, 24.70, 23.94 a.u.

 SYSTEM =  SC                                      
 POSCAR =  Graphene-B4C3 Bridge with lattice parame

 Startparameter for this run:
   NWRITE =      2    write-flag & timer
   PREC   = accura    normal or accurate (medium, high low for compatibility)
   ISTART =      0    job   : 0-new  1-cont  2-samecut
   ICHARG =      2    charge: 1-file 2-atom 10-const
   ISPIN  =      1    spin polarized calculation?
   LNONCOLLINEAR =      F non collinear calculations
   LSORBIT =      F    spin-orbit coupling
   INIWAV =      1    electr: 0-lowe 1-rand  2-diag
   LASPH  =      F    aspherical Exc in radial PAW
 Electronic Relaxation 1
   ENCUT  =  450.0 eV  33.07 Ry    5.75 a.u.   8.38  8.38 25.95*2*pi/ulx,y,z
   ENINI  =  450.0     initial cutoff
   ENAUG  =  644.9 eV  augmentation charge cutoff
   NELM   =     64;   NELMIN=  2; NELMDL= -5     # of ELM steps 
   EDIFF  = 0.1E-05   stopping-criterion for ELM
   LREAL  =      F    real-space projection
   NLSPLINE    = F    spline interpolate recip. space projectors
   LCOMPAT=      F    compatible to vasp.4.4
   GGA_COMPAT  = T    GGA compatible to vasp.4.4-vasp.4.6
   LMAXPAW     = -100 max onsite density
   LMAXMIX     =    2 max onsite mixed and CHGCAR
   VOSKOWN=      0    Vosko Wilk Nusair interpolation
   ROPT   =    0.00000   0.00000
 Ionic relaxation
   EDIFFG = -.1E-02   stopping-criterion for IOM
   NSW    =      0    number of steps for IOM
   NBLOCK =      1;   KBLOCK =      1    inner block; outer block 
   IBRION =     -1    ionic relax: 0-MD 1-quasi-New 2-CG
   NFREE  =      0    steps in history (QN), initial steepest desc. (CG)
   ISIF   =      2    stress and relaxation
   IWAVPR =     10    prediction:  0-non 1-charg 2-wave 3-comb
   ISYM   =      2    0-nonsym 1-usesym 2-fastsym
   LCORR  =      T    Harris-Foulkes like correction to forces

   POTIM  = 0.5000    time-step for ionic-motion
   TEIN   =    0.0    initial temperature
   TEBEG  =    0.0;   TEEND  =   0.0 temperature during run
   SMASS  =  -3.00    Nose mass-parameter (am)
   estimated Nose-frequenzy (Omega)   =  0.10E-29 period in steps = 0.13E+47 mass=  -0.537E-27a.u.
   SCALEE = 1.0000    scale energy and forces
   NPACO  =    256;   APACO  = 10.0  distance and # of slots for P.C.
   PSTRESS=    0.0 pullay stress

  Mass of Ions in am
   POMASS =  10.81 12.01
  Ionic Valenz
   ZVAL   =   3.00  4.00
  Atomic Wigner-Seitz radii
   RWIGS  =  -1.00 -1.00
  virtual crystal weights 
   VCA    =   1.00  1.00
   NELECT =      56.0000    total number of electrons
   NUPDOWN=      -1.0000    fix difference up-down

 DOS related values:
   EMIN   =  10.00;   EMAX   =-10.00  energy-range for DOS
   EFERMI =   0.00
   ISMEAR =     0;   SIGMA  =   0.10  broadening in eV -4-tet -1-fermi 0-gaus

 Electronic relaxation 2 (details)
   IALGO  =     38    algorithm
   LDIAG  =      T    sub-space diagonalisation (order eigenvalues)
   LSUBROT=      F    optimize rotation matrix (better conditioning)
   TURBO    =      0    0=normal 1=particle mesh
   IRESTART =      0    0=no restart 2=restart with 2 vectors
   NREBOOT  =      0    no. of reboots
   NMIN     =      0    reboot dimension
   EREF     =   0.00    reference energy to select bands
   IMIX   =      4    mixing-type and parameters
     AMIX     =   0.40;   BMIX     =  1.00
     AMIX_MAG =   1.60;   BMIX_MAG =  1.00
     AMIN     =   0.10
     WC   =   100.;   INIMIX=   1;  MIXPRE=   1;  MAXMIX= -45

 Intra band minimization:
   WEIMIN = 0.0000     energy-eigenvalue tresh-hold
   EBREAK =  0.52E-08  absolut break condition
   DEPER  =   0.30     relativ break condition  

   TIME   =   0.40     timestep for ELM

  volume/ion in A,a.u.               =      20.34       137.24
  Fermi-wavevector in a.u.,A,eV,Ry     =   0.930411  1.758221 11.778070  0.865664
  Thomas-Fermi vector in A             =   2.056796
 
 Write flags
   LWAVE        =      T    write WAVECAR
   LDOWNSAMPLE  =      F    k-point downsampling of WAVECAR
   LCHARG       =      T    write CHGCAR
   LVTOT        =      F    write LOCPOT, total local potential
   LVHAR        =      F    write LOCPOT, Hartree potential only
   LELF         =      F    write electronic localiz. function (ELF)
   LORBIT       =      0    0 simple, 1 ext, 2 COOP (PROOUT), +10 PAW based schemes


 Dipole corrections
   LMONO  =      F    monopole corrections only (constant potential shift)
   LDIPOL =      F    correct potential (dipole corrections)
   IDIPOL =      0    1-x, 2-y, 3-z, 4-all directions 
   EPSILON=  1.0000000 bulk dielectric constant

 Exchange correlation treatment:
   GGA     =    PE    GGA type
   LEXCH   =     8    internal setting for exchange type
   LIBXC   =     F    Libxc                    
   VOSKOWN =     0    Vosko Wilk Nusair interpolation
   LHFCALC =     F    Hartree Fock is set to
   LHFONE  =     F    Hartree Fock one center treatment
   AEXX    =    0.0000 exact exchange contribution

 Linear response parameters
   LEPSILON=     F    determine dielectric tensor
   LRPA    =     F    only Hartree local field effects (RPA)
   LNABLA  =     F    use nabla operator in PAW spheres
   LVEL    =     F    velocity operator in full k-point grid
   CSHIFT  =0.1000    complex shift for real part using Kramers Kronig
   OMEGAMAX=  -1.0    maximum frequency
   DEG_THRESHOLD= 0.2000000E-02 threshold for treating states as degnerate
   RTIME   =   -0.100 relaxation time in fs
  (WPLASMAI=    0.000 imaginary part of plasma frequency in eV, 0.658/RTIME)
   DFIELD  = 0.0000000 0.0000000 0.0000000 field for delta impulse in time
 
  Optional k-point grid parameters
   LKPOINTS_OPT  =     F    use optional k-point grid
   KPOINTS_OPT_MODE=     1    mode for optional k-point grid
 
 Orbital magnetization related:
   ORBITALMAG=     F  switch on orbital magnetization
   LCHIMAG   =     F  perturbation theory with respect to B field
   DQ        =  0.001000  dq finite difference perturbation B field
   LLRAUG    =     F  two centre corrections for induced B field



--------------------------------------------------------------------------------------------------------


 Static calculation
 charge density and potential will be updated during run
 non-spin polarized calculation
 Variant of blocked Davidson
 Davidson routine will perform the subspace rotation
 perform sub-space diagonalisation
    after iterative eigenvector-optimisation
 modified Broyden-mixing scheme, WC =      100.0
 initial mixing is a Kerker type mixing with AMIX =  0.4000 and BMIX =      1.0000
 Hartree-type preconditioning will be used
 using additional bands           20
 reciprocal scheme for non local part
 use partial core corrections
 calculate Harris-corrections to forces 
   (improved forces if not selfconsistent)
 use gradient corrections 
 use of overlap-Matrix (Vanderbilt PP)
 Gauss-broadening in eV      SIGMA  =   0.10


--------------------------------------------------------------------------------------------------------


  energy-cutoff  :      450.00
  volume of cell :      305.06
      direct lattice vectors                 reciprocal lattice vectors
     4.196759107  2.423000000  0.000000000     0.119139552  0.206355757  0.000000000
    -4.196759107  2.423000000  0.000000000    -0.119139552  0.206355757  0.000000000
     0.000000000  0.000000000 15.000000000     0.000000000  0.000000000  0.066666667

  length of vectors
     4.846000000  4.846000000 15.000000000     0.238279104  0.238279104  0.066666667


 
 k-points in units of 2pi/SCALE and weight: k-points                                
   0.00000000  0.00000000  0.00000000       0.008
   0.01083087  0.01875961  0.00000000       0.017
  -0.01083087  0.01875961  0.00000000       0.017
  -0.02166174 -0.00000000  0.00000000       0.017
   0.02166174  0.03751923  0.00000000       0.017
  -0.02166174  0.03751923  0.00000000       0.017
  -0.04332347  0.00000000  0.00000000       0.017
   0.03249261  0.05627884  0.00000000       0.017
  -0.03249261  0.05627884  0.00000000       0.017
  -0.06498521 -0.00000000  0.00000000       0.017
   0.04332347  0.07503846  0.00000000       0.017
  -0.04332347  0.07503846  0.00000000       0.017
  -0.08664695 -0.00000000  0.00000000       0.017
   0.05415434  0.09379807  0.00000000       0.017
  -0.05415434  0.09379807  0.00000000       0.017
  -0.10830868  0.00000000  0.00000000       0.017
   0.00000000  0.03751923  0.00000000       0.017
  -0.03249261  0.01875961  0.00000000       0.017
  -0.03249261 -0.01875961  0.00000000       0.017
   0.01083087  0.05627884  0.00000000       0.017
  -0.04332347  0.03751923  0.00000000       0.017
  -0.05415434 -0.01875961  0.00000000       0.017
  -0.05415434  0.01875961  0.00000000       0.017
  -0.01083087  0.05627884  0.00000000       0.017
   0.04332347  0.03751923  0.00000000       0.017
   0.02166174  0.07503846  0.00000000       0.017
  -0.05415434  0.05627884  0.00000000       0.017
  -0.07581608 -0.01875961  0.00000000       0.017
  -0.07581608  0.01875961  0.00000000       0.017
  -0.02166174  0.07503846  0.00000000       0.017
   0.05415434  0.05627884  0.00000000       0.017
   0.03249261  0.09379807  0.00000000       0.017
  -0.06498521  0.07503846  0.00000000       0.017
  -0.09747782 -0.01875961  0.00000000       0.017
  -0.09747782  0.01875961  0.00000000       0.017
  -0.03249261  0.09379807  0.00000000       0.017
   0.06498521  0.07503846  0.00000000       0.017
   0.04332347  0.11255769  0.00000000       0.017
   0.04332347 -0.11255769  0.00000000       0.017
  -0.00000000  0.18759614  0.00000000       0.017
   0.00000000  0.07503846  0.00000000       0.017
  -0.06498521  0.03751923  0.00000000       0.017
  -0.06498521 -0.03751923  0.00000000       0.017
   0.01083087  0.09379807  0.00000000       0.017
  -0.07581608  0.05627884  0.00000000       0.017
  -0.08664695 -0.03751923  0.00000000       0.017
  -0.08664695  0.03751923  0.00000000       0.017
  -0.01083087  0.09379807  0.00000000       0.017
   0.07581608  0.05627884  0.00000000       0.017
   0.02166174  0.11255769  0.00000000       0.017
   0.03249261 -0.13131730  0.00000000       0.017
   0.01083087  0.16883653  0.00000000       0.017
   0.01083087 -0.16883653  0.00000000       0.017
  -0.02166174  0.11255769  0.00000000       0.017
  -0.03249261 -0.13131730  0.00000000       0.017
  -0.00000000  0.11255769  0.00000000       0.017
   0.02166174 -0.15007691  0.00000000       0.017
   0.02166174  0.15007691  0.00000000       0.017
   0.01083087  0.13131730  0.00000000       0.017
   0.01083087 -0.13131730  0.00000000       0.017
  -0.00000000  0.15007691  0.00000000       0.017
 
 k-points in reciprocal lattice and weights: k-points                                
   0.00000000  0.00000000  0.00000000       0.008
   0.09090909  0.00000000  0.00000000       0.017
   0.00000000  0.09090909  0.00000000       0.017
  -0.09090909  0.09090909  0.00000000       0.017
   0.18181818  0.00000000  0.00000000       0.017
   0.00000000  0.18181818  0.00000000       0.017
  -0.18181818  0.18181818  0.00000000       0.017
   0.27272727  0.00000000  0.00000000       0.017
   0.00000000  0.27272727  0.00000000       0.017
  -0.27272727  0.27272727  0.00000000       0.017
   0.36363636  0.00000000  0.00000000       0.017
   0.00000000  0.36363636  0.00000000       0.017
  -0.36363636  0.36363636  0.00000000       0.017
   0.45454545  0.00000000  0.00000000       0.017
   0.00000000  0.45454545  0.00000000       0.017
  -0.45454545  0.45454545  0.00000000       0.017
   0.09090909  0.09090909  0.00000000       0.017
  -0.09090909  0.18181818  0.00000000       0.017
  -0.18181818  0.09090909  0.00000000       0.017
   0.18181818  0.09090909  0.00000000       0.017
  -0.09090909  0.27272727  0.00000000       0.017
  -0.27272727  0.18181818  0.00000000       0.017
  -0.18181818  0.27272727  0.00000000       0.017
   0.09090909  0.18181818  0.00000000       0.017
   0.27272727 -0.09090909  0.00000000       0.017
   0.27272727  0.09090909  0.00000000       0.017
  -0.09090909  0.36363636  0.00000000       0.017
  -0.36363636  0.27272727  0.00000000       0.017
  -0.27272727  0.36363636  0.00000000       0.017
   0.09090909  0.27272727  0.00000000       0.017
   0.36363636 -0.09090909  0.00000000       0.017
   0.36363636  0.09090909  0.00000000       0.017
  -0.09090909  0.45454545  0.00000000       0.017
  -0.45454545  0.36363636  0.00000000       0.017
  -0.36363636  0.45454545  0.00000000       0.017
   0.09090909  0.36363636  0.00000000       0.017
   0.45454545 -0.09090909  0.00000000       0.017
   0.45454545  0.09090909  0.00000000       0.017
  -0.09090909 -0.45454545  0.00000000       0.017
   0.45454545  0.45454545  0.00000000       0.017
   0.18181818  0.18181818  0.00000000       0.017
  -0.18181818  0.36363636  0.00000000       0.017
  -0.36363636  0.18181818  0.00000000       0.017
   0.27272727  0.18181818  0.00000000       0.017
  -0.18181818  0.45454545  0.00000000       0.017
  -0.45454545  0.27272727  0.00000000       0.017
  -0.27272727  0.45454545  0.00000000       0.017
   0.18181818  0.27272727  0.00000000       0.017
   0.45454545 -0.18181818  0.00000000       0.017
   0.36363636  0.18181818  0.00000000       0.017
  -0.18181818 -0.45454545  0.00000000       0.017
   0.45454545  0.36363636  0.00000000       0.017
  -0.36363636 -0.45454545  0.00000000       0.017
   0.18181818  0.36363636  0.00000000       0.017
  -0.45454545 -0.18181818  0.00000000       0.017
   0.27272727  0.27272727  0.00000000       0.017
  -0.27272727 -0.45454545  0.00000000       0.017
   0.45454545  0.27272727  0.00000000       0.017
   0.36363636  0.27272727  0.00000000       0.017
  -0.27272727 -0.36363636  0.00000000       0.017
   0.36363636  0.36363636  0.00000000       0.017
 
 position of ions in fractional coordinates (direct lattice) 
   0.02260906  0.98524378  0.10373643
   0.37779893  0.98541435  0.09972662
   0.02245362  0.34018693  0.09947486
   0.66756838  0.63013438  0.09956289
   0.34614731  0.30867383  0.09984967
   0.69922870  0.98536935  0.10010803
   0.02257913  0.66173720  0.09987801
   0.06744751  0.43210119  0.33607410
   0.23394006  0.26525689  0.33609482
   0.06712955  0.93204039  0.33604408
   0.23388073  0.76541476  0.33609089
   0.56702767  0.43214633  0.33608625
   0.73374294  0.26524017  0.33604386
   0.56710061  0.93186924  0.33615400
   0.73397313  0.76527186  0.33605483
 
 position of ions in cartesian coordinates  (Angst):
  -4.03994604  2.44202743  1.55604651
  -2.55001555  3.30306578  1.49589925
  -1.33345016  0.87867807  1.49212291
   0.15710146  3.14433379  1.49344329
   0.15726717  1.58663164  1.49774499
  -1.20086337  4.08178108  1.50162042
  -2.68239248  1.65809847  1.49817022
  -1.53036364  1.21040650  5.04111154
  -0.13142917  1.20955421  5.04142233
  -3.62982243  2.42098877  5.04066113
  -2.23072030  2.42129298  5.04136331
   0.56606449  2.42099860  5.04129377
   1.96619324  2.42053607  5.04065793
  -1.53084607  3.63200393  5.04230996
  -0.13135321  3.63267062  5.04082246
 


--------------------------------------------------------------------------------------------------------


 k-point   1 :   0.0000 0.0000 0.0000  plane waves:    6645
 k-point   2 :   0.0909 0.0000 0.0000  plane waves:    6635
 k-point   3 :   0.0000 0.0909 0.0000  plane waves:    6635
 k-point   4 :  -0.0909 0.0909 0.0000  plane waves:    6635
 k-point   5 :   0.1818 0.0000 0.0000  plane waves:    6647
 k-point   6 :   0.0000 0.1818 0.0000  plane waves:    6647
 k-point   7 :  -0.1818 0.1818 0.0000  plane waves:    6647
 k-point   8 :   0.2727 0.0000 0.0000  plane waves:    6604
 k-point   9 :   0.0000 0.2727 0.0000  plane waves:    6604
 k-point  10 :  -0.2727 0.2727 0.0000  plane waves:    6604
 k-point  11 :   0.3636 0.0000 0.0000  plane waves:    6598
 k-point  12 :   0.0000 0.3636 0.0000  plane waves:    6598
 k-point  13 :  -0.3636 0.3636 0.0000  plane waves:    6598
 k-point  14 :   0.4545 0.0000 0.0000  plane waves:    6586
 k-point  15 :   0.0000 0.4545 0.0000  plane waves:    6586
 k-point  16 :  -0.4545 0.4545 0.0000  plane waves:    6586
 k-point  17 :   0.0909 0.0909 0.0000  plane waves:    6641
 k-point  18 :  -0.0909 0.1818 0.0000  plane waves:    6641
 k-point  19 :  -0.1818 0.0909 0.0000  plane waves:    6641
 k-point  20 :   0.1818 0.0909 0.0000  plane waves:    6626
 k-point  21 :  -0.0909 0.2727 0.0000  plane waves:    6626
 k-point  22 :  -0.2727 0.1818 0.0000  plane waves:    6626
 k-point  23 :  -0.1818 0.2727 0.0000  plane waves:    6626
 k-point  24 :   0.0909 0.1818 0.0000  plane waves:    6626
 k-point  25 :   0.2727-0.0909 0.0000  plane waves:    6626
 k-point  26 :   0.2727 0.0909 0.0000  plane waves:    6620
 k-point  27 :  -0.0909 0.3636 0.0000  plane waves:    6620
 k-point  28 :  -0.3636 0.2727 0.0000  plane waves:    6620
 k-point  29 :  -0.2727 0.3636 0.0000  plane waves:    6620
 k-point  30 :   0.0909 0.2727 0.0000  plane waves:    6620
 k-point  31 :   0.3636-0.0909 0.0000  plane waves:    6620
 k-point  32 :   0.3636 0.0909 0.0000  plane waves:    6599
 k-point  33 :  -0.0909 0.4545 0.0000  plane waves:    6599
 k-point  34 :  -0.4545 0.3636 0.0000  plane waves:    6599
 k-point  35 :  -0.3636 0.4545 0.0000  plane waves:    6599
 k-point  36 :   0.0909 0.3636 0.0000  plane waves:    6599
 k-point  37 :   0.4545-0.0909 0.0000  plane waves:    6599
 k-point  38 :   0.4545 0.0909 0.0000  plane waves:    6596
 k-point  39 :  -0.0909-0.4545 0.0000  plane waves:    6596
 k-point  40 :   0.4545 0.4545 0.0000  plane waves:    6596
 k-point  41 :   0.1818 0.1818 0.0000  plane waves:    6591
 k-point  42 :  -0.1818 0.3636 0.0000  plane waves:    6591
 k-point  43 :  -0.3636 0.1818 0.0000  plane waves:    6591
 k-point  44 :   0.2727 0.1818 0.0000  plane waves:    6616
 k-point  45 :  -0.1818 0.4545 0.0000  plane waves:    6616
 k-point  46 :  -0.4545 0.2727 0.0000  plane waves:    6616
 k-point  47 :  -0.2727 0.4545 0.0000  plane waves:    6616
 k-point  48 :   0.1818 0.2727 0.0000  plane waves:    6616
 k-point  49 :   0.4545-0.1818 0.0000  plane waves:    6616
 k-point  50 :   0.3636 0.1818 0.0000  plane waves:    6609
 k-point  51 :  -0.1818-0.4545 0.0000  plane waves:    6609
 k-point  52 :   0.4545 0.3636 0.0000  plane waves:    6609
 k-point  53 :  -0.3636-0.4545 0.0000  plane waves:    6609
 k-point  54 :   0.1818 0.3636 0.0000  plane waves:    6609
 k-point  55 :  -0.4545-0.1818 0.0000  plane waves:    6609
 k-point  56 :   0.2727 0.2727 0.0000  plane waves:    6594
 k-point  57 :  -0.2727-0.4545 0.0000  plane waves:    6594
 k-point  58 :   0.4545 0.2727 0.0000  plane waves:    6594
 k-point  59 :   0.3636 0.2727 0.0000  plane waves:    6604
 k-point  60 :  -0.2727-0.3636 0.0000  plane waves:    6604
 k-point  61 :   0.3636 0.3636 0.0000  plane waves:    6604

 maximum and minimum number of plane-waves per node :      6647     6586

 maximum number of plane-waves:      6647
 maximum index in each direction: 
   IXMAX=    8   IYMAX=    8   IZMAX=   25
   IXMIN=   -8   IYMIN=   -8   IZMIN=  -25


 serial   3D FFT for wavefunctions
 parallel 3D FFT for charge:
    minimum data exchange during FFTs selected (reduces bandwidth)


 total amount of memory used by VASP MPI-rank0    99326. kBytes
=======================================================================

   base      :      30000. kBytes
   nonl-proj :      53696. kBytes
   fftplans  :       1560. kBytes
   grid      :       7372. kBytes
   one-center:         46. kBytes
   wavefun   :       6652. kBytes
 
     INWAV:  cpu time      0.0000: real time      0.0000
 Broyden mixing: mesh for mixing (old mesh)
   NGX = 17   NGY = 17   NGZ = 51
  (NGX  = 72   NGY  = 72   NGZ  =216)
  gives a total of  14739 points

 initial charge density was supplied:
 charge density of overlapping atoms calculated
 number of electron      56.0000000 magnetization 
 keeping initial charge density in first step


--------------------------------------------------------------------------------------------------------


 Maximum index for augmentation-charges          396 (set IRDMAX)


--------------------------------------------------------------------------------------------------------


 First call to EWALD:  gamma=   0.263
 Maximum number of real-space cells 4x 4x 2
 Maximum number of reciprocal cells 2x 2x 6

    FEWALD:  cpu time      0.0022: real time      0.0029


--------------------------------------- Iteration      1(   1)  ---------------------------------------


    POTLOK:  cpu time      0.0206: real time      0.0236
    SETDIJ:  cpu time      0.0022: real time      0.0022
     EDDAV:  cpu time      2.2814: real time      2.3221
       DOS:  cpu time      0.0017: real time      0.0020
    --------------------------------------------
      LOOP:  cpu time      2.3059: real time      2.3499

 eigenvalue-minimisations  :  5856
 total energy-change (2. order) : 0.1969334E+03  (-0.2591035E+04)
 number of electron      56.0000000 magnetization 
 augmentation part       56.0000000 magnetization 

 Free energy of the ion-electron system (eV)
  ---------------------------------------------------
  alpha Z        PSCENC =        58.30706670
  Ewald energy   TEWEN  =      4689.19854921
  -Hartree energ DENC   =     -6242.20080946
  -exchange      EXHF   =         0.00000000
  -V(xc)+E(xc)   XCENC  =       172.76128687
  PAW double counting   =      1367.74197220    -1370.58415631
  entropy T*S    EENTRO =        -0.02195530
  eigenvalues    EBANDS =      -381.53193987
  atomic energy  EATOM  =      1903.26342058
  Solvation  Ediel_sol  =         0.00000000
  ---------------------------------------------------
  free energy    TOTEN  =       196.93343462 eV

  energy without entropy =      196.95538992  energy(sigma->0) =      196.94441227


--------------------------------------------------------------------------------------------------------




--------------------------------------- Iteration      1(   2)  ---------------------------------------


     EDDAV:  cpu time      3.3646: real time      3.4089
       DOS:  cpu time      0.0007: real time      0.0007
    --------------------------------------------
      LOOP:  cpu time      3.3653: real time      3.4096

 eigenvalue-minimisations  :  8544
 total energy-change (2. order) :-0.3202108E+03  (-0.3187732E+03)
 number of electron      56.0000000 magnetization 
 augmentation part       56.0000000 magnetization 

 Free energy of the ion-electron system (eV)
  ---------------------------------------------------
  alpha Z        PSCENC =        58.30706670
  Ewald energy   TEWEN  =      4689.19854921
  -Hartree energ DENC   =     -6242.20080946
  -exchange      EXHF   =         0.00000000
  -V(xc)+E(xc)   XCENC  =       172.76128687
  PAW double counting   =      1367.74197220    -1370.58415631
  entropy T*S    EENTRO =        -0.00012842
  eigenvalues    EBANDS =      -701.76460953
  atomic energy  EATOM  =      1903.26342058
  Solvation  Ediel_sol  =         0.00000000
  ---------------------------------------------------
  free energy    TOTEN  =      -123.27740816 eV

  energy without entropy =     -123.27727974  energy(sigma->0) =     -123.27734395


--------------------------------------------------------------------------------------------------------




--------------------------------------- Iteration      1(   3)  ---------------------------------------


     EDDAV:  cpu time      4.5866: real time      4.6293
       DOS:  cpu time      0.0005: real time      0.0005
    --------------------------------------------
      LOOP:  cpu time      4.5871: real time      4.6298

 eigenvalue-minimisations  : 10848
 total energy-change (2. order) :-0.1236324E+02  (-0.1236296E+02)
 number of electron      56.0000000 magnetization 
 augmentation part       56.0000000 magnetization 

 Free energy of the ion-electron system (eV)
  ---------------------------------------------------
  alpha Z        PSCENC =        58.30706670
  Ewald energy   TEWEN  =      4689.19854921
  -Hartree energ DENC   =     -6242.20080946
  -exchange      EXHF   =         0.00000000
  -V(xc)+E(xc)   XCENC  =       172.76128687
  PAW double counting   =      1367.74197220    -1370.58415631
  entropy T*S    EENTRO =        -0.00000000
  eigenvalues    EBANDS =      -714.12797829
  atomic energy  EATOM  =      1903.26342058
  Solvation  Ediel_sol  =         0.00000000
  ---------------------------------------------------
  free energy    TOTEN  =      -135.64064851 eV

  energy without entropy =     -135.64064851  energy(sigma->0) =     -135.64064851


--------------------------------------------------------------------------------------------------------




--------------------------------------- Iteration      1(   4)  ---------------------------------------


     EDDAV:  cpu time      3.2955: real time      3.3305
       DOS:  cpu time      0.0006: real time      0.0006
    --------------------------------------------
      LOOP:  cpu time      3.2961: real time      3.3311

 eigenvalue-minimisations  :  8112
 total energy-change (2. order) :-0.2674726E-01  (-0.2674726E-01)
 number of electron      56.0000000 magnetization 
 augmentation part       56.0000000 magnetization 

 Free energy of the ion-electron system (eV)
  ---------------------------------------------------
  alpha Z        PSCENC =        58.30706670
  Ewald energy   TEWEN  =      4689.19854921
  -Hartree energ DENC   =     -6242.20080946
  -exchange      EXHF   =         0.00000000
  -V(xc)+E(xc)   XCENC  =       172.76128687
  PAW double counting   =      1367.74197220    -1370.58415631
  entropy T*S    EENTRO =        -0.00000000
  eigenvalues    EBANDS =      -714.15472555
  atomic energy  EATOM  =      1903.26342058
  Solvation  Ediel_sol  =         0.00000000
  ---------------------------------------------------
  free energy    TOTEN  =      -135.66739577 eV

  energy without entropy =     -135.66739577  energy(sigma->0) =     -135.66739577


--------------------------------------------------------------------------------------------------------




--------------------------------------- Iteration      1(   5)  ---------------------------------------


     EDDAV:  cpu time      4.4466: real time      4.4765
       DOS:  cpu time      0.0005: real time      0.0005
    CHARGE:  cpu time      0.1127: real time      0.1186
    MIXING:  cpu time      0.0019: real time      0.0022
    --------------------------------------------
      LOOP:  cpu time      4.5617: real time      4.5979

 eigenvalue-minimisations  : 10560
 total energy-change (2. order) :-0.6192230E-04  (-0.6192243E-04)
 number of electron      56.0000000 magnetization 
 augmentation part        1.2117900 magnetization 

 Broyden mixing:
  rms(total) = 0.17327E+01    rms(broyden)= 0.17324E+01
  rms(prec ) = 0.19712E+01
  weight for this iteration     100.00

 Free energy of the ion-electron system (eV)
  ---------------------------------------------------
  alpha Z        PSCENC =        58.30706670
  Ewald energy   TEWEN  =      4689.19854921
  -Hartree energ DENC   =     -6242.20080946
  -exchange      EXHF   =         0.00000000
  -V(xc)+E(xc)   XCENC  =       172.76128687
  PAW double counting   =      1367.74197220    -1370.58415631
  entropy T*S    EENTRO =        -0.00000000
  eigenvalues    EBANDS =      -714.15478748
  atomic energy  EATOM  =      1903.26342058
  Solvation  Ediel_sol  =         0.00000000
  ---------------------------------------------------
  free energy    TOTEN  =      -135.66745769 eV

  energy without entropy =     -135.66745769  energy(sigma->0) =     -135.66745769


--------------------------------------------------------------------------------------------------------




--------------------------------------- Iteration      1(   6)  ---------------------------------------


    POTLOK:  cpu time      0.0167: real time      0.0188
    SETDIJ:  cpu time      0.0013: real time      0.0013
     EDDAV:  cpu time      4.5000: real time      4.5343
       DOS:  cpu time      0.0007: real time      0.0007
    CHARGE:  cpu time      0.1098: real time      0.1138
    MIXING:  cpu time      0.0008: real time      0.0010
    --------------------------------------------
      LOOP:  cpu time      4.6293: real time      4.6699

 eigenvalue-minimisations  : 10752
 total energy-change (2. order) : 0.7782475E+01  (-0.1571129E+01)
 number of electron      56.0000000 magnetization 
 augmentation part        1.1053676 magnetization 

 Broyden mixing:
  rms(total) = 0.96244E+00    rms(broyden)= 0.96235E+00
  rms(prec ) = 0.10589E+01
  weight for this iteration     100.00

 eigenvalues of (default mixing * dielectric matrix)
  average eigenvalue GAMMA=   1.6041
  1.6041

 Free energy of the ion-electron system (eV)
  ---------------------------------------------------
  alpha Z        PSCENC =        58.30706670
  Ewald energy   TEWEN  =      4689.19854921
  -Hartree energ DENC   =     -6317.53249682
  -exchange      EXHF   =         0.00000000
  -V(xc)+E(xc)   XCENC  =       176.43793303
  PAW double counting   =      2669.09016305    -2672.99910560
  entropy T*S    EENTRO =        -0.00000013
  eigenvalues    EBANDS =      -633.65051237
  atomic energy  EATOM  =      1903.26342058
  Solvation  Ediel_sol  =         0.00000000
  ---------------------------------------------------
  free energy    TOTEN  =      -127.88498236 eV

  energy without entropy =     -127.88498224  energy(sigma->0) =     -127.88498230


--------------------------------------------------------------------------------------------------------




--------------------------------------- Iteration      1(   7)  ---------------------------------------


    POTLOK:  cpu time      0.0188: real time      0.0232
    SETDIJ:  cpu time      0.0013: real time      0.0013
     EDDAV:  cpu time      4.8855: real time      4.9189
       DOS:  cpu time      0.0006: real time      0.0006
    CHARGE:  cpu time      0.1151: real time      0.1171
    MIXING:  cpu time      0.0010: real time      0.0013
    --------------------------------------------
      LOOP:  cpu time      5.0221: real time      5.0624

 eigenvalue-minimisations  : 11568
 total energy-change (2. order) : 0.2113240E+01  (-0.4084595E+00)
 number of electron      56.0000000 magnetization 
 augmentation part        1.0533558 magnetization 

 Broyden mixing:
  rms(total) = 0.38372E+00    rms(broyden)= 0.38364E+00
  rms(prec ) = 0.41092E+00
  weight for this iteration     100.00

 eigenvalues of (default mixing * dielectric matrix)
  average eigenvalue GAMMA=   1.7367
  1.1129  2.3605

 Free energy of the ion-electron system (eV)
  ---------------------------------------------------
  alpha Z        PSCENC =        58.30706670
  Ewald energy   TEWEN  =      4689.19854921
  -Hartree energ DENC   =     -6380.91828500
  -exchange      EXHF   =         0.00000000
  -V(xc)+E(xc)   XCENC  =       179.23230152
  PAW double counting   =      4440.31598514    -4444.81859847
  entropy T*S    EENTRO =        -0.00000000
  eigenvalues    EBANDS =      -570.35218244
  atomic energy  EATOM  =      1903.26342058
  Solvation  Ediel_sol  =         0.00000000
  ---------------------------------------------------
  free energy    TOTEN  =      -125.77174276 eV

  energy without entropy =     -125.77174276  energy(sigma->0) =     -125.77174276


--------------------------------------------------------------------------------------------------------




--------------------------------------- Iteration      1(   8)  ---------------------------------------


    POTLOK:  cpu time      0.0155: real time      0.0165
    SETDIJ:  cpu time      0.0013: real time      0.0013
     EDDAV:  cpu time      4.9411: real time      4.9743
       DOS:  cpu time      0.0006: real time      0.0006
    CHARGE:  cpu time      0.1046: real time      0.1131
    MIXING:  cpu time      0.0007: real time      0.0008
    --------------------------------------------
      LOOP:  cpu time      5.0638: real time      5.1066

 eigenvalue-minimisations  : 11664
 total energy-change (2. order) : 0.1822376E+00  (-0.6526420E-01)
 number of electron      56.0000000 magnetization 
 augmentation part        1.0347383 magnetization 

 Broyden mixing:
  rms(total) = 0.10220E+00    rms(broyden)= 0.10215E+00
  rms(prec ) = 0.12217E+00
  weight for this iteration     100.00

 eigenvalues of (default mixing * dielectric matrix)
  average eigenvalue GAMMA=   1.7718
  1.0394  2.2325  2.0434

 Free energy of the ion-electron system (eV)
  ---------------------------------------------------
  alpha Z        PSCENC =        58.30706670
  Ewald energy   TEWEN  =      4689.19854921
  -Hartree energ DENC   =     -6414.05732332
  -exchange      EXHF   =         0.00000000
  -V(xc)+E(xc)   XCENC  =       180.47836706
  PAW double counting   =      5638.70993545    -5643.31025255
  entropy T*S    EENTRO =        -0.00000000
  eigenvalues    EBANDS =      -538.17926832
  atomic energy  EATOM  =      1903.26342058
  Solvation  Ediel_sol  =         0.00000000
  ---------------------------------------------------
  free energy    TOTEN  =      -125.58950520 eV

  energy without entropy =     -125.58950520  energy(sigma->0) =     -125.58950520


--------------------------------------------------------------------------------------------------------




--------------------------------------- Iteration      1(   9)  ---------------------------------------


    POTLOK:  cpu time      0.0147: real time      0.0164
    SETDIJ:  cpu time      0.0013: real time      0.0013
     EDDAV:  cpu time      3.6617: real time      3.6942
       DOS:  cpu time      0.0004: real time      0.0005
    CHARGE:  cpu time      0.1065: real time      0.1093
    MIXING:  cpu time      0.0007: real time      0.0008
    --------------------------------------------
      LOOP:  cpu time      3.7854: real time      3.8223

 eigenvalue-minimisations  :  9120
 total energy-change (2. order) : 0.2405663E-01  (-0.3780177E-02)
 number of electron      56.0000000 magnetization 
 augmentation part        1.0372337 magnetization 

 Broyden mixing:
  rms(total) = 0.17636E-01    rms(broyden)= 0.17631E-01
  rms(prec ) = 0.45544E-01
  weight for this iteration     100.00

 eigenvalues of (default mixing * dielectric matrix)
  average eigenvalue GAMMA=   1.7219
  2.2991  2.1924  1.0450  1.3511

 Free energy of the ion-electron system (eV)
  ---------------------------------------------------
  alpha Z        PSCENC =        58.30706670
  Ewald energy   TEWEN  =      4689.19854921
  -Hartree energ DENC   =     -6420.96681674
  -exchange      EXHF   =         0.00000000
  -V(xc)+E(xc)   XCENC  =       180.45050574
  PAW double counting   =      5808.07471400    -5812.52427760
  entropy T*S    EENTRO =        -0.00000000
  eigenvalues    EBANDS =      -531.36861044
  atomic energy  EATOM  =      1903.26342058
  Solvation  Ediel_sol  =         0.00000000
  ---------------------------------------------------
  free energy    TOTEN  =      -125.56544857 eV

  energy without entropy =     -125.56544857  energy(sigma->0) =     -125.56544857


--------------------------------------------------------------------------------------------------------




--------------------------------------- Iteration      1(  10)  ---------------------------------------


    POTLOK:  cpu time      0.0144: real time      0.0160
    SETDIJ:  cpu time      0.0012: real time      0.0013
     EDDAV:  cpu time      4.7232: real time      4.7624
       DOS:  cpu time      0.0006: real time      0.0006
    CHARGE:  cpu time      0.1049: real time      0.1088
    MIXING:  cpu time      0.0008: real time      0.0008
    --------------------------------------------
      LOOP:  cpu time      4.8451: real time      4.8897

 eigenvalue-minimisations  : 11280
 total energy-change (2. order) : 0.9849153E-02  (-0.5415936E-03)
 number of electron      56.0000000 magnetization 
 augmentation part        1.0368776 magnetization 

 Broyden mixing:
  rms(total) = 0.12465E-01    rms(broyden)= 0.12464E-01
  rms(prec ) = 0.32342E-01
  weight for this iteration     100.00

 eigenvalues of (default mixing * dielectric matrix)
  average eigenvalue GAMMA=   1.9414
  1.0109  1.0572  3.0960  2.5693  1.9733

 Free energy of the ion-electron system (eV)
  ---------------------------------------------------
  alpha Z        PSCENC =        58.30706670
  Ewald energy   TEWEN  =      4689.19854921
  -Hartree energ DENC   =     -6428.07474049
  -exchange      EXHF   =         0.00000000
  -V(xc)+E(xc)   XCENC  =       180.53540676
  PAW double counting   =      5826.82419651    -5831.25589881
  entropy T*S    EENTRO =        -0.00000000
  eigenvalues    EBANDS =      -524.35359988
  atomic energy  EATOM  =      1903.26342058
  Solvation  Ediel_sol  =         0.00000000
  ---------------------------------------------------
  free energy    TOTEN  =      -125.55559941 eV

  energy without entropy =     -125.55559941  energy(sigma->0) =     -125.55559941


--------------------------------------------------------------------------------------------------------




--------------------------------------- Iteration      1(  11)  ---------------------------------------


    POTLOK:  cpu time      0.0152: real time      0.0166
    SETDIJ:  cpu time      0.0014: real time      0.0014
     EDDAV:  cpu time      3.8726: real time      3.8978
       DOS:  cpu time      0.0005: real time      0.0005
    CHARGE:  cpu time      0.1078: real time      0.1086
    MIXING:  cpu time      0.0007: real time      0.0007
    --------------------------------------------
      LOOP:  cpu time      3.9981: real time      4.0254

 eigenvalue-minimisations  :  9600
 total energy-change (2. order) : 0.7616806E-02  (-0.1230643E-02)
 number of electron      56.0000000 magnetization 
 augmentation part        1.0357927 magnetization 

 Broyden mixing:
  rms(total) = 0.84314E-02    rms(broyden)= 0.84283E-02
  rms(prec ) = 0.14287E-01
  weight for this iteration     100.00

 eigenvalues of (default mixing * dielectric matrix)
  average eigenvalue GAMMA=   1.9031
  3.6282  2.4180  1.9060  0.9775  1.0437  1.4452

 Free energy of the ion-electron system (eV)
  ---------------------------------------------------
  alpha Z        PSCENC =        58.30706670
  Ewald energy   TEWEN  =      4689.19854921
  -Hartree energ DENC   =     -6440.63319052
  -exchange      EXHF   =         0.00000000
  -V(xc)+E(xc)   XCENC  =       180.66469007
  PAW double counting   =      5779.59359532    -5784.02607994
  entropy T*S    EENTRO =        -0.00000000
  eigenvalues    EBANDS =      -511.91603403
  atomic energy  EATOM  =      1903.26342058
  Solvation  Ediel_sol  =         0.00000000
  ---------------------------------------------------
  free energy    TOTEN  =      -125.54798261 eV

  energy without entropy =     -125.54798261  energy(sigma->0) =     -125.54798261


--------------------------------------------------------------------------------------------------------




--------------------------------------- Iteration      1(  12)  ---------------------------------------


    POTLOK:  cpu time      0.0188: real time      0.0202
    SETDIJ:  cpu time      0.0013: real time      0.0013
     EDDAV:  cpu time      2.6119: real time      2.6294
       DOS:  cpu time      0.0005: real time      0.0005
    CHARGE:  cpu time      0.1081: real time      0.1087
    MIXING:  cpu time      0.0008: real time      0.0008
    --------------------------------------------
      LOOP:  cpu time      2.7413: real time      2.7609

 eigenvalue-minimisations  :  6672
 total energy-change (2. order) :-0.1197599E-02  (-0.5802725E-04)
 number of electron      56.0000000 magnetization 
 augmentation part        1.0356850 magnetization 

 Broyden mixing:
  rms(total) = 0.43855E-02    rms(broyden)= 0.43849E-02
  rms(prec ) = 0.88504E-02
  weight for this iteration     100.00

 eigenvalues of (default mixing * dielectric matrix)
  average eigenvalue GAMMA=   2.2711
  5.5243  2.7854  2.4188  1.9656  0.9738  1.0476  1.1821

 Free energy of the ion-electron system (eV)
  ---------------------------------------------------
  alpha Z        PSCENC =        58.30706670
  Ewald energy   TEWEN  =      4689.19854921
  -Hartree energ DENC   =     -6442.82234202
  -exchange      EXHF   =         0.00000000
  -V(xc)+E(xc)   XCENC  =       180.66713715
  PAW double counting   =      5795.82469730    -5800.25306896
  entropy T*S    EENTRO =        -0.00000000
  eigenvalues    EBANDS =      -509.73464015
  atomic energy  EATOM  =      1903.26342058
  Solvation  Ediel_sol  =         0.00000000
  ---------------------------------------------------
  free energy    TOTEN  =      -125.54918021 eV

  energy without entropy =     -125.54918021  energy(sigma->0) =     -125.54918021


--------------------------------------------------------------------------------------------------------




--------------------------------------- Iteration      1(  13)  ---------------------------------------


    POTLOK:  cpu time      0.0136: real time      0.0151
    SETDIJ:  cpu time      0.0013: real time      0.0013
     EDDAV:  cpu time      3.9229: real time      3.9468
       DOS:  cpu time      0.0005: real time      0.0005
    CHARGE:  cpu time      0.1071: real time      0.1084
    MIXING:  cpu time      0.0009: real time      0.0009
    --------------------------------------------
      LOOP:  cpu time      4.0463: real time      4.0729

 eigenvalue-minimisations  :  9696
 total energy-change (2. order) :-0.2151017E-02  (-0.5049249E-04)
 number of electron      56.0000000 magnetization 
 augmentation part        1.0355730 magnetization 

 Broyden mixing:
  rms(total) = 0.17487E-02    rms(broyden)= 0.17484E-02
  rms(prec ) = 0.32094E-02
  weight for this iteration     100.00

 eigenvalues of (default mixing * dielectric matrix)
  average eigenvalue GAMMA=   2.2963
  6.2499  2.9832  2.3757  1.8228  1.8228  0.9692  1.0448  1.1022

 Free energy of the ion-electron system (eV)
  ---------------------------------------------------
  alpha Z        PSCENC =        58.30706670
  Ewald energy   TEWEN  =      4689.19854921
  -Hartree energ DENC   =     -6445.22435716
  -exchange      EXHF   =         0.00000000
  -V(xc)+E(xc)   XCENC  =       180.66113055
  PAW double counting   =      5793.84546911    -5798.27737531
  entropy T*S    EENTRO =        -0.00000000
  eigenvalues    EBANDS =      -507.32523490
  atomic energy  EATOM  =      1903.26342058
  Solvation  Ediel_sol  =         0.00000000
  ---------------------------------------------------
  free energy    TOTEN  =      -125.55133122 eV

  energy without entropy =     -125.55133122  energy(sigma->0) =     -125.55133122


--------------------------------------------------------------------------------------------------------




--------------------------------------- Iteration      1(  14)  ---------------------------------------


    POTLOK:  cpu time      0.0141: real time      0.0154
    SETDIJ:  cpu time      0.0013: real time      0.0013
     EDDAV:  cpu time      4.1273: real time      4.1493
       DOS:  cpu time      0.0005: real time      0.0005
    CHARGE:  cpu time      0.1068: real time      0.1075
    MIXING:  cpu time      0.0008: real time      0.0008
    --------------------------------------------
      LOOP:  cpu time      4.2508: real time      4.2748

 eigenvalue-minimisations  : 10080
 total energy-change (2. order) :-0.1601232E-02  (-0.1452211E-04)
 number of electron      56.0000000 magnetization 
 augmentation part        1.0355548 magnetization 

 Broyden mixing:
  rms(total) = 0.95614E-03    rms(broyden)= 0.95607E-03
  rms(prec ) = 0.15316E-02
  weight for this iteration     100.00

 eigenvalues of (default mixing * dielectric matrix)
  average eigenvalue GAMMA=   2.5041
  7.4476  3.9183  2.5334  2.3080  1.8728  1.3984  0.9573  1.0507  1.0507

 Free energy of the ion-electron system (eV)
  ---------------------------------------------------
  alpha Z        PSCENC =        58.30706670
  Ewald energy   TEWEN  =      4689.19854921
  -Hartree energ DENC   =     -6445.75370726
  -exchange      EXHF   =         0.00000000
  -V(xc)+E(xc)   XCENC  =       180.66081054
  PAW double counting   =      5794.30869891    -5798.74013131
  entropy T*S    EENTRO =        -0.00000000
  eigenvalues    EBANDS =      -506.79763983
  atomic energy  EATOM  =      1903.26342058
  Solvation  Ediel_sol  =         0.00000000
  ---------------------------------------------------
  free energy    TOTEN  =      -125.55293246 eV

  energy without entropy =     -125.55293246  energy(sigma->0) =     -125.55293246


--------------------------------------------------------------------------------------------------------




--------------------------------------- Iteration      1(  15)  ---------------------------------------


    POTLOK:  cpu time      0.0151: real time      0.0158
    SETDIJ:  cpu time      0.0012: real time      0.0013
     EDDAV:  cpu time      3.6329: real time      3.6552
       DOS:  cpu time      0.0004: real time      0.0004
    CHARGE:  cpu time      0.1060: real time      0.1068
    MIXING:  cpu time      0.0009: real time      0.0009
    --------------------------------------------
      LOOP:  cpu time      3.7565: real time      3.7805

 eigenvalue-minimisations  :  9072
 total energy-change (2. order) :-0.1053833E-02  (-0.1598242E-04)
 number of electron      56.0000000 magnetization 
 augmentation part        1.0355764 magnetization 

 Broyden mixing:
  rms(total) = 0.56173E-03    rms(broyden)= 0.56172E-03
  rms(prec ) = 0.63363E-03
  weight for this iteration     100.00

 eigenvalues of (default mixing * dielectric matrix)
  average eigenvalue GAMMA=   2.5455
  8.1587  4.2281  2.6047  2.5075  1.9943  1.7019  1.2359  0.9935  0.9935  1.0372

 Free energy of the ion-electron system (eV)
  ---------------------------------------------------
  alpha Z        PSCENC =        58.30706670
  Ewald energy   TEWEN  =      4689.19854921
  -Hartree energ DENC   =     -6445.74149560
  -exchange      EXHF   =         0.00000000
  -V(xc)+E(xc)   XCENC  =       180.65787756
  PAW double counting   =      5795.90728764    -5800.33774792
  entropy T*S    EENTRO =        -0.00000000
  eigenvalues    EBANDS =      -506.80894445
  atomic energy  EATOM  =      1903.26342058
  Solvation  Ediel_sol  =         0.00000000
  ---------------------------------------------------
  free energy    TOTEN  =      -125.55398629 eV

  energy without entropy =     -125.55398629  energy(sigma->0) =     -125.55398629


--------------------------------------------------------------------------------------------------------




--------------------------------------- Iteration      1(  16)  ---------------------------------------


    POTLOK:  cpu time      0.0146: real time      0.0154
    SETDIJ:  cpu time      0.0014: real time      0.0015
     EDDAV:  cpu time      3.6435: real time      3.6715
       DOS:  cpu time      0.0005: real time      0.0005
    CHARGE:  cpu time      0.1076: real time      0.1082
    MIXING:  cpu time      0.0010: real time      0.0010
    --------------------------------------------
      LOOP:  cpu time      3.7686: real time      3.7980

 eigenvalue-minimisations  :  9072
 total energy-change (2. order) :-0.1586247E-03  (-0.1862140E-05)
 number of electron      56.0000000 magnetization 
 augmentation part        1.0355631 magnetization 

 Broyden mixing:
  rms(total) = 0.14475E-03    rms(broyden)= 0.14474E-03
  rms(prec ) = 0.17093E-03
  weight for this iteration     100.00

 eigenvalues of (default mixing * dielectric matrix)
  average eigenvalue GAMMA=   2.5219
  8.3887  4.5020  2.8912  2.4261  2.0110  2.0110  1.3405  1.1747  0.9725  0.9769
  1.0460

 Free energy of the ion-electron system (eV)
  ---------------------------------------------------
  alpha Z        PSCENC =        58.30706670
  Ewald energy   TEWEN  =      4689.19854921
  -Hartree energ DENC   =     -6445.76185241
  -exchange      EXHF   =         0.00000000
  -V(xc)+E(xc)   XCENC  =       180.65885226
  PAW double counting   =      5794.37888712    -5798.80984563
  entropy T*S    EENTRO =        -0.00000000
  eigenvalues    EBANDS =      -506.78922275
  atomic energy  EATOM  =      1903.26342058
  Solvation  Ediel_sol  =         0.00000000
  ---------------------------------------------------
  free energy    TOTEN  =      -125.55414491 eV

  energy without entropy =     -125.55414491  energy(sigma->0) =     -125.55414491


--------------------------------------------------------------------------------------------------------




--------------------------------------- Iteration      1(  17)  ---------------------------------------


    POTLOK:  cpu time      0.0140: real time      0.0152
    SETDIJ:  cpu time      0.0013: real time      0.0013
     EDDAV:  cpu time      3.5696: real time      3.5942
       DOS:  cpu time      0.0005: real time      0.0005
    CHARGE:  cpu time      0.1061: real time      0.1064
    MIXING:  cpu time      0.0009: real time      0.0010
    --------------------------------------------
      LOOP:  cpu time      3.6924: real time      3.7186

 eigenvalue-minimisations  :  8928
 total energy-change (2. order) :-0.2382260E-04  (-0.1602386E-06)
 number of electron      56.0000000 magnetization 
 augmentation part        1.0355638 magnetization 

 Broyden mixing:
  rms(total) = 0.49931E-04    rms(broyden)= 0.49929E-04
  rms(prec ) = 0.59059E-04
  weight for this iteration     100.00

 eigenvalues of (default mixing * dielectric matrix)
  average eigenvalue GAMMA=   2.4782
  8.3285  4.7100  3.0015  2.4462  2.3886  1.9646  1.5230  1.2754  0.9898  0.9898
  1.0510  1.0697

 Free energy of the ion-electron system (eV)
  ---------------------------------------------------
  alpha Z        PSCENC =        58.30706670
  Ewald energy   TEWEN  =      4689.19854921
  -Hartree energ DENC   =     -6445.75455621
  -exchange      EXHF   =         0.00000000
  -V(xc)+E(xc)   XCENC  =       180.65877398
  PAW double counting   =      5794.46578271    -5798.89661162
  entropy T*S    EENTRO =        -0.00000000
  eigenvalues    EBANDS =      -506.79659408
  atomic energy  EATOM  =      1903.26342058
  Solvation  Ediel_sol  =         0.00000000
  ---------------------------------------------------
  free energy    TOTEN  =      -125.55416874 eV

  energy without entropy =     -125.55416874  energy(sigma->0) =     -125.55416874


--------------------------------------------------------------------------------------------------------




--------------------------------------- Iteration      1(  18)  ---------------------------------------


    POTLOK:  cpu time      0.0144: real time      0.0156
    SETDIJ:  cpu time      0.0013: real time      0.0013
     EDDAV:  cpu time      3.9353: real time      3.9655
       DOS:  cpu time      0.0006: real time      0.0006
    CHARGE:  cpu time      0.1059: real time      0.1084
    MIXING:  cpu time      0.0010: real time      0.0010
    --------------------------------------------
      LOOP:  cpu time      4.0585: real time      4.0923

 eigenvalue-minimisations  :  9504
 total energy-change (2. order) :-0.3541256E-05  (-0.1580247E-07)
 number of electron      56.0000000 magnetization 
 augmentation part        1.0355618 magnetization 

 Broyden mixing:
  rms(total) = 0.11568E-04    rms(broyden)= 0.11565E-04
  rms(prec ) = 0.14324E-04
  weight for this iteration     100.00

 eigenvalues of (default mixing * dielectric matrix)
  average eigenvalue GAMMA=   2.4130
  8.3336  4.7310  3.0322  2.5615  2.2891  1.8268  1.8268  1.5049  1.2554  0.9812
  0.9812  1.0357  1.0100

 Free energy of the ion-electron system (eV)
  ---------------------------------------------------
  alpha Z        PSCENC =        58.30706670
  Ewald energy   TEWEN  =      4689.19854921
  -Hartree energ DENC   =     -6445.75446064
  -exchange      EXHF   =         0.00000000
  -V(xc)+E(xc)   XCENC  =       180.65886935
  PAW double counting   =      5794.36399415    -5798.79488451
  entropy T*S    EENTRO =        -0.00000000
  eigenvalues    EBANDS =      -506.79672711
  atomic energy  EATOM  =      1903.26342058
  Solvation  Ediel_sol  =         0.00000000
  ---------------------------------------------------
  free energy    TOTEN  =      -125.55417228 eV

  energy without entropy =     -125.55417228  energy(sigma->0) =     -125.55417228


--------------------------------------------------------------------------------------------------------




--------------------------------------- Iteration      1(  19)  ---------------------------------------


    POTLOK:  cpu time      0.0160: real time      0.0170
    SETDIJ:  cpu time      0.0013: real time      0.0013
     EDDAV:  cpu time      3.5985: real time      3.6208
       DOS:  cpu time      0.0005: real time      0.0005
    --------------------------------------------
      LOOP:  cpu time      3.6163: real time      3.6395

 eigenvalue-minimisations  :  8832
 total energy-change (2. order) :-0.2739571E-06  (-0.6509332E-09)
 number of electron      56.0000000 magnetization 
 augmentation part        1.0355618 magnetization 

 Free energy of the ion-electron system (eV)
  ---------------------------------------------------
  alpha Z        PSCENC =        58.30706670
  Ewald energy   TEWEN  =      4689.19854921
  -Hartree energ DENC   =     -6445.75416821
  -exchange      EXHF   =         0.00000000
  -V(xc)+E(xc)   XCENC  =       180.65886683
  PAW double counting   =      5794.34778087    -5798.77867343
  entropy T*S    EENTRO =        -0.00000000
  eigenvalues    EBANDS =      -506.79701510
  atomic energy  EATOM  =      1903.26342058
  Solvation  Ediel_sol  =         0.00000000
  ---------------------------------------------------
  free energy    TOTEN  =      -125.55417255 eV

  energy without entropy =     -125.55417255  energy(sigma->0) =     -125.55417255


--------------------------------------------------------------------------------------------------------




 average (electrostatic) potential at core
  the test charge radii are     0.7672  0.6991
  (the norm of the test charge is              1.0000)
       1 -35.5668       2 -34.1041       3 -34.1042       4 -34.1047       5 -55.3278
       6 -55.3297       7 -55.3263       8 -55.6584       9 -55.6594      10 -55.6661
      11 -55.6601      12 -55.6573      13 -55.6627      14 -55.6536      15 -55.6645
 
 
 
 E-fermi :  -0.3043     XC(G=0):  -5.1777     alpha+bet : -5.0692

 Fermi energy:        -0.3042591364

 k-point     1 :       0.0000    0.0000    0.0000
  band No.  band energies     occupation 
      1     -20.2465      2.00000
      2     -17.3867      2.00000
      3     -14.7603      2.00000
      4     -14.7578      2.00000
      5     -14.7558      2.00000
      6     -13.8771      2.00000
      7     -13.8755      2.00000
      8     -13.8700      2.00000
      9     -13.4956      2.00000
     10     -13.4915      2.00000
     11     -10.4195      2.00000
     12      -9.4300      2.00000
     13      -9.4295      2.00000
     14      -8.3821      2.00000
     15      -7.6430      2.00000
     16      -6.8595      2.00000
     17      -6.8537      2.00000
     18      -6.8521      2.00000
     19      -6.7253      2.00000
     20      -3.3134      2.00000
     21      -3.2975      2.00000
     22      -2.9022      2.00000
     23      -2.8991      2.00000
     24      -2.8054      2.00000
     25      -2.7981      2.00000
     26      -2.7892      2.00000
     27      -0.8962      2.00000
     28      -0.8575      2.00000
     29       0.9108      0.00000
     30       1.0507      0.00000
     31       1.3524      0.00000
     32       1.4642      0.00000
     33       1.6134      0.00000
     34       2.0730      0.00000
     35       2.9027      0.00000
     36       3.5224      0.00000
     37       3.5255      0.00000
     38       3.6367      0.00000
     39       4.5923      0.00000
     40       6.6763      0.00000
     41       7.4876      0.00000
     42       7.5850      0.00000
     43       7.5957      0.00000
     44       7.6023      0.00000
     45       7.8907      0.00000
     46       8.3657      0.00000
     47       8.3861      0.00000
     48       8.7840      0.00000

 k-point     2 :       0.0909    0.0000    0.0000
  band No.  band energies     occupation 
      1     -20.1961      2.00000
      2     -17.3525      2.00000
      3     -15.4006      2.00000
      4     -14.9553      2.00000
      5     -14.9515      2.00000
      6     -13.6291      2.00000
      7     -13.6005      2.00000
      8     -13.5898      2.00000
      9     -13.5175      2.00000
     10     -13.1562      2.00000
     11     -10.3016      2.00000
     12      -9.5677      2.00000
     13      -9.3299      2.00000
     14      -8.3211      2.00000
     15      -7.3656      2.00000
     16      -7.0134      2.00000
     17      -7.0065      2.00000
     18      -6.8031      2.00000
     19      -6.6698      2.00000
[...]
     27      -3.0273      2.00000
     28      -1.1389      2.00000
     29       0.4436      0.00000
     30       2.3133      0.00000
     31       3.3904      0.00000
     32       3.8058      0.00000
     33       4.6858      0.00000
     34       4.7567      0.00000
     35       4.9724      0.00000
     36       5.0582      0.00000
     37       5.4840      0.00000
     38       5.5355      0.00000
     39       5.5564      0.00000
     40       6.1305      0.00000
     41       6.3211      0.00000
     42       6.5044      0.00000
     43       6.7865      0.00000
     44       6.9896      0.00000
     45       7.0035      0.00000
     46       7.8105      0.00000
     47       7.8811      0.00000
     48       7.8873      0.00000

 k-point    57 :      -0.2727   -0.4545    0.0000
  band No.  band energies     occupation 
      1     -18.8955      2.00000
      2     -17.8153      2.00000
      3     -17.8080      2.00000
      4     -16.7530      2.00000
      5     -14.7252      2.00000
      6     -14.3415      2.00000
      7     -13.6107      2.00000
      8     -12.8956      2.00000
      9     -10.7033      2.00000
     10      -9.5870      2.00000
     11      -9.1227      2.00000
     12      -9.0072      2.00000
     13      -8.9965      2.00000
     14      -7.9084      2.00000
     15      -7.1042      2.00000
     16      -7.0933      2.00000
     17      -6.9876      2.00000
     18      -6.7711      2.00000
     19      -5.9651      2.00000
     20      -5.8805      2.00000
     21      -5.7009      2.00000
     22      -5.4668      2.00000
     23      -5.4090      2.00000
     24      -5.2696      2.00000
     25      -4.0426      2.00000
     26      -3.5199      2.00000
     27      -3.0284      2.00000
     28      -1.1283      2.00000
     29       0.4268      0.00000
     30       2.3152      0.00000
     31       3.3965      0.00000
     32       3.8054      0.00000
     33       4.6852      0.00000
     34       4.7542      0.00000
     35       4.9737      0.00000
     36       5.0630      0.00000
     37       5.4845      0.00000
     38       5.5309      0.00000
     39       5.5544      0.00000
     40       6.1329      0.00000
     41       6.3203      0.00000
     42       6.5026      0.00000
     43       6.7827      0.00000
     44       6.9939      0.00000
     45       7.0050      0.00000
     46       7.8106      0.00000
     47       7.8841      0.00000
     48       7.8865      0.00000

 k-point    58 :       0.4545    0.2727    0.0000
  band No.  band energies     occupation 
      1     -18.8954      2.00000
      2     -17.8160      2.00000
      3     -17.8074      2.00000
      4     -16.7528      2.00000
      5     -14.7279      2.00000
      6     -14.3388      2.00000
      7     -13.6100      2.00000
      8     -12.8970      2.00000
      9     -10.7026      2.00000
     10      -9.5869      2.00000
     11      -9.1215      2.00000
     12      -9.0073      2.00000
     13      -8.9962      2.00000
     14      -7.9117      2.00000
     15      -7.1046      2.00000
     16      -7.0933      2.00000
     17      -6.9857      2.00000
     18      -6.7715      2.00000
     19      -5.9614      2.00000
     20      -5.8823      2.00000
     21      -5.7025      2.00000
     22      -5.4625      2.00000
     23      -5.4125      2.00000
     24      -5.2698      2.00000
     25      -4.0432      2.00000
     26      -3.5225      2.00000
     27      -3.0260      2.00000
     28      -1.1266      2.00000
     29       0.4235      0.00000
     30       2.3158      0.00000
     31       3.3984      0.00000
     32       3.8046      0.00000
     33       4.6893      0.00000
     34       4.7558      0.00000
     35       4.9747      0.00000
     36       5.0606      0.00000
     37       5.4858      0.00000
     38       5.5298      0.00000
     39       5.5486      0.00000
     40       6.1302      0.00000
     41       6.3205      0.00000
     42       6.5040      0.00000
     43       6.7867      0.00000
     44       6.9895      0.00000
     45       7.0055      0.00000
     46       7.8119      0.00000
     47       7.8836      0.00000
     48       7.8872      0.00000

 k-point    59 :       0.3636    0.2727    0.0000
  band No.  band energies     occupation 
      1     -18.4044      2.00000
      2     -18.3972      2.00000
      3     -17.8606      2.00000
      4     -16.7056      2.00000
      5     -14.7261      2.00000
      6     -14.4630      2.00000
      7     -13.4484      2.00000
      8     -12.7249      2.00000
      9     -11.1302      2.00000
     10      -9.4760      2.00000
     11      -8.9265      2.00000
     12      -8.6822      2.00000
     13      -8.1167      2.00000
     14      -7.9371      2.00000
     15      -7.9290      2.00000
     16      -7.3597      2.00000
     17      -6.5530      2.00000
     18      -6.5401      2.00000
     19      -6.2601      2.00000
     20      -6.1376      2.00000
     21      -5.8837      2.00000
     22      -5.6136      2.00000
     23      -5.5607      2.00000
     24      -5.2271      2.00000
     25      -3.9339      2.00000
     26      -3.6186      2.00000
     27      -3.2080      2.00000
     28      -0.7937      2.00000
     29       0.1351      0.00000
     30       2.4890      0.00000
     31       3.7534      0.00000
     32       3.9234      0.00000
     33       4.3405      0.00000
     34       4.5431      0.00000
     35       4.8003      0.00000
     36       5.3324      0.00000
     37       5.5548      0.00000
     38       5.6756      0.00000
     39       6.0108      0.00000
     40       6.2284      0.00000
     41       6.2408      0.00000
     42       6.6611      0.00000
     43       6.7067      0.00000
     44       6.8488      0.00000
     45       6.9693      0.00000
     46       7.2261      0.00000
     47       7.2491      0.00000
     48       7.8649      0.00000

 k-point    60 :      -0.2727   -0.3636    0.0000
  band No.  band energies     occupation 
      1     -18.4050      2.00000
      2     -18.3966      2.00000
      3     -17.8606      2.00000
      4     -16.7058      2.00000
      5     -14.7236      2.00000
      6     -14.4655      2.00000
      7     -13.4488      2.00000
      8     -12.7241      2.00000
      9     -11.1307      2.00000
     10      -9.4772      2.00000
     11      -8.9256      2.00000
     12      -8.6809      2.00000
     13      -8.1155      2.00000
     14      -7.9378      2.00000
     15      -7.9302      2.00000
     16      -7.3613      2.00000
     17      -6.5531      2.00000
     18      -6.5377      2.00000
     19      -6.2607      2.00000
     20      -6.1362      2.00000
     21      -5.8851      2.00000
     22      -5.6192      2.00000
     23      -5.5553      2.00000
     24      -5.2276      2.00000
     25      -3.9337      2.00000
     26      -3.6164      2.00000
     27      -3.2100      2.00000
     28      -0.7947      2.00000
     29       0.1367      0.00000
     30       2.4893      0.00000
     31       3.7537      0.00000
     32       3.9209      0.00000
     33       4.3413      0.00000
     34       4.5444      0.00000
     35       4.7983      0.00000
     36       5.3309      0.00000
     37       5.5555      0.00000
     38       5.6778      0.00000
     39       6.0110      0.00000
     40       6.2274      0.00000
     41       6.2419      0.00000
     42       6.6689      0.00000
     43       6.7040      0.00000
     44       6.8406      0.00000
     45       6.9666      0.00000
     46       7.2252      0.00000
     47       7.2582      0.00000
     48       7.8623      0.00000

 k-point    61 :       0.3636    0.3636    0.0000
  band No.  band energies     occupation 
      1     -18.4081      2.00000
      2     -18.3932      2.00000
      3     -17.8609      2.00000
      4     -16.7057      2.00000
      5     -14.7252      2.00000
      6     -14.4638      2.00000
      7     -13.4467      2.00000
      8     -12.7287      2.00000
      9     -11.1281      2.00000
     10      -9.4768      2.00000
     11      -8.9263      2.00000
     12      -8.6882      2.00000
     13      -8.1155      2.00000
     14      -7.9342      2.00000
     15      -7.9227      2.00000
     16      -7.3529      2.00000
     17      -6.5654      2.00000
     18      -6.5382      2.00000
     19      -6.2648      2.00000
     20      -6.1326      2.00000
     21      -5.8831      2.00000
     22      -5.6152      2.00000
     23      -5.5614      2.00000
     24      -5.2263      2.00000
     25      -3.9337      2.00000
     26      -3.6180      2.00000
     27      -3.2089      2.00000
     28      -0.7856      2.00000
     29       0.1252      0.00000
     30       2.4853      0.00000
     31       3.7532      0.00000
     32       3.9411      0.00000
     33       4.3288      0.00000
     34       4.5426      0.00000
     35       4.8016      0.00000
     36       5.3302      0.00000
     37       5.5586      0.00000
     38       5.6637      0.00000
     39       6.0153      0.00000
     40       6.2294      0.00000
     41       6.2403      0.00000
     42       6.6789      0.00000
     43       6.7088      0.00000
     44       6.8340      0.00000
     45       6.9636      0.00000
     46       7.2263      0.00000
     47       7.2551      0.00000
     48       7.8649      0.00000


--------------------------------------------------------------------------------------------------------


 soft charge-density along one line, spin component           1
         0         1         2         3         4         5         6         7         8         9
 total charge-density along one line
 
 pseudopotential strength for first ion, spin component:           1
  6.784  10.355   0.000  -0.001  -0.000   0.000  -0.001  -0.000
 10.355  15.802   0.000  -0.001  -0.000   0.000  -0.002  -0.000
  0.000   0.000  -2.350   0.000  -0.000  -4.043   0.000  -0.000
 -0.001  -0.001   0.000  -2.343  -0.000   0.000  -4.026  -0.000
 -0.000  -0.000  -0.000  -0.000  -2.350  -0.000  -0.000  -4.043
  0.000   0.000  -4.043   0.000  -0.000  -6.757   0.000  -0.000
 -0.001  -0.002   0.000  -4.026  -0.000   0.000  -6.721  -0.000
 -0.000  -0.000  -0.000  -0.000  -4.043  -0.000  -0.000  -6.757
 total augmentation occupancy for first ion, spin component:           1
  3.871  -1.142  -0.000  -0.111  -0.001   0.000   0.046   0.000
 -1.142   0.356   0.000   0.051   0.000  -0.000  -0.018  -0.000
 -0.000   0.000   4.424  -0.001   0.001  -1.324   0.000  -0.000
 -0.111   0.051  -0.001   1.831  -0.001   0.000  -0.390   0.000
 -0.001   0.000   0.001  -0.001   4.425  -0.000   0.000  -1.325
  0.000  -0.000  -1.324   0.000  -0.000   0.405  -0.000   0.000
  0.046  -0.018   0.000  -0.390   0.000  -0.000   0.085  -0.000
  0.000  -0.000  -0.000   0.000  -1.325   0.000  -0.000   0.405


------------------------ aborting loop because EDIFF is reached ----------------------------------------


    CHARGE:  cpu time      0.1060: real time      0.1076
    FORLOC:  cpu time      0.0016: real time      0.0016
    FORNL :  cpu time      0.3796: real time      0.3806
    STRESS:  cpu time      2.4821: real time      2.4900
    FORCOR:  cpu time      0.0129: real time      0.0129
    FORHAR:  cpu time      0.0040: real time      0.0040
    MIXING:  cpu time      0.0008: real time      0.0008
    OFIELD:  cpu time      0.0002: real time      0.0002

 ---------------------------------------------------------------------------------------------

         DFTD3 V3.0 Rev 1        
 IVDW         = 12
 DF pbe       
 parameters
 VDW_S6       =    1.0000
 VDW_S8       =    0.7875
 VDW_A1       =    0.4289
 VDW_A2       =    4.4407
 k1-k3        =   16.0000    1.3333   -4.0000
 VDW_RADIUS   =   50.2022 A
 VDW_CNRADIUS =   21.1671 A
 Edisp (eV)   -1.58464

 E6    (eV) :    -1.0947
 E8    (eV) :    -0.4899
 % E8        : 30.92
    FORVDW:  cpu time      0.0426: real time      0.0427

  FORCE on cell =-STRESS in cart. coord.  units (eV):
  Direction    XX          YY          ZZ          XY          YZ          ZX
  --------------------------------------------------------------------------------------
  Alpha Z    58.30707    58.30707    58.30707
  Ewald    6445.65779  6446.67281 -8203.13639    -0.08699    -0.07824     0.02399
  Hartree  6362.84221  6362.98845 -6280.07653    -0.01188    -0.03143    -0.00355
  E(xc)    -201.76331  -201.76008  -208.81814    -0.00028    -0.00031     0.00092
  Local  -13399.68333-13400.65060 13771.76580     0.08755     0.10597    -0.00657
  n-local   -43.25829   -43.24924   -42.60976    -0.00031     0.00054     0.00570
  augment    -4.12123    -4.12347    -3.67797     0.00026    -0.00000    -0.00012
  Kinetic   782.00250   781.84769   908.91223     0.01649     0.00265    -0.06362
  Fock        0.00000     0.00000     0.00000     0.00000     0.00000     0.00000
  vdW        -0.36744    -0.36757    -1.11125     0.00005    -0.00001     0.00027
  -------------------------------------------------------------------------------------
  Total      -0.38403    -0.33495    -0.44494     0.00489    -0.00084    -0.04297
  in kB      -2.01692    -1.75914    -2.33680     0.02568    -0.00439    -0.22566
  external pressure =       -2.04 kB  Pullay stress =        0.00 kB


 VOLUME and BASIS-vectors are now :
 -----------------------------------------------------------------------------
  energy-cutoff  :      450.00
  volume of cell :      305.06
      direct lattice vectors                 reciprocal lattice vectors
     4.196759107  2.423000000  0.000000000     0.119139552  0.206355757  0.000000000
    -4.196759107  2.423000000  0.000000000    -0.119139552  0.206355757  0.000000000
     0.000000000  0.000000000 15.000000000     0.000000000  0.000000000  0.066666667

  length of vectors
     4.846000000  4.846000000 15.000000000     0.238279104  0.238279104  0.066666667


 FORCES acting on ions
    electron-ion (+dipol)            ewald-force                    non-local-force                 convergence-correction
 -----------------------------------------------------------------------------------------------
   -.309E-01 -.443E-02 0.213E+03   0.345E-01 -.107E-02 -.212E+03   -.899E-03 0.397E-03 -.389E+00   0.460E-06 0.984E-07 -.514E-04
   -.198E+02 -.113E+02 0.228E+03   0.225E+02 0.129E+02 -.228E+03   -.275E+01 -.160E+01 0.378E-01   -.598E-05 -.307E-05 -.473E-04
   0.197E+02 -.115E+02 0.228E+03   -.224E+02 0.131E+02 -.228E+03   0.276E+01 -.158E+01 0.626E-01   0.575E-05 -.376E-05 -.471E-04
   0.112E+00 0.228E+02 0.228E+03   -.935E-01 -.259E+02 -.228E+03   -.643E-02 0.318E+01 0.577E-01   0.147E-06 0.682E-05 -.473E-04
   0.156E+00 -.368E+02 0.303E+03   -.141E+00 0.431E+02 -.303E+03   -.207E-02 -.626E+01 0.418E+00   0.162E-05 -.825E-05 -.670E-04
   0.318E+02 0.186E+02 0.302E+03   -.373E+02 -.217E+02 -.302E+03   0.543E+01 0.313E+01 0.348E+00   0.608E-05 0.376E-05 -.675E-04
   -.319E+02 0.183E+02 0.303E+03   0.374E+02 -.215E+02 -.303E+03   -.542E+01 0.312E+01 0.413E+00   -.757E-05 0.457E-05 -.671E-04
   0.479E+00 -.200E-01 -.225E+03   -.504E+00 -.132E-01 0.225E+03   -.166E-01 -.403E-01 0.289E-01   -.202E-05 -.567E-05 -.753E-04
   0.298E+00 -.686E+00 -.226E+03   -.335E+00 0.707E+00 0.226E+03   -.340E-01 -.149E-01 0.389E-01   0.118E-05 -.771E-05 -.749E-04
   -.482E+00 0.382E-01 -.227E+03   0.519E+00 -.275E-01 0.227E+03   0.927E-02 0.542E-02 -.879E-02   -.257E-05 -.251E-05 -.748E-04
   -.633E+00 0.995E-01 -.225E+03   0.652E+00 -.104E+00 0.225E+03   0.948E-02 0.397E-03 0.472E-01   -.711E-05 -.237E-05 -.755E-04
   -.512E+00 -.124E+00 -.225E+03   0.575E+00 0.118E+00 0.225E+03   0.573E-01 0.101E-01 0.364E-01   0.411E-05 0.270E-05 -.755E-04
   0.340E+00 -.238E+00 -.225E+03   -.348E+00 0.262E+00 0.225E+03   0.395E-02 0.219E-01 0.510E-01   0.131E-05 0.266E-05 -.754E-04
   0.202E+00 0.157E+00 -.226E+03   -.198E+00 -.142E+00 0.226E+03   -.135E-01 0.181E-01 0.332E-01   0.744E-06 0.535E-05 -.752E-04
   0.284E+00 0.773E+00 -.226E+03   -.343E+00 -.800E+00 0.226E+03   -.224E-01 -.232E-03 0.319E-01   0.435E-05 0.746E-05 -.750E-04
 -----------------------------------------------------------------------------------------------
   0.393E-02 -.368E-02 -.121E+01   -.178E-14 -.110E-13 0.341E-12   -.373E-02 0.369E-02 0.121E+01   0.504E-06 0.874E-07 -.996E-03
 
 
 POSITION                                       TOTAL-FORCE (eV/Angst)
 -----------------------------------------------------------------------------------
     -4.03995      2.44203      1.55605         0.002616     -0.005110     -0.017132
     -2.55002      3.30307      1.49590        -0.015050     -0.010442     -0.027475
     -1.33345      0.87868      1.49212        -0.002709      0.001840      0.016030
      0.15710      3.14433      1.49344         0.012078      0.014484      0.002376
      0.15727      1.58663      1.49774         0.012844      0.020956      0.017745
     -1.20086      4.08178      1.50162        -0.011466     -0.003370     -0.000271
     -2.68239      1.65810      1.49817         0.013661     -0.018360      0.019283
     -1.53036      1.21041      5.04111        -0.041942     -0.074509     -0.010277
     -0.13143      1.20955      5.04142        -0.071501      0.006413      0.015105
     -3.62982      2.42099      5.04066         0.046173      0.016028     -0.004660
     -2.23072      2.42129      5.04136         0.028130     -0.004765      0.001383
      0.56606      2.42100      5.04129         0.121429      0.004296     -0.010134
      1.96619      2.42054      5.04066        -0.003277      0.045485     -0.002291
     -1.53085      3.63200      5.04231        -0.009224      0.034021     -0.007312
     -0.13135      3.63267      5.04082        -0.081760     -0.026967      0.007630
 -----------------------------------------------------------------------------------
    total drift:                                0.000200      0.000010     -0.000136


--------------------------------------------------------------------------------------------------------



  FREE ENERGIE OF THE ION-ELECTRON SYSTEM (eV)
  ---------------------------------------------------
  free  energy   TOTEN  =      -127.13881536 eV

  energy  without entropy=     -127.13881536  energy(sigma->0) =     -127.13881536
 


--------------------------------------------------------------------------------------------------------


    POTLOK:  cpu time      0.0194: real time      0.0196


--------------------------------------------------------------------------------------------------------


 stress matrix after NEB project (eV)
     -0.38403      0.00489     -0.04297
      0.00489     -0.33495     -0.00084
     -0.04297     -0.00084     -0.44494
  FORCES: max atom, RMS     0.121927    0.055224
  FORCE total and by dimension    0.213881    0.121429
  Stress total and by dimension    0.679251    0.444938
 writing wavefunctions
     LOOP+:  cpu time     79.6664: real time     80.3323
    4ORBIT:  cpu time      0.0000: real time      0.0000

 total amount of memory used by VASP MPI-rank0    99326. kBytes
=======================================================================

   base      :      30000. kBytes
   nonl-proj :      53696. kBytes
   fftplans  :       1560. kBytes
   grid      :       7372. kBytes
   one-center:         46. kBytes
   wavefun   :       6652. kBytes
 
  
  
 General timing and accounting informations for this job:
 ========================================================
  
                  Total CPU time used (sec):       85.088
                            User time (sec):       81.719
                          System time (sec):        3.369
                         Elapsed time (sec):       88.376
  
                   Maximum memory used (kb):      624500.
                   Average memory used (kb):          N/A
  
                          Minor page faults:       181584
                          Major page faults:         3874
                 Voluntary context switches:         7680
