       N       E                     dE             d eps       ncg     rms          rms(c)
DAV:   1     0.187789457229E+03    0.18779E+03   -0.25325E+04  8256   0.862E+02
DAV:   2    -0.118173805093E+03   -0.30596E+03   -0.30511E+03 12912   0.157E+02
DAV:   3    -0.127746707764E+03   -0.95729E+01   -0.95480E+01 14016   0.369E+01
DAV:   4    -0.127774323084E+03   -0.27615E-01   -0.27614E-01 12864   0.178E+00
DAV:   5    -0.127774360292E+03   -0.37209E-04   -0.37209E-04 13152   0.710E-02    0.226E+01
DAV:   6    -0.944907702552E+02    0.33284E+02   -0.57611E+01 10464   0.216E+01    0.123E+01
DAV:   7    -0.105650162698E+03   -0.11159E+02   -0.13974E+01 12768   0.111E+01    0.669E+00
DAV:   8    -0.111476655620E+03   -0.58265E+01   -0.50909E+00 12048   0.645E+00    0.373E+00
DAV:   9    -0.116778305626E+03   -0.53017E+01   -0.28145E+00 10176   0.471E+00    0.252E+00
DAV:  10    -0.120914352835E+03   -0.41360E+01   -0.32071E+00 12432   0.472E+00    0.135E+00
DAV:  11    -0.122780510832E+03   -0.18662E+01   -0.14560E+00 11952   0.283E+00    0.817E-01
DAV:  12    -0.123762088680E+03   -0.98158E+00   -0.78468E-01 13200   0.193E+00    0.403E-01
DAV:  13    -0.124068159130E+03   -0.30607E+00   -0.19071E-01 12720   0.964E-01    0.195E-01
DAV:  14    -0.124122073622E+03   -0.53914E-01   -0.29431E-02 10608   0.401E-01    0.108E-01
DAV:  15    -0.124145467774E+03   -0.23394E-01   -0.14557E-02 10032   0.295E-01    0.579E-02
DAV:  16    -0.124146906021E+03   -0.14382E-02   -0.22539E-03 10128   0.179E-01    0.370E-02
DAV:  17    -0.124147533419E+03   -0.62740E-03   -0.75699E-04  9072   0.950E-02    0.152E-02
DAV:  18    -0.124147563344E+03   -0.29925E-04   -0.16214E-04  9120   0.469E-02    0.840E-03
DAV:  19    -0.124147616533E+03   -0.53189E-04   -0.38571E-05  8640   0.277E-02    0.507E-03
DAV:  20    -0.124147642626E+03   -0.26093E-04   -0.20404E-05  8928   0.186E-02    0.363E-03
DAV:  21    -0.124147691360E+03   -0.48734E-04   -0.16962E-05  8544   0.162E-02    0.231E-03
DAV:  22    -0.124147716867E+03   -0.25506E-04   -0.53927E-06 10176   0.902E-03    0.137E-03
DAV:  23    -0.124147720863E+03   -0.39961E-05   -0.18288E-06 10656   0.518E-03    0.632E-04
DAV:  24    -0.124147723948E+03   -0.30852E-05   -0.35191E-07 12864   0.217E-03    0.338E-04
DAV:  25    -0.124147725340E+03   -0.13923E-05   -0.16819E-07  9696   0.144E-03    0.176E-04
DAV:  26    -0.124147725703E+03   -0.36254E-06   -0.82915E-08 13488   0.112E-03    0.894E-05
DAV:  27    -0.124147725786E+03   -0.83088E-07   -0.32763E-08 11952   0.733E-04    0.438E-05
DAV:  28    -0.124147725803E+03   -0.16717E-07   -0.14112E-08 12672   0.494E-04    0.206E-05
DAV:  29    -0.124147725802E+03    0.48612E-09   -0.39260E-09 13776   0.277E-04
   1 F= -.12563390E+03 E0= -.12563087E+03  d E =-.125634E+03  mag=    -0.0000
       N       E                     dE             d eps       ncg     rms          rms(c)
DAV:   1    -0.124150585960E+03   -0.28602E-02   -0.48267E-01  8544   0.173E+00    0.233E-01
DAV:   2    -0.124148208882E+03    0.23771E-02   -0.11499E-02 13200   0.259E-01    0.103E-01
DAV:   3    -0.124147829215E+03    0.37967E-03   -0.17821E-03 12144   0.905E-02    0.283E-02
DAV:   4    -0.124147815952E+03    0.13263E-04   -0.13610E-04 12240   0.280E-02    0.996E-03
DAV:   5    -0.124147815876E+03    0.75777E-07   -0.69026E-06 12240   0.673E-03    0.300E-03
DAV:   6    -0.124147816789E+03   -0.91261E-06   -0.20112E-06  9504   0.315E-03    0.105E-03
DAV:   7    -0.124147817772E+03   -0.98336E-06   -0.13022E-07 10656   0.917E-04    0.571E-04
DAV:   8    -0.124147819285E+03   -0.15128E-05   -0.85035E-08 10464   0.525E-04    0.284E-04
DAV:   9    -0.124147820251E+03   -0.96615E-06   -0.56048E-08 10080   0.386E-04    0.174E-04
DAV:  10    -0.124147820732E+03   -0.48142E-06   -0.35250E-08 10224   0.300E-04    0.120E-04
DAV:  11    -0.124147820904E+03   -0.17130E-06   -0.12771E-08 12240   0.204E-04    0.613E-05
DAV:  12    -0.124147820961E+03   -0.57712E-07   -0.40519E-09 10176   0.122E-04    0.330E-05
DAV:  13    -0.124147820979E+03   -0.17331E-07   -0.11735E-09 12864   0.843E-05    0.233E-05
DAV:  14    -0.124147820986E+03   -0.69172E-08   -0.88504E-10  9936   0.820E-05
   2 F= -.12563421E+03 E0= -.12563119E+03  d E =-.310660E-03  mag=     0.0000
       N       E                     dE             d eps       ncg     rms          rms(c)
DAV:   1    -0.124149929738E+03   -0.21088E-02   -0.10907E-01  8448   0.824E-01    0.111E-01
DAV:   2    -0.124149397985E+03    0.53175E-03   -0.25991E-03 12432   0.123E-01    0.488E-02
DAV:   3    -0.124149313480E+03    0.84505E-04   -0.42365E-04 14880   0.438E-02    0.133E-02
DAV:   4    -0.124149310492E+03    0.29872E-05   -0.28358E-05 10704   0.128E-02    0.490E-03
DAV:   5    -0.124149310577E+03   -0.84974E-07   -0.18422E-06 14832   0.341E-03    0.147E-03
DAV:   6    -0.124149310654E+03   -0.76570E-07   -0.55044E-07 10080   0.163E-03    0.397E-04
DAV:   7    -0.124149310841E+03   -0.18672E-06   -0.26485E-08  9792   0.471E-04    0.231E-04
DAV:   8    -0.124149310955E+03   -0.11398E-06   -0.74143E-09 10464   0.243E-04    0.118E-04
DAV:   9    -0.124149311058E+03   -0.10356E-06   -0.76467E-09 10080   0.198E-04    0.893E-05
DAV:  10    -0.124149311116E+03   -0.57365E-07   -0.53179E-09 10080   0.164E-04    0.474E-05
DAV:  11    -0.124149311140E+03   -0.24389E-07   -0.29940E-09  9888   0.142E-04    0.218E-05
DAV:  12    -0.124149311144E+03   -0.42501E-08   -0.88679E-10 13344   0.117E-04
   3 F= -.12563560E+03 E0= -.12563258E+03  d E =-.169909E-02  mag=    -0.0000
       N       E                     dE             d eps       ncg     rms          rms(c)
DAV:   1    -0.124149317834E+03   -0.66937E-05   -0.45387E-03  8400   0.248E-01    0.119E-02
DAV:   2    -0.124149316836E+03    0.99760E-06   -0.51957E-05  9216   0.282E-02    0.732E-03
DAV:   3    -0.124149316199E+03    0.63704E-06   -0.66618E-06  9600   0.887E-03    0.183E-03
DAV:   4    -0.124149316236E+03   -0.37344E-07   -0.86061E-07 12288   0.317E-03    0.749E-04
DAV:   5    -0.124149316236E+03    0.37744E-10   -0.36622E-08 11280   0.693E-04
   4 F= -.12563565E+03 E0= -.12563263E+03  d E =-.503405E-04  mag=     0.0000
       N       E                     dE             d eps       ncg     rms          rms(c)
DAV:   1    -0.124149344573E+03   -0.28336E-04   -0.40864E-02  8256   0.745E-01    0.357E-02
DAV:   2    -0.124149335978E+03    0.85946E-05   -0.47097E-04  9408   0.851E-02    0.219E-02
DAV:   3    -0.124149329726E+03    0.62516E-05   -0.60400E-05 10944   0.266E-02    0.537E-03
DAV:   4    -0.124149330244E+03   -0.51748E-06   -0.71351E-06  9552   0.933E-03    0.227E-03
DAV:   5    -0.124149330409E+03   -0.16529E-06   -0.41793E-07  9312   0.245E-03    0.464E-04
DAV:   6    -0.124149330387E+03    0.21766E-07   -0.12352E-07  9888   0.148E-03    0.294E-04
DAV:   7    -0.124149330401E+03   -0.13689E-07   -0.56252E-08 10848   0.990E-04    0.148E-04
DAV:   8    -0.124149330485E+03   -0.83527E-07   -0.36671E-08  9984   0.810E-04    0.114E-04
DAV:   9    -0.124149330549E+03   -0.64415E-07   -0.40427E-08 10944   0.880E-04    0.707E-05
DAV:  10    -0.124149330601E+03   -0.52221E-07   -0.43582E-08 10176   0.918E-04    0.333E-05
DAV:  11    -0.124149330624E+03   -0.22323E-07   -0.20124E-08 10992   0.605E-04    0.357E-05
DAV:  12    -0.124149330629E+03   -0.50763E-08   -0.22228E-09 12720   0.204E-04
   5 F= -.12563580E+03 E0= -.12563278E+03  d E =-.200650E-03  mag=     0.0000
       N       E                     dE             d eps       ncg     rms          rms(c)
DAV:   1    -0.124149412375E+03   -0.81751E-04   -0.16339E-01  8256   0.149E+00    0.714E-02
DAV:   2    -0.124149380408E+03    0.31967E-04   -0.18768E-03  9216   0.170E-01    0.439E-02
DAV:   3    -0.124149352856E+03    0.27552E-04   -0.24418E-04 11424   0.533E-02    0.107E-02
DAV:   4    -0.124149354215E+03   -0.13589E-05   -0.27482E-05  9648   0.183E-02    0.457E-03
DAV:   5    -0.124149354858E+03   -0.64304E-06   -0.13470E-06  9216   0.392E-03    0.806E-04
DAV:   6    -0.124149354750E+03    0.10720E-06   -0.27472E-07 14496   0.142E-03    0.433E-04
DAV:   7    -0.124149354862E+03   -0.11193E-06   -0.42297E-08 10320   0.723E-04    0.239E-04
DAV:   8    -0.124149355069E+03   -0.20689E-06   -0.24658E-08 10080   0.586E-04    0.207E-04
DAV:   9    -0.124149355295E+03   -0.22555E-06   -0.12910E-08 10512   0.351E-04    0.110E-04
DAV:  10    -0.124149355554E+03   -0.25928E-06   -0.26004E-08 10176   0.428E-04    0.757E-05
DAV:  11    -0.124149355595E+03   -0.41076E-07   -0.15318E-08 11856   0.526E-04    0.554E-05
DAV:  12    -0.124149355611E+03   -0.16330E-07   -0.12863E-08 10800   0.489E-04    0.192E-05
DAV:  13    -0.124149355613E+03   -0.15557E-08   -0.42614E-09 12912   0.281E-04
   6 F= -.12563610E+03 E0= -.12563308E+03  d E =-.498505E-03  mag=    -0.0000
       N       E                     dE             d eps       ncg     rms          rms(c)
DAV:   1    -0.124149614088E+03   -0.25848E-03   -0.65353E-01  8256   0.298E+00    0.143E-01
DAV:   2    -0.124149499064E+03    0.11502E-03   -0.75287E-03  9408   0.340E-01    0.877E-02
DAV:   3    -0.124149381633E+03    0.11743E-03   -0.97042E-04 11520   0.106E-01    0.214E-02
DAV:   4    -0.124149384993E+03   -0.33599E-05   -0.11083E-04 11712   0.365E-02    0.916E-03
DAV:   5    -0.124149384397E+03    0.59515E-06   -0.47397E-06  9792   0.710E-03    0.162E-03
DAV:   6    -0.124149383786E+03    0.61117E-06   -0.10971E-06 12912   0.275E-03    0.853E-04
DAV:   7    -0.124149384500E+03   -0.71376E-06   -0.17228E-07  8928   0.123E-03    0.463E-04
DAV:   8    -0.124149385993E+03   -0.14934E-05   -0.98406E-08 10272   0.892E-04    0.388E-04
DAV:   9    -0.124149387360E+03   -0.13661E-05   -0.73700E-08 10272   0.739E-04    0.199E-04
DAV:  10    -0.124149388791E+03   -0.14311E-05   -0.13486E-07  9984   0.731E-04    0.168E-04
DAV:  11    -0.124149388980E+03   -0.18979E-06   -0.31141E-08 12048   0.668E-04    0.887E-05
DAV:  12    -0.124149389041E+03   -0.60177E-07   -0.42530E-08 11280   0.875E-04    0.310E-05
DAV:  13    -0.124149389035E+03    0.54565E-08   -0.15755E-08 13008   0.549E-04
   7 F= -.12563668E+03 E0= -.12563366E+03  d E =-.108113E-02  mag=    -0.0000
       N       E                     dE             d eps       ncg     rms          rms(c)
DAV:   1    -0.124150280683E+03   -0.89164E-03   -0.26138E+00  8256   0.596E+00    0.285E-01
DAV:   2    -0.124149836938E+03    0.44374E-03   -0.30223E-02 10176   0.681E-01    0.175E-01
DAV:   3    -0.124149371170E+03    0.46577E-03   -0.38563E-03 11328   0.210E-01    0.426E-02
DAV:   4    -0.124149378713E+03   -0.75435E-05   -0.43247E-04 14016   0.726E-02    0.185E-02
DAV:   5    -0.124149373229E+03    0.54843E-05   -0.17288E-05  9984   0.132E-02    0.337E-03
DAV:   6    -0.124149371979E+03    0.12495E-05   -0.44560E-06 13920   0.550E-03    0.172E-03
DAV:   7    -0.124149373850E+03   -0.18705E-05   -0.72016E-07 10176   0.230E-03    0.974E-04
DAV:   8    -0.124149376678E+03   -0.28286E-05   -0.19362E-07 11136   0.107E-03    0.784E-04
DAV:   9    -0.124149379708E+03   -0.30292E-05   -0.14806E-07 10176   0.892E-04    0.366E-04
DAV:  10    -0.124149385423E+03   -0.57151E-05   -0.60530E-07 10176   0.120E-03    0.338E-04
DAV:  11    -0.124149386740E+03   -0.13173E-05   -0.12043E-07 10464   0.814E-04    0.157E-04
DAV:  12    -0.124149386964E+03   -0.22364E-06   -0.64552E-08 13152   0.979E-04    0.506E-05
DAV:  13    -0.124149386967E+03   -0.36612E-08   -0.29097E-08 11376   0.745E-04
   8 F= -.12563779E+03 E0= -.12563478E+03  d E =-.219184E-02  mag=    -0.0000
       N       E                     dE             d eps       ncg     rms          rms(c)
DAV:   1    -0.124152580042E+03   -0.31931E-02   -0.10451E+01  8256   0.119E+01    0.570E-01
DAV:   2    -0.124150955414E+03    0.16246E-02   -0.12131E-01  9408   0.137E+00    0.352E-01
DAV:   3    -0.124149071486E+03    0.18839E-02   -0.15628E-02 12960   0.423E-01    0.853E-02
DAV:   4    -0.124149095265E+03   -0.23779E-04   -0.15608E-03 13344   0.139E-01    0.379E-02
DAV:   5    -0.124149064966E+03    0.30299E-04   -0.72976E-05 10752   0.269E-02    0.700E-03
DAV:   6    -0.124149060931E+03    0.40354E-05   -0.17698E-05 13200   0.111E-02    0.344E-03
DAV:   7    -0.124149068457E+03   -0.75267E-05   -0.31416E-06 11184   0.503E-03    0.196E-03
DAV:   8    -0.124149075732E+03   -0.72750E-05   -0.10534E-06 11232   0.337E-03    0.156E-03
DAV:   9    -0.124149082377E+03   -0.66442E-05   -0.73657E-07 10848   0.292E-03    0.734E-04
DAV:  10    -0.124149092013E+03   -0.96361E-05   -0.11638E-06 10464   0.264E-03    0.610E-04
DAV:  11    -0.124149097629E+03   -0.56167E-05   -0.87418E-07 10272   0.282E-03    0.314E-04
DAV:  12    -0.124149099161E+03   -0.15318E-05   -0.72195E-07 10752   0.344E-03    0.128E-04
DAV:  13    -0.124149099132E+03    0.29168E-07   -0.20904E-07 13440   0.199E-03    0.480E-05
DAV:  14    -0.124149099144E+03   -0.11921E-07   -0.64422E-09 11184   0.336E-04    0.276E-05
DAV:  15    -0.124149099146E+03   -0.20946E-08   -0.49297E-10 14352   0.921E-05
   9 F= -.12563979E+03 E0= -.12563678E+03  d E =-.418912E-02  mag=     0.0000
       N       E                     dE             d eps       ncg     rms          rms(c)
DAV:   1    -0.124160621899E+03   -0.11523E-01   -0.41741E+01  8256   0.238E+01    0.114E+00
DAV:   2    -0.124155052858E+03    0.55690E-02   -0.49123E-01  8928   0.275E+00    0.704E-01
DAV:   3    -0.124147429646E+03    0.76232E-02   -0.62521E-02 14208   0.847E-01    0.172E-01
DAV:   4    -0.124147477664E+03   -0.48018E-04   -0.55769E-03 12960   0.268E-01    0.776E-02
DAV:   5    -0.124147377155E+03    0.10051E-03   -0.30671E-04 11424   0.538E-02    0.149E-02
DAV:   6    -0.124147364565E+03    0.12591E-04   -0.67202E-05 12864   0.218E-02    0.700E-03
DAV:   7    -0.124147387424E+03   -0.22859E-04   -0.12670E-05 11184   0.947E-03    0.395E-03
DAV:   8    -0.124147409938E+03   -0.22514E-04   -0.29082E-06 10752   0.346E-03    0.293E-03
DAV:   9    -0.124147428757E+03   -0.18819E-04   -0.15224E-06 11472   0.247E-03    0.128E-03
DAV:  10    -0.124147445234E+03   -0.16477E-04   -0.15806E-06 10608   0.226E-03    0.110E-03
DAV:  11    -0.124147455287E+03   -0.10053E-04   -0.10689E-06 10560   0.185E-03    0.500E-04
DAV:  12    -0.124147461253E+03   -0.59659E-05   -0.80836E-07 10176   0.130E-03    0.156E-04
DAV:  13    -0.124147461612E+03   -0.35870E-06   -0.33156E-08 13824   0.532E-04    0.676E-05
DAV:  14    -0.124147461658E+03   -0.46194E-07   -0.89363E-09 10608   0.377E-04    0.382E-05
DAV:  15    -0.124147461669E+03   -0.10632E-07   -0.31444E-09 13968   0.229E-04    0.161E-05
DAV:  16    -0.124147461670E+03   -0.16107E-08   -0.12416E-09 12240   0.150E-04
  10 F= -.12564297E+03 E0= -.12563998E+03  d E =-.736849E-02  mag=     0.0000
       N       E                     dE             d eps       ncg     rms          rms(c)
DAV:   1    -0.124184380813E+03   -0.36919E-01   -0.16599E+02  8256   0.475E+01    0.226E+00
DAV:   2    -0.124169985092E+03    0.14396E-01   -0.20301E+00  9120   0.566E+00    0.141E+00
DAV:   3    -0.124139959985E+03    0.30025E-01   -0.24200E-01 14208   0.166E+00    0.366E-01
DAV:   4    -0.124140197672E+03   -0.23769E-03   -0.20899E-02 13056   0.517E-01    0.160E-01
DAV:   5    -0.124139712032E+03    0.48564E-03   -0.13816E-03 13344   0.105E-01    0.318E-02
DAV:   6    -0.124139662779E+03    0.49253E-04   -0.22669E-04 12384   0.402E-02    0.146E-02
DAV:   7    -0.124139725738E+03   -0.62959E-04   -0.58084E-05 10176   0.207E-02    0.855E-03
DAV:   8    -0.124139783940E+03   -0.58202E-04   -0.11187E-05 11136   0.773E-03    0.580E-03
DAV:   9    -0.124139832714E+03   -0.48774E-04   -0.64144E-06 11760   0.552E-03    0.244E-03
DAV:  10    -0.124139861727E+03   -0.29013E-04   -0.29556E-06 10992   0.342E-03    0.201E-03
DAV:  11    -0.124139885221E+03   -0.23494E-04   -0.32901E-06 11232   0.342E-03    0.994E-04
DAV:  12    -0.124139894874E+03   -0.96531E-05   -0.12517E-06 10512   0.205E-03    0.291E-04
DAV:  13    -0.124139897191E+03   -0.23167E-05   -0.21095E-07 11184   0.124E-03    0.136E-04
DAV:  14    -0.124139897852E+03   -0.66114E-06   -0.72482E-08 10992   0.914E-04    0.659E-05
DAV:  15    -0.124139897967E+03   -0.11460E-06   -0.20774E-08 13728   0.550E-04    0.351E-05
DAV:  16    -0.124139897980E+03   -0.13210E-07   -0.52895E-09 12096   0.304E-04    0.182E-05
DAV:  17    -0.124139897984E+03   -0.38576E-08   -0.11975E-09 13824   0.138E-04
  11 F= -.12564611E+03 E0= -.12564320E+03  d E =-.105120E-01  mag=    -0.0000
       N       E                     dE             d eps       ncg     rms          rms(c)
DAV:   1    -0.124139897793E+03    0.18706E-06   -0.10846E-05  9888   0.121E-02    0.579E-04
DAV:   2    -0.124139897791E+03    0.19991E-08   -0.12442E-07 15120   0.136E-03    0.354E-04
DAV:   3    -0.124139897789E+03    0.16817E-08   -0.15527E-08 13296   0.412E-04
  12 F= -.12564612E+03 E0= -.12564321E+03  d E =-.273415E-05  mag=     0.0000
       N       E                     dE             d eps       ncg     rms          rms(c)
DAV:   1    -0.124139897237E+03    0.55406E-06   -0.97881E-05  8832   0.365E-02    0.178E-03
DAV:   2    -0.124139897214E+03    0.22780E-07   -0.11030E-06  9792   0.412E-03    0.109E-03
DAV:   3    -0.124139897200E+03    0.13856E-07   -0.14663E-07 11664   0.131E-03    0.261E-04
DAV:   4    -0.124139897200E+03   -0.51932E-09   -0.17485E-08 12384   0.481E-04
  13 F= -.12564612E+03 E0= -.12564321E+03  d E =-.109325E-04  mag=     0.0000
       N       E                     dE             d eps       ncg     rms          rms(c)
DAV:   1    -0.124139896162E+03    0.10380E-05   -0.39039E-04  8640   0.728E-02    0.349E-03
DAV:   2    -0.124139896071E+03    0.91167E-07   -0.44219E-06  8832   0.828E-03    0.214E-03
DAV:   3    -0.124139896017E+03    0.53610E-07   -0.57987E-07  9984   0.264E-03    0.525E-04
DAV:   4    -0.124139896022E+03   -0.50491E-08   -0.80157E-08 10368   0.108E-03
  14 F= -.12564614E+03 E0= -.12564323E+03  d E =-.273309E-04  mag=     0.0000
       N       E                     dE             d eps       ncg     rms          rms(c)
DAV:   1    -0.124139894190E+03    0.18276E-05   -0.15612E-03  8256   0.146E-01    0.698E-03
DAV:   2    -0.124139893828E+03    0.36118E-06   -0.17946E-05  8448   0.168E-02    0.431E-03
DAV:   3    -0.124139893641E+03    0.18785E-06   -0.23396E-06  9216   0.535E-03    0.107E-03
DAV:   4    -0.124139893671E+03   -0.30467E-07   -0.36630E-07  9456   0.245E-03    0.460E-04
DAV:   5    -0.124139893693E+03   -0.22148E-07   -0.12134E-07  9024   0.155E-03    0.201E-04
DAV:   6    -0.124139893654E+03    0.38661E-07   -0.51161E-08  9120   0.990E-04    0.643E-05
DAV:   7    -0.124139893658E+03   -0.30859E-08   -0.62289E-09 10944   0.327E-04
  15 F= -.12564617E+03 E0= -.12564326E+03  d E =-.601308E-04  mag=    -0.0000
       N       E                     dE             d eps       ncg     rms          rms(c)
DAV:   1    -0.124139891142E+03    0.25124E-05   -0.62416E-03  8256   0.291E-01    0.140E-02
DAV:   2    -0.124139889626E+03    0.15162E-05   -0.71506E-05  8448   0.333E-02    0.859E-03
DAV:   3    -0.124139888778E+03    0.84823E-06   -0.93462E-06 10032   0.105E-02    0.211E-03
DAV:   4    -0.124139888889E+03   -0.11154E-06   -0.12044E-06  8640   0.392E-03    0.877E-04
DAV:   5    -0.124139888943E+03   -0.54225E-07   -0.12626E-07  9408   0.155E-03    0.229E-04
DAV:   6    -0.124139888913E+03    0.30032E-07   -0.62063E-08  9888   0.109E-03    0.120E-04
DAV:   7    -0.124139888917E+03   -0.32605E-08   -0.14498E-08 11040   0.490E-04
  16 F= -.12564624E+03 E0= -.12564333E+03  d E =-.125765E-03  mag=     0.0000
       N       E                     dE             d eps       ncg     rms          rms(c)
DAV:   1    -0.124139888245E+03    0.66885E-06   -0.24965E-02  8256   0.583E-01    0.279E-02
DAV:   2    -0.124139882129E+03    0.61155E-05   -0.28588E-04  8448   0.666E-02    0.172E-02
DAV:   3    -0.124139878838E+03    0.32908E-05   -0.37214E-05  9888   0.211E-02    0.423E-03
DAV:   4    -0.124139879197E+03   -0.35831E-06   -0.49225E-06  9264   0.769E-03    0.173E-03
DAV:   5    -0.124139879373E+03   -0.17670E-06   -0.33227E-07  9168   0.237E-03    0.370E-04
DAV:   6    -0.124139879342E+03    0.30780E-07   -0.16345E-07 10704   0.175E-03    0.228E-04
DAV:   7    -0.124139879344E+03   -0.18586E-08   -0.61672E-08 10896   0.105E-03
  17 F= -.12564637E+03 E0= -.12564346E+03  d E =-.257057E-03  mag=    -0.0000
       N       E                     dE             d eps       ncg     rms          rms(c)
DAV:   1    -0.124139894635E+03   -0.15293E-04   -0.99859E-02  8256   0.117E+00    0.558E-02
DAV:   2    -0.124139872711E+03    0.21925E-04   -0.11446E-03  8448   0.133E-01    0.344E-02
DAV:   3    -0.124139856822E+03    0.15889E-04   -0.15014E-04 11232   0.420E-02    0.837E-03
DAV:   4    -0.124139858422E+03   -0.16001E-05   -0.17610E-05  8400   0.146E-02    0.353E-03
DAV:   5    -0.124139858913E+03   -0.49080E-06   -0.10715E-06 10656   0.401E-03    0.684E-04
DAV:   6    -0.124139858895E+03    0.18162E-07   -0.42021E-07 10272   0.274E-03    0.434E-04
DAV:   7    -0.124139858948E+03   -0.53044E-07   -0.20302E-07 10800   0.189E-03    0.226E-04
DAV:   8    -0.124139859245E+03   -0.29758E-06   -0.78450E-08  9600   0.115E-03    0.187E-04
DAV:   9    -0.124139859516E+03   -0.27102E-06   -0.46985E-08 10368   0.892E-04    0.105E-04
DAV:  10    -0.124139859748E+03   -0.23195E-06   -0.38465E-08  9600   0.749E-04    0.635E-05
DAV:  11    -0.124139859822E+03   -0.73786E-07   -0.13949E-08 12480   0.464E-04    0.625E-05
DAV:  12    -0.124139859843E+03   -0.20830E-07   -0.31367E-09 10128   0.217E-04    0.280E-05
DAV:  13    -0.124139859851E+03   -0.77707E-08   -0.86975E-10 13056   0.936E-05
  18 F= -.12564663E+03 E0= -.12564372E+03  d E =-.520120E-03  mag=     0.0000
       N       E                     dE             d eps       ncg     rms          rms(c)
DAV:   1    -0.124139960378E+03   -0.10053E-03   -0.39942E-01  8256   0.233E+00    0.112E-01
DAV:   2    -0.124139887285E+03    0.73092E-04   -0.45910E-03  9024   0.266E-01    0.686E-02
DAV:   3    -0.124139816081E+03    0.71204E-04   -0.60049E-04 12240   0.834E-02    0.166E-02
DAV:   4    -0.124139818474E+03   -0.23926E-05   -0.64106E-05 11616   0.279E-02    0.719E-03
DAV:   5    -0.124139818766E+03   -0.29229E-06   -0.29047E-06  9600   0.557E-03    0.130E-03
DAV:   6    -0.124139818470E+03    0.29632E-06   -0.68926E-07 14208   0.219E-03    0.661E-04
DAV:   7    -0.124139818799E+03   -0.32885E-06   -0.87236E-08  9312   0.841E-04    0.429E-04
DAV:   8    -0.124139819375E+03   -0.57630E-06   -0.19684E-08 10368   0.345E-04    0.344E-04
DAV:   9    -0.124139820763E+03   -0.13879E-05   -0.75382E-08  9888   0.439E-04    0.104E-04
DAV:  10    -0.124139821654E+03   -0.89137E-06   -0.57563E-08 10176   0.359E-04    0.147E-04
DAV:  11    -0.124139821829E+03   -0.17471E-06   -0.90193E-09 12096   0.193E-04    0.895E-05
DAV:  12    -0.124139821880E+03   -0.50916E-07   -0.29702E-09 11472   0.131E-04    0.267E-05
DAV:  13    -0.124139821893E+03   -0.12918E-07   -0.13577E-09 12336   0.107E-04    0.110E-05
DAV:  14    -0.124139821894E+03   -0.66984E-09   -0.29504E-10 12672   0.731E-05
  19 F= -.12564716E+03 E0= -.12564425E+03  d E =-.105035E-02  mag=     0.0000
       N       E                     dE             d eps       ncg     rms          rms(c)
DAV:   1    -0.124140293820E+03   -0.47193E-03   -0.15976E+00  8256   0.466E+00    0.223E-01
DAV:   2    -0.124140009268E+03    0.28455E-03   -0.18396E-02  9408   0.532E-01    0.137E-01
DAV:   3    -0.124139731691E+03    0.27758E-03   -0.23941E-03 11904   0.166E-01    0.332E-02
DAV:   4    -0.124139736919E+03   -0.52280E-05   -0.26200E-04 13344   0.561E-02    0.144E-02
DAV:   5    -0.124139734131E+03    0.27873E-05   -0.10918E-05  9984   0.105E-02    0.267E-03
DAV:   6    -0.124139733434E+03    0.69770E-06   -0.28042E-06 13920   0.440E-03    0.130E-03
DAV:   7    -0.124139734479E+03   -0.10455E-05   -0.43646E-07 10080   0.182E-03    0.869E-04
DAV:   8    -0.124139736365E+03   -0.18855E-05   -0.79454E-08 10560   0.681E-04    0.589E-04
DAV:   9    -0.124139739308E+03   -0.29429E-05   -0.16133E-07 10272   0.756E-04    0.213E-04
DAV:  10    -0.124139742194E+03   -0.28866E-05   -0.22614E-07 10080   0.706E-04    0.299E-04
DAV:  11    -0.124139743269E+03   -0.10753E-05   -0.81239E-08  9888   0.494E-04    0.123E-04
DAV:  12    -0.124139743435E+03   -0.16551E-06   -0.20673E-08 12720   0.472E-04    0.334E-05
DAV:  13    -0.124139743445E+03   -0.99171E-08   -0.69572E-09 12672   0.357E-04
  20 F= -.12564823E+03 E0= -.12564532E+03  d E =-.211992E-02  mag=    -0.0000
       N       E                     dE             d eps       ncg     rms          rms(c)
DAV:   1    -0.124141723210E+03   -0.19798E-02   -0.63885E+00  8256   0.932E+00    0.446E-01
DAV:   2    -0.124140638983E+03    0.10842E-02   -0.73845E-02  9024   0.107E+00    0.275E-01
DAV:   3    -0.124139548206E+03    0.10908E-02   -0.96508E-03 12864   0.333E-01    0.664E-02
DAV:   4    -0.124139559519E+03   -0.11313E-04   -0.94635E-04 13728   0.108E-01    0.294E-02
DAV:   5    -0.124139542758E+03    0.16761E-04   -0.44796E-05 10656   0.209E-02    0.556E-03
DAV:   6    -0.124139540879E+03    0.18787E-05   -0.11199E-05 13056   0.886E-03    0.259E-03
DAV:   7    -0.124139545497E+03   -0.46181E-05   -0.18151E-06  9744   0.368E-03    0.177E-03
DAV:   8    -0.124139549598E+03   -0.41008E-05   -0.25204E-07 10656   0.141E-03    0.126E-03
DAV:   9    -0.124139555986E+03   -0.63875E-05   -0.48840E-07 10848   0.147E-03    0.436E-04
DAV:  10    -0.124139561587E+03   -0.56008E-05   -0.48360E-07 10656   0.125E-03    0.547E-04
DAV:  11    -0.124139564838E+03   -0.32516E-05   -0.28360E-07 10320   0.105E-03    0.252E-04
DAV:  12    -0.124139565980E+03   -0.11418E-05   -0.14157E-07 11232   0.115E-03    0.790E-05
DAV:  13    -0.124139566067E+03   -0.86777E-07   -0.37073E-08 13296   0.803E-04    0.434E-05
DAV:  14    -0.124139566079E+03   -0.12121E-07   -0.24201E-09 12192   0.202E-04    0.279E-05
DAV:  15    -0.124139566082E+03   -0.32892E-08   -0.38259E-10 13008   0.733E-05
  21 F= -.12565040E+03 E0= -.12564749E+03  d E =-.428674E-02  mag=     0.0000
       N       E                     dE             d eps       ncg     rms          rms(c)
DAV:   1    -0.124147445394E+03   -0.78793E-02   -0.25530E+01  8256   0.186E+01    0.890E-01
DAV:   2    -0.124143702547E+03    0.37428E-02   -0.29790E-01  8448   0.214E+00    0.551E-01
DAV:   3    -0.124139116319E+03    0.45862E-02   -0.38897E-02 13920   0.669E-01    0.134E-01
DAV:   4    -0.124139161245E+03   -0.44925E-04   -0.34714E-03 13248   0.208E-01    0.598E-02
DAV:   5    -0.124139109446E+03    0.51798E-04   -0.18854E-04 12576   0.420E-02    0.116E-02
DAV:   6    -0.124139102858E+03    0.65883E-05   -0.42681E-05 11904   0.174E-02    0.519E-03
DAV:   7    -0.124139119196E+03   -0.16338E-04   -0.76147E-06 10080   0.747E-03    0.356E-03
DAV:   8    -0.124139135149E+03   -0.15953E-04   -0.15023E-06 11040   0.290E-03    0.195E-03
DAV:   9    -0.124139148217E+03   -0.13068E-04   -0.10947E-06 10752   0.210E-03    0.915E-04
DAV:  10    -0.124139158440E+03   -0.10222E-04   -0.95865E-07 11040   0.179E-03    0.915E-04
DAV:  11    -0.124139164739E+03   -0.62993E-05   -0.57341E-07 11376   0.133E-03    0.441E-04
DAV:  12    -0.124139168513E+03   -0.37735E-05   -0.41749E-07  9504   0.947E-04    0.108E-04
DAV:  13    -0.124139168803E+03   -0.29099E-06   -0.13327E-08 14304   0.234E-04    0.720E-05
DAV:  14    -0.124139168867E+03   -0.63626E-07   -0.27757E-09 10320   0.124E-04    0.327E-05
DAV:  15    -0.124139168881E+03   -0.13999E-07   -0.82529E-10 13344   0.798E-05    0.994E-06
DAV:  16    -0.124139168883E+03   -0.16330E-08   -0.19808E-10 12768   0.545E-05
  22 F= -.12565489E+03 E0= -.12565198E+03  d E =-.877682E-02  mag=     0.0000
       N       E                     dE             d eps       ncg     rms          rms(c)
DAV:   1    -0.124167693285E+03   -0.28524E-01   -0.10175E+02  8256   0.372E+01    0.177E+00
DAV:   2    -0.124155871536E+03    0.11822E-01   -0.12208E+00  8736   0.437E+00    0.110E+00
DAV:   3    -0.124138189134E+03    0.17682E-01   -0.15223E-01 13728   0.132E+00    0.277E-01
DAV:   4    -0.124138357538E+03   -0.16840E-03   -0.13622E-02 13344   0.414E-01    0.124E-01
DAV:   5    -0.124138094347E+03    0.26319E-03   -0.79494E-04 12960   0.825E-02    0.254E-02
DAV:   6    -0.124138069117E+03    0.25231E-04   -0.15353E-04 11904   0.331E-02    0.110E-02
DAV:   7    -0.124138114976E+03   -0.45859E-04   -0.32201E-05  9600   0.156E-02    0.712E-03
DAV:   8    -0.124138162803E+03   -0.47827E-04   -0.74837E-06 11040   0.662E-03    0.363E-03
DAV:   9    -0.124138191434E+03   -0.28631E-04   -0.31350E-06 11904   0.370E-03    0.180E-03
DAV:  10    -0.124138212166E+03   -0.20732E-04   -0.22189E-06 10800   0.290E-03    0.152E-03
DAV:  11    -0.124138226351E+03   -0.14185E-04   -0.17130E-06 10848   0.242E-03    0.818E-04
DAV:  12    -0.124138233223E+03   -0.68726E-05   -0.76854E-07 10752   0.154E-03    0.196E-04
DAV:  13    -0.124138234733E+03   -0.15093E-05   -0.95200E-08 11376   0.682E-04    0.106E-04
DAV:  14    -0.124138235282E+03   -0.54956E-06   -0.33166E-08 11280   0.473E-04    0.515E-05
DAV:  15    -0.124138235402E+03   -0.11947E-06   -0.10157E-08 12624   0.291E-04    0.227E-05
DAV:  16    -0.124138235409E+03   -0.68544E-08   -0.16782E-09 13056   0.167E-04
  23 F= -.12566458E+03 E0= -.12566167E+03  d E =-.184655E-01  mag=     0.0000
       N       E                     dE             d eps       ncg     rms          rms(c)
DAV:   1    -0.124212189460E+03   -0.73954E-01   -0.40126E+02  8256   0.737E+01    0.349E+00
DAV:   2    -0.124209122959E+03    0.30665E-02   -0.52173E+00  8832   0.921E+00    0.222E+00
DAV:   3    -0.124134652569E+03    0.74470E-01   -0.55118E-01 14112   0.253E+00    0.647E-01
DAV:   4    -0.124136242624E+03   -0.15901E-02   -0.44774E-02 13536   0.763E-01    0.256E-01
DAV:   5    -0.124135175887E+03    0.10667E-02   -0.40580E-03 13536   0.162E-01    0.483E-02
DAV:   6    -0.124135095831E+03    0.80056E-04   -0.43358E-04 11616   0.590E-02    0.226E-02
DAV:   7    -0.124135230226E+03   -0.13440E-03   -0.17177E-04  9648   0.378E-02    0.150E-02
DAV:   8    -0.124135326012E+03   -0.95785E-04   -0.21408E-05 10944   0.124E-02    0.923E-03
DAV:   9    -0.124135397942E+03   -0.71931E-04   -0.12378E-05 11040   0.849E-03    0.386E-03
DAV:  10    -0.124135442027E+03   -0.44085E-04   -0.61619E-06 11808   0.518E-03    0.329E-03
DAV:  11    -0.124135474753E+03   -0.32725E-04   -0.59334E-06 11424   0.482E-03    0.210E-03
DAV:  12    -0.124135485816E+03   -0.11064E-04   -0.14128E-06 11328   0.262E-03    0.469E-04
DAV:  13    -0.124135488784E+03   -0.29674E-05   -0.16159E-07 11328   0.103E-03    0.270E-04
DAV:  14    -0.124135490374E+03   -0.15903E-05   -0.74884E-08 11568   0.664E-04    0.138E-04
DAV:  15    -0.124135491573E+03   -0.11984E-05   -0.89996E-08 10224   0.507E-04    0.493E-05
DAV:  16    -0.124135491673E+03   -0.10015E-06   -0.61388E-09 14448   0.207E-04    0.299E-05
DAV:  17    -0.124135491688E+03   -0.14995E-07   -0.12401E-09 12048   0.106E-04    0.174E-05
DAV:  18    -0.124135491691E+03   -0.38276E-08   -0.53494E-10 13296   0.676E-05
  24 F= -.12568694E+03 E0= -.12568403E+03  d E =-.408237E-01  mag=     0.0000
       N       E                     dE             d eps       ncg     rms          rms(c)
DAV:   1    -0.123956462415E+03    0.17903E+00   -0.15160E+03  8256   0.141E+02    0.677E+00
DAV:   2    -0.124438095239E+03   -0.48163E+00   -0.24661E+01  9024   0.206E+01    0.443E+00
DAV:   3    -0.124140144280E+03    0.29795E+00   -0.16576E+00 14016   0.449E+00    0.181E+00
DAV:   4    -0.124127474527E+03    0.12670E-01   -0.19284E-01 14208   0.162E+00    0.485E-01
DAV:   5    -0.124123658478E+03    0.38160E-02   -0.22714E-02 13344   0.408E-01    0.868E-02
DAV:   6    -0.124123417576E+03    0.24090E-03   -0.10117E-03 13632   0.992E-02    0.446E-02
DAV:   7    -0.124123688973E+03   -0.27140E-03   -0.67767E-04 10176   0.751E-02    0.254E-02
DAV:   8    -0.124123914120E+03   -0.22515E-03   -0.12950E-04  8448   0.285E-02    0.121E-02
DAV:   9    -0.124124078029E+03   -0.16391E-03   -0.59499E-05 11712   0.202E-02    0.108E-02
DAV:  10    -0.124124137027E+03   -0.58999E-04   -0.18791E-05 10656   0.971E-03    0.658E-03
DAV:  11    -0.124124165011E+03   -0.27983E-04   -0.73764E-06 11616   0.644E-03    0.255E-03
DAV:  12    -0.124124183532E+03   -0.18521E-04   -0.27080E-06 12336   0.418E-03    0.113E-03
DAV:  13    -0.124124191060E+03   -0.75279E-05   -0.76069E-07 13152   0.193E-03    0.802E-04
DAV:  14    -0.124124193940E+03   -0.28806E-05   -0.15213E-07 10176   0.919E-04    0.226E-04
DAV:  15    -0.124124195052E+03   -0.11113E-05   -0.46221E-08 11616   0.457E-04    0.121E-04
DAV:  16    -0.124124195472E+03   -0.42067E-06   -0.11751E-08 11856   0.203E-04    0.625E-05
DAV:  17    -0.124124195828E+03   -0.35525E-06   -0.22374E-08 10224   0.241E-04    0.282E-05
DAV:  18    -0.124124195837E+03   -0.91127E-08   -0.12171E-09 15216   0.637E-05
  25 F= -.12574567E+03 E0= -.12574278E+03  d E =-.995542E-01  mag=    -0.0000
       N       E                     dE             d eps       ncg     rms          rms(c)
DAV:   1    -0.119763905698E+03    0.43603E+01   -0.48747E+03  8256   0.234E+02    0.146E+01
DAV:   2    -0.125361893335E+03   -0.55980E+01   -0.11833E+02  8448   0.461E+01    0.881E+00
DAV:   3    -0.124405880743E+03    0.95601E+00   -0.37667E+00 14880   0.739E+00    0.582E+00
DAV:   4    -0.123968780060E+03    0.43710E+00   -0.22381E+00 14496   0.478E+00    0.816E-01
DAV:   5    -0.123971110687E+03   -0.23306E-02   -0.75597E-02 11232   0.104E+00    0.445E-01
DAV:   6    -0.123965587189E+03    0.55235E-02   -0.25817E-02 13344   0.466E-01    0.971E-02
DAV:   7    -0.123964830920E+03    0.75627E-03   -0.23092E-03 13632   0.159E-01    0.459E-02
DAV:   8    -0.123965056752E+03   -0.22583E-03   -0.11562E-03 12096   0.884E-02    0.348E-02
DAV:   9    -0.123965219686E+03   -0.16293E-03   -0.18016E-04 12096   0.375E-02    0.170E-02
DAV:  10    -0.123965326376E+03   -0.10669E-03   -0.85895E-05 11232   0.249E-02    0.185E-02
DAV:  11    -0.123965364405E+03   -0.38030E-04   -0.23169E-05 11952   0.113E-02    0.105E-02
DAV:  12    -0.123965391109E+03   -0.26703E-04   -0.23411E-05 10560   0.128E-02    0.741E-03
DAV:  13    -0.123965401579E+03   -0.10470E-04   -0.25885E-06 13632   0.494E-03    0.215E-03
DAV:  14    -0.123965406801E+03   -0.52219E-05   -0.78808E-07 12576   0.257E-03    0.915E-04
DAV:  15    -0.123965409301E+03   -0.25004E-05   -0.20530E-07 12912   0.116E-03    0.586E-04
DAV:  16    -0.123965410896E+03   -0.15952E-05   -0.15313E-07 11232   0.848E-04    0.272E-04
DAV:  17    -0.123965411500E+03   -0.60363E-06   -0.32165E-08 11760   0.360E-04    0.127E-04
DAV:  18    -0.123965411960E+03   -0.45997E-06   -0.22891E-08 11664   0.263E-04    0.732E-05
DAV:  19    -0.123965412235E+03   -0.27557E-06   -0.15931E-08 11520   0.183E-04    0.438E-05
DAV:  20    -0.123965412362E+03   -0.12688E-06   -0.59715E-09 11568   0.117E-04    0.278E-05
DAV:  21    -0.123965412412E+03   -0.49272E-07   -0.12835E-09 11952   0.595E-05    0.216E-05
DAV:  22    -0.123965412431E+03   -0.19779E-07   -0.32384E-10 11808   0.352E-05    0.859E-06
DAV:  23    -0.123965412435E+03   -0.34433E-08   -0.60555E-11 13440   0.181E-05
  26 F= -.12584092E+03 E0= -.12583825E+03  d E =-.194804E+00  mag=     0.0000
       N       E                     dE             d eps       ncg     rms          rms(c)
DAV:   1    -0.123973917403E+03   -0.85050E-02   -0.14516E+03  8256   0.139E+02    0.672E+00
DAV:   2    -0.124379098719E+03   -0.40518E+00   -0.23344E+01  8832   0.205E+01    0.435E+00
DAV:   3    -0.124106122877E+03    0.27298E+00   -0.15146E+00 14640   0.431E+00    0.187E+00
DAV:   4    -0.124091582298E+03    0.14541E-01   -0.18845E-01 13536   0.162E+00    0.477E-01
DAV:   5    -0.124089026203E+03    0.25561E-02   -0.25256E-02 12576   0.454E-01    0.965E-02
DAV:   6    -0.124088822658E+03    0.20355E-03   -0.87227E-04 14592   0.101E-01    0.515E-02
DAV:   7    -0.124088789010E+03    0.33647E-04   -0.50028E-04 10272   0.743E-02    0.261E-02
DAV:   8    -0.124088831333E+03   -0.42323E-04   -0.46711E-05  9648   0.199E-02    0.153E-02
DAV:   9    -0.124088949629E+03   -0.11830E-03   -0.55593E-05  9072   0.203E-02    0.937E-03
DAV:  10    -0.124089075813E+03   -0.12618E-03   -0.12304E-05 10848   0.974E-03    0.740E-03
DAV:  11    -0.124089194710E+03   -0.11890E-03   -0.81508E-06 13248   0.742E-03    0.380E-03
DAV:  12    -0.124089238823E+03   -0.44113E-04   -0.10714E-06 11136   0.315E-03    0.212E-03
DAV:  13    -0.124089280660E+03   -0.41837E-04   -0.96314E-07 12912   0.311E-03    0.104E-03
DAV:  14    -0.124089292094E+03   -0.11434E-04   -0.15084E-07 13248   0.118E-03    0.725E-04
DAV:  15    -0.124089295934E+03   -0.38399E-05   -0.56957E-08 13392   0.607E-04    0.275E-04
DAV:  16    -0.124089298060E+03   -0.21258E-05   -0.53282E-08 12192   0.439E-04    0.138E-04
DAV:  17    -0.124089298450E+03   -0.39086E-06   -0.12983E-08 12336   0.216E-04    0.652E-05
DAV:  18    -0.124089298539E+03   -0.88337E-07   -0.92163E-09 11040   0.171E-04    0.357E-05
DAV:  19    -0.124089298612E+03   -0.73363E-07   -0.33850E-09 12432   0.952E-05    0.219E-05
DAV:  20    -0.124089298692E+03   -0.80079E-07   -0.38761E-09  9936   0.980E-05    0.188E-05
DAV:  21    -0.124089298703E+03   -0.10622E-07   -0.36819E-10 13296   0.395E-05    0.104E-05
DAV:  22    -0.124089298705E+03   -0.20400E-08   -0.54871E-11 13248   0.191E-05
  27 F= -.12581949E+03 E0= -.12581675E+03  d E =-.173376E+00  mag=    -0.0000
       N       E                     dE             d eps       ncg     rms          rms(c)
DAV:   1    -0.124131777421E+03   -0.42479E-01   -0.39579E+02  8256   0.734E+01    0.348E+00
DAV:   2    -0.124118759024E+03    0.13018E-01   -0.51569E+00 10560   0.914E+00    0.220E+00
DAV:   3    -0.124045918306E+03    0.72841E-01   -0.49360E-01 13344   0.239E+00    0.668E-01
DAV:   4    -0.124047325123E+03   -0.14068E-02   -0.48152E-02 13440   0.779E-01    0.246E-01
DAV:   5    -0.124046438934E+03    0.88619E-03   -0.36904E-03 14976   0.159E-01    0.484E-02
DAV:   6    -0.124046353711E+03    0.85224E-04   -0.39491E-04 11904   0.581E-02    0.208E-02
DAV:   7    -0.124046465067E+03   -0.11136E-03   -0.15473E-04 11520   0.360E-02    0.140E-02
DAV:   8    -0.124046554791E+03   -0.89723E-04   -0.25358E-05  9408   0.130E-02    0.916E-03
DAV:   9    -0.124046626069E+03   -0.71278E-04   -0.16830E-05 11040   0.969E-03    0.348E-03
DAV:  10    -0.124046655390E+03   -0.29322E-04   -0.48073E-06 11664   0.433E-03    0.335E-03
DAV:  11    -0.124046671171E+03   -0.15781E-04   -0.29505E-06 12144   0.330E-03    0.199E-03
DAV:  12    -0.124046678551E+03   -0.73798E-05   -0.11865E-06 12816   0.251E-03    0.742E-04
DAV:  13    -0.124046681404E+03   -0.28527E-05   -0.22944E-07 12816   0.113E-03    0.323E-04
DAV:  14    -0.124046682141E+03   -0.73734E-06   -0.30890E-08 12384   0.438E-04    0.190E-04
DAV:  15    -0.124046682569E+03   -0.42799E-06   -0.16842E-08 11424   0.285E-04    0.720E-05
DAV:  16    -0.124046682930E+03   -0.36133E-06   -0.13226E-08 11376   0.218E-04    0.418E-05
DAV:  17    -0.124046683019E+03   -0.89020E-07   -0.40841E-09 12240   0.114E-04    0.260E-05
DAV:  18    -0.124046683042E+03   -0.22520E-07   -0.16006E-09 12960   0.600E-05    0.176E-05
DAV:  19    -0.124046683061E+03   -0.18755E-07   -0.71854E-10 10800   0.419E-05    0.822E-06
DAV:  20    -0.124046683067E+03   -0.59645E-08   -0.16984E-10 12000   0.244E-05
  28 F= -.12584574E+03 E0= -.12584321E+03  d E =-.199630E+00  mag=     0.0000
       N       E                     dE             d eps       ncg     rms          rms(c)
DAV:   1    -0.124039082322E+03    0.76007E-02   -0.39492E+01  8256   0.233E+01    0.111E+00
DAV:   2    -0.124032905447E+03    0.61769E-02   -0.46761E-01 10848   0.270E+00    0.681E-01
DAV:   3    -0.124026113242E+03    0.67922E-02   -0.55123E-02 14112   0.791E-01    0.174E-01
DAV:   4    -0.124026126562E+03   -0.13320E-04   -0.55588E-03 14592   0.262E-01    0.724E-02
DAV:   5    -0.124026059434E+03    0.67127E-04   -0.27438E-04 14976   0.528E-02    0.142E-02
DAV:   6    -0.124026051085E+03    0.83492E-05   -0.48973E-05 11904   0.201E-02    0.621E-03
DAV:   7    -0.124026070179E+03   -0.19094E-04   -0.11437E-05 10656   0.102E-02    0.361E-03
DAV:   8    -0.124026087106E+03   -0.16928E-04   -0.31778E-06 10752   0.447E-03    0.284E-03
DAV:   9    -0.124026098542E+03   -0.11436E-04   -0.10895E-06 11760   0.239E-03    0.148E-03
DAV:  10    -0.124026111188E+03   -0.12645E-04   -0.17699E-06 11472   0.250E-03    0.972E-04
DAV:  11    -0.124026116238E+03   -0.50507E-05   -0.48589E-07 13920   0.136E-03    0.503E-04
DAV:  12    -0.124026119190E+03   -0.29521E-05   -0.30361E-07 12480   0.102E-03    0.240E-04
DAV:  13    -0.124026119950E+03   -0.75988E-06   -0.39544E-08 14208   0.421E-04    0.125E-04
DAV:  14    -0.124026120401E+03   -0.45083E-06   -0.19772E-08 11424   0.275E-04    0.688E-05
DAV:  15    -0.124026120638E+03   -0.23653E-06   -0.72899E-09 13248   0.168E-04    0.392E-05
DAV:  16    -0.124026120703E+03   -0.65014E-07   -0.18822E-09 12288   0.852E-05    0.170E-05
DAV:  17    -0.124026120714E+03   -0.11573E-07   -0.59581E-10 14400   0.431E-05    0.145E-05
DAV:  18    -0.124026120720E+03   -0.55516E-08   -0.37375E-10 11232   0.277E-05
  29 F= -.12584894E+03 E0= -.12584641E+03  d E =-.202823E+00  mag=    -0.0000
       N       E                     dE             d eps       ncg     rms          rms(c)
DAV:   1    -0.124034752239E+03   -0.86315E-02   -0.25599E+02  8256   0.592E+01    0.281E+00
DAV:   2    -0.124013246955E+03    0.21505E-01   -0.32175E+00  9696   0.721E+00    0.176E+00
DAV:   3    -0.123969258601E+03    0.43988E-01   -0.34325E-01 14592   0.200E+00    0.503E-01
DAV:   4    -0.123969643492E+03   -0.38489E-03   -0.31340E-02 13248   0.628E-01    0.195E-01
DAV:   5    -0.123968984148E+03    0.65934E-03   -0.21862E-03 15072   0.135E-01    0.398E-02
DAV:   6    -0.123968908438E+03    0.75710E-04   -0.33272E-04 10944   0.543E-02    0.171E-02
DAV:   7    -0.123968977434E+03   -0.68996E-04   -0.98313E-05 12960   0.309E-02    0.964E-03
DAV:   8    -0.123969051700E+03   -0.74266E-04   -0.27813E-05 10176   0.139E-02    0.740E-03
DAV:   9    -0.123969102041E+03   -0.50341E-04   -0.10317E-05 12384   0.788E-03    0.350E-03
DAV:  10    -0.123969129136E+03   -0.27095E-04   -0.45802E-06 11568   0.436E-03    0.247E-03
DAV:  11    -0.123969144672E+03   -0.15536E-04   -0.31852E-06 12288   0.358E-03    0.152E-03
DAV:  12    -0.123969150440E+03   -0.57682E-05   -0.10298E-06 13104   0.226E-03    0.668E-04
DAV:  13    -0.123969152112E+03   -0.16723E-05   -0.13568E-07 14352   0.932E-04    0.317E-04
DAV:  14    -0.123969152900E+03   -0.78743E-06   -0.50321E-08 12480   0.530E-04    0.171E-04
DAV:  15    -0.123969153261E+03   -0.36139E-06   -0.17455E-08 13104   0.284E-04    0.107E-04
DAV:  16    -0.123969153579E+03   -0.31729E-06   -0.11128E-08 12048   0.205E-04    0.547E-05
DAV:  17    -0.123969153784E+03   -0.20542E-06   -0.87654E-09 11424   0.160E-04    0.414E-05
DAV:  18    -0.123969153844E+03   -0.59607E-07   -0.40731E-09 12864   0.923E-05    0.218E-05
DAV:  19    -0.123969153864E+03   -0.20267E-07   -0.46891E-10 11712   0.348E-05    0.123E-05
DAV:  20    -0.123969153880E+03   -0.15909E-07   -0.31367E-10 12096   0.299E-05    0.505E-06
DAV:  21    -0.123969153885E+03   -0.49768E-08   -0.14849E-10 12192   0.208E-05
  30 F= -.12585719E+03 E0= -.12585448E+03  d E =-.825632E-02  mag=     0.0000
       N       E                     dE             d eps       ncg     rms          rms(c)
DAV:   1    -0.123999333040E+03   -0.30179E-01   -0.22118E+01  8256   0.174E+01    0.834E-01
DAV:   2    -0.123994356726E+03    0.49763E-02   -0.25152E-01 11136   0.200E+00    0.507E-01
DAV:   3    -0.123990902310E+03    0.34544E-02   -0.31294E-02 13248   0.595E-01    0.129E-01
DAV:   4    -0.123990903725E+03   -0.14153E-05   -0.31634E-03 11328   0.200E-01    0.543E-02
DAV:   5    -0.123990901386E+03    0.23393E-05   -0.16650E-04 11712   0.445E-02    0.105E-02
DAV:   6    -0.123990896788E+03    0.45974E-05   -0.32645E-05 13152   0.171E-02    0.440E-03
DAV:   7    -0.123990901181E+03   -0.43926E-05   -0.59359E-06 11520   0.833E-03    0.233E-03
DAV:   8    -0.123990908508E+03   -0.73272E-05   -0.16849E-06 13200   0.342E-03    0.209E-03
DAV:   9    -0.123990919630E+03   -0.11122E-04   -0.83231E-07 13440   0.210E-03    0.797E-04
DAV:  10    -0.123990924960E+03   -0.53295E-05   -0.17853E-07 14352   0.854E-04    0.692E-04
DAV:  11    -0.123990930396E+03   -0.54356E-05   -0.15730E-07 13008   0.785E-04    0.421E-04
DAV:  12    -0.123990933768E+03   -0.33727E-05   -0.80116E-08 13680   0.513E-04    0.166E-04
DAV:  13    -0.123990935106E+03   -0.13376E-05   -0.24397E-08 13104   0.308E-04    0.813E-05
DAV:  14    -0.123990935390E+03   -0.28379E-06   -0.35254E-09 13824   0.139E-04    0.621E-05
DAV:  15    -0.123990935507E+03   -0.11694E-06   -0.19708E-09 12576   0.893E-05    0.312E-05
DAV:  16    -0.123990935535E+03   -0.28486E-07   -0.96325E-10 12720   0.613E-05    0.145E-05
DAV:  17    -0.123990935540E+03   -0.46884E-08   -0.26935E-10 13392   0.330E-05
  31 F= -.12585931E+03 E0= -.12585667E+03  d E =-.103713E-01  mag=    -0.0000
       N       E                     dE             d eps       ncg     rms          rms(c)
DAV:   1    -0.124014303629E+03   -0.23368E-01   -0.37080E+00  8256   0.718E+00    0.342E-01
DAV:   2    -0.124013576029E+03    0.72760E-03   -0.43220E-02 11616   0.826E-01    0.209E-01
DAV:   3    -0.124012956204E+03    0.61983E-03   -0.54014E-03 14016   0.251E-01    0.561E-02
DAV:   4    -0.124012971078E+03   -0.14874E-04   -0.64503E-04 10944   0.909E-02    0.267E-02
DAV:   5    -0.124012972353E+03   -0.12758E-05   -0.25447E-05 12672   0.202E-02    0.644E-03
DAV:   6    -0.124012971011E+03    0.13429E-05   -0.72397E-06 13344   0.802E-03    0.251E-03
DAV:   7    -0.124012971373E+03   -0.36203E-06   -0.67220E-07 12864   0.304E-03    0.124E-03
DAV:   8    -0.124012973203E+03   -0.18300E-05   -0.74880E-07 12864   0.260E-03    0.104E-03
DAV:   9    -0.124012974812E+03   -0.16097E-05   -0.98315E-08 13584   0.100E-03    0.783E-04
DAV:  10    -0.124012977664E+03   -0.28517E-05   -0.15469E-07 13152   0.948E-04    0.260E-04
DAV:  11    -0.124012979379E+03   -0.17154E-05   -0.44752E-08 13056   0.441E-04    0.215E-04
DAV:  12    -0.124012981158E+03   -0.17788E-05   -0.52464E-08 12192   0.397E-04    0.877E-05
DAV:  13    -0.124012981502E+03   -0.34416E-06   -0.43590E-09 14304   0.142E-04    0.476E-05
DAV:  14    -0.124012981680E+03   -0.17811E-06   -0.24858E-09 12672   0.104E-04    0.262E-05
DAV:  15    -0.124012981733E+03   -0.52355E-07   -0.82762E-10 13584   0.596E-05    0.157E-05
DAV:  16    -0.124012981745E+03   -0.12558E-07   -0.24445E-10 13008   0.355E-05    0.864E-06
DAV:  17    -0.124012981748E+03   -0.23992E-08   -0.11008E-10 14304   0.235E-05
  32 F= -.12587363E+03 E0= -.12587101E+03  d E =-.143183E-01  mag=    -0.0000
       N       E                     dE             d eps       ncg     rms          rms(c)
DAV:   1    -0.124068354163E+03   -0.55372E-01   -0.33324E+01  8256   0.215E+01    0.102E+00
DAV:   2    -0.124062230703E+03    0.61235E-02   -0.39199E-01 12096   0.250E+00    0.628E-01
DAV:   3    -0.124056789319E+03    0.54414E-02   -0.47949E-02 14112   0.741E-01    0.169E-01
DAV:   4    -0.124056740685E+03    0.48635E-04   -0.54184E-03 11328   0.265E-01    0.805E-02
DAV:   5    -0.124056737774E+03    0.29108E-05   -0.22164E-04 11904   0.580E-02    0.196E-02
DAV:   6    -0.124056725221E+03    0.12553E-04   -0.65922E-05 13248   0.241E-02    0.757E-03
DAV:   7    -0.124056727005E+03   -0.17844E-05   -0.58333E-06 13056   0.917E-03    0.361E-03
DAV:   8    -0.124056736761E+03   -0.97561E-05   -0.67308E-06 12432   0.804E-03    0.319E-03
DAV:   9    -0.124056749066E+03   -0.12304E-04   -0.18063E-06 13008   0.423E-03    0.152E-03
DAV:  10    -0.124056759219E+03   -0.10153E-04   -0.60807E-07 13728   0.181E-03    0.774E-04
DAV:  11    -0.124056765357E+03   -0.61379E-05   -0.15098E-07 13104   0.827E-04    0.615E-04
DAV:  12    -0.124056773271E+03   -0.79144E-05   -0.27183E-07 11520   0.101E-03    0.282E-04
DAV:  13    -0.124056775181E+03   -0.19099E-05   -0.31808E-08 13632   0.394E-04    0.117E-04
DAV:  14    -0.124056775878E+03   -0.69643E-06   -0.12343E-08 11808   0.240E-04    0.725E-05
DAV:  15    -0.124056776018E+03   -0.14006E-06   -0.20072E-09 14208   0.110E-04    0.408E-05
DAV:  16    -0.124056776082E+03   -0.64134E-07   -0.24038E-09 11424   0.102E-04    0.208E-05
DAV:  17    -0.124056776089E+03   -0.76489E-08   -0.34655E-10 14208   0.463E-05
  33 F= -.12589462E+03 E0= -.12589207E+03  d E =-.353153E-01  mag=    -0.0000
       N       E                     dE             d eps       ncg     rms          rms(c)
DAV:   1    -0.124060612188E+03   -0.38361E-02   -0.69870E-01  8256   0.312E+00    0.148E-01
DAV:   2    -0.124060465577E+03    0.14661E-03   -0.82088E-03 10848   0.359E-01    0.910E-02
DAV:   3    -0.124060365289E+03    0.10029E-03   -0.10393E-03 15168   0.110E-01    0.244E-02
DAV:   4    -0.124060367297E+03   -0.20081E-05   -0.12216E-04  9312   0.398E-02    0.118E-02
DAV:   5    -0.124060369177E+03   -0.18796E-05   -0.53020E-06 11136   0.936E-03    0.284E-03
DAV:   6    -0.124060369033E+03    0.14400E-06   -0.14648E-06 13392   0.367E-03    0.113E-03
DAV:   7    -0.124060369114E+03   -0.81445E-07   -0.11592E-07 12432   0.130E-03    0.624E-04
DAV:   8    -0.124060369535E+03   -0.42070E-06   -0.14894E-07 12576   0.118E-03    0.455E-04
DAV:   9    -0.124060369870E+03   -0.33474E-06   -0.17386E-08 12864   0.425E-04    0.407E-04
DAV:  10    -0.124060370784E+03   -0.91360E-06   -0.46785E-08 11280   0.545E-04    0.116E-04
DAV:  11    -0.124060371261E+03   -0.47796E-06   -0.11265E-08 12960   0.224E-04    0.105E-04
DAV:  12    -0.124060371741E+03   -0.47939E-06   -0.11219E-08 10464   0.191E-04    0.479E-05
DAV:  13    -0.124060371868E+03   -0.12743E-06   -0.20679E-09 14256   0.967E-05    0.264E-05
DAV:  14    -0.124060371921E+03   -0.53159E-07   -0.72605E-10 10992   0.558E-05    0.133E-05
DAV:  15    -0.124060371941E+03   -0.19985E-07   -0.40381E-10 12864   0.433E-05    0.722E-06
DAV:  16    -0.124060371944E+03   -0.26093E-08   -0.44005E-11 12336   0.198E-05
  34 F= -.12589497E+03 E0= -.12589242E+03  d E =-.356623E-01  mag=    -0.0000
       N       E                     dE             d eps       ncg     rms          rms(c)
DAV:   1    -0.124061141759E+03   -0.76982E-03   -0.90772E-03 10656   0.379E-01    0.182E-02
DAV:   2    -0.124061140504E+03    0.12556E-05   -0.74572E-05 14976   0.344E-02    0.109E-02
DAV:   3    -0.124061138983E+03    0.15204E-05   -0.92658E-06  9984   0.111E-02    0.204E-03
DAV:   4    -0.124061139087E+03   -0.10340E-06   -0.10724E-06 13920   0.366E-03    0.103E-03
DAV:   5    -0.124061139142E+03   -0.55078E-07   -0.22873E-08 12000   0.621E-04    0.385E-04
DAV:   6    -0.124061139146E+03   -0.44638E-08   -0.78887E-09 14304   0.321E-04
  35 F= -.12589573E+03 E0= -.12589318E+03  d E =-.757980E-03  mag=    -0.0000
       N       E                     dE             d eps       ncg     rms          rms(c)
DAV:   1    -0.124062655377E+03   -0.15162E-02   -0.81685E-02 10368   0.114E+00    0.547E-02
DAV:   2    -0.124062646328E+03    0.90486E-05   -0.66361E-04 15264   0.103E-01    0.328E-02
DAV:   3    -0.124062629645E+03    0.16683E-04   -0.83865E-05  9792   0.334E-02    0.606E-03
DAV:   4    -0.124062630330E+03   -0.68474E-06   -0.97406E-06 14592   0.110E-02    0.309E-03
DAV:   5    -0.124062630633E+03   -0.30309E-06   -0.19002E-07 12000   0.182E-03    0.114E-03
DAV:   6    -0.124062630655E+03   -0.21800E-07   -0.73169E-08 14112   0.969E-04    0.177E-04
DAV:   7    -0.124062630664E+03   -0.93869E-08   -0.70993E-09 11664   0.331E-04
  36 F= -.12589719E+03 E0= -.12589464E+03  d E =-.222246E-02  mag=    -0.0000
       N       E                     dE             d eps       ncg     rms          rms(c)
DAV:   1    -0.124062071057E+03    0.55960E-03   -0.32651E-01 10176   0.227E+00    0.109E-01
DAV:   2    -0.124062044515E+03    0.26542E-04   -0.26755E-03 15072   0.207E-01    0.655E-02
DAV:   3    -0.124061973923E+03    0.70592E-04   -0.34069E-04 11040   0.669E-02    0.122E-02
DAV:   4    -0.124061975760E+03   -0.18368E-05   -0.37548E-05 14208   0.219E-02    0.625E-03
DAV:   5    -0.124061976682E+03   -0.92147E-06   -0.82743E-07 12576   0.381E-03    0.235E-03
DAV:   6    -0.124061976737E+03   -0.54851E-07   -0.31569E-07 14400   0.200E-03    0.372E-04
DAV:   7    -0.124061976778E+03   -0.41068E-07   -0.29064E-08 11904   0.672E-04    0.169E-04
DAV:   8    -0.124061976833E+03   -0.55568E-07   -0.53968E-09 12432   0.265E-04    0.971E-05
DAV:   9    -0.124061976896E+03   -0.63319E-07   -0.37227E-09  9792   0.191E-04    0.661E-05
DAV:  10    -0.124061976963E+03   -0.66964E-07   -0.32727E-09 11616   0.146E-04    0.443E-05
DAV:  11    -0.124061977039E+03   -0.75978E-07   -0.40366E-09 10992   0.128E-04    0.231E-05
DAV:  12    -0.124061977060E+03   -0.21042E-07   -0.54255E-10 12624   0.718E-05    0.131E-05
DAV:  13    -0.124061977073E+03   -0.13037E-07   -0.36112E-10 12336   0.644E-05    0.726E-06
DAV:  14    -0.124061977080E+03   -0.69049E-08   -0.19415E-10 12720   0.396E-05
  37 F= -.12589649E+03 E0= -.12589392E+03  d E =-.151763E-02  mag=    -0.0000
       N       E                     dE             d eps       ncg     rms          rms(c)
DAV:   1    -0.124062990832E+03   -0.10138E-02   -0.13600E-01  9984   0.146E+00    0.703E-02
DAV:   2    -0.124062980467E+03    0.10365E-04   -0.11314E-03 14976   0.134E-01    0.423E-02
DAV:   3    -0.124062951755E+03    0.28712E-04   -0.14234E-04 10944   0.433E-02    0.791E-03
DAV:   4    -0.124062952663E+03   -0.90809E-06   -0.15538E-05 14208   0.141E-02    0.405E-03
DAV:   5    -0.124062953077E+03   -0.41385E-06   -0.34525E-07 11424   0.246E-03    0.153E-03
DAV:   6    -0.124062953070E+03    0.63246E-08   -0.13215E-07 12384   0.130E-03    0.244E-04
DAV:   7    -0.124062953068E+03    0.24838E-08   -0.13513E-08 12816   0.443E-04
  38 F= -.12589750E+03 E0= -.12589493E+03  d E =-.252616E-02  mag=     0.0000
       N       E                     dE             d eps       ncg     rms          rms(c)
DAV:   1    -0.124063529997E+03   -0.57693E-03   -0.58940E-03  8352   0.305E-01    0.130E-02
DAV:   2    -0.124063529685E+03    0.31187E-06   -0.37026E-05  9504   0.250E-02    0.794E-03
DAV:   3    -0.124063529713E+03   -0.27818E-07   -0.54301E-06  9024   0.800E-03    0.125E-03
DAV:   4    -0.124063529783E+03   -0.69840E-07   -0.57180E-07 12864   0.266E-03    0.656E-04
DAV:   5    -0.124063529868E+03   -0.84955E-07   -0.17027E-08 11616   0.503E-04    0.176E-04
DAV:   6    -0.124063529885E+03   -0.17134E-07   -0.26176E-09 13632   0.213E-04    0.598E-05
DAV:   7    -0.124063529889E+03   -0.41873E-08   -0.26439E-10 12432   0.766E-05
  39 F= -.12589808E+03 E0= -.12589551E+03  d E =-.578319E-03  mag=    -0.0000
       N       E                     dE             d eps       ncg     rms          rms(c)
DAV:   1    -0.124065085950E+03   -0.15561E-02   -0.53030E-02  8256   0.915E-01    0.389E-02
DAV:   2    -0.124065086399E+03   -0.44898E-06   -0.33630E-04 13728   0.749E-02    0.237E-02
DAV:   3    -0.124065082665E+03    0.37342E-05   -0.46668E-05  8736   0.228E-02    0.367E-03
DAV:   4    -0.124065082859E+03   -0.19383E-06   -0.42223E-06 12432   0.752E-03    0.191E-03
DAV:   5    -0.124065083091E+03   -0.23229E-06   -0.17748E-07 12480   0.160E-03    0.419E-04
DAV:   6    -0.124065083102E+03   -0.11300E-07   -0.21198E-08 14688   0.557E-04    0.112E-04
DAV:   7    -0.124065083108E+03   -0.57726E-08   -0.24083E-09 11520   0.186E-04
  40 F= -.12589963E+03 E0= -.12589707E+03  d E =-.213668E-02  mag=     0.0000
       N       E                     dE             d eps       ncg     rms          rms(c)
DAV:   1    -0.124067408215E+03   -0.23251E-02   -0.21208E-01  8256   0.183E+00    0.778E-02
DAV:   2    -0.124067415826E+03   -0.76108E-05   -0.13434E-03 15552   0.149E-01    0.474E-02
DAV:   3    -0.124067395168E+03    0.20658E-04   -0.18490E-04 10080   0.448E-02    0.729E-03
DAV:   4    -0.124067395604E+03   -0.43622E-06   -0.14740E-05 11232   0.144E-02    0.382E-03
DAV:   5    -0.124067396229E+03   -0.62539E-06   -0.73663E-07 12864   0.327E-03    0.827E-04
DAV:   6    -0.124067396270E+03   -0.40930E-07   -0.86994E-08 13632   0.117E-03    0.236E-04
DAV:   7    -0.124067396304E+03   -0.33510E-07   -0.12187E-08 11568   0.488E-04    0.144E-04
DAV:   8    -0.124067396348E+03   -0.44129E-07   -0.79474E-09 11280   0.356E-04    0.784E-05
DAV:   9    -0.124067396395E+03   -0.46899E-07   -0.38966E-09  9792   0.214E-04    0.545E-05
DAV:  10    -0.124067396463E+03   -0.68293E-07   -0.47375E-09 10416   0.173E-04    0.265E-05
DAV:  11    -0.124067396490E+03   -0.26756E-07   -0.13705E-09 12096   0.123E-04    0.171E-05
DAV:  12    -0.124067396502E+03   -0.12275E-07   -0.51821E-10 11856   0.903E-05    0.102E-05
DAV:  13    -0.124067396513E+03   -0.10855E-07   -0.35745E-10 12096   0.537E-05    0.522E-06
DAV:  14    -0.124067396517E+03   -0.35297E-08   -0.93262E-11 11760   0.247E-05
  41 F= -.12590196E+03 E0= -.12589940E+03  d E =-.446292E-02  mag=     0.0000
       N       E                     dE             d eps       ncg     rms          rms(c)
DAV:   1    -0.124068921078E+03   -0.15246E-02   -0.84792E-01  8256   0.366E+00    0.155E-01
DAV:   2    -0.124068964834E+03   -0.43756E-04   -0.53569E-03 15552   0.298E-01    0.947E-02
DAV:   3    -0.124068874150E+03    0.90685E-04   -0.74891E-04 11520   0.898E-02    0.145E-02
DAV:   4    -0.124068874922E+03   -0.77200E-06   -0.55989E-05 11904   0.283E-02    0.766E-03
DAV:   5    -0.124068876494E+03   -0.15729E-05   -0.27364E-06 12768   0.634E-03    0.172E-03
DAV:   6    -0.124068876605E+03   -0.11027E-06   -0.34563E-07 13728   0.220E-03    0.441E-04
DAV:   7    -0.124068876703E+03   -0.97985E-07   -0.39023E-08 12288   0.713E-04    0.206E-04
DAV:   8    -0.124068876847E+03   -0.14434E-06   -0.20782E-08 11040   0.423E-04    0.120E-04
DAV:   9    -0.124068876994E+03   -0.14714E-06   -0.94494E-09  9216   0.267E-04    0.993E-05
DAV:  10    -0.124068877130E+03   -0.13597E-06   -0.79031E-09 10656   0.212E-04    0.525E-05
DAV:  11    -0.124068877211E+03   -0.80605E-07   -0.30090E-09 11232   0.114E-04    0.275E-05
DAV:  12    -0.124068877256E+03   -0.45265E-07   -0.99207E-10 12000   0.608E-05    0.132E-05
DAV:  13    -0.124068877282E+03   -0.25524E-07   -0.72484E-10 11808   0.561E-05    0.995E-06
DAV:  14    -0.124068877288E+03   -0.63874E-08   -0.14176E-10 12864   0.351E-05
  42 F= -.12590348E+03 E0= -.12590092E+03  d E =-.597988E-02  mag=    -0.0000
       N       E                     dE             d eps       ncg     rms          rms(c)
DAV:   1    -0.124069819720E+03   -0.94244E-03   -0.48177E-02  8256   0.888E-01    0.465E-02
DAV:   2    -0.124069801077E+03    0.18643E-04   -0.52825E-04 16224   0.937E-02    0.264E-02
DAV:   3    -0.124069790567E+03    0.10510E-04   -0.68519E-05 10848   0.290E-02    0.768E-03
DAV:   4    -0.124069790551E+03    0.16114E-07   -0.98561E-06 11808   0.113E-02    0.374E-03
DAV:   5    -0.124069790848E+03   -0.29683E-06   -0.43786E-07 11664   0.267E-03    0.145E-03
DAV:   6    -0.124069790884E+03   -0.36394E-07   -0.85564E-08 12336   0.103E-03    0.410E-04
DAV:   7    -0.124069790886E+03   -0.18781E-08   -0.92652E-09 14400   0.382E-04
  43 F= -.12590446E+03 E0= -.12590193E+03  d E =-.984420E-03  mag=    -0.0000
       N       E                     dE             d eps       ncg     rms          rms(c)
DAV:   1    -0.124070246866E+03   -0.45598E-03   -0.91641E-02  8256   0.122E+00    0.641E-02
DAV:   2    -0.124070211602E+03    0.35264E-04   -0.10075E-03 16416   0.129E-01    0.364E-02
DAV:   3    -0.124070191567E+03    0.20035E-04   -0.12930E-04 11520   0.397E-02    0.107E-02
DAV:   4    -0.124070191406E+03    0.16103E-06   -0.18328E-05 12336   0.154E-02    0.516E-03
DAV:   5    -0.124070191894E+03   -0.48757E-06   -0.78892E-07 11952   0.362E-03    0.199E-03
DAV:   6    -0.124070191961E+03   -0.67173E-07   -0.15861E-07 12048   0.142E-03    0.557E-04
DAV:   7    -0.124070191969E+03   -0.80099E-08   -0.17524E-08 14160   0.535E-04
  44 F= -.12590496E+03 E0= -.12590246E+03  d E =-.148130E-02  mag=     0.0000
       N       E                     dE             d eps       ncg     rms          rms(c)
DAV:   1    -0.124071131815E+03   -0.93985E-03   -0.35618E-02  8256   0.725E-01    0.389E-02
DAV:   2    -0.124071115826E+03    0.15989E-04   -0.30777E-04 15168   0.693E-02    0.221E-02
DAV:   3    -0.124071108856E+03    0.69701E-05   -0.47844E-05 11808   0.223E-02    0.546E-03
DAV:   4    -0.124071108894E+03   -0.38553E-07   -0.55864E-06 10224   0.855E-03    0.257E-03
DAV:   5    -0.124071109057E+03   -0.16289E-06   -0.24149E-07 13536   0.202E-03    0.106E-03
DAV:   6    -0.124071109080E+03   -0.23169E-07   -0.59092E-08 11376   0.900E-04    0.288E-04
DAV:   7    -0.124071109084E+03   -0.34443E-08   -0.91907E-09 14208   0.438E-04
  45 F= -.12590597E+03 E0= -.12590350E+03  d E =-.101535E-02  mag=    -0.0000
       N       E                     dE             d eps       ncg     rms          rms(c)
DAV:   1    -0.124072435760E+03   -0.13267E-02   -0.32087E-01  8256   0.218E+00    0.117E-01
DAV:   2    -0.124072295250E+03    0.14051E-03   -0.27931E-03 16176   0.208E-01    0.663E-02
DAV:   3    -0.124072228332E+03    0.66918E-04   -0.41794E-04 11904   0.656E-02    0.165E-02
DAV:   4    -0.124072227804E+03    0.52855E-06   -0.48998E-05 12912   0.252E-02    0.769E-03
DAV:   5    -0.124072228661E+03   -0.85766E-06   -0.17744E-06 10320   0.553E-03    0.318E-03
DAV:   6    -0.124072228748E+03   -0.86736E-07   -0.49787E-07 10896   0.250E-03    0.801E-04
DAV:   7    -0.124072228762E+03   -0.14060E-07   -0.63280E-08 14592   0.101E-03    0.339E-04
DAV:   8    -0.124072228801E+03   -0.38626E-07   -0.20513E-08 12240   0.565E-04    0.181E-04
DAV:   9    -0.124072228844E+03   -0.43742E-07   -0.79112E-09 11184   0.344E-04    0.101E-04
DAV:  10    -0.124072228909E+03   -0.64465E-07   -0.68608E-09 10032   0.258E-04    0.598E-05
DAV:  11    -0.124072228963E+03   -0.54109E-07   -0.49782E-09  9504   0.207E-04    0.279E-05
DAV:  12    -0.124072228978E+03   -0.15417E-07   -0.11897E-09 10800   0.133E-04    0.200E-05
DAV:  13    -0.124072228989E+03   -0.10676E-07   -0.62069E-10  9600   0.822E-05    0.966E-06
DAV:  14    -0.124072228994E+03   -0.47012E-08   -0.25982E-10  9744   0.376E-05
  46 F= -.12590739E+03 E0= -.12590496E+03  d E =-.242859E-02  mag=     0.0000
       N       E                     dE             d eps       ncg     rms          rms(c)
DAV:   1    -0.124073067308E+03   -0.83832E-03   -0.40992E-02  8256   0.803E-01    0.370E-02
DAV:   2    -0.124073061176E+03    0.61315E-05   -0.27596E-04 15072   0.672E-02    0.221E-02
DAV:   3    -0.124073056835E+03    0.43407E-05   -0.36916E-05  9216   0.199E-02    0.456E-03
DAV:   4    -0.124073057180E+03   -0.34478E-06   -0.37308E-06  9360   0.713E-03    0.201E-03
DAV:   5    -0.124073057345E+03   -0.16532E-06   -0.17588E-07 12864   0.167E-03    0.771E-04
DAV:   6    -0.124073057367E+03   -0.21770E-07   -0.32832E-08 12096   0.662E-04    0.181E-04
DAV:   7    -0.124073057374E+03   -0.66848E-08   -0.50701E-09 14304   0.276E-04
  47 F= -.12590832E+03 E0= -.12590589E+03  d E =-.928781E-03  mag=     0.0000
       N       E                     dE             d eps       ncg     rms          rms(c)
DAV:   1    -0.124074397397E+03   -0.13400E-02   -0.36880E-01  8256   0.241E+00    0.111E-01
DAV:   2    -0.124074355168E+03    0.42229E-04   -0.24728E-03 15648   0.201E-01    0.662E-02
DAV:   3    -0.124074306160E+03    0.49008E-04   -0.33419E-04 10560   0.594E-02    0.135E-02
DAV:   4    -0.124074307777E+03   -0.16170E-05   -0.31935E-05 10944   0.210E-02    0.601E-03
DAV:   5    -0.124074308660E+03   -0.88315E-06   -0.13394E-06 12096   0.468E-03    0.232E-03
DAV:   6    -0.124074308818E+03   -0.15774E-06   -0.28536E-07 12384   0.197E-03    0.504E-04
DAV:   7    -0.124074308901E+03   -0.82793E-07   -0.43698E-08 13296   0.813E-04    0.215E-04
DAV:   8    -0.124074309045E+03   -0.14424E-06   -0.20388E-08 10752   0.466E-04    0.137E-04
DAV:   9    -0.124074309156E+03   -0.11164E-06   -0.80565E-09  9888   0.310E-04    0.100E-04
DAV:  10    -0.124074309298E+03   -0.14163E-06   -0.93564E-09  9696   0.258E-04    0.549E-05
DAV:  11    -0.124074309400E+03   -0.10235E-06   -0.58678E-09 10032   0.165E-04    0.279E-05
DAV:  12    -0.124074309438E+03   -0.37463E-07   -0.12775E-09 12288   0.106E-04    0.156E-05
DAV:  13    -0.124074309456E+03   -0.17747E-07   -0.64866E-10 11472   0.877E-05    0.953E-06
DAV:  14    -0.124074309465E+03   -0.96370E-08   -0.32286E-10 11424   0.502E-05
  48 F= -.12590987E+03 E0= -.12590743E+03  d E =-.248428E-02  mag=    -0.0000
       N       E                     dE             d eps       ncg     rms          rms(c)
DAV:   1    -0.124074324543E+03   -0.15088E-04   -0.43885E-02  8256   0.831E-01    0.382E-02
DAV:   2    -0.124074318632E+03    0.59116E-05   -0.29284E-04 14688   0.693E-02    0.229E-02
DAV:   3    -0.124074313876E+03    0.47563E-05   -0.40192E-05  8928   0.208E-02    0.460E-03
DAV:   4    -0.124074314204E+03   -0.32809E-06   -0.40539E-06  8832   0.745E-03    0.208E-03
DAV:   5    -0.124074314378E+03   -0.17390E-06   -0.20460E-07 13056   0.179E-03    0.797E-04
DAV:   6    -0.124074314397E+03   -0.19681E-07   -0.35167E-08 12096   0.682E-04    0.195E-04
DAV:   7    -0.124074314404E+03   -0.63928E-08   -0.53450E-09 14112   0.285E-04
  49 F= -.12590998E+03 E0= -.12590754E+03  d E =-.259464E-02  mag=     0.0000
       N       E                     dE             d eps       ncg     rms          rms(c)
DAV:   1    -0.124074589365E+03   -0.27497E-03   -0.79399E-02  9120   0.115E+00    0.585E-02
DAV:   2    -0.124074557276E+03    0.32088E-04   -0.75796E-04 15648   0.110E-01    0.338E-02
DAV:   3    -0.124074536656E+03    0.20620E-04   -0.92021E-05  9408   0.330E-02    0.771E-03
DAV:   4    -0.124074537352E+03   -0.69611E-06   -0.92270E-06 10752   0.109E-02    0.292E-03
DAV:   5    -0.124074537605E+03   -0.25273E-06   -0.31001E-07 11712   0.214E-03    0.103E-03
DAV:   6    -0.124074537652E+03   -0.46847E-07   -0.57450E-08 14112   0.910E-04    0.237E-04
DAV:   7    -0.124074537690E+03   -0.37857E-07   -0.71860E-09 11232   0.347E-04    0.118E-04
DAV:   8    -0.124074537735E+03   -0.45077E-07   -0.31040E-09 11184   0.189E-04    0.728E-05
DAV:   9    -0.124074537786E+03   -0.51612E-07   -0.25161E-09  9216   0.131E-04    0.433E-05
DAV:  10    -0.124074537853E+03   -0.66034E-07   -0.42327E-09 10080   0.133E-04    0.267E-05
DAV:  11    -0.124074537884E+03   -0.31458E-07   -0.15317E-09 10848   0.934E-05    0.140E-05
DAV:  12    -0.124074537892E+03   -0.85020E-08   -0.36806E-10 12384   0.761E-05
  50 F= -.12591036E+03 E0= -.12590790E+03  d E =-.377959E-03  mag=    -0.0000
       N       E                     dE             d eps       ncg     rms          rms(c)
DAV:   1    -0.124074567741E+03   -0.29857E-04   -0.13566E-03  9120   0.150E-01    0.762E-03
DAV:   2    -0.124074567088E+03    0.65315E-06   -0.13187E-05 14400   0.145E-02    0.443E-03
DAV:   3    -0.124074566802E+03    0.28596E-06   -0.16084E-06 10080   0.440E-03    0.102E-03
DAV:   4    -0.124074566828E+03   -0.25988E-07   -0.15948E-07 10560   0.144E-03    0.393E-04
DAV:   5    -0.124074566834E+03   -0.58344E-08   -0.55195E-09 12864   0.288E-04
  51 F= -.12591037E+03 E0= -.12590791E+03  d E =-.386649E-03  mag=     0.0000
       N       E                     dE             d eps       ncg     rms          rms(c)
DAV:   1    -0.124074566268E+03    0.56039E-06   -0.37144E-03 10464   0.249E-01    0.164E-02
DAV:   2    -0.124074559987E+03    0.62805E-05   -0.64040E-05 12000   0.313E-02    0.796E-03
DAV:   3    -0.124074558885E+03    0.11016E-05   -0.65458E-06 12480   0.947E-03    0.287E-03
DAV:   4    -0.124074558891E+03   -0.53751E-08   -0.86617E-07  9600   0.337E-03    0.108E-03
DAV:   5    -0.124074558920E+03   -0.28928E-07   -0.52240E-08 12096   0.913E-04    0.368E-04
DAV:   6    -0.124074558922E+03   -0.26730E-08   -0.84107E-09 13296   0.348E-04
  52 F= -.12591043E+03 E0= -.12590796E+03  d E =-.599687E-04  mag=    -0.0000
       N       E                     dE             d eps       ncg     rms          rms(c)
DAV:   1    -0.124074546518E+03    0.12402E-04   -0.17601E-04 11040   0.541E-02    0.357E-03
DAV:   2    -0.124074546216E+03    0.30146E-06   -0.30006E-06 11424   0.679E-03    0.172E-03
DAV:   3    -0.124074546175E+03    0.40603E-07   -0.32081E-07 13296   0.209E-03    0.628E-04
DAV:   4    -0.124074546179E+03   -0.32851E-08   -0.39861E-08 10752   0.732E-04
  53 F= -.12591043E+03 E0= -.12590797E+03  d E =-.619707E-04  mag=    -0.0000
       N       E                     dE             d eps       ncg     rms          rms(c)
DAV:   1    -0.124074495441E+03    0.50734E-04   -0.13320E-03  8256   0.149E-01    0.673E-03
DAV:   2    -0.124074495060E+03    0.38099E-06   -0.11724E-05  9552   0.141E-02    0.401E-03
DAV:   3    -0.124074494985E+03    0.75715E-07   -0.16546E-06 10368   0.462E-03    0.913E-04
DAV:   4    -0.124074495019E+03   -0.34454E-07   -0.21895E-07  9072   0.170E-03    0.464E-04
DAV:   5    -0.124074495036E+03   -0.17035E-07   -0.10332E-08 12336   0.441E-04    0.162E-04
DAV:   6    -0.124074495038E+03   -0.18372E-08   -0.32514E-09 11184   0.275E-04
  54 F= -.12591046E+03 E0= -.12590800E+03  d E =-.302144E-04  mag=    -0.0000
       N       E                     dE             d eps       ncg     rms          rms(c)
DAV:   1    -0.124074359792E+03    0.13524E-03   -0.51927E-03  8256   0.294E-01    0.133E-02
DAV:   2    -0.124074358514E+03    0.12781E-05   -0.45676E-05 10368   0.279E-02    0.791E-03
DAV:   3    -0.124074357995E+03    0.51872E-06   -0.63478E-06 12672   0.894E-03    0.177E-03
DAV:   4    -0.124074358088E+03   -0.92597E-07   -0.77445E-07  9216   0.320E-03    0.900E-04
DAV:   5    -0.124074358149E+03   -0.61029E-07   -0.35380E-08 12096   0.759E-04    0.314E-04
DAV:   6    -0.124074358161E+03   -0.12083E-07   -0.70528E-09 11472   0.356E-04    0.888E-05
DAV:   7    -0.124074358164E+03   -0.36498E-08   -0.19210E-09 12912   0.225E-04
  55 F= -.12591048E+03 E0= -.12590802E+03  d E =-.540054E-04  mag=     0.0000
       N       E                     dE             d eps       ncg     rms          rms(c)
DAV:   1    -0.124074236133E+03    0.12203E-03   -0.30358E-03  8256   0.215E-01    0.114E-02
DAV:   2    -0.124074233999E+03    0.21340E-05   -0.39703E-05  9984   0.250E-02    0.646E-03
DAV:   3    -0.124074233507E+03    0.49154E-06   -0.44770E-06 14064   0.759E-03    0.193E-03
DAV:   4    -0.124074233605E+03   -0.98104E-07   -0.53549E-07  8832   0.264E-03    0.744E-04
DAV:   5    -0.124074233654E+03   -0.48354E-07   -0.29160E-08 11472   0.680E-04    0.230E-04
DAV:   6    -0.124074233665E+03   -0.10878E-07   -0.71628E-09 11040   0.325E-04    0.868E-05
DAV:   7    -0.124074233670E+03   -0.58990E-08   -0.10133E-09 13248   0.158E-04
  56 F= -.12591051E+03 E0= -.12590804E+03  d E =-.238961E-04  mag=     0.0000
       N       E                     dE             d eps       ncg     rms          rms(c)
DAV:   1    -0.124074148567E+03    0.85098E-04   -0.11107E-03  8352   0.130E-01    0.691E-03
DAV:   2    -0.124074147725E+03    0.84186E-06   -0.14550E-05  9120   0.152E-02    0.391E-03
DAV:   3    -0.124074147573E+03    0.15233E-06   -0.16823E-06 12288   0.468E-03    0.118E-03
DAV:   4    -0.124074147634E+03   -0.60836E-07   -0.21377E-07  9264   0.164E-03    0.459E-04
DAV:   5    -0.124074147664E+03   -0.30905E-07   -0.11046E-08 11136   0.411E-04    0.139E-04
DAV:   6    -0.124074147675E+03   -0.10545E-07   -0.27277E-09 12000   0.188E-04    0.462E-05
DAV:   7    -0.124074147681E+03   -0.59927E-08   -0.36674E-10 12192   0.928E-05
  57 F= -.12591051E+03 E0= -.12590805E+03  d E =-.276845E-04  mag=     0.0000
       N       E                     dE             d eps       ncg     rms          rms(c)
DAV:   1    -0.124074005698E+03    0.14198E-03   -0.26360E-03  8256   0.197E-01    0.942E-03
DAV:   2    -0.124074004767E+03    0.93131E-06   -0.28166E-05  9312   0.211E-02    0.568E-03
DAV:   3    -0.124074004541E+03    0.22607E-06   -0.36097E-06 12144   0.653E-03    0.143E-03
DAV:   4    -0.124074004641E+03   -0.99732E-07   -0.42363E-07  9216   0.228E-03    0.587E-04
DAV:   5    -0.124074004697E+03   -0.56441E-07   -0.20525E-08 11328   0.524E-04    0.136E-04
DAV:   6    -0.124074004706E+03   -0.93687E-08   -0.27157E-09 12624   0.199E-04
  58 F= -.12591054E+03 E0= -.12590807E+03  d E =-.236008E-04  mag=     0.0000
       N       E                     dE             d eps       ncg     rms          rms(c)
DAV:   1    -0.124073818554E+03    0.18614E-03   -0.40359E-03  8256   0.244E-01    0.117E-02
DAV:   2    -0.124073817199E+03    0.13545E-05   -0.43083E-05  9600   0.262E-02    0.702E-03
DAV:   3    -0.124073816810E+03    0.38931E-06   -0.54533E-06 11904   0.802E-03    0.177E-03
DAV:   4    -0.124073816941E+03   -0.13138E-06   -0.65450E-07  9744   0.284E-03    0.719E-04
DAV:   5    -0.124073817009E+03   -0.67858E-07   -0.31524E-08 11280   0.677E-04    0.171E-04
DAV:   6    -0.124073817021E+03   -0.12117E-07   -0.58034E-09 11088   0.344E-04    0.799E-05
DAV:   7    -0.124073817034E+03   -0.12712E-07   -0.18921E-09 11808   0.217E-04    0.405E-05
DAV:   8    -0.124073817052E+03   -0.17855E-07   -0.71422E-10 11856   0.114E-04    0.219E-05
DAV:   9    -0.124073817071E+03   -0.19023E-07   -0.35692E-10 10320   0.632E-05    0.166E-05
DAV:  10    -0.124073817097E+03   -0.25944E-07   -0.69973E-10 10704   0.829E-05    0.106E-05
DAV:  11    -0.124073817105E+03   -0.82891E-08   -0.27270E-10 12960   0.688E-05
  59 F= -.12591055E+03 E0= -.12590809E+03  d E =-.421804E-04  mag=    -0.0000
       N       E                     dE             d eps       ncg     rms          rms(c)
DAV:   1    -0.124073414829E+03    0.40227E-03   -0.16143E-02  8256   0.488E-01    0.233E-02
DAV:   2    -0.124073410446E+03    0.43828E-05   -0.17264E-04  9936   0.522E-02    0.140E-02
DAV:   3    -0.124073408342E+03    0.21040E-05   -0.21537E-05 12960   0.158E-02    0.353E-03
DAV:   4    -0.124073408641E+03   -0.29832E-06   -0.24395E-06  9504   0.550E-03    0.143E-03
DAV:   5    -0.124073408791E+03   -0.15027E-06   -0.11803E-07 10944   0.123E-03    0.323E-04
DAV:   6    -0.124073408797E+03   -0.62428E-08   -0.13883E-08 14208   0.398E-04
  60 F= -.12591056E+03 E0= -.12590809E+03  d E =-.464830E-04  mag=     0.0000
       N       E                     dE             d eps       ncg     rms          rms(c)
DAV:   1    -0.124073576971E+03   -0.16818E-03   -0.25425E-03  8448   0.194E-01    0.926E-03
DAV:   2    -0.124073576244E+03    0.72719E-06   -0.27160E-05  9552   0.207E-02    0.558E-03
DAV:   3    -0.124073576092E+03    0.15125E-06   -0.35210E-06 14784   0.638E-03    0.139E-03
DAV:   4    -0.124073576145E+03   -0.52873E-07   -0.35063E-07  9168   0.212E-03    0.581E-04
DAV:   5    -0.124073576180E+03   -0.34320E-07   -0.17876E-08 11472   0.494E-04    0.140E-04
DAV:   6    -0.124073576184E+03   -0.48931E-08   -0.15648E-09 10704   0.149E-04
  61 F= -.12591056E+03 E0= -.12590810E+03  d E =-.500625E-04  mag=    -0.0000
       N       E                     dE             d eps       ncg     rms          rms(c)
DAV:   1    -0.124073492778E+03    0.83402E-04   -0.80659E-04  8640   0.109E-01    0.521E-03
DAV:   2    -0.124073492427E+03    0.35099E-06   -0.88155E-06  9216   0.117E-02    0.314E-03
DAV:   3    -0.124073492394E+03    0.32414E-07   -0.10940E-06  9984   0.360E-03    0.833E-04
DAV:   4    -0.124073492447E+03   -0.53209E-07   -0.14226E-07  9072   0.130E-03    0.319E-04
DAV:   5    -0.124073492465E+03   -0.17781E-07   -0.62488E-09 12192   0.281E-04    0.718E-05
DAV:   6    -0.124073492466E+03   -0.86220E-09   -0.52920E-10 12240   0.843E-05
  62 F= -.12591058E+03 E0= -.12590811E+03  d E =-.134991E-04  mag=    -0.0000
       N       E                     dE             d eps       ncg     rms          rms(c)
DAV:   1    -0.124073234617E+03    0.25785E-03   -0.72611E-03  8256   0.326E-01    0.156E-02
DAV:   2    -0.124073232239E+03    0.23779E-05   -0.79870E-05  9696   0.353E-02    0.939E-03
DAV:   3    -0.124073231475E+03    0.76425E-06   -0.99948E-06 13056   0.108E-02    0.244E-03
DAV:   4    -0.124073231667E+03   -0.19282E-06   -0.10953E-06  9408   0.369E-03    0.970E-04
DAV:   5    -0.124073231764E+03   -0.96697E-07   -0.56677E-08 11760   0.843E-04    0.193E-04
DAV:   6    -0.124073231770E+03   -0.60290E-08   -0.52418E-09 13392   0.253E-04
  63 F= -.12591061E+03 E0= -.12590814E+03  d E =-.445514E-04  mag=    -0.0000
       N       E                     dE             d eps       ncg     rms          rms(c)
DAV:   1    -0.124072679072E+03    0.55269E-03   -0.29045E-02  8256   0.652E-01    0.313E-02
DAV:   2    -0.124072671074E+03    0.79978E-05   -0.32027E-04 10704   0.706E-02    0.188E-02
DAV:   3    -0.124072667098E+03    0.39760E-05   -0.39051E-05 12720   0.213E-02    0.488E-03
DAV:   4    -0.124072667497E+03   -0.39915E-06   -0.43719E-06  9552   0.737E-03    0.191E-03
DAV:   5    -0.124072667709E+03   -0.21196E-06   -0.22465E-07  9072   0.168E-03    0.388E-04
DAV:   6    -0.124072667732E+03   -0.22886E-07   -0.23297E-08 13680   0.560E-04    0.190E-04
DAV:   7    -0.124072667755E+03   -0.23590E-07   -0.35201E-09 11760   0.266E-04    0.954E-05
DAV:   8    -0.124072667800E+03   -0.44307E-07   -0.24585E-09 11568   0.179E-04    0.577E-05
DAV:   9    -0.124072667853E+03   -0.53517E-07   -0.13015E-09 11328   0.101E-04    0.379E-05
DAV:  10    -0.124072667935E+03   -0.82045E-07   -0.23766E-09 10800   0.114E-04    0.224E-05
DAV:  11    -0.124072667979E+03   -0.43323E-07   -0.79204E-10 11520   0.847E-05    0.154E-05
DAV:  12    -0.124072668034E+03   -0.55620E-07   -0.13468E-09  9840   0.828E-05    0.827E-06
DAV:  13    -0.124072668048E+03   -0.13692E-07   -0.26440E-10 13968   0.456E-05    0.560E-06
DAV:  14    -0.124072668052E+03   -0.42246E-08   -0.92021E-11  9936   0.284E-05
  64 F= -.12591063E+03 E0= -.12590816E+03  d E =-.647761E-04  mag=    -0.0000
       N       E                     dE             d eps       ncg     rms          rms(c)
DAV:   1    -0.124072424523E+03    0.24352E-03   -0.56279E-03  8448   0.285E-01    0.138E-02
DAV:   2    -0.124072422468E+03    0.20547E-05   -0.66482E-05  9408   0.321E-02    0.836E-03
DAV:   3    -0.124072421876E+03    0.59186E-06   -0.82738E-06 12960   0.977E-03    0.226E-03
DAV:   4    -0.124072422041E+03   -0.16469E-06   -0.92385E-07  8832   0.336E-03    0.902E-04
DAV:   5    -0.124072422133E+03   -0.91894E-07   -0.43432E-08 11712   0.768E-04    0.178E-04
DAV:   6    -0.124072422136E+03   -0.32105E-08   -0.54709E-09 13824   0.238E-04
  65 F= -.12591065E+03 E0= -.12590818E+03  d E =-.250602E-04  mag=    -0.0000
       N       E                     dE             d eps       ncg     rms          rms(c)
DAV:   1    -0.124071669285E+03    0.75285E-03   -0.50648E-02  8256   0.856E-01    0.414E-02
DAV:   2    -0.124071655124E+03    0.14162E-04   -0.60681E-04 10608   0.967E-02    0.251E-02
DAV:   3    -0.124071647450E+03    0.76732E-05   -0.71375E-05 12288   0.287E-02    0.678E-03
DAV:   4    -0.124071648031E+03   -0.58035E-06   -0.85750E-06 10944   0.101E-02    0.264E-03
DAV:   5    -0.124071648267E+03   -0.23642E-06   -0.34982E-07  8736   0.214E-03    0.518E-04
DAV:   6    -0.124071648283E+03   -0.15437E-07   -0.52909E-08 13968   0.742E-04    0.254E-04
DAV:   7    -0.124071648308E+03   -0.25198E-07   -0.52031E-09 11328   0.279E-04    0.126E-04
DAV:   8    -0.124071648366E+03   -0.58341E-07   -0.39176E-09 11952   0.192E-04    0.790E-05
DAV:   9    -0.124071648437E+03   -0.71139E-07   -0.17055E-09 11952   0.102E-04    0.607E-05
DAV:  10    -0.124071648561E+03   -0.12390E-06   -0.37503E-09 10320   0.122E-04    0.273E-05
DAV:  11    -0.124071648631E+03   -0.69704E-07   -0.12347E-09 12480   0.699E-05    0.189E-05
[...]
DAV:   2    -0.124061287832E+03   -0.14216E-05   -0.54774E-05  8256   0.300E-02    0.834E-03
DAV:   3    -0.124061287423E+03    0.40883E-06   -0.38902E-06  9120   0.736E-03    0.254E-03
DAV:   4    -0.124061287556E+03   -0.13277E-06   -0.44555E-07  9168   0.239E-03    0.794E-04
DAV:   5    -0.124061287624E+03   -0.68239E-07   -0.40184E-08 13632   0.701E-04    0.221E-04
DAV:   6    -0.124061287663E+03   -0.38795E-07   -0.52574E-09 11136   0.346E-04    0.110E-04
DAV:   7    -0.124061287692E+03   -0.29444E-07   -0.14560E-09 14160   0.175E-04    0.477E-05
DAV:   8    -0.124061287745E+03   -0.52825E-07   -0.11315E-09 11472   0.980E-05    0.258E-05
DAV:   9    -0.124061287811E+03   -0.65918E-07   -0.18023E-09 11664   0.106E-04    0.193E-05
DAV:  10    -0.124061287857E+03   -0.46256E-07   -0.12174E-09 11424   0.109E-04    0.132E-05
DAV:  11    -0.124061287876E+03   -0.19110E-07   -0.38450E-10 13104   0.675E-05    0.762E-06
DAV:  12    -0.124061287887E+03   -0.11167E-07   -0.26858E-10 11184   0.395E-05    0.366E-06
DAV:  13    -0.124061287889E+03   -0.19700E-08   -0.35528E-11 14256   0.203E-05
 109 F= -.12591146E+03 E0= -.12590885E+03  d E =-.181086E-04  mag=    -0.0000
       N       E                     dE             d eps       ncg     rms          rms(c)
DAV:   1    -0.124060831350E+03    0.45654E-03   -0.49943E-02  8256   0.921E-01    0.374E-02
DAV:   2    -0.124060845742E+03   -0.14392E-04   -0.49604E-04 11520   0.896E-02    0.252E-02
DAV:   3    -0.124060840723E+03    0.50190E-05   -0.31130E-05 12192   0.198E-02    0.714E-03
DAV:   4    -0.124060841020E+03   -0.29721E-06   -0.35777E-06  8736   0.685E-03    0.219E-03
DAV:   5    -0.124060841112E+03   -0.91956E-07   -0.29316E-07 12864   0.181E-03    0.510E-04
DAV:   6    -0.124060841104E+03    0.80863E-08   -0.21589E-08 12096   0.589E-04
 110 F= -.12591150E+03 E0= -.12590887E+03  d E =-.593594E-04  mag=     0.0000
       N       E                     dE             d eps       ncg     rms          rms(c)
DAV:   1    -0.124059854322E+03    0.98679E-03   -0.19978E-01  8256   0.184E+00    0.747E-02
DAV:   2    -0.124059912209E+03   -0.57887E-04   -0.19631E-03  9024   0.179E-01    0.501E-02
DAV:   3    -0.124059892735E+03    0.19474E-04   -0.13922E-04 11904   0.433E-02    0.149E-02
DAV:   4    -0.124059893193E+03   -0.45786E-06   -0.14018E-05 11328   0.136E-02    0.463E-03
DAV:   5    -0.124059893208E+03   -0.15015E-07   -0.11915E-06 11232   0.353E-03    0.106E-03
DAV:   6    -0.124059893214E+03   -0.65456E-08   -0.98320E-08 13440   0.125E-03
 111 F= -.12591153E+03 E0= -.12590887E+03  d E =-.885360E-04  mag=     0.0000
       N       E                     dE             d eps       ncg     rms          rms(c)
DAV:   1    -0.124059763829E+03    0.12938E-03   -0.42136E-03  8256   0.268E-01    0.107E-02
DAV:   2    -0.124059765175E+03   -0.13467E-05   -0.41784E-05 10080   0.261E-02    0.727E-03
DAV:   3    -0.124059764850E+03    0.32545E-06   -0.26327E-06  8736   0.595E-03    0.216E-03
DAV:   4    -0.124059764982E+03   -0.13191E-06   -0.34067E-07 10464   0.207E-03    0.664E-04
DAV:   5    -0.124059765091E+03   -0.10878E-06   -0.26824E-08 13440   0.554E-04    0.237E-04
DAV:   6    -0.124059765157E+03   -0.65915E-07   -0.32059E-09 13200   0.235E-04    0.111E-04
DAV:   7    -0.124059765217E+03   -0.59969E-07   -0.10688E-09 13584   0.108E-04    0.467E-05
DAV:   8    -0.124059765323E+03   -0.10609E-06   -0.24305E-09 11376   0.108E-04    0.317E-05
DAV:   9    -0.124059765424E+03   -0.10106E-06   -0.29037E-09 12048   0.110E-04    0.233E-05
DAV:  10    -0.124059765477E+03   -0.53185E-07   -0.11218E-09 11424   0.822E-05    0.128E-05
DAV:  11    -0.124059765501E+03   -0.24405E-07   -0.36714E-10 12816   0.447E-05    0.710E-06
DAV:  12    -0.124059765513E+03   -0.11438E-07   -0.27280E-10 12240   0.348E-05    0.396E-06
DAV:  13    -0.124059765514E+03   -0.15534E-08   -0.23634E-11 14544   0.168E-05
 112 F= -.12591155E+03 E0= -.12590887E+03  d E =-.126621E-04  mag=    -0.0000
       N       E                     dE             d eps       ncg     rms          rms(c)
DAV:   1    -0.124059365470E+03    0.40004E-03   -0.37920E-02  8256   0.803E-01    0.322E-02
DAV:   2    -0.124059377300E+03   -0.11830E-04   -0.37340E-04 11616   0.777E-02    0.219E-02
DAV:   3    -0.124059373792E+03    0.35087E-05   -0.22682E-05 12192   0.169E-02    0.619E-03
DAV:   4    -0.124059374036E+03   -0.24439E-06   -0.26311E-06  8832   0.588E-03    0.189E-03
DAV:   5    -0.124059374113E+03   -0.76515E-07   -0.21926E-07 12576   0.156E-03    0.441E-04
DAV:   6    -0.124059374107E+03    0.51823E-08   -0.16142E-08 11712   0.513E-04
 113 F= -.12591158E+03 E0= -.12590889E+03  d E =-.425158E-04  mag=    -0.0000
       N       E                     dE             d eps       ncg     rms          rms(c)
DAV:   1    -0.124058531519E+03    0.84259E-03   -0.15167E-01  8256   0.161E+00    0.644E-02
DAV:   2    -0.124058579121E+03   -0.47602E-04   -0.14767E-03  9216   0.155E-01    0.435E-02
DAV:   3    -0.124058565485E+03    0.13636E-04   -0.10179E-04 12384   0.369E-02    0.129E-02
DAV:   4    -0.124058565856E+03   -0.37099E-06   -0.10084E-05 10464   0.116E-02    0.395E-03
DAV:   5    -0.124058565903E+03   -0.47185E-07   -0.93741E-07 11568   0.314E-03    0.910E-04
DAV:   6    -0.124058565910E+03   -0.69213E-08   -0.73838E-08 12576   0.109E-03
 114 F= -.12591161E+03 E0= -.12590889E+03  d E =-.776438E-04  mag=    -0.0000
       N       E                     dE             d eps       ncg     rms          rms(c)
DAV:   1    -0.124056709659E+03    0.18562E-02   -0.60659E-01  8256   0.321E+00    0.129E-01
DAV:   2    -0.124056911774E+03   -0.20212E-03   -0.59553E-03 11328   0.311E-01    0.874E-02
DAV:   3    -0.124056847483E+03    0.64292E-04   -0.37090E-04 11616   0.691E-02    0.249E-02
DAV:   4    -0.124056848326E+03   -0.84377E-06   -0.43023E-05 14064   0.236E-02    0.759E-03
DAV:   5    -0.124056848125E+03    0.20135E-06   -0.30417E-06 13056   0.554E-03    0.179E-03
DAV:   6    -0.124056848100E+03    0.25528E-07   -0.24424E-07 12288   0.204E-03    0.721E-04
DAV:   7    -0.124056848154E+03   -0.54280E-07   -0.36079E-08 13248   0.742E-04    0.368E-04
DAV:   8    -0.124056848276E+03   -0.12222E-06   -0.16079E-08 12816   0.445E-04    0.170E-04
DAV:   9    -0.124056848602E+03   -0.32576E-06   -0.26633E-08 13296   0.405E-04    0.786E-05
DAV:  10    -0.124056848877E+03   -0.27493E-06   -0.11295E-08 13104   0.239E-04    0.749E-05
DAV:  11    -0.124056849154E+03   -0.27738E-06   -0.84386E-09 12672   0.208E-04    0.444E-05
DAV:  12    -0.124056849346E+03   -0.19222E-06   -0.64444E-09 12384   0.166E-04    0.281E-05
DAV:  13    -0.124056849426E+03   -0.79800E-07   -0.16038E-09 12624   0.804E-05    0.174E-05
DAV:  14    -0.124056849489E+03   -0.63221E-07   -0.16504E-09 11568   0.782E-05    0.680E-06
DAV:  15    -0.124056849497E+03   -0.80099E-08   -0.16041E-10 14160   0.301E-05
 115 F= -.12591158E+03 E0= -.12590881E+03  d E =-.507362E-04  mag=    -0.0000
       N       E                     dE             d eps       ncg     rms          rms(c)
DAV:   1    -0.124058009455E+03   -0.11600E-02   -0.30414E-01  8256   0.228E+00    0.912E-02
DAV:   2    -0.124058108278E+03   -0.98823E-04   -0.29853E-03 11520   0.220E-01    0.619E-02
DAV:   3    -0.124058077340E+03    0.30938E-04   -0.18827E-04 14256   0.487E-02    0.176E-02
DAV:   4    -0.124058078466E+03   -0.11260E-05   -0.19261E-05  8928   0.161E-02    0.534E-03
DAV:   5    -0.124058078732E+03   -0.26597E-06   -0.17600E-06 13248   0.441E-03    0.117E-03
DAV:   6    -0.124058078724E+03    0.76761E-08   -0.12341E-07 12480   0.142E-03    0.445E-04
DAV:   7    -0.124058078730E+03   -0.55143E-08   -0.25028E-08 13728   0.583E-04
 116 F= -.12591162E+03 E0= -.12590888E+03  d E =-.831799E-04  mag=    -0.0000
       N       E                     dE             d eps       ncg     rms          rms(c)
DAV:   1    -0.124057814927E+03    0.26380E-03   -0.19647E-02  8256   0.579E-01    0.233E-02
DAV:   2    -0.124057820970E+03   -0.60427E-05   -0.19367E-04 11472   0.560E-02    0.158E-02
DAV:   3    -0.124057819354E+03    0.16155E-05   -0.11932E-05 12480   0.123E-02    0.454E-03
DAV:   4    -0.124057819459E+03   -0.10474E-06   -0.13387E-06  9408   0.421E-03    0.136E-03
DAV:   5    -0.124057819478E+03   -0.19255E-07   -0.99528E-08 12240   0.107E-03    0.334E-04
DAV:   6    -0.124057819499E+03   -0.20927E-07   -0.87366E-09 11184   0.370E-04    0.144E-04
DAV:   7    -0.124057819512E+03   -0.12352E-07   -0.89132E-10 13920   0.122E-04    0.667E-05
DAV:   8    -0.124057819526E+03   -0.13807E-07   -0.51280E-10 11280   0.745E-05    0.221E-05
DAV:   9    -0.124057819534E+03   -0.83410E-08   -0.22772E-10 12960   0.427E-05
 117 F= -.12591165E+03 E0= -.12590891E+03  d E =-.357461E-04  mag=    -0.0000
       N       E                     dE             d eps       ncg     rms          rms(c)
DAV:   1    -0.124057181524E+03    0.63800E-03   -0.10217E-01  8256   0.132E+00    0.531E-02
DAV:   2    -0.124057212958E+03   -0.31434E-04   -0.10049E-03 12864   0.127E-01    0.360E-02
DAV:   3    -0.124057202436E+03    0.10521E-04   -0.59688E-05 12288   0.272E-02    0.101E-02
DAV:   4    -0.124057202750E+03   -0.31329E-06   -0.70558E-06  9024   0.965E-03    0.310E-03
DAV:   5    -0.124057202856E+03   -0.10594E-06   -0.54454E-07 10656   0.252E-03    0.742E-04
DAV:   6    -0.124057202835E+03    0.20667E-07   -0.52425E-08 13920   0.883E-04    0.260E-04
DAV:   7    -0.124057202829E+03    0.61655E-08   -0.96437E-09 11328   0.367E-04
 118 F= -.12591171E+03 E0= -.12590895E+03  d E =-.920014E-04  mag=    -0.0000
       N       E                     dE             d eps       ncg     rms          rms(c)
DAV:   1    -0.124055781438E+03    0.14214E-02   -0.40864E-01  8256   0.264E+00    0.106E-01
DAV:   2    -0.124055906557E+03   -0.12512E-03   -0.39718E-03 10848   0.255E-01    0.718E-02
DAV:   3    -0.124055864606E+03    0.41952E-04   -0.25526E-04 12096   0.578E-02    0.207E-02
DAV:   4    -0.124055865166E+03   -0.55986E-06   -0.28049E-05 12912   0.192E-02    0.629E-03
DAV:   5    -0.124055865065E+03    0.10086E-06   -0.20461E-06 12048   0.472E-03    0.150E-03
DAV:   6    -0.124055865049E+03    0.15698E-07   -0.19529E-07 12864   0.175E-03    0.526E-04
DAV:   7    -0.124055865096E+03   -0.46686E-07   -0.46129E-08 12384   0.874E-04    0.187E-04
DAV:   8    -0.124055865186E+03   -0.89901E-07   -0.15461E-08 12480   0.564E-04    0.135E-04
DAV:   9    -0.124055865382E+03   -0.19635E-06   -0.16943E-08 13056   0.475E-04    0.697E-05
DAV:  10    -0.124055865593E+03   -0.21093E-06   -0.91042E-09 12816   0.279E-04    0.583E-05
DAV:  11    -0.124055865807E+03   -0.21404E-06   -0.74642E-09 12240   0.215E-04    0.307E-05
DAV:  12    -0.124055865916E+03   -0.10905E-06   -0.36596E-09 12864   0.178E-04    0.218E-05
DAV:  13    -0.124055865979E+03   -0.63273E-07   -0.13180E-09 12192   0.934E-05    0.127E-05
DAV:  14    -0.124055866024E+03   -0.44298E-07   -0.12343E-09 11952   0.757E-05    0.566E-06
DAV:  15    -0.124055866027E+03   -0.37917E-08   -0.82355E-11 13920   0.287E-05
 119 F= -.12591172E+03 E0= -.12590892E+03  d E =-.103012E-03  mag=    -0.0000
       N       E                     dE             d eps       ncg     rms          rms(c)
DAV:   1    -0.124056430003E+03   -0.56398E-03   -0.72354E-02  8256   0.111E+00    0.447E-02
DAV:   2    -0.124056451380E+03   -0.21377E-04   -0.70744E-04 11616   0.107E-01    0.303E-02
DAV:   3    -0.124056444685E+03    0.66946E-05   -0.44728E-05 14976   0.238E-02    0.864E-03
DAV:   4    -0.124056445078E+03   -0.39299E-06   -0.44948E-06  9264   0.783E-03    0.263E-03
DAV:   5    -0.124056445190E+03   -0.11197E-06   -0.38191E-07 12960   0.209E-03    0.598E-04
DAV:   6    -0.124056445193E+03   -0.30805E-08   -0.32772E-08 12576   0.706E-04
 120 F= -.12591173E+03 E0= -.12590895E+03  d E =-.114717E-03  mag=     0.0000
       N       E                     dE             d eps       ncg     rms          rms(c)
DAV:   1    -0.124055976572E+03    0.46862E-03   -0.63363E-02  8256   0.104E+00    0.418E-02
DAV:   2    -0.124055997087E+03   -0.20515E-04   -0.60903E-04 11904   0.997E-02    0.284E-02
DAV:   3    -0.124055990984E+03    0.61023E-05   -0.35590E-05 12384   0.213E-02    0.806E-03
DAV:   4    -0.124055991253E+03   -0.26808E-06   -0.42553E-06  9408   0.749E-03    0.242E-03
DAV:   5    -0.124055991328E+03   -0.75077E-07   -0.30355E-07 12192   0.191E-03    0.630E-04
DAV:   6    -0.124055991315E+03    0.12767E-07   -0.31205E-08 12816   0.680E-04    0.234E-04
DAV:   7    -0.124055991307E+03    0.81272E-08   -0.31637E-09 12096   0.227E-04
 121 F= -.12591178E+03 E0= -.12590898E+03  d E =-.512069E-04  mag=     0.0000
       N       E                     dE             d eps       ncg     rms          rms(c)
DAV:   1    -0.124055451183E+03    0.54013E-03   -0.73582E-02  8256   0.112E+00    0.450E-02
DAV:   2    -0.124055475593E+03   -0.24411E-04   -0.71345E-04 12576   0.108E-01    0.307E-02
DAV:   3    -0.124055468253E+03    0.73401E-05   -0.41370E-05 12336   0.229E-02    0.868E-03
DAV:   4    -0.124055468464E+03   -0.21132E-06   -0.49643E-06  9696   0.809E-03    0.264E-03
DAV:   5    -0.124055468554E+03   -0.89101E-07   -0.35999E-07 11664   0.208E-03    0.684E-04
DAV:   6    -0.124055468552E+03    0.17608E-08   -0.39126E-08 13056   0.756E-04
 122 F= -.12591180E+03 E0= -.12590899E+03  d E =-.730958E-04  mag=     0.0000
       N       E                     dE             d eps       ncg     rms          rms(c)
DAV:   1    -0.124055068566E+03    0.39999E-03   -0.57821E-02  8256   0.998E-01    0.404E-02
DAV:   2    -0.124055084358E+03   -0.15792E-04   -0.53109E-04  8832   0.940E-02    0.271E-02
DAV:   3    -0.124055079173E+03    0.51854E-05   -0.36365E-05 10656   0.223E-02    0.812E-03
DAV:   4    -0.124055079340E+03   -0.16781E-06   -0.37977E-06  9984   0.707E-03    0.240E-03
DAV:   5    -0.124055079429E+03   -0.88417E-07   -0.29873E-07 11712   0.186E-03    0.654E-04
DAV:   6    -0.124055079463E+03   -0.33996E-07   -0.34347E-08 12912   0.701E-04    0.227E-04
DAV:   7    -0.124055079491E+03   -0.27718E-07   -0.33892E-09 14064   0.225E-04    0.117E-04
DAV:   8    -0.124055079535E+03   -0.44431E-07   -0.16609E-09 12816   0.132E-04    0.507E-05
DAV:   9    -0.124055079610E+03   -0.74551E-07   -0.23580E-09 11856   0.116E-04    0.278E-05
DAV:  10    -0.124055079690E+03   -0.80627E-07   -0.23525E-09 11712   0.950E-05    0.237E-05
DAV:  11    -0.124055079744E+03   -0.53723E-07   -0.89419E-10 10416   0.539E-05    0.149E-05
DAV:  12    -0.124055079789E+03   -0.45483E-07   -0.93340E-10 12096   0.522E-05    0.765E-06
DAV:  13    -0.124055079801E+03   -0.11919E-07   -0.21241E-10 12816   0.252E-05    0.530E-06
DAV:  14    -0.124055079805E+03   -0.36380E-08   -0.76605E-11 12384   0.176E-05
 123 F= -.12591186E+03 E0= -.12590903E+03  d E =-.570260E-04  mag=     0.0000
       N       E                     dE             d eps       ncg     rms          rms(c)
DAV:   1    -0.124054552854E+03    0.52695E-03   -0.83777E-02  8256   0.120E+00    0.486E-02
DAV:   2    -0.124054576955E+03   -0.24102E-04   -0.78096E-04 12912   0.113E-01    0.329E-02
DAV:   3    -0.124054568306E+03    0.86491E-05   -0.45916E-05 12192   0.239E-02    0.920E-03
DAV:   4    -0.124054568559E+03   -0.25223E-06   -0.53209E-06  9216   0.839E-03    0.273E-03
DAV:   5    -0.124054568649E+03   -0.90432E-07   -0.37199E-07 12336   0.213E-03    0.717E-04
DAV:   6    -0.124054568639E+03    0.96225E-08   -0.42155E-08 12912   0.784E-04
 124 F= -.12591189E+03 E0= -.12590904E+03  d E =-.828551E-04  mag=    -0.0000
       N       E                     dE             d eps       ncg     rms          rms(c)
DAV:   1    -0.124054152016E+03    0.41663E-03   -0.71544E-02  8256   0.111E+00    0.451E-02
DAV:   2    -0.124054172185E+03   -0.20170E-04   -0.63260E-04  8832   0.103E-01    0.303E-02
DAV:   3    -0.124054165360E+03    0.68252E-05   -0.45655E-05 11712   0.249E-02    0.855E-03
DAV:   4    -0.124054165582E+03   -0.22211E-06   -0.43793E-06 10464   0.770E-03    0.267E-03
DAV:   5    -0.124054165669E+03   -0.86400E-07   -0.36763E-07 12144   0.206E-03    0.728E-04
DAV:   6    -0.124054165687E+03   -0.18363E-07   -0.38689E-08 14544   0.762E-04    0.251E-04
DAV:   7    -0.124054165704E+03   -0.16627E-07   -0.33668E-09 13632   0.227E-04    0.126E-04
DAV:   8    -0.124054165731E+03   -0.27311E-07   -0.15931E-09 12720   0.138E-04    0.515E-05
DAV:   9    -0.124054165777E+03   -0.46140E-07   -0.15539E-09 11520   0.106E-04    0.275E-05
DAV:  10    -0.124054165838E+03   -0.61407E-07   -0.18883E-09 11712   0.944E-05    0.222E-05
DAV:  11    -0.124054165890E+03   -0.51363E-07   -0.88914E-10 10704   0.528E-05    0.138E-05
DAV:  12    -0.124054165924E+03   -0.34261E-07   -0.60481E-10 12048   0.401E-05    0.768E-06
DAV:  13    -0.124054165936E+03   -0.11521E-07   -0.19918E-10 12336   0.225E-05    0.528E-06
DAV:  14    -0.124054165939E+03   -0.36316E-08   -0.70932E-11 12768   0.148E-05
 125 F= -.12591194E+03 E0= -.12590908E+03  d E =-.512190E-04  mag=     0.0000
       N       E                     dE             d eps       ncg     rms          rms(c)
DAV:   1    -0.124053868088E+03    0.29785E-03   -0.31759E-02  8256   0.741E-01    0.301E-02
DAV:   2    -0.124053877141E+03   -0.90523E-05   -0.28469E-04 11808   0.687E-02    0.203E-02
DAV:   3    -0.124053873947E+03    0.31933E-05   -0.18068E-05 12144   0.151E-02    0.536E-03
DAV:   4    -0.124053874126E+03   -0.17874E-06   -0.19603E-06  9312   0.513E-03    0.169E-03
DAV:   5    -0.124053874184E+03   -0.58276E-07   -0.14264E-07 12432   0.133E-03    0.464E-04
DAV:   6    -0.124053874186E+03   -0.20073E-08   -0.15994E-08 13488   0.489E-04
 126 F= -.12591195E+03 E0= -.12590908E+03  d E =-.620858E-04  mag=     0.0000
       N       E                     dE             d eps       ncg     rms          rms(c)
DAV:   1    -0.124053493563E+03    0.38062E-03   -0.77365E-02  8256   0.116E+00    0.464E-02
DAV:   2    -0.124053516828E+03   -0.23265E-04   -0.66123E-04 11568   0.105E-01    0.315E-02
DAV:   3    -0.124053509479E+03    0.73492E-05   -0.41564E-05 11520   0.230E-02    0.830E-03
DAV:   4    -0.124053509735E+03   -0.25621E-06   -0.42765E-06  9504   0.756E-03    0.249E-03
DAV:   5    -0.124053509811E+03   -0.75790E-07   -0.32168E-07 12960   0.197E-03    0.702E-04
DAV:   6    -0.124053509818E+03   -0.78489E-08   -0.37073E-08 13968   0.737E-04
 127 F= -.12591201E+03 E0= -.12590914E+03  d E =-.636251E-04  mag=    -0.0000
       N       E                     dE             d eps       ncg     rms          rms(c)
DAV:   1    -0.124052196502E+03    0.13133E-02   -0.66379E-01  8256   0.340E+00    0.136E-01
DAV:   2    -0.124052404546E+03   -0.20804E-03   -0.56763E-03 12336   0.308E-01    0.923E-02
DAV:   3    -0.124052335947E+03    0.68599E-04   -0.35549E-04 12192   0.669E-02    0.241E-02
DAV:   4    -0.124052336576E+03   -0.62977E-06   -0.35493E-05 11616   0.219E-02    0.734E-03
DAV:   5    -0.124052336580E+03   -0.32487E-08   -0.25357E-06 11712   0.549E-03    0.200E-03
DAV:   6    -0.124052336556E+03    0.23484E-07   -0.32121E-07 12432   0.218E-03    0.580E-04
DAV:   7    -0.124052336569E+03   -0.12468E-07   -0.46272E-08 12144   0.808E-04    0.241E-04
DAV:   8    -0.124052336610E+03   -0.40840E-07   -0.48039E-09 12096   0.259E-04    0.141E-04
DAV:   9    -0.124052336725E+03   -0.11530E-06   -0.76910E-09 11616   0.243E-04    0.559E-05
DAV:  10    -0.124052336835E+03   -0.11044E-06   -0.47638E-09 12816   0.172E-04    0.489E-05
DAV:  11    -0.124052336947E+03   -0.11221E-06   -0.26821E-09 11904   0.965E-05    0.281E-05
DAV:  12    -0.124052337031E+03   -0.83422E-07   -0.18149E-09 11808   0.651E-05    0.181E-05
DAV:  13    -0.124052337089E+03   -0.57851E-07   -0.98030E-10 10560   0.482E-05    0.119E-05
DAV:  14    -0.124052337130E+03   -0.41084E-07   -0.12017E-09 12192   0.566E-05    0.580E-06
DAV:  15    -0.124052337133E+03   -0.35725E-08   -0.65266E-11 13104   0.158E-05
 128 F= -.12591210E+03 E0= -.12590921E+03  d E =-.146384E-03  mag=     0.0000
