 vasp.6.3.2 27Jun22 (build Dec 22 2022 13:13:19) complex                        
  
 executed on             LinuxIFC date 2023.08.22  23:25:08
 running   48 mpi-ranks, with    1 threads/rank
 distrk:  each k-point on   48 cores,    1 groups
 distr:  one band on NCORE=   1 cores,   48 groups


--------------------------------------------------------------------------------------------------------


 INCAR:
   SYSTEM = Lattice
   ISTART = 0
   ICHARG = 2
   PREC = Accurate
   ENCUT = 450
   LCHARG = .FALSE.
   LWAVE = .FALSE.
   ALGO = Normal
   NELM = 64
   EDIFF = 1E-6
   EDIFFG = -1E-3
   SIGMA = 0.1
   ISMEAR = 0
   ISPIN = 2
   NSW = 128
   IBRION = 2
   POTIM = .5
   ISIF = 2
   GGA = PE
   IVDW = 12

 POTCAR:    PAW_PBE B 06Sep2000                   
 POTCAR:    PAW_PBE C 08Apr2002                   
 -----------------------------------------------------------------------------
|                                                                             |
|           W    W    AA    RRRRR   N    N  II  N    N   GGGG   !!!           |
|           W    W   A  A   R    R  NN   N  II  NN   N  G    G  !!!           |
|           W    W  A    A  R    R  N N  N  II  N N  N  G       !!!           |
|           W WW W  AAAAAA  RRRRR   N  N N  II  N  N N  G  GGG   !            |
|           WW  WW  A    A  R   R   N   NN  II  N   NN  G    G                |
|           W    W  A    A  R    R  N    N  II  N    N   GGGG   !!!           |
|                                                                             |
|     You use a magnetic or noncollinear calculation, but did not specify     |
|     the initial magnetic moment with the MAGMOM tag. Note that a            |
|     default of 1 will be used for all atoms. This ferromagnetic setup       |
|     may break the symmetry of the crystal, in particular it may rule        |
|     out finding an antiferromagnetic solution. Thence, we recommend         |
|     setting the initial magnetic moment manually or verifying carefully     |
|     that this magnetic setup is desired.                                    |
|                                                                             |
 -----------------------------------------------------------------------------

 POTCAR:    PAW_PBE B 06Sep2000                   
   SHA256 =  a32ced30f5ae56fd4d10b4325ff17eb3e4e38ee0f4288bc219fb012fddfa6e97 B/POTCAR              
   COPYR  = (c) Copyright 06Sep2000 Georg Kresse                                                    
   COPYR  = This file is part of the software VASP. Any use, copying, and all other rights are regul
   COPYR  = If you do not have a valid VASP license, you may not use, copy or distribute this file. 
   VRHFIN =B: s2p1                                                                                  
   LEXCH  = PE                                                                                      
   EATOM  =    71.1703 eV,    5.2309 Ry                                                             
                                                                                                    
   TITEL  = PAW_PBE B 06Sep2000                                                                     
   LULTRA =        F    use ultrasoft PP ?                                                          
   IUNSCR =        1    unscreen: 0-lin 1-nonlin 2-no                                               
   RPACOR =    1.200    partial core radius                                                         
   POMASS =   10.811; ZVAL   =    3.000    mass and valenz                                          
   RCORE  =    1.700    outmost cutoff radius                                                       
   RWIGS  =    1.710; RWIGS  =    0.905    wigner-seitz radius (au A)                               
   ENMAX  =  318.614; ENMIN  =  238.960 eV                                                          
   ICORE  =        2    local potential                                                             
   LCOR   =        T    correct aug charges                                                         
   LPAW   =        T    paw PP                                                                      
   EAUG   =  535.514                                                                                
   DEXC   =    0.000                                                                                
   RMAX   =    1.732    core radius for proj-oper                                                   
   RAUG   =    1.300    factor for augmentation sphere                                              
   RDEP   =    1.757    radius for radial grids                                                     
   RDEPT  =    1.436    core radius for aug-charge                                                  
                                                                                                    
   Atomic configuration                                                                             
    4 entries                                                                                       
     n  l   j            E        occ.                                                              
     1  0  0.50      -180.5896   2.0000                                                             
     2  0  0.50        -9.4431   2.0000                                                             
     2  1  0.50        -3.6068   1.0000                                                             
     3  2  1.50        -4.0817   0.0000                                                             
   Description                                                                                      
     l       E           TYP  RCUT    TYP  RCUT                                                     
     0     -9.4430752     23  1.500                                                                 
     0      0.8675899     23  1.500                                                                 
     1     -3.6067955     23  1.700                                                                 
     1      6.1086146     23  1.700                                                                 
     2     -4.0817478      7  1.700                                                                 
  local pseudopotential read in
  partial core-charges read in
  partial kinetic energy density read in
  atomic valenz-charges read in
  non local Contribution for L=           0  read in
    real space projection operators read in
  non local Contribution for L=           0  read in
    real space projection operators read in
  non local Contribution for L=           1  read in
    real space projection operators read in
  non local Contribution for L=           1  read in
    real space projection operators read in
    PAW grid and wavefunctions read in
 
   number of l-projection  operators is LMAX  =           4
   number of lm-projection operators is LMMAX =           8
 
 POTCAR:    PAW_PBE C 08Apr2002                   
   SHA256 =  253f7b50bb8d59471dbedb8285d89021f4a42ed1a2c5d38a03a736e69125dd95 C/POTCAR              
   COPYR  = (c) Copyright 08Apr2002 Georg Kresse                                                    
   COPYR  = This file is part of the software VASP. Any use, copying, and all other rights are regul
   COPYR  = If you do not have a valid VASP license, you may not use, copy or distribute this file. 
   VRHFIN =C: s2p2                                                                                  
   LEXCH  = PE                                                                                      
   EATOM  =   147.1560 eV,   10.8157 Ry                                                             
                                                                                                    
   TITEL  = PAW_PBE C 08Apr2002                                                                     
   LULTRA =        F    use ultrasoft PP ?                                                          
   IUNSCR =        1    unscreen: 0-lin 1-nonlin 2-no                                               
   RPACOR =    1.200    partial core radius                                                         
   POMASS =   12.011; ZVAL   =    4.000    mass and valenz                                          
   RCORE  =    1.500    outmost cutoff radius                                                       
   RWIGS  =    1.630; RWIGS  =    0.863    wigner-seitz radius (au A)                               
   ENMAX  =  400.000; ENMIN  =  300.000 eV                                                          
   ICORE  =        2    local potential                                                             
   LCOR   =        T    correct aug charges                                                         
   LPAW   =        T    paw PP                                                                      
   EAUG   =  644.873                                                                                
   DEXC   =    0.000                                                                                
   RMAX   =    1.529    core radius for proj-oper                                                   
   RAUG   =    1.300    factor for augmentation sphere                                              
   RDEP   =    1.501    radius for radial grids                                                     
   RDEPT  =    1.300    core radius for aug-charge                                                  
                                                                                                    
   Atomic configuration                                                                             
    4 entries                                                                                       
     n  l   j            E        occ.                                                              
     1  0  0.50      -273.3789   2.0000                                                             
     2  0  0.50       -13.7508   2.0000                                                             
     2  1  0.50        -5.2854   2.0000                                                             
     3  2  1.50        -5.4423   0.0000                                                             
   Description                                                                                      
     l       E           TYP  RCUT    TYP  RCUT                                                     
     0    -13.7508458     23  1.200                                                                 
     0     -8.2022199     23  1.200                                                                 
     1     -5.2854383     23  1.500                                                                 
     1     34.0145650     23  1.500                                                                 
     2     -5.4423304      7  1.500                                                                 
  local pseudopotential read in
  partial core-charges read in
  partial kinetic energy density read in
  atomic valenz-charges read in
  non local Contribution for L=           0  read in
    real space projection operators read in
  non local Contribution for L=           0  read in
    real space projection operators read in
  non local Contribution for L=           1  read in
    real space projection operators read in
  non local Contribution for L=           1  read in
    real space projection operators read in
    PAW grid and wavefunctions read in
 
   number of l-projection  operators is LMAX  =           4
   number of lm-projection operators is LMMAX =           8
 
  PAW_PBE B 06Sep2000                   :
 energy of atom  1       EATOM=  -71.1703
 kinetic energy error for atom=    0.0015 (will be added to EATOM!!)
  PAW_PBE C 08Apr2002                   :
 energy of atom  2       EATOM= -147.1560
 kinetic energy error for atom=    0.0116 (will be added to EATOM!!)
 
 
 POSCAR: Graphene-B4C3 Bridge with lattice parame
  positions in direct lattice
  No initial velocities read in
 exchange correlation table for  LEXCH =        8
   RHO(1)=    0.500       N(1)  =     2000
   RHO(2)=  100.500       N(2)  =     4000

 VTST: version 4.2, (08/11/21)

 CHAIN: initializing optimizer
 
 OPT: Using VASP Conjugate-Gradient optimizer
 CHAIN: Read ICHAIN            0
 
 POSCAR: Graphene-B4C3 Bridge with lattice parame
  positions in direct lattice
  No initial velocities read in
 


--------------------------------------------------------------------------------------------------------


 ion  position               nearest neighbor table
   1  0.004  0.003  0.120-   7 1.60   6 1.60   5 1.60   4 1.74   2 1.74   3 1.74
   2  0.357  0.003  0.097-   6 1.57   5 1.65   7 1.65   1 1.74
   3  0.004  0.356  0.097-   7 1.57   5 1.64   6 1.65   1 1.74
   4  0.651  0.650  0.097-   5 1.57   6 1.65   7 1.65   1 1.74
   5  0.328  0.327  0.100-   4 1.57   1 1.60   3 1.64   2 1.65
   6  0.680  0.003  0.100-   2 1.57   1 1.60   4 1.65   3 1.65
   7  0.004  0.679  0.100-   3 1.57   1 1.60   4 1.65   2 1.65
   8  0.083  0.417  0.336-  11 1.40  13 1.40   9 1.40
   9  0.250  0.250  0.336-  10 1.40  12 1.40   8 1.40
  10  0.083  0.917  0.336-   9 1.40  15 1.40  11 1.40
  11  0.250  0.750  0.336-   8 1.40  14 1.40  10 1.40
  12  0.583  0.417  0.336-   9 1.40  15 1.40  13 1.40
  13  0.750  0.250  0.336-   8 1.40  14 1.40  12 1.40
  14  0.583  0.917  0.336-  11 1.40  13 1.40  15 1.40
  15  0.750  0.750  0.336-  10 1.40  12 1.40  14 1.40
 
  LATTYP: Found a hexagonal cell.
 ALAT       =     4.8480000000
 C/A-ratio  =     3.0940594059
  
  Lattice vectors:
  
 A1 = (   4.1984911575,   2.4240000000,   0.0000000000)
 A2 = (  -4.1984911575,   2.4240000000,   0.0000000000)
 A3 = (   0.0000000000,   0.0000000000,  15.0000000000)


Analysis of symmetry for initial positions (statically):
=====================================================================
 Subroutine PRICEL returns:
 Original cell was already a primitive cell.
 

 Routine SETGRP: Setting up the symmetry group for a 
 hexagonal supercell.


 Subroutine GETGRP returns: Found  1 space group operations
 (whereof  1 operations were pure point group operations)
 out of a pool of 24 trial point group operations.


The static configuration has the point symmetry C_1 .


Analysis of symmetry for dynamics (positions and initial velocities):
=====================================================================
 Subroutine PRICEL returns:
 Original cell was already a primitive cell.
 

 Routine SETGRP: Setting up the symmetry group for a 
 hexagonal supercell.


 Subroutine GETGRP returns: Found  1 space group operations
 (whereof  1 operations were pure point group operations)
 out of a pool of 24 trial point group operations.


The dynamic configuration has the point symmetry C_1 .


Analysis of structural, dynamic, and magnetic symmetry:
=====================================================================
 Subroutine PRICEL returns:
 Original cell was already a primitive cell.
 

 Routine SETGRP: Setting up the symmetry group for a 
 hexagonal supercell.


 Subroutine GETGRP returns: Found  1 space group operations
 (whereof  1 operations were pure point group operations)
 out of a pool of 24 trial point group operations.


The overall configuration has the point symmetry C_1 .


 Subroutine INISYM returns: Found  1 space group operations
 (whereof  1 operations are pure point group operations),
 and found     1 'primitive' translations


----------------------------------------------------------------------------------------

                                     Primitive cell                                     

  volume of cell :     305.3143

  direct lattice vectors                    reciprocal lattice vectors
     4.198491158  2.424000000  0.000000000     0.119090402  0.206270627  0.000000000
    -4.198491158  2.424000000  0.000000000    -0.119090402  0.206270627  0.000000000
     0.000000000  0.000000000 15.000000000     0.000000000  0.000000000  0.066666667

  length of vectors
     4.848000000  4.848000000 15.000000000     0.238180804  0.238180804  0.066666667

  position of ions in fractional coordinates (direct lattice)
     0.004153607  0.002672102  0.120341338
     0.356953351  0.002855031  0.097488934
     0.004238577  0.355506992  0.097492564
     0.651422953  0.650065570  0.097476879
     0.328086463  0.326719375  0.100305078
     0.680277748  0.002780852  0.100275621
     0.004165300  0.678838078  0.100265587
     0.083332667  0.416666333  0.336466667
     0.249999667  0.249999333  0.336466667
     0.083332667  0.916666333  0.336466667
     0.249999667  0.749999333  0.336466667
     0.583332667  0.416666333  0.336466667
     0.749999667  0.249999333  0.336466667
     0.583332667  0.916666333  0.336466667
     0.749999667  0.749999333  0.336466667

  ion indices of the primitive-cell ions
   primitive index   ion index
                 1           1
                 2           2
                 3           3
                 4           4
                 5           5
                 6           6
                 7           7
                 8           8
                 9           9
                10          10
                11          11
                12          12
                13          13
                14          14
                15          15

----------------------------------------------------------------------------------------

 
 
 KPOINTS: k-points                                

Automatic generation of k-mesh.
 Grid dimensions read from file:
 generate k-points for:   12   12    1

 Generating k-lattice:

  Cartesian coordinates                     Fractional coordinates (reciprocal lattice)
     0.009924200  0.017189219  0.000000000     0.083333333 -0.000000000  0.000000000
    -0.009924200  0.017189219  0.000000000    -0.000000000  0.083333333  0.000000000
     0.000000000  0.000000000  0.066666667     0.000000000  0.000000000  1.000000000

  Length of vectors
     0.019848400  0.019848400  0.066666667

  Shift w.r.t. Gamma in fractional coordinates (k-lattice)
     0.000000000  0.000000000  0.000000000

 
 Subroutine IBZKPT returns following result:
 ===========================================
 
 Found     74 irreducible k-points:
 
 Following reciprocal coordinates:
            Coordinates               Weight
  0.000000  0.000000  0.000000      1.000000
  0.083333 -0.000000  0.000000      2.000000
 -0.000000  0.083333  0.000000      2.000000
 -0.083333  0.083333  0.000000      2.000000
  0.166667 -0.000000  0.000000      2.000000
 -0.000000  0.166667  0.000000      2.000000
 -0.166667  0.166667  0.000000      2.000000
  0.250000 -0.000000  0.000000      2.000000
 -0.000000  0.250000  0.000000      2.000000
 -0.250000  0.250000  0.000000      2.000000
  0.333333 -0.000000  0.000000      2.000000
 -0.000000  0.333333  0.000000      2.000000
 -0.333333  0.333333  0.000000      2.000000
  0.416667 -0.000000  0.000000      2.000000
  0.000000  0.416667  0.000000      2.000000
 -0.416667  0.416667  0.000000      2.000000
  0.500000 -0.000000  0.000000      1.000000
 -0.000000  0.500000  0.000000      1.000000
  0.500000  0.500000  0.000000      1.000000
  0.083333  0.083333  0.000000      2.000000
 -0.083333  0.166667  0.000000      2.000000
 -0.166667  0.083333  0.000000      2.000000
  0.166667  0.083333  0.000000      2.000000
 -0.083333  0.250000  0.000000      2.000000
 -0.250000  0.166667  0.000000      2.000000
 -0.166667  0.250000  0.000000      2.000000
  0.083333  0.166667  0.000000      2.000000
  0.250000 -0.083333  0.000000      2.000000
  0.250000  0.083333  0.000000      2.000000
 -0.083333  0.333333  0.000000      2.000000
 -0.333333  0.250000  0.000000      2.000000
 -0.250000  0.333333  0.000000      2.000000
  0.083333  0.250000  0.000000      2.000000
  0.333333 -0.083333  0.000000      2.000000
  0.333333  0.083333  0.000000      2.000000
 -0.083333  0.416667  0.000000      2.000000
 -0.416667  0.333333  0.000000      2.000000
 -0.333333  0.416667  0.000000      2.000000
  0.083333  0.333333  0.000000      2.000000
  0.416667 -0.083333  0.000000      2.000000
  0.416667  0.083333  0.000000      2.000000
 -0.083333  0.500000  0.000000      2.000000
  0.500000  0.416667  0.000000      2.000000
 -0.416667  0.500000  0.000000      2.000000
  0.083333  0.416667  0.000000      2.000000
  0.500000 -0.083333  0.000000      2.000000
  0.166667  0.166667  0.000000      2.000000
 -0.166667  0.333333  0.000000      2.000000
 -0.333333  0.166667  0.000000      2.000000
  0.250000  0.166667  0.000000      2.000000
 -0.166667  0.416667  0.000000      2.000000
 -0.416667  0.250000  0.000000      2.000000
 -0.250000  0.416667  0.000000      2.000000
  0.166667  0.250000  0.000000      2.000000
  0.416667 -0.166667  0.000000      2.000000
  0.333333  0.166667  0.000000      2.000000
 -0.166667  0.500000  0.000000      2.000000
  0.500000  0.333333  0.000000      2.000000
 -0.333333  0.500000  0.000000      2.000000
  0.166667  0.333333  0.000000      2.000000
  0.500000 -0.166667  0.000000      2.000000
  0.416667  0.166667  0.000000      2.000000
 -0.166667 -0.416667  0.000000      2.000000
  0.416667  0.416667  0.000000      2.000000
  0.250000  0.250000  0.000000      2.000000
 -0.250000  0.500000  0.000000      2.000000
  0.500000  0.250000  0.000000      2.000000
  0.333333  0.250000  0.000000      2.000000
 -0.250000 -0.416667  0.000000      2.000000
  0.416667  0.333333  0.000000      2.000000
 -0.333333 -0.416667  0.000000      2.000000
  0.250000  0.333333  0.000000      2.000000
 -0.416667 -0.250000  0.000000      2.000000
  0.333333  0.333333  0.000000      2.000000
 
 Following cartesian coordinates:
            Coordinates               Weight
  0.000000  0.000000  0.000000      1.000000
  0.009924  0.017189  0.000000      2.000000
 -0.009924  0.017189  0.000000      2.000000
 -0.019848  0.000000  0.000000      2.000000
  0.019848  0.034378  0.000000      2.000000
 -0.019848  0.034378  0.000000      2.000000
 -0.039697  0.000000  0.000000      2.000000
  0.029773  0.051568  0.000000      2.000000
 -0.029773  0.051568  0.000000      2.000000
 -0.059545  0.000000  0.000000      2.000000
  0.039697  0.068757  0.000000      2.000000
 -0.039697  0.068757  0.000000      2.000000
 -0.079394 -0.000000  0.000000      2.000000
  0.049621  0.085946  0.000000      2.000000
 -0.049621  0.085946  0.000000      2.000000
 -0.099242  0.000000  0.000000      2.000000
  0.059545  0.103135  0.000000      1.000000
 -0.059545  0.103135  0.000000      1.000000
  0.000000  0.206271  0.000000      1.000000
 -0.000000  0.034378  0.000000      2.000000
 -0.029773  0.017189  0.000000      2.000000
 -0.029773 -0.017189  0.000000      2.000000
  0.009924  0.051568  0.000000      2.000000
 -0.039697  0.034378  0.000000      2.000000
 -0.049621 -0.017189  0.000000      2.000000
 -0.049621  0.017189  0.000000      2.000000
 -0.009924  0.051568  0.000000      2.000000
  0.039697  0.034378  0.000000      2.000000
  0.019848  0.068757  0.000000      2.000000
 -0.049621  0.051568  0.000000      2.000000
 -0.069469 -0.017189  0.000000      2.000000
 -0.069469  0.017189  0.000000      2.000000
 -0.019848  0.068757  0.000000      2.000000
  0.049621  0.051568  0.000000      2.000000
  0.029773  0.085946  0.000000      2.000000
 -0.059545  0.068757  0.000000      2.000000
 -0.089318 -0.017189  0.000000      2.000000
 -0.089318  0.017189  0.000000      2.000000
 -0.029773  0.085946  0.000000      2.000000
  0.059545  0.068757  0.000000      2.000000
  0.039697  0.103135  0.000000      2.000000
 -0.069469  0.085946  0.000000      2.000000
  0.009924  0.189081  0.000000      2.000000
 -0.109166  0.017189  0.000000      2.000000
 -0.039697  0.103135  0.000000      2.000000
  0.069469  0.085946  0.000000      2.000000
 -0.000000  0.068757  0.000000      2.000000
 -0.059545  0.034378  0.000000      2.000000
 -0.059545 -0.034378  0.000000      2.000000
  0.009924  0.085946  0.000000      2.000000
 -0.069469  0.051568  0.000000      2.000000
 -0.079394 -0.034378  0.000000      2.000000
 -0.079394  0.034378  0.000000      2.000000
 -0.009924  0.085946  0.000000      2.000000
  0.069469  0.051568  0.000000      2.000000
  0.019848  0.103135  0.000000      2.000000
 -0.079394  0.068757  0.000000      2.000000
  0.019848  0.171892  0.000000      2.000000
 -0.099242  0.034378  0.000000      2.000000
 -0.019848  0.103135  0.000000      2.000000
  0.079394  0.068757  0.000000      2.000000
  0.029773  0.120325  0.000000      2.000000
  0.029773 -0.120325  0.000000      2.000000
  0.000000  0.171892  0.000000      2.000000
  0.000000  0.103135  0.000000      2.000000
 -0.089318  0.051568  0.000000      2.000000
  0.029773  0.154703  0.000000      2.000000
  0.009924  0.120325  0.000000      2.000000
  0.019848 -0.137514  0.000000      2.000000
  0.009924  0.154703  0.000000      2.000000
  0.009924 -0.154703  0.000000      2.000000
 -0.009924  0.120325  0.000000      2.000000
 -0.019848 -0.137514  0.000000      2.000000
 -0.000000  0.137514  0.000000      2.000000
 


--------------------------------------------------------------------------------------------------------




 Dimension of arrays:
   k-points           NKPTS =     74   k-points in BZ     NKDIM =     74   number of bands    NBANDS=     48
   number of dos      NEDOS =    301   number of ions     NIONS =     15
   non local maximal  LDIM  =      4   non local SUM 2l+1 LMDIM =      8
   total plane-waves  NPLWV = 139968
   max r-space proj   IRMAX =      1   max aug-charges    IRDMAX=   7348
   dimension x,y,z NGX =    36 NGY =   36 NGZ =  108
   dimension x,y,z NGXF=    72 NGYF=   72 NGZF=  216
   support grid    NGXF=    72 NGYF=   72 NGZF=  216
   ions per type =               4  11
   NGX,Y,Z   is equivalent  to a cutoff of  12.34, 12.34, 11.97 a.u.
   NGXF,Y,Z  is equivalent  to a cutoff of  24.69, 24.69, 23.94 a.u.

 SYSTEM =  Lattice                                 
 POSCAR =  Graphene-B4C3 Bridge with lattice parame

 Startparameter for this run:
   NWRITE =      2    write-flag & timer
   PREC   = accura    normal or accurate (medium, high low for compatibility)
   ISTART =      0    job   : 0-new  1-cont  2-samecut
   ICHARG =      2    charge: 1-file 2-atom 10-const
   ISPIN  =      2    spin polarized calculation?
   LNONCOLLINEAR =      F non collinear calculations
   LSORBIT =      F    spin-orbit coupling
   INIWAV =      1    electr: 0-lowe 1-rand  2-diag
   LASPH  =      F    aspherical Exc in radial PAW
 Electronic Relaxation 1
   ENCUT  =  450.0 eV  33.07 Ry    5.75 a.u.   8.39  8.39 25.95*2*pi/ulx,y,z
   ENINI  =  450.0     initial cutoff
   ENAUG  =  644.9 eV  augmentation charge cutoff
   NELM   =     64;   NELMIN=  2; NELMDL= -5     # of ELM steps 
   EDIFF  = 0.1E-05   stopping-criterion for ELM
   LREAL  =      F    real-space projection
   NLSPLINE    = F    spline interpolate recip. space projectors
   LCOMPAT=      F    compatible to vasp.4.4
   GGA_COMPAT  = T    GGA compatible to vasp.4.4-vasp.4.6
   LMAXPAW     = -100 max onsite density
   LMAXMIX     =    2 max onsite mixed and CHGCAR
   VOSKOWN=      0    Vosko Wilk Nusair interpolation
   ROPT   =    0.00000   0.00000
 Ionic relaxation
   EDIFFG = -.1E-02   stopping-criterion for IOM
   NSW    =    128    number of steps for IOM
   NBLOCK =      1;   KBLOCK =    128    inner block; outer block 
   IBRION =      2    ionic relax: 0-MD 1-quasi-New 2-CG
   NFREE  =      1    steps in history (QN), initial steepest desc. (CG)
   ISIF   =      2    stress and relaxation
   IWAVPR =     11    prediction:  0-non 1-charg 2-wave 3-comb
   ISYM   =      2    0-nonsym 1-usesym 2-fastsym
   LCORR  =      T    Harris-Foulkes like correction to forces

   POTIM  = 0.5000    time-step for ionic-motion
   TEIN   =    0.0    initial temperature
   TEBEG  =    0.0;   TEEND  =   0.0 temperature during run
   SMASS  =  -3.00    Nose mass-parameter (am)
   estimated Nose-frequenzy (Omega)   =  0.10E-29 period in steps = 0.13E+47 mass=  -0.537E-27a.u.
   SCALEE = 1.0000    scale energy and forces
   NPACO  =    256;   APACO  = 10.0  distance and # of slots for P.C.
   PSTRESS=    0.0 pullay stress

  Mass of Ions in am
   POMASS =  10.81 12.01
  Ionic Valenz
   ZVAL   =   3.00  4.00
  Atomic Wigner-Seitz radii
   RWIGS  =  -1.00 -1.00
  virtual crystal weights 
   VCA    =   1.00  1.00
   NELECT =      56.0000    total number of electrons
   NUPDOWN=      -1.0000    fix difference up-down

 DOS related values:
   EMIN   =  10.00;   EMAX   =-10.00  energy-range for DOS
   EFERMI =   0.00
   ISMEAR =     0;   SIGMA  =   0.10  broadening in eV -4-tet -1-fermi 0-gaus

 Electronic relaxation 2 (details)
   IALGO  =     38    algorithm
   LDIAG  =      T    sub-space diagonalisation (order eigenvalues)
   LSUBROT=      F    optimize rotation matrix (better conditioning)
   TURBO    =      0    0=normal 1=particle mesh
   IRESTART =      0    0=no restart 2=restart with 2 vectors
   NREBOOT  =      0    no. of reboots
   NMIN     =      0    reboot dimension
   EREF     =   0.00    reference energy to select bands
   IMIX   =      4    mixing-type and parameters
     AMIX     =   0.40;   BMIX     =  1.00
     AMIX_MAG =   1.60;   BMIX_MAG =  1.00
     AMIN     =   0.10
     WC   =   100.;   INIMIX=   1;  MIXPRE=   1;  MAXMIX= -45

 Intra band minimization:
   WEIMIN = 0.0010     energy-eigenvalue tresh-hold
   EBREAK =  0.52E-08  absolut break condition
   DEPER  =   0.30     relativ break condition  

   TIME   =   0.40     timestep for ELM

  volume/ion in A,a.u.               =      20.35       137.36
  Fermi-wavevector in a.u.,A,eV,Ry     =   0.930155  1.757737 11.771592  0.865188
  Thomas-Fermi vector in A             =   2.056513
 
 Write flags
   LWAVE        =      F    write WAVECAR
   LDOWNSAMPLE  =      F    k-point downsampling of WAVECAR
   LCHARG       =      F    write CHGCAR
   LVTOT        =      F    write LOCPOT, total local potential
   LVHAR        =      F    write LOCPOT, Hartree potential only
   LELF         =      F    write electronic localiz. function (ELF)
   LORBIT       =      0    0 simple, 1 ext, 2 COOP (PROOUT), +10 PAW based schemes


 Dipole corrections
   LMONO  =      F    monopole corrections only (constant potential shift)
   LDIPOL =      F    correct potential (dipole corrections)
   IDIPOL =      0    1-x, 2-y, 3-z, 4-all directions 
   EPSILON=  1.0000000 bulk dielectric constant

 Exchange correlation treatment:
   GGA     =    PE    GGA type
   LEXCH   =     8    internal setting for exchange type
   LIBXC   =     F    Libxc                    
   VOSKOWN =     0    Vosko Wilk Nusair interpolation
   LHFCALC =     F    Hartree Fock is set to
   LHFONE  =     F    Hartree Fock one center treatment
   AEXX    =    0.0000 exact exchange contribution

 Linear response parameters
   LEPSILON=     F    determine dielectric tensor
   LRPA    =     F    only Hartree local field effects (RPA)
   LNABLA  =     F    use nabla operator in PAW spheres
   LVEL    =     F    velocity operator in full k-point grid
   CSHIFT  =0.1000    complex shift for real part using Kramers Kronig
   OMEGAMAX=  -1.0    maximum frequency
   DEG_THRESHOLD= 0.2000000E-02 threshold for treating states as degnerate
   RTIME   =   -0.100 relaxation time in fs
  (WPLASMAI=    0.000 imaginary part of plasma frequency in eV, 0.658/RTIME)
   DFIELD  = 0.0000000 0.0000000 0.0000000 field for delta impulse in time
 
  Optional k-point grid parameters
   LKPOINTS_OPT  =     F    use optional k-point grid
   KPOINTS_OPT_MODE=     1    mode for optional k-point grid
 
 Orbital magnetization related:
   ORBITALMAG=     F  switch on orbital magnetization
   LCHIMAG   =     F  perturbation theory with respect to B field
   DQ        =  0.001000  dq finite difference perturbation B field
   LLRAUG    =     F  two centre corrections for induced B field



--------------------------------------------------------------------------------------------------------


 conjugate gradient relaxation of ions
 charge density and potential will be updated during run
 spin polarized calculation
 Variant of blocked Davidson
 Davidson routine will perform the subspace rotation
 perform sub-space diagonalisation
    after iterative eigenvector-optimisation
 modified Broyden-mixing scheme, WC =      100.0
 initial mixing is a Kerker type mixing with AMIX =  0.4000 and BMIX =      1.0000
 Hartree-type preconditioning will be used
 using additional bands           20
 reciprocal scheme for non local part
 use partial core corrections
 calculate Harris-corrections to forces 
   (improved forces if not selfconsistent)
 use gradient corrections 
 use of overlap-Matrix (Vanderbilt PP)
 Gauss-broadening in eV      SIGMA  =   0.10


--------------------------------------------------------------------------------------------------------


  energy-cutoff  :      450.00
  volume of cell :      305.31
      direct lattice vectors                 reciprocal lattice vectors
     4.198491158  2.424000000  0.000000000     0.119090402  0.206270627  0.000000000
    -4.198491158  2.424000000  0.000000000    -0.119090402  0.206270627  0.000000000
     0.000000000  0.000000000 15.000000000     0.000000000  0.000000000  0.066666667

  length of vectors
     4.848000000  4.848000000 15.000000000     0.238180804  0.238180804  0.066666667


 
 k-points in units of 2pi/SCALE and weight: k-points                                
   0.00000000  0.00000000  0.00000000       0.007
   0.00992420  0.01718922  0.00000000       0.014
  -0.00992420  0.01718922  0.00000000       0.014
  -0.01984840  0.00000000  0.00000000       0.014
   0.01984840  0.03437844  0.00000000       0.014
  -0.01984840  0.03437844  0.00000000       0.014
  -0.03969680  0.00000000  0.00000000       0.014
   0.02977260  0.05156766  0.00000000       0.014
  -0.02977260  0.05156766  0.00000000       0.014
  -0.05954520  0.00000000  0.00000000       0.014
   0.03969680  0.06875688  0.00000000       0.014
  -0.03969680  0.06875688  0.00000000       0.014
  -0.07939360 -0.00000000  0.00000000       0.014
   0.04962100  0.08594609  0.00000000       0.014
  -0.04962100  0.08594609  0.00000000       0.014
  -0.09924200  0.00000000  0.00000000       0.014
   0.05954520  0.10313531  0.00000000       0.007
  -0.05954520  0.10313531  0.00000000       0.007
   0.00000000  0.20627063  0.00000000       0.007
  -0.00000000  0.03437844  0.00000000       0.014
  -0.02977260  0.01718922  0.00000000       0.014
  -0.02977260 -0.01718922  0.00000000       0.014
   0.00992420  0.05156766  0.00000000       0.014
  -0.03969680  0.03437844  0.00000000       0.014
  -0.04962100 -0.01718922  0.00000000       0.014
  -0.04962100  0.01718922  0.00000000       0.014
  -0.00992420  0.05156766  0.00000000       0.014
   0.03969680  0.03437844  0.00000000       0.014
   0.01984840  0.06875688  0.00000000       0.014
  -0.04962100  0.05156766  0.00000000       0.014
  -0.06946940 -0.01718922  0.00000000       0.014
  -0.06946940  0.01718922  0.00000000       0.014
  -0.01984840  0.06875688  0.00000000       0.014
   0.04962100  0.05156766  0.00000000       0.014
   0.02977260  0.08594609  0.00000000       0.014
  -0.05954520  0.06875688  0.00000000       0.014
  -0.08931780 -0.01718922  0.00000000       0.014
  -0.08931780  0.01718922  0.00000000       0.014
  -0.02977260  0.08594609  0.00000000       0.014
   0.05954520  0.06875688  0.00000000       0.014
   0.03969680  0.10313531  0.00000000       0.014
  -0.06946940  0.08594609  0.00000000       0.014
   0.00992420  0.18908141  0.00000000       0.014
  -0.10916620  0.01718922  0.00000000       0.014
  -0.03969680  0.10313531  0.00000000       0.014
   0.06946940  0.08594609  0.00000000       0.014
  -0.00000000  0.06875688  0.00000000       0.014
  -0.05954520  0.03437844  0.00000000       0.014
  -0.05954520 -0.03437844  0.00000000       0.014
   0.00992420  0.08594609  0.00000000       0.014
  -0.06946940  0.05156766  0.00000000       0.014
  -0.07939360 -0.03437844  0.00000000       0.014
  -0.07939360  0.03437844  0.00000000       0.014
  -0.00992420  0.08594609  0.00000000       0.014
   0.06946940  0.05156766  0.00000000       0.014
   0.01984840  0.10313531  0.00000000       0.014
  -0.07939360  0.06875688  0.00000000       0.014
   0.01984840  0.17189219  0.00000000       0.014
  -0.09924200  0.03437844  0.00000000       0.014
  -0.01984840  0.10313531  0.00000000       0.014
   0.07939360  0.06875688  0.00000000       0.014
   0.02977260  0.12032453  0.00000000       0.014
   0.02977260 -0.12032453  0.00000000       0.014
   0.00000000  0.17189219  0.00000000       0.014
   0.00000000  0.10313531  0.00000000       0.014
  -0.08931780  0.05156766  0.00000000       0.014
   0.02977260  0.15470297  0.00000000       0.014
   0.00992420  0.12032453  0.00000000       0.014
   0.01984840 -0.13751375  0.00000000       0.014
   0.00992420  0.15470297  0.00000000       0.014
   0.00992420 -0.15470297  0.00000000       0.014
  -0.00992420  0.12032453  0.00000000       0.014
  -0.01984840 -0.13751375  0.00000000       0.014
  -0.00000000  0.13751375  0.00000000       0.014
 
 k-points in reciprocal lattice and weights: k-points                                
   0.00000000  0.00000000  0.00000000       0.007
   0.08333333 -0.00000000  0.00000000       0.014
  -0.00000000  0.08333333  0.00000000       0.014
  -0.08333333  0.08333333  0.00000000       0.014
   0.16666667 -0.00000000  0.00000000       0.014
  -0.00000000  0.16666667  0.00000000       0.014
  -0.16666667  0.16666667  0.00000000       0.014
   0.25000000 -0.00000000  0.00000000       0.014
  -0.00000000  0.25000000  0.00000000       0.014
  -0.25000000  0.25000000  0.00000000       0.014
   0.33333333 -0.00000000  0.00000000       0.014
  -0.00000000  0.33333333  0.00000000       0.014
  -0.33333333  0.33333333  0.00000000       0.014
   0.41666667 -0.00000000  0.00000000       0.014
   0.00000000  0.41666667  0.00000000       0.014
  -0.41666667  0.41666667  0.00000000       0.014
   0.50000000 -0.00000000  0.00000000       0.007
  -0.00000000  0.50000000  0.00000000       0.007
   0.50000000  0.50000000  0.00000000       0.007
   0.08333333  0.08333333  0.00000000       0.014
  -0.08333333  0.16666667  0.00000000       0.014
  -0.16666667  0.08333333  0.00000000       0.014
   0.16666667  0.08333333  0.00000000       0.014
  -0.08333333  0.25000000  0.00000000       0.014
  -0.25000000  0.16666667  0.00000000       0.014
  -0.16666667  0.25000000  0.00000000       0.014
   0.08333333  0.16666667  0.00000000       0.014
   0.25000000 -0.08333333  0.00000000       0.014
   0.25000000  0.08333333  0.00000000       0.014
  -0.08333333  0.33333333  0.00000000       0.014
  -0.33333333  0.25000000  0.00000000       0.014
  -0.25000000  0.33333333  0.00000000       0.014
   0.08333333  0.25000000  0.00000000       0.014
   0.33333333 -0.08333333  0.00000000       0.014
   0.33333333  0.08333333  0.00000000       0.014
  -0.08333333  0.41666667  0.00000000       0.014
  -0.41666667  0.33333333  0.00000000       0.014
  -0.33333333  0.41666667  0.00000000       0.014
   0.08333333  0.33333333  0.00000000       0.014
   0.41666667 -0.08333333  0.00000000       0.014
   0.41666667  0.08333333  0.00000000       0.014
  -0.08333333  0.50000000  0.00000000       0.014
   0.50000000  0.41666667  0.00000000       0.014
  -0.41666667  0.50000000  0.00000000       0.014
   0.08333333  0.41666667  0.00000000       0.014
   0.50000000 -0.08333333  0.00000000       0.014
   0.16666667  0.16666667  0.00000000       0.014
  -0.16666667  0.33333333  0.00000000       0.014
  -0.33333333  0.16666667  0.00000000       0.014
   0.25000000  0.16666667  0.00000000       0.014
  -0.16666667  0.41666667  0.00000000       0.014
  -0.41666667  0.25000000  0.00000000       0.014
  -0.25000000  0.41666667  0.00000000       0.014
   0.16666667  0.25000000  0.00000000       0.014
   0.41666667 -0.16666667  0.00000000       0.014
   0.33333333  0.16666667  0.00000000       0.014
  -0.16666667  0.50000000  0.00000000       0.014
   0.50000000  0.33333333  0.00000000       0.014
  -0.33333333  0.50000000  0.00000000       0.014
   0.16666667  0.33333333  0.00000000       0.014
   0.50000000 -0.16666667  0.00000000       0.014
   0.41666667  0.16666667  0.00000000       0.014
  -0.16666667 -0.41666667  0.00000000       0.014
   0.41666667  0.41666667  0.00000000       0.014
   0.25000000  0.25000000  0.00000000       0.014
  -0.25000000  0.50000000  0.00000000       0.014
   0.50000000  0.25000000  0.00000000       0.014
   0.33333333  0.25000000  0.00000000       0.014
  -0.25000000 -0.41666667  0.00000000       0.014
   0.41666667  0.33333333  0.00000000       0.014
  -0.33333333 -0.41666667  0.00000000       0.014
   0.25000000  0.33333333  0.00000000       0.014
  -0.41666667 -0.25000000  0.00000000       0.014
   0.33333333  0.33333333  0.00000000       0.014
 
 position of ions in fractional coordinates (direct lattice) 
   0.00415361  0.00267210  0.12034134
   0.35695335  0.00285503  0.09748893
   0.00423858  0.35550699  0.09749256
   0.65142295  0.65006557  0.09747688
   0.32808646  0.32671938  0.10030508
   0.68027775  0.00278085  0.10027562
   0.00416530  0.67883808  0.10026559
   0.08333267  0.41666633  0.33646667
   0.24999967  0.24999933  0.33646667
   0.08333267  0.91666633  0.33646667
   0.24999967  0.74999933  0.33646667
   0.58333267  0.41666633  0.33646667
   0.74999967  0.24999933  0.33646667
   0.58333267  0.91666633  0.33646667
   0.74999967  0.74999933  0.33646667
 
 position of ions in cartesian coordinates  (Angst):
   0.00622009  0.01654552  1.80512007
   1.48667867  0.87217552  1.46233401
  -1.47479733  0.87202326  1.46238846
   0.00569896  3.15480818  1.46215318
   0.00573971  1.58724935  1.50457617
   2.84446473  1.65573405  1.50413432
  -2.83260769  1.65560019  1.50398380
  -1.39949845  1.21199758  5.04700000
   0.00000140  1.21199758  5.04700000
  -3.49874403  2.42399758  5.04700000
  -2.09924418  2.42399758  5.04700000
   0.69974713  2.42399758  5.04700000
   2.09924698  2.42399758  5.04700000
  -1.39949845  3.63599758  5.04700000
   0.00000140  3.63599758  5.04700000
 


--------------------------------------------------------------------------------------------------------


 k-point   1 :   0.0000 0.0000 0.0000  plane waves:    6669
 k-point   2 :   0.0833-0.0000 0.0000  plane waves:    6631
 k-point   3 :  -0.0000 0.0833 0.0000  plane waves:    6631
 k-point   4 :  -0.0833 0.0833 0.0000  plane waves:    6631
 k-point   5 :   0.1667-0.0000 0.0000  plane waves:    6647
 k-point   6 :  -0.0000 0.1667 0.0000  plane waves:    6647
 k-point   7 :  -0.1667 0.1667 0.0000  plane waves:    6647
 k-point   8 :   0.2500-0.0000 0.0000  plane waves:    6629
 k-point   9 :  -0.0000 0.2500 0.0000  plane waves:    6629
 k-point  10 :  -0.2500 0.2500 0.0000  plane waves:    6629
 k-point  11 :   0.3333-0.0000 0.0000  plane waves:    6616
 k-point  12 :  -0.0000 0.3333 0.0000  plane waves:    6616
 k-point  13 :  -0.3333 0.3333 0.0000  plane waves:    6616
 k-point  14 :   0.4167-0.0000 0.0000  plane waves:    6606
 k-point  15 :   0.0000 0.4167 0.0000  plane waves:    6606
 k-point  16 :  -0.4167 0.4167 0.0000  plane waves:    6606
 k-point  17 :   0.5000-0.0000 0.0000  plane waves:    6594
 k-point  18 :  -0.0000 0.5000 0.0000  plane waves:    6594
 k-point  19 :   0.5000 0.5000 0.0000  plane waves:    6594
 k-point  20 :   0.0833 0.0833 0.0000  plane waves:    6641
 k-point  21 :  -0.0833 0.1667 0.0000  plane waves:    6641
 k-point  22 :  -0.1667 0.0833 0.0000  plane waves:    6641
 k-point  23 :   0.1667 0.0833 0.0000  plane waves:    6638
 k-point  24 :  -0.0833 0.2500 0.0000  plane waves:    6638
 k-point  25 :  -0.2500 0.1667 0.0000  plane waves:    6638
 k-point  26 :  -0.1667 0.2500 0.0000  plane waves:    6638
 k-point  27 :   0.0833 0.1667 0.0000  plane waves:    6638
 k-point  28 :   0.2500-0.0833 0.0000  plane waves:    6638
 k-point  29 :   0.2500 0.0833 0.0000  plane waves:    6612
 k-point  30 :  -0.0833 0.3333 0.0000  plane waves:    6612
 k-point  31 :  -0.3333 0.2500 0.0000  plane waves:    6612
 k-point  32 :  -0.2500 0.3333 0.0000  plane waves:    6612
 k-point  33 :   0.0833 0.2500 0.0000  plane waves:    6612
 k-point  34 :   0.3333-0.0833 0.0000  plane waves:    6612
 k-point  35 :   0.3333 0.0833 0.0000  plane waves:    6609
 k-point  36 :  -0.0833 0.4167 0.0000  plane waves:    6609
 k-point  37 :  -0.4167 0.3333 0.0000  plane waves:    6609
 k-point  38 :  -0.3333 0.4167 0.0000  plane waves:    6609
 k-point  39 :   0.0833 0.3333 0.0000  plane waves:    6609
 k-point  40 :   0.4167-0.0833 0.0000  plane waves:    6609
 k-point  41 :   0.4167 0.0833 0.0000  plane waves:    6600
 k-point  42 :  -0.0833 0.5000 0.0000  plane waves:    6600
 k-point  43 :   0.5000 0.4167 0.0000  plane waves:    6600
 k-point  44 :  -0.4167 0.5000 0.0000  plane waves:    6600
 k-point  45 :   0.0833 0.4167 0.0000  plane waves:    6600
 k-point  46 :   0.5000-0.0833 0.0000  plane waves:    6600
 k-point  47 :   0.1667 0.1667 0.0000  plane waves:    6605
 k-point  48 :  -0.1667 0.3333 0.0000  plane waves:    6605
 k-point  49 :  -0.3333 0.1667 0.0000  plane waves:    6605
 k-point  50 :   0.2500 0.1667 0.0000  plane waves:    6615
 k-point  51 :  -0.1667 0.4167 0.0000  plane waves:    6615
 k-point  52 :  -0.4167 0.2500 0.0000  plane waves:    6615
 k-point  53 :  -0.2500 0.4167 0.0000  plane waves:    6615
 k-point  54 :   0.1667 0.2500 0.0000  plane waves:    6615
 k-point  55 :   0.4167-0.1667 0.0000  plane waves:    6615
 k-point  56 :   0.3333 0.1667 0.0000  plane waves:    6614
 k-point  57 :  -0.1667 0.5000 0.0000  plane waves:    6614
 k-point  58 :   0.5000 0.3333 0.0000  plane waves:    6614
 k-point  59 :  -0.3333 0.5000 0.0000  plane waves:    6614
 k-point  60 :   0.1667 0.3333 0.0000  plane waves:    6614
 k-point  61 :   0.5000-0.1667 0.0000  plane waves:    6614
 k-point  62 :   0.4167 0.1667 0.0000  plane waves:    6608
 k-point  63 :  -0.1667-0.4167 0.0000  plane waves:    6608
 k-point  64 :   0.4167 0.4167 0.0000  plane waves:    6608
 k-point  65 :   0.2500 0.2500 0.0000  plane waves:    6614
 k-point  66 :  -0.2500 0.5000 0.0000  plane waves:    6614
 k-point  67 :   0.5000 0.2500 0.0000  plane waves:    6614
 k-point  68 :   0.3333 0.2500 0.0000  plane waves:    6612
 k-point  69 :  -0.2500-0.4167 0.0000  plane waves:    6612
 k-point  70 :   0.4167 0.3333 0.0000  plane waves:    6612
 k-point  71 :  -0.3333-0.4167 0.0000  plane waves:    6612
 k-point  72 :   0.2500 0.3333 0.0000  plane waves:    6612
 k-point  73 :  -0.4167-0.2500 0.0000  plane waves:    6612
 k-point  74 :   0.3333 0.3333 0.0000  plane waves:    6642

 maximum and minimum number of plane-waves per node :      6669     6594

 maximum number of plane-waves:      6669
 maximum index in each direction: 
   IXMAX=    8   IYMAX=    8   IZMAX=   25
   IXMIN=   -8   IYMIN=   -8   IZMIN=  -25


 serial   3D FFT for wavefunctions
 parallel 3D FFT for charge:
    minimum data exchange during FFTs selected (reduces bandwidth)


 total amount of memory used by VASP MPI-rank0   126335. kBytes
=======================================================================

   base      :      30000. kBytes
   nonl-proj :      64798. kBytes
   fftplans  :       1560. kBytes
   grid      :      13745. kBytes
   one-center:         92. kBytes
   wavefun   :      16140. kBytes
 
     INWAV:  cpu time      0.0000: real time      0.0000
 Broyden mixing: mesh for mixing (old mesh)
   NGX = 17   NGY = 17   NGZ = 51
  (NGX  = 72   NGY  = 72   NGZ  =216)
  gives a total of  14739 points

 initial charge density was supplied:
 charge density of overlapping atoms calculated
 number of electron      56.0000000 magnetization      15.0000000
 keeping initial charge density in first step


--------------------------------------------------------------------------------------------------------


 Maximum index for augmentation-charges          395 (set IRDMAX)


--------------------------------------------------------------------------------------------------------


 First call to EWALD:  gamma=   0.263
 Maximum number of real-space cells 4x 4x 2
 Maximum number of reciprocal cells 2x 2x 6

    FEWALD:  cpu time      0.0017: real time      0.0024


--------------------------------------- Iteration      1(   1)  ---------------------------------------


    POTLOK:  cpu time      0.0404: real time      0.0418
    SETDIJ:  cpu time      0.0042: real time      0.0042
     EDDAV:  cpu time      5.5415: real time      5.5972
       DOS:  cpu time      0.0019: real time      0.0026
    --------------------------------------------
      LOOP:  cpu time      5.5879: real time      5.6458

 eigenvalue-minimisations  : 14208
 total energy-change (2. order) : 0.2025006E+03  (-0.2564195E+04)
 number of electron      56.0000000 magnetization      15.0000000
 augmentation part       56.0000000 magnetization      15.0000000

 Free energy of the ion-electron system (eV)
  ---------------------------------------------------
  alpha Z        PSCENC =        58.25896848
  Ewald energy   TEWEN  =      4702.32997290
  -Hartree energ DENC   =     -6258.93269537
  -exchange      EXHF   =         0.00000000
  -V(xc)+E(xc)   XCENC  =       175.06017532
  PAW double counting   =      1365.87943566    -1368.52100941
  entropy T*S    EENTRO =        -0.01937115
  eigenvalues    EBANDS =      -374.81824761
  atomic energy  EATOM  =      1903.26342058
  Solvation  Ediel_sol  =         0.00000000
  ---------------------------------------------------
  free energy    TOTEN  =       202.50064940 eV

  energy without entropy =      202.52002055  energy(sigma->0) =      202.51033498


--------------------------------------------------------------------------------------------------------




--------------------------------------- Iteration      1(   2)  ---------------------------------------


     EDDAV:  cpu time      7.8979: real time      7.9728
       DOS:  cpu time      0.0011: real time      0.0011
    --------------------------------------------
      LOOP:  cpu time      7.8989: real time      7.9739

 eigenvalue-minimisations  : 20016
 total energy-change (2. order) :-0.3185521E+03  (-0.3169864E+03)
 number of electron      56.0000000 magnetization      15.0000000
 augmentation part       56.0000000 magnetization      15.0000000

 Free energy of the ion-electron system (eV)
  ---------------------------------------------------
  alpha Z        PSCENC =        58.25896848
  Ewald energy   TEWEN  =      4702.32997290
  -Hartree energ DENC   =     -6258.93269537
  -exchange      EXHF   =         0.00000000
  -V(xc)+E(xc)   XCENC  =       175.06017532
  PAW double counting   =      1365.87943566    -1368.52100941
  entropy T*S    EENTRO =        -0.00141043
  eigenvalues    EBANDS =      -693.38833046
  atomic energy  EATOM  =      1903.26342058
  Solvation  Ediel_sol  =         0.00000000
  ---------------------------------------------------
  free energy    TOTEN  =      -116.05147273 eV

  energy without entropy =     -116.05006230  energy(sigma->0) =     -116.05076751


--------------------------------------------------------------------------------------------------------




--------------------------------------- Iteration      1(   3)  ---------------------------------------


     EDDAV:  cpu time     11.3562: real time     11.4444
       DOS:  cpu time      0.0011: real time      0.0011
    --------------------------------------------
      LOOP:  cpu time     11.3573: real time     11.4455

 eigenvalue-minimisations  : 26640
 total energy-change (2. order) :-0.1328240E+02  (-0.1326567E+02)
 number of electron      56.0000000 magnetization      15.0000000
 augmentation part       56.0000000 magnetization      15.0000000

 Free energy of the ion-electron system (eV)
  ---------------------------------------------------
  alpha Z        PSCENC =        58.25896848
  Ewald energy   TEWEN  =      4702.32997290
  -Hartree energ DENC   =     -6258.93269537
  -exchange      EXHF   =         0.00000000
  -V(xc)+E(xc)   XCENC  =       175.06017532
  PAW double counting   =      1365.87943566    -1368.52100941
  entropy T*S    EENTRO =        -0.00312611
  eigenvalues    EBANDS =      -706.66901544
  atomic energy  EATOM  =      1903.26342058
  Solvation  Ediel_sol  =         0.00000000
  ---------------------------------------------------
  free energy    TOTEN  =      -129.33387338 eV

  energy without entropy =     -129.33074727  energy(sigma->0) =     -129.33231033


--------------------------------------------------------------------------------------------------------




--------------------------------------- Iteration      1(   4)  ---------------------------------------


     EDDAV:  cpu time      7.9183: real time      7.9883
       DOS:  cpu time      0.0010: real time      0.0010
    --------------------------------------------
      LOOP:  cpu time      7.9193: real time      7.9893

 eigenvalue-minimisations  : 19440
 total energy-change (2. order) :-0.2843844E-01  (-0.2843801E-01)
 number of electron      56.0000000 magnetization      15.0000000
 augmentation part       56.0000000 magnetization      15.0000000

 Free energy of the ion-electron system (eV)
  ---------------------------------------------------
  alpha Z        PSCENC =        58.25896848
  Ewald energy   TEWEN  =      4702.32997290
  -Hartree energ DENC   =     -6258.93269537
  -exchange      EXHF   =         0.00000000
  -V(xc)+E(xc)   XCENC  =       175.06017532
  PAW double counting   =      1365.87943566    -1368.52100941
  entropy T*S    EENTRO =        -0.00313629
  eigenvalues    EBANDS =      -706.69744369
  atomic energy  EATOM  =      1903.26342058
  Solvation  Ediel_sol  =         0.00000000
  ---------------------------------------------------
  free energy    TOTEN  =      -129.36231182 eV

  energy without entropy =     -129.35917553  energy(sigma->0) =     -129.36074367


--------------------------------------------------------------------------------------------------------




--------------------------------------- Iteration      1(   5)  ---------------------------------------


     EDDAV:  cpu time     11.0259: real time     11.0942
       DOS:  cpu time      0.0011: real time      0.0011
    CHARGE:  cpu time      0.2919: real time      0.3130
    MIXING:  cpu time      0.0019: real time      0.0025
    --------------------------------------------
      LOOP:  cpu time     11.3208: real time     11.4107

 eigenvalue-minimisations  : 26016
 total energy-change (2. order) :-0.6694820E-04  (-0.6694790E-04)
 number of electron      55.9999998 magnetization      11.4641858
 augmentation part        1.2028832 magnetization      11.2821170

 Broyden mixing:
  rms(total) = 0.24394E+01    rms(broyden)= 0.24392E+01
  rms(prec ) = 0.26133E+01
  weight for this iteration     100.00

 Free energy of the ion-electron system (eV)
  ---------------------------------------------------
  alpha Z        PSCENC =        58.25896848
  Ewald energy   TEWEN  =      4702.32997290
  -Hartree energ DENC   =     -6258.93269537
  -exchange      EXHF   =         0.00000000
  -V(xc)+E(xc)   XCENC  =       175.06017532
  PAW double counting   =      1365.87943566    -1368.52100941
  entropy T*S    EENTRO =        -0.00313650
  eigenvalues    EBANDS =      -706.69751043
  atomic energy  EATOM  =      1903.26342058
  Solvation  Ediel_sol  =         0.00000000
  ---------------------------------------------------
  free energy    TOTEN  =      -129.36237877 eV

  energy without entropy =     -129.35924227  energy(sigma->0) =     -129.36081052


--------------------------------------------------------------------------------------------------------




--------------------------------------- Iteration      1(   6)  ---------------------------------------


    POTLOK:  cpu time      0.0368: real time      0.0398
    SETDIJ:  cpu time      0.0034: real time      0.0035
     EDDAV:  cpu time     11.0773: real time     11.1594
       DOS:  cpu time      0.0011: real time      0.0011
    CHARGE:  cpu time      0.3281: real time      0.3365
    MIXING:  cpu time      0.0011: real time      0.0013
    --------------------------------------------
      LOOP:  cpu time     11.4478: real time     11.5416

 eigenvalue-minimisations  : 26016
 total energy-change (2. order) : 0.3736690E+02  (-0.7249429E+01)
 number of electron      55.9999998 magnetization       7.8619596
 augmentation part        1.1501126 magnetization       7.4958993

 Broyden mixing:
  rms(total) = 0.13861E+01    rms(broyden)= 0.13860E+01
  rms(prec ) = 0.14979E+01
  weight for this iteration     100.00

 eigenvalues of (default mixing * dielectric matrix)
  average eigenvalue GAMMA=   1.0713
  1.0713

 Free energy of the ion-electron system (eV)
  ---------------------------------------------------
  alpha Z        PSCENC =        58.25896848
  Ewald energy   TEWEN  =      4702.32997290
  -Hartree energ DENC   =     -6333.38469842
  -exchange      EXHF   =         0.00000000
  -V(xc)+E(xc)   XCENC  =       199.20869488
  PAW double counting   =      2633.93155285    -2637.77834231
  entropy T*S    EENTRO =        -0.00639624
  eigenvalues    EBANDS =      -617.81865389
  atomic energy  EATOM  =      1903.26342058
  Solvation  Ediel_sol  =         0.00000000
  ---------------------------------------------------
  free energy    TOTEN  =       -91.99548117 eV

  energy without entropy =      -91.98908494  energy(sigma->0) =      -91.99228306


--------------------------------------------------------------------------------------------------------




--------------------------------------- Iteration      1(   7)  ---------------------------------------


    POTLOK:  cpu time      0.0341: real time      0.0372
    SETDIJ:  cpu time      0.0033: real time      0.0034
     EDDAV:  cpu time      9.0885: real time      9.1594
       DOS:  cpu time      0.0011: real time      0.0011
    CHARGE:  cpu time      0.3266: real time      0.3338
    MIXING:  cpu time      0.0011: real time      0.0012
    --------------------------------------------
      LOOP:  cpu time      9.4547: real time      9.5361

 eigenvalue-minimisations  : 21696
 total energy-change (2. order) :-0.8454270E+01  (-0.9919673E+00)
 number of electron      55.9999998 magnetization       4.2830000
 augmentation part        1.0903799 magnetization       4.0123580

 Broyden mixing:
  rms(total) = 0.80921E+00    rms(broyden)= 0.80912E+00
  rms(prec ) = 0.84234E+00
  weight for this iteration     100.00

 eigenvalues of (default mixing * dielectric matrix)
  average eigenvalue GAMMA=   1.3834
  0.8827  1.8842

 Free energy of the ion-electron system (eV)
  ---------------------------------------------------
  alpha Z        PSCENC =        58.25896848
  Ewald energy   TEWEN  =      4702.32997290
  -Hartree energ DENC   =     -6406.09417995
  -exchange      EXHF   =         0.00000000
  -V(xc)+E(xc)   XCENC  =       193.48763522
  PAW double counting   =      4148.70703524    -4153.22832420
  entropy T*S    EENTRO =        -0.00565440
  eigenvalues    EBANDS =      -547.16862490
  atomic energy  EATOM  =      1903.26342058
  Solvation  Ediel_sol  =         0.00000000
  ---------------------------------------------------
  free energy    TOTEN  =      -100.44975103 eV

  energy without entropy =     -100.44409663  energy(sigma->0) =     -100.44692383


--------------------------------------------------------------------------------------------------------




--------------------------------------- Iteration      1(   8)  ---------------------------------------


    POTLOK:  cpu time      0.0310: real time      0.0329
    SETDIJ:  cpu time      0.0033: real time      0.0034
     EDDAV:  cpu time     10.0564: real time     10.1358
       DOS:  cpu time      0.0010: real time      0.0010
    CHARGE:  cpu time      0.3270: real time      0.3345
    MIXING:  cpu time      0.0008: real time      0.0008
    --------------------------------------------
      LOOP:  cpu time     10.4194: real time     10.5084

 eigenvalue-minimisations  : 23760
 total energy-change (2. order) :-0.9958012E+01  (-0.8764933E+00)
 number of electron      55.9999998 magnetization       2.8260744
 augmentation part        1.0443285 magnetization       2.7285529

 Broyden mixing:
  rms(total) = 0.43431E+00    rms(broyden)= 0.43424E+00
  rms(prec ) = 0.44636E+00
  weight for this iteration     100.00

 eigenvalues of (default mixing * dielectric matrix)
  average eigenvalue GAMMA=   1.3729
  2.3984  1.0612  0.6590

 Free energy of the ion-electron system (eV)
  ---------------------------------------------------
  alpha Z        PSCENC =        58.25896848
  Ewald energy   TEWEN  =      4702.32997290
  -Hartree energ DENC   =     -6455.62607174
  -exchange      EXHF   =         0.00000000
  -V(xc)+E(xc)   XCENC  =       189.44054141
  PAW double counting   =      5601.47883930    -5606.22631053
  entropy T*S    EENTRO =        -0.00002499
  eigenvalues    EBANDS =      -503.32709891
  atomic energy  EATOM  =      1903.26342058
  Solvation  Ediel_sol  =         0.00000000
  ---------------------------------------------------
  free energy    TOTEN  =      -110.40776349 eV

  energy without entropy =     -110.40773850  energy(sigma->0) =     -110.40775099


--------------------------------------------------------------------------------------------------------




--------------------------------------- Iteration      1(   9)  ---------------------------------------


    POTLOK:  cpu time      0.0323: real time      0.0342
    SETDIJ:  cpu time      0.0034: real time      0.0035
     EDDAV:  cpu time      8.0016: real time      8.0685
       DOS:  cpu time      0.0009: real time      0.0009
    CHARGE:  cpu time      0.3274: real time      0.3335
    MIXING:  cpu time      0.0008: real time      0.0008
    --------------------------------------------
      LOOP:  cpu time      8.3664: real time      8.4415

 eigenvalue-minimisations  : 19536
 total energy-change (2. order) :-0.6743958E+01  (-0.3902156E+00)
 number of electron      55.9999999 magnetization       1.4956776
 augmentation part        1.0328822 magnetization       1.4151703

 Broyden mixing:
  rms(total) = 0.27758E+00    rms(broyden)= 0.27754E+00
  rms(prec ) = 0.29103E+00
  weight for this iteration     100.00

 eigenvalues of (default mixing * dielectric matrix)
  average eigenvalue GAMMA=   1.4502
  2.5878  1.7428  0.8595  0.6105

 Free energy of the ion-electron system (eV)
  ---------------------------------------------------
  alpha Z        PSCENC =        58.25896848
  Ewald energy   TEWEN  =      4702.32997290
  -Hartree energ DENC   =     -6461.73468145
  -exchange      EXHF   =         0.00000000
  -V(xc)+E(xc)   XCENC  =       185.57988660
  PAW double counting   =      5887.00310716    -5891.65205544
  entropy T*S    EENTRO =        -0.00000364
  eigenvalues    EBANDS =      -500.20033686
  atomic energy  EATOM  =      1903.26342058
  Solvation  Ediel_sol  =         0.00000000
  ---------------------------------------------------
  free energy    TOTEN  =      -117.15172168 eV

  energy without entropy =     -117.15171804  energy(sigma->0) =     -117.15171986


--------------------------------------------------------------------------------------------------------




--------------------------------------- Iteration      1(  10)  ---------------------------------------


    POTLOK:  cpu time      0.0304: real time      0.0316
    SETDIJ:  cpu time      0.0034: real time      0.0035
     EDDAV:  cpu time     10.0348: real time     10.0987
       DOS:  cpu time      0.0012: real time      0.0012
    CHARGE:  cpu time      0.3244: real time      0.3348
    MIXING:  cpu time      0.0009: real time      0.0009
    --------------------------------------------
      LOOP:  cpu time     10.3950: real time     10.4707

 eigenvalue-minimisations  : 23856
 total energy-change (2. order) :-0.6337711E+01  (-0.8137438E+00)
 number of electron      55.9999999 magnetization       0.8186633
 augmentation part        1.0242671 magnetization       0.7761015

 Broyden mixing:
  rms(total) = 0.15894E+00    rms(broyden)= 0.15879E+00
  rms(prec ) = 0.17645E+00
  weight for this iteration     100.00

 eigenvalues of (default mixing * dielectric matrix)
  average eigenvalue GAMMA=   1.4843
  2.5398  2.5398  0.8714  0.8714  0.5993

 Free energy of the ion-electron system (eV)
  ---------------------------------------------------
  alpha Z        PSCENC =        58.25896848
  Ewald energy   TEWEN  =      4702.32997290
  -Hartree energ DENC   =     -6459.82217419
  -exchange      EXHF   =         0.00000000
  -V(xc)+E(xc)   XCENC  =       182.04908432
  PAW double counting   =      5930.44462719    -5934.89071451
  entropy T*S    EENTRO =        -0.00060918
  eigenvalues    EBANDS =      -505.12200859
  atomic energy  EATOM  =      1903.26342058
  Solvation  Ediel_sol  =         0.00000000
  ---------------------------------------------------
  free energy    TOTEN  =      -123.48943300 eV

  energy without entropy =     -123.48882383  energy(sigma->0) =     -123.48912842


--------------------------------------------------------------------------------------------------------




--------------------------------------- Iteration      1(  11)  ---------------------------------------


    POTLOK:  cpu time      0.0332: real time      0.0362
    SETDIJ:  cpu time      0.0034: real time      0.0034
     EDDAV:  cpu time     10.4737: real time     10.5478
       DOS:  cpu time      0.0010: real time      0.0010
    CHARGE:  cpu time      0.3218: real time      0.3319
    MIXING:  cpu time      0.0010: real time      0.0010
    --------------------------------------------
      LOOP:  cpu time     10.8340: real time     10.9212

 eigenvalue-minimisations  : 24912
 total energy-change (2. order) :-0.1788847E+01  (-0.2811859E+00)
 number of electron      55.9999999 magnetization       0.3579347
 augmentation part        1.0237160 magnetization       0.3391296

 Broyden mixing:
  rms(total) = 0.98951E-01    rms(broyden)= 0.98835E-01
  rms(prec ) = 0.11183E+00
  weight for this iteration     100.00

 eigenvalues of (default mixing * dielectric matrix)
  average eigenvalue GAMMA=   1.5132
  3.0041  2.3530  1.4437  0.9379  0.7301  0.6102

 Free energy of the ion-electron system (eV)
  ---------------------------------------------------
  alpha Z        PSCENC =        58.25896848
  Ewald energy   TEWEN  =      4702.32997290
  -Hartree energ DENC   =     -6456.51646815
  -exchange      EXHF   =         0.00000000
  -V(xc)+E(xc)   XCENC  =       180.91225360
  PAW double counting   =      5837.67489806    -5842.03768258
  entropy T*S    EENTRO =        -0.00119652
  eigenvalues    EBANDS =      -509.16244643
  atomic energy  EATOM  =      1903.26342058
  Solvation  Ediel_sol  =         0.00000000
  ---------------------------------------------------
  free energy    TOTEN  =      -125.27828006 eV

  energy without entropy =     -125.27708354  energy(sigma->0) =     -125.27768180


--------------------------------------------------------------------------------------------------------




--------------------------------------- Iteration      1(  12)  ---------------------------------------


    POTLOK:  cpu time      0.0311: real time      0.0322
    SETDIJ:  cpu time      0.0034: real time      0.0034
     EDDAV:  cpu time      8.0252: real time      8.0842
       DOS:  cpu time      0.0009: real time      0.0009
    CHARGE:  cpu time      0.3283: real time      0.3359
    MIXING:  cpu time      0.0010: real time      0.0010
    --------------------------------------------
      LOOP:  cpu time      8.3900: real time      8.4576

 eigenvalue-minimisations  : 19728
 total energy-change (2. order) :-0.1600555E+00  (-0.2282675E-01)
 number of electron      55.9999999 magnetization       0.1173188
 augmentation part        1.0253737 magnetization       0.1087113

 Broyden mixing:
  rms(total) = 0.46326E-01    rms(broyden)= 0.46298E-01
  rms(prec ) = 0.51175E-01
  weight for this iteration     100.00

 eigenvalues of (default mixing * dielectric matrix)
  average eigenvalue GAMMA=   1.5636
  3.5873  2.1207  2.1207  0.8910  0.8910  0.6066  0.7274

 Free energy of the ion-electron system (eV)
  ---------------------------------------------------
  alpha Z        PSCENC =        58.25896848
  Ewald energy   TEWEN  =      4702.32997290
  -Hartree energ DENC   =     -6455.58981718
  -exchange      EXHF   =         0.00000000
  -V(xc)+E(xc)   XCENC  =       180.56054387
  PAW double counting   =      5773.48609463    -5777.86028199
  entropy T*S    EENTRO =        -0.00148350
  eigenvalues    EBANDS =      -509.88575333
  atomic energy  EATOM  =      1903.26342058
  Solvation  Ediel_sol  =         0.00000000
  ---------------------------------------------------
  free energy    TOTEN  =      -125.43833554 eV

  energy without entropy =     -125.43685204  energy(sigma->0) =     -125.43759379


--------------------------------------------------------------------------------------------------------




--------------------------------------- Iteration      1(  13)  ---------------------------------------


    POTLOK:  cpu time      0.0308: real time      0.0310
    SETDIJ:  cpu time      0.0031: real time      0.0033
     EDDAV:  cpu time      7.2099: real time      7.2572
       DOS:  cpu time      0.0010: real time      0.0010
    CHARGE:  cpu time      0.3161: real time      0.3315
    MIXING:  cpu time      0.0010: real time      0.0010
    --------------------------------------------
      LOOP:  cpu time      7.5617: real time      7.6251

 eigenvalue-minimisations  : 17808
 total energy-change (2. order) :-0.2725113E-01  (-0.2305854E-02)
 number of electron      55.9999999 magnetization       0.0345028
 augmentation part        1.0253844 magnetization       0.0318416

 Broyden mixing:
  rms(total) = 0.18695E-01    rms(broyden)= 0.18691E-01
  rms(prec ) = 0.22624E-01
  weight for this iteration     100.00

 eigenvalues of (default mixing * dielectric matrix)
  average eigenvalue GAMMA=   1.5858
  3.9485  2.3162  2.3162  0.9753  0.9123  0.9123  0.6127  0.6933

 Free energy of the ion-electron system (eV)
  ---------------------------------------------------
  alpha Z        PSCENC =        58.25896848
  Ewald energy   TEWEN  =      4702.32997290
  -Hartree energ DENC   =     -6456.32549010
  -exchange      EXHF   =         0.00000000
  -V(xc)+E(xc)   XCENC  =       180.49180963
  PAW double counting   =      5758.09270091    -5762.49049825
  entropy T*S    EENTRO =        -0.00155297
  eigenvalues    EBANDS =      -509.08491785
  atomic energy  EATOM  =      1903.26342058
  Solvation  Ediel_sol  =         0.00000000
  ---------------------------------------------------
  free energy    TOTEN  =      -125.46558667 eV

  energy without entropy =     -125.46403370  energy(sigma->0) =     -125.46481018


--------------------------------------------------------------------------------------------------------




--------------------------------------- Iteration      1(  14)  ---------------------------------------


    POTLOK:  cpu time      0.0309: real time      0.0326
    SETDIJ:  cpu time      0.0034: real time      0.0034
     EDDAV:  cpu time      8.4676: real time      8.5221
       DOS:  cpu time      0.0010: real time      0.0010
    CHARGE:  cpu time      0.3209: real time      0.3330
    MIXING:  cpu time      0.0010: real time      0.0010
    --------------------------------------------
      LOOP:  cpu time      8.8248: real time      8.8932

 eigenvalue-minimisations  : 20736
 total energy-change (2. order) :-0.2230970E-01  (-0.6007359E-03)
 number of electron      55.9999999 magnetization       0.0022665
 augmentation part        1.0255019 magnetization       0.0012063

 Broyden mixing:
  rms(total) = 0.83646E-02    rms(broyden)= 0.83628E-02
  rms(prec ) = 0.12160E-01
  weight for this iteration     100.00

 eigenvalues of (default mixing * dielectric matrix)
  average eigenvalue GAMMA=   1.5616
  4.1136  2.3235  2.3235  1.3558  0.9300  0.9300  0.7918  0.6164  0.6702

 Free energy of the ion-electron system (eV)
  ---------------------------------------------------
  alpha Z        PSCENC =        58.25896848
  Ewald energy   TEWEN  =      4702.32997290
  -Hartree energ DENC   =     -6456.61330821
  -exchange      EXHF   =         0.00000000
  -V(xc)+E(xc)   XCENC  =       180.43753078
  PAW double counting   =      5736.28865444    -5740.69402668
  entropy T*S    EENTRO =        -0.00155797
  eigenvalues    EBANDS =      -508.75755069
  atomic energy  EATOM  =      1903.26342058
  Solvation  Ediel_sol  =         0.00000000
  ---------------------------------------------------
  free energy    TOTEN  =      -125.48789636 eV

  energy without entropy =     -125.48633839  energy(sigma->0) =     -125.48711738


--------------------------------------------------------------------------------------------------------




--------------------------------------- Iteration      1(  15)  ---------------------------------------


    POTLOK:  cpu time      0.0313: real time      0.0315
    SETDIJ:  cpu time      0.0034: real time      0.0034
     EDDAV:  cpu time      7.8891: real time      7.9477
       DOS:  cpu time      0.0010: real time      0.0010
    CHARGE:  cpu time      0.3235: real time      0.3317
    MIXING:  cpu time      0.0011: real time      0.0011
    --------------------------------------------
      LOOP:  cpu time      8.2493: real time      8.3164

 eigenvalue-minimisations  : 19200
 total energy-change (2. order) :-0.7467046E-02  (-0.3113099E-03)
 number of electron      55.9999999 magnetization      -0.0052280
 augmentation part        1.0255678 magnetization      -0.0053785

 Broyden mixing:
  rms(total) = 0.43748E-02    rms(broyden)= 0.43740E-02
  rms(prec ) = 0.78904E-02
  weight for this iteration     100.00

 eigenvalues of (default mixing * dielectric matrix)
  average eigenvalue GAMMA=   1.5636
  4.1992  2.3171  2.3171  2.0143  0.9725  0.9132  0.9132  0.7364  0.6266  0.6266

 Free energy of the ion-electron system (eV)
  ---------------------------------------------------
  alpha Z        PSCENC =        58.25896848
  Ewald energy   TEWEN  =      4702.32997290
  -Hartree energ DENC   =     -6457.05861125
  -exchange      EXHF   =         0.00000000
  -V(xc)+E(xc)   XCENC  =       180.41844823
  PAW double counting   =      5725.97633875    -5730.38288496
  entropy T*S    EENTRO =        -0.00155867
  eigenvalues    EBANDS =      -508.29945747
  atomic energy  EATOM  =      1903.26342058
  Solvation  Ediel_sol  =         0.00000000
  ---------------------------------------------------
  free energy    TOTEN  =      -125.49536341 eV

  energy without entropy =     -125.49380474  energy(sigma->0) =     -125.49458407


--------------------------------------------------------------------------------------------------------




--------------------------------------- Iteration      1(  16)  ---------------------------------------


    POTLOK:  cpu time      0.0298: real time      0.0300
    SETDIJ:  cpu time      0.0034: real time      0.0034
     EDDAV:  cpu time      6.8674: real time      6.9134
       DOS:  cpu time      0.0010: real time      0.0009
    CHARGE:  cpu time      0.3207: real time      0.3327
    MIXING:  cpu time      0.0011: real time      0.0011
    --------------------------------------------
      LOOP:  cpu time      7.2233: real time      7.2815

 eigenvalue-minimisations  : 16944
 total energy-change (2. order) :-0.1972320E-02  (-0.6330174E-04)
 number of electron      55.9999999 magnetization      -0.0069048
 augmentation part        1.0254372 magnetization      -0.0068521

 Broyden mixing:
  rms(total) = 0.22178E-02    rms(broyden)= 0.22175E-02
  rms(prec ) = 0.53655E-02
  weight for this iteration     100.00

 eigenvalues of (default mixing * dielectric matrix)
  average eigenvalue GAMMA=   1.5574
  4.2337  2.4014  2.4014  2.2239  1.1695  0.9393  0.9393  0.8624  0.7107  0.6252
  0.6252

 Free energy of the ion-electron system (eV)
  ---------------------------------------------------
  alpha Z        PSCENC =        58.25896848
  Ewald energy   TEWEN  =      4702.32997290
  -Hartree energ DENC   =     -6457.70531934
  -exchange      EXHF   =         0.00000000
  -V(xc)+E(xc)   XCENC  =       180.42118733
  PAW double counting   =      5725.11331430    -5729.52081370
  entropy T*S    EENTRO =        -0.00155869
  eigenvalues    EBANDS =      -507.65650758
  atomic energy  EATOM  =      1903.26342058
  Solvation  Ediel_sol  =         0.00000000
  ---------------------------------------------------
  free energy    TOTEN  =      -125.49733573 eV

  energy without entropy =     -125.49577704  energy(sigma->0) =     -125.49655638


--------------------------------------------------------------------------------------------------------




--------------------------------------- Iteration      1(  17)  ---------------------------------------


    POTLOK:  cpu time      0.0300: real time      0.0303
    SETDIJ:  cpu time      0.0034: real time      0.0034
     EDDAV:  cpu time      5.7368: real time      5.7897
       DOS:  cpu time      0.0010: real time      0.0010
    CHARGE:  cpu time      0.3257: real time      0.3317
    MIXING:  cpu time      0.0011: real time      0.0012
    --------------------------------------------
      LOOP:  cpu time      6.0980: real time      6.1573

 eigenvalue-minimisations  : 14544
 total energy-change (2. order) :-0.1247072E-02  (-0.1696893E-04)
 number of electron      55.9999999 magnetization      -0.0064999
 augmentation part        1.0253436 magnetization      -0.0063885

 Broyden mixing:
  rms(total) = 0.16954E-02    rms(broyden)= 0.16953E-02
  rms(prec ) = 0.35654E-02
  weight for this iteration     100.00

 eigenvalues of (default mixing * dielectric matrix)
  average eigenvalue GAMMA=   1.5535
  4.2688  2.5175  2.3790  2.3790  1.5586  1.0329  0.9072  0.9072  0.7650  0.6764
  0.6181  0.6318

 Free energy of the ion-electron system (eV)
  ---------------------------------------------------
  alpha Z        PSCENC =        58.25896848
  Ewald energy   TEWEN  =      4702.32997290
  -Hartree energ DENC   =     -6458.44964374
  -exchange      EXHF   =         0.00000000
  -V(xc)+E(xc)   XCENC  =       180.42148111
  PAW double counting   =      5724.48178175    -5728.88979237
  entropy T*S    EENTRO =        -0.00155866
  eigenvalues    EBANDS =      -506.91321285
  atomic energy  EATOM  =      1903.26342058
  Solvation  Ediel_sol  =         0.00000000
  ---------------------------------------------------
  free energy    TOTEN  =      -125.49858280 eV

  energy without entropy =     -125.49702414  energy(sigma->0) =     -125.49780347


--------------------------------------------------------------------------------------------------------




--------------------------------------- Iteration      1(  18)  ---------------------------------------


    POTLOK:  cpu time      0.0296: real time      0.0298
    SETDIJ:  cpu time      0.0033: real time      0.0033
     EDDAV:  cpu time      6.4298: real time      6.4811
       DOS:  cpu time      0.0009: real time      0.0009
    CHARGE:  cpu time      0.3259: real time      0.3320
    MIXING:  cpu time      0.0011: real time      0.0011
    --------------------------------------------
      LOOP:  cpu time      6.7906: real time      6.8483

 eigenvalue-minimisations  : 16032
 total energy-change (2. order) :-0.7275417E-03  (-0.8414940E-05)
[...]
  band No.  band energies     occupation 
      1     -18.7757      1.00000
      2     -18.2785      1.00000
      3     -17.7856      1.00000
      4     -16.6115      1.00000
      5     -14.5407      1.00000
      6     -14.1594      1.00000
      7     -13.7265      1.00000
      8     -12.7652      1.00000
      9     -11.0208      1.00000
     10      -9.3864      1.00000
     11      -9.0578      1.00000
     12      -8.6658      1.00000
     13      -8.4788      1.00000
     14      -7.7640      1.00000
     15      -7.5629      1.00000
     16      -7.5060      1.00000
     17      -6.7543      1.00000
     18      -6.6305      1.00000
     19      -6.2254      1.00000
     20      -6.0521      1.00000
     21      -5.7916      1.00000
     22      -5.5146      1.00000
     23      -5.2979      1.00000
     24      -5.1137      1.00000
     25      -3.9133      1.00000
     26      -3.5200      1.00000
     27      -2.9791      1.00000
     28      -1.1205      1.00000
     29       0.2592      0.00000
     30       2.1355      0.00000
     31       3.5580      0.00000
     32       3.7814      0.00000
     33       4.4596      0.00000
     34       4.8151      0.00000
     35       4.9489      0.00000
     36       5.1358      0.00000
     37       5.3265      0.00000
     38       5.4703      0.00000
     39       5.8712      0.00000
     40       6.1333      0.00000
     41       6.1761      0.00000
     42       6.5009      0.00000
     43       6.6401      0.00000
     44       7.0262      0.00000
     45       7.2290      0.00000
     46       7.2610      0.00000
     47       7.6814      0.00000
     48       8.2476      0.00000

 k-point    72 :       0.2500    0.3333    0.0000
  band No.  band energies     occupation 
      1     -18.7758      1.00000
      2     -18.2786      1.00000
      3     -17.7855      1.00000
      4     -16.6115      1.00000
      5     -14.5405      1.00000
      6     -14.1596      1.00000
      7     -13.7273      1.00000
      8     -12.7635      1.00000
      9     -11.0219      1.00000
     10      -9.3848      1.00000
     11      -9.0563      1.00000
     12      -8.6669      1.00000
     13      -8.4799      1.00000
     14      -7.7648      1.00000
     15      -7.5647      1.00000
     16      -7.5081      1.00000
     17      -6.7529      1.00000
     18      -6.6296      1.00000
     19      -6.2230      1.00000
     20      -6.0525      1.00000
     21      -5.7912      1.00000
     22      -5.5147      1.00000
     23      -5.2985      1.00000
     24      -5.1143      1.00000
     25      -3.9134      1.00000
     26      -3.5193      1.00000
     27      -2.9788      1.00000
     28      -1.1295      1.00000
     29       0.2745      0.00000
     30       2.1359      0.00000
     31       3.5524      0.00000
     32       3.7761      0.00000
     33       4.4602      0.00000
     34       4.8164      0.00000
     35       4.9459      0.00000
     36       5.1760      0.00000
     37       5.2740      0.00000
     38       5.4828      0.00000
     39       5.8663      0.00000
     40       6.1103      0.00000
     41       6.2112      0.00000
     42       6.5075      0.00000
     43       6.6334      0.00000
     44       7.0291      0.00000
     45       7.2164      0.00000
     46       7.2732      0.00000
     47       7.6790      0.00000
     48       8.2469      0.00000

 k-point    73 :      -0.4167   -0.2500    0.0000
  band No.  band energies     occupation 
      1     -18.7757      1.00000
      2     -18.2786      1.00000
      3     -17.7855      1.00000
      4     -16.6114      1.00000
      5     -14.5421      1.00000
      6     -14.1579      1.00000
      7     -13.7267      1.00000
      8     -12.7648      1.00000
      9     -11.0211      1.00000
     10      -9.3862      1.00000
     11      -9.0560      1.00000
     12      -8.6675      1.00000
     13      -8.4806      1.00000
     14      -7.7627      1.00000
     15      -7.5650      1.00000
     16      -7.5062      1.00000
     17      -6.7520      1.00000
     18      -6.6306      1.00000
     19      -6.2251      1.00000
     20      -6.0514      1.00000
     21      -5.7891      1.00000
     22      -5.5151      1.00000
     23      -5.2998      1.00000
     24      -5.1139      1.00000
     25      -3.9139      1.00000
     26      -3.5207      1.00000
     27      -2.9779      1.00000
     28      -1.1237      1.00000
     29       0.2629      0.00000
     30       2.1411      0.00000
     31       3.5516      0.00000
     32       3.7769      0.00000
     33       4.4588      0.00000
     34       4.8163      0.00000
     35       4.9508      0.00000
     36       5.1774      0.00000
     37       5.2797      0.00000
     38       5.4737      0.00000
     39       5.8686      0.00000
     40       6.1055      0.00000
     41       6.2063      0.00000
     42       6.5047      0.00000
     43       6.6374      0.00000
     44       7.0355      0.00000
     45       7.2268      0.00000
     46       7.2606      0.00000
     47       7.6770      0.00000
     48       8.2469      0.00000

 k-point    74 :       0.3333    0.3333    0.0000
  band No.  band energies     occupation 
      1     -18.3248      1.00000
      2     -18.3198      1.00000
      3     -18.3155      1.00000
      4     -16.5833      1.00000
      5     -14.3958      1.00000
      6     -14.3936      1.00000
      7     -13.1377      1.00000
      8     -13.1359      1.00000
      9     -11.3229      1.00000
     10      -8.9156      1.00000
     11      -8.9147      1.00000
     12      -8.2244      1.00000
     13      -8.2194      1.00000
     14      -8.2166      1.00000
     15      -7.9677      1.00000
     16      -6.9497      1.00000
     17      -6.9476      1.00000
     18      -6.9424      1.00000
     19      -6.2371      1.00000
     20      -6.0222      1.00000
     21      -6.0163      1.00000
     22      -5.5437      1.00000
     23      -5.5402      1.00000
     24      -5.0989      1.00000
     25      -3.8166      1.00000
     26      -3.3416      1.00000
     27      -3.3390      1.00000
     28      -0.4268      0.54389
     29      -0.4112      0.45611
     30       2.4107      0.00000
     31       3.6793      0.00000
     32       3.9256      0.00000
     33       3.9447      0.00000
     34       4.8802      0.00000
     35       4.8856      0.00000
     36       5.0910      0.00000
     37       5.7455      0.00000
     38       5.7482      0.00000
     39       6.0706      0.00000
     40       6.2775      0.00000
     41       6.2899      0.00000
     42       6.3015      0.00000
     43       6.5089      0.00000
     44       6.5126      0.00000
     45       6.7801      0.00000
     46       7.4126      0.00000
     47       7.4149      0.00000
     48       8.0153      0.00000


--------------------------------------------------------------------------------------------------------


 soft charge-density along one line, spin component           1
         0         1         2         3         4         5         6         7         8         9
 total charge-density along one line
 
 soft charge-density along one line, spin component           2
         0         1         2         3         4         5         6         7         8         9
 total charge-density along one line
 
 pseudopotential strength for first ion, spin component:           1
  6.778  10.346   0.000  -0.004   0.000   0.000  -0.007   0.000
 10.346  15.789   0.000  -0.007   0.000   0.000  -0.010   0.000
  0.000   0.000  -2.349  -0.000  -0.000  -4.041  -0.000  -0.000
 -0.004  -0.007  -0.000  -2.345  -0.000  -0.000  -4.030  -0.000
  0.000   0.000  -0.000  -0.000  -2.349  -0.000  -0.000  -4.041
  0.000   0.000  -4.041  -0.000  -0.000  -6.752  -0.000  -0.000
 -0.007  -0.010  -0.000  -4.030  -0.000  -0.000  -6.728  -0.000
  0.000   0.000  -0.000  -0.000  -4.041  -0.000  -0.000  -6.752
 pseudopotential strength for first ion, spin component:           2
  6.778  10.346   0.000  -0.004   0.000   0.000  -0.007   0.000
 10.346  15.789   0.000  -0.007   0.000   0.000  -0.010   0.000
  0.000   0.000  -2.349  -0.000  -0.000  -4.041  -0.000  -0.000
 -0.004  -0.007  -0.000  -2.345  -0.000  -0.000  -4.030  -0.000
  0.000   0.000  -0.000  -0.000  -2.349  -0.000  -0.000  -4.041
  0.000   0.000  -4.041  -0.000  -0.000  -6.752  -0.000  -0.000
 -0.007  -0.010  -0.000  -4.030  -0.000  -0.000  -6.728  -0.000
  0.000   0.000  -0.000  -0.000  -4.041  -0.000  -0.000  -6.752
 total augmentation occupancy for first ion, spin component:           1
  3.706  -1.068  -0.002  -0.539  -0.001   0.001   0.221   0.000
 -1.068   0.332   0.000   0.248   0.000  -0.000  -0.085  -0.000
 -0.002   0.000   4.159   0.000   0.001  -1.225  -0.000  -0.000
 -0.539   0.248   0.000   1.818  -0.002  -0.000  -0.410   0.000
 -0.001   0.000   0.001  -0.002   4.161  -0.000   0.000  -1.226
  0.001  -0.000  -1.225  -0.000  -0.000   0.371   0.000   0.000
  0.221  -0.085  -0.000  -0.410   0.000   0.000   0.097  -0.000
  0.000  -0.000  -0.000   0.000  -1.226   0.000  -0.000   0.371
 total augmentation occupancy for first ion, spin component:           2
  0.000  -0.000   0.000  -0.000  -0.000  -0.000   0.000   0.000
 -0.000   0.000  -0.000   0.000   0.000   0.000  -0.000  -0.000
  0.000  -0.000   0.000   0.000   0.000  -0.000   0.000  -0.000
 -0.000   0.000   0.000   0.000   0.000  -0.000  -0.000  -0.000
 -0.000   0.000   0.000   0.000   0.000  -0.000  -0.000  -0.000
 -0.000   0.000  -0.000  -0.000  -0.000   0.000   0.000   0.000
  0.000  -0.000   0.000  -0.000  -0.000   0.000   0.000   0.000
  0.000  -0.000  -0.000  -0.000  -0.000   0.000   0.000   0.000


------------------------ aborting loop because EDIFF is reached ----------------------------------------


    CHARGE:  cpu time      0.3480: real time      0.3610
    FORLOC:  cpu time      0.0014: real time      0.0014
    FORNL :  cpu time      0.7442: real time      0.7474
    STRESS:  cpu time      3.3182: real time      3.3323
    FORCOR:  cpu time      0.0254: real time      0.0255
    FORHAR:  cpu time      0.0036: real time      0.0036
    MIXING:  cpu time      0.0008: real time      0.0008
    OFIELD:  cpu time      0.0000: real time      0.0000

 ---------------------------------------------------------------------------------------------

         DFTD3 V3.0 Rev 1        
 Edisp (eV)   -1.59038

 E6    (eV) :    -1.0982
 E8    (eV) :    -0.4921
 % E8        : 30.94
    FORVDW:  cpu time      0.0399: real time      0.0400

  FORCE on cell =-STRESS in cart. coord.  units (eV):
  Direction    XX          YY          ZZ          XY          YZ          ZX
  --------------------------------------------------------------------------------------
  Alpha Z    58.25897    58.25897    58.25897
  Ewald    6452.16061  6452.50882 -8200.57232    -0.16030     0.03021     0.11706
  Hartree  6377.47820  6377.55674 -6293.48913    -0.03987     0.00408     0.03517
  E(xc)    -201.59308  -201.59130  -208.53124    -0.00045    -0.00006     0.00296
  Local  -13423.23907-13423.61710 13787.06517     0.18648    -0.02675    -0.13896
  n-local   -42.90986   -42.90697   -41.26044    -0.00155    -0.00040     0.00902
  augment    -4.06267    -4.06293    -3.63564     0.00019     0.00005    -0.00009
  Kinetic   782.86710   782.78256   902.87722     0.03407    -0.01011    -0.14013
  Fock        0.00000     0.00000     0.00000     0.00000     0.00000     0.00000
  vdW        -0.37844    -0.37818    -1.11047     0.00001     0.00000     0.00041
  -------------------------------------------------------------------------------------
  Total      -1.41824    -1.44939    -0.39788     0.01857    -0.00297    -0.11457
  in kB      -7.44240    -7.60589    -2.08792     0.09747    -0.01558    -0.60122
  external pressure =       -5.71 kB  Pullay stress =        0.00 kB


 VOLUME and BASIS-vectors are now :
 -----------------------------------------------------------------------------
  energy-cutoff  :      450.00
  volume of cell :      305.31
      direct lattice vectors                 reciprocal lattice vectors
     4.198491158  2.424000000  0.000000000     0.119090402  0.206270627  0.000000000
    -4.198491158  2.424000000  0.000000000    -0.119090402  0.206270627  0.000000000
     0.000000000  0.000000000 15.000000000     0.000000000  0.000000000  0.066666667

  length of vectors
     4.848000000  4.848000000 15.000000000     0.238180804  0.238180804  0.066666667


 FORCES acting on ions
    electron-ion (+dipol)            ewald-force                    non-local-force                 convergence-correction
 -----------------------------------------------------------------------------------------------
   0.310E-01 -.477E-01 0.160E+03   -.351E-01 0.416E-01 -.159E+03   0.184E-02 0.764E-02 -.177E+01   -.160E-04 0.445E-04 0.292E-02
   -.218E+02 -.125E+02 0.240E+03   0.243E+02 0.140E+02 -.241E+03   -.243E+01 -.141E+01 0.423E+00   0.255E-02 0.138E-02 0.971E-03
   0.216E+02 -.125E+02 0.240E+03   -.241E+02 0.140E+02 -.241E+03   0.245E+01 -.142E+01 0.431E+00   -.222E-02 0.145E-02 0.916E-03
   0.608E-01 0.250E+02 0.240E+03   -.441E-01 -.279E+02 -.241E+03   -.329E-02 0.283E+01 0.427E+00   -.178E-03 -.278E-02 0.928E-03
   0.812E-01 -.381E+02 0.308E+03   -.712E-01 0.442E+02 -.310E+03   0.185E-02 -.595E+01 0.186E+01   -.419E-03 0.563E-02 0.134E-02
   0.331E+02 0.192E+02 0.308E+03   -.384E+02 -.222E+02 -.310E+03   0.515E+01 0.297E+01 0.188E+01   -.505E-02 -.317E-02 0.115E-02
   -.330E+02 0.190E+02 0.308E+03   0.383E+02 -.221E+02 -.310E+03   -.516E+01 0.298E+01 0.187E+01   0.485E-02 -.269E-02 0.133E-02
   0.717E+00 -.515E+00 -.226E+03   -.731E+00 0.520E+00 0.226E+03   0.186E-01 -.109E-01 0.390E-01   -.282E-04 -.348E-03 0.861E-04
   0.328E-01 -.112E+01 -.228E+03   -.448E-01 0.116E+01 0.228E+03   0.842E-02 -.557E-01 0.155E-01   -.796E-04 -.440E-03 -.208E-03
   -.984E+00 0.196E+00 -.228E+03   0.101E+01 -.209E+00 0.228E+03   -.373E-01 -.535E-02 -.391E-01   -.140E-03 -.392E-03 -.698E-04
   -.545E+00 0.144E+00 -.225E+03   0.545E+00 -.153E+00 0.225E+03   -.441E-01 -.542E-02 0.579E-01   -.571E-03 -.313E-03 0.200E-03
   -.463E+00 -.107E+00 -.225E+03   0.472E+00 0.101E+00 0.225E+03   -.106E-01 0.831E-02 0.649E-01   0.277E-03 0.836E-04 0.212E-03
   0.732E+00 -.706E-01 -.226E+03   -.736E+00 0.632E-01 0.226E+03   0.309E-02 0.959E-02 0.456E-01   0.242E-03 0.386E-04 0.165E-03
   0.592E+00 0.440E+00 -.226E+03   -.605E+00 -.428E+00 0.226E+03   0.236E-01 0.669E-02 0.593E-01   0.104E-03 0.605E-03 -.612E-04
   -.142E+00 0.103E+01 -.227E+03   0.135E+00 -.105E+01 0.227E+03   0.200E-01 0.529E-01 -.338E-03   0.277E-03 0.746E-03 -.188E-04
 -----------------------------------------------------------------------------------------------
   -.516E-03 -.481E-02 -.538E+01   -.810E-14 -.866E-14 -.853E-13   0.100E-02 0.507E-02 0.537E+01   -.410E-03 -.149E-03 0.986E-02
 
 
 POSITION                                       TOTAL-FORCE (eV/Angst)
 -----------------------------------------------------------------------------------
      0.00620      0.01653      1.79604        -0.002298      0.001560     -0.274170
      1.48411      0.87063      1.46476         0.076690      0.041150      0.079910
     -1.47280      0.87063      1.46524        -0.067204      0.037710      0.095264
      0.00603      3.15746      1.46490         0.013090     -0.079645      0.091350
      0.00622      1.57902      1.50454         0.011397      0.095479     -0.012063
      2.85198      1.66025      1.50450        -0.085426     -0.047169      0.001449
     -2.83958      1.65964      1.50407         0.085690     -0.048231     -0.008097
     -1.39976      1.21211      5.04698         0.005256     -0.006959      0.001381
     -0.00018      1.21252      5.04769        -0.003478     -0.024593      0.018218
     -3.49867      2.42435      5.04689        -0.011414     -0.019600      0.000725
     -2.09854      2.42430      5.04678        -0.045735     -0.015895     -0.005918
      0.69969      2.42392      5.04667        -0.001034      0.002539     -0.006222
      2.09910      2.42392      5.04696        -0.001086      0.002419     -0.001325
     -1.39989      3.63565      5.04752         0.011520      0.020245      0.015518
     -0.00050      3.63519      5.04714         0.014032      0.040990      0.003979
 -----------------------------------------------------------------------------------
    total drift:                                0.000074      0.000108     -0.000618


--------------------------------------------------------------------------------------------------------



  FREE ENERGIE OF THE ION-ELECTRON SYSTEM (eV)
  ---------------------------------------------------
  free  energy   TOTEN  =      -127.09765604 eV

  energy  without entropy=     -127.09609834  energy(sigma->0) =     -127.09687719
 
 d Force = 0.7636881E-02[-0.402E-04, 0.153E-01]  d Energy = 0.7659108E-02-0.222E-04
 d Force = 0.1914991E+01[ 0.188E+01, 0.195E+01]  d Ewald  = 0.1915028E+01-0.371E-04


--------------------------------------------------------------------------------------------------------


    POTLOK:  cpu time      0.0352: real time      0.0354


--------------------------------------------------------------------------------------------------------


 stress matrix after NEB project (eV)
     -1.41824      0.01857     -0.11457
      0.01857     -1.44939     -0.00297
     -0.11457     -0.00297     -0.39788
  FORCES: max atom, RMS     0.274184    0.101428
  FORCE total and by dimension    0.392828    0.274170
  Stress total and by dimension    2.073021    1.449395


--------------------------------------------------------------------------------------------------------


    WAVPRE:  cpu time      0.0044: real time      0.0072
    FEWALD:  cpu time      0.0004: real time      0.0004
    ORTHCH:  cpu time      0.3478: real time      0.3491
     LOOP+:  cpu time     51.8788: real time     52.2494


--------------------------------------- Iteration      4(   1)  ---------------------------------------


    POTLOK:  cpu time      0.0292: real time      0.0296
    SETDIJ:  cpu time      0.0033: real time      0.0033
     EDDAV:  cpu time      5.6246: real time      5.6644
       DOS:  cpu time      0.0010: real time      0.0010
    CHARGE:  cpu time      0.3501: real time      0.3595
    MIXING:  cpu time      0.0007: real time      0.0007
    --------------------------------------------
      LOOP:  cpu time      6.0089: real time      6.0585

 eigenvalue-minimisations  : 14208
 total energy-change (2. order) :-0.5848875E-02  (-0.2878841E-01)
 number of electron      55.9999999 magnetization      -0.0000001
 augmentation part        1.0280377 magnetization       0.0000013

 Broyden mixing:
  rms(total) = 0.11277E-01    rms(broyden)= 0.11268E-01
  rms(prec ) = 0.12317E-01
  weight for this iteration     100.00

 Free energy of the ion-electron system (eV)
  ---------------------------------------------------
  alpha Z        PSCENC =        58.25896848
  Ewald energy   TEWEN  =      4704.43042156
  -Hartree energ DENC   =     -6461.63618364
  -exchange      EXHF   =         0.00000000
  -V(xc)+E(xc)   XCENC  =       180.49183972
  PAW double counting   =      5737.73751807    -5742.14817040
  entropy T*S    EENTRO =        -0.00156307
  eigenvalues    EBANDS =      -505.90938031
  atomic energy  EATOM  =      1903.26342058
  Solvation  Ediel_sol  =         0.00000000
  ---------------------------------------------------
  free energy    TOTEN  =      -125.51312900 eV

  energy without entropy =     -125.51156593  energy(sigma->0) =     -125.51234747


--------------------------------------------------------------------------------------------------------




--------------------------------------- Iteration      4(   2)  ---------------------------------------


    POTLOK:  cpu time      0.0293: real time      0.0327
    SETDIJ:  cpu time      0.0033: real time      0.0033
