 ----------------------------------------------------
    OOO  PPPP  EEEEE N   N M   M PPPP
   O   O P   P E     NN  N MM MM P   P
   O   O PPPP  EEEEE N N N M M M PPPP   -- VERSION
   O   O P     E     N  NN M   M P
    OOO  P     EEEEE N   N M   M P
 ----------------------------------------------------
 running   48 mpi-ranks, with    1 threads/rank
 distrk:  each k-point on   48 cores,    1 groups
 distr:  one band on    1 cores,   48 groups
 vasp.6.3.2 27Jun22 (build Dec 22 2022 13:13:19) complex                        
  
 POSCAR found type information on POSCAR B C 
 POSCAR found :  2 types and      15 ions
 Reading from existing POTCAR
 -----------------------------------------------------------------------------
|                                                                             |
|           W    W    AA    RRRRR   N    N  II  N    N   GGGG   !!!           |
|           W    W   A  A   R    R  NN   N  II  NN   N  G    G  !!!           |
|           W    W  A    A  R    R  N N  N  II  N N  N  G       !!!           |
|           W WW W  AAAAAA  RRRRR   N  N N  II  N  N N  G  GGG   !            |
|           WW  WW  A    A  R   R   N   NN  II  N   NN  G    G                |
|           W    W  A    A  R    R  N    N  II  N    N   GGGG   !!!           |
|                                                                             |
|     You use a magnetic or noncollinear calculation, but did not specify     |
|     the initial magnetic moment with the MAGMOM tag. Note that a            |
|     default of 1 will be used for all atoms. This ferromagnetic setup       |
|     may break the symmetry of the crystal, in particular it may rule        |
|     out finding an antiferromagnetic solution. Thence, we recommend         |
|     setting the initial magnetic moment manually or verifying carefully     |
|     that this magnetic setup is desired.                                    |
|                                                                             |
 -----------------------------------------------------------------------------

 scaLAPACK will be used
 Reading from existing POTCAR
 LDA part: xc-table for Pade appr. of Perdew
 POSCAR found type information on POSCAR B C 
 POSCAR found :  2 types and      15 ions
 POSCAR, INCAR and KPOINTS ok, starting setup
 FFT: planning ... GRIDC
 FFT: planning ... GRID_SOFT
 FFT: planning ... GRID
 WAVECAR not read
 entering main loop
       N       E                     dE             d eps       ncg     rms          rms(c)
DAV:   1     0.202500649405E+03    0.20250E+03   -0.25642E+04 14208   0.859E+02
DAV:   2    -0.116051472730E+03   -0.31855E+03   -0.31699E+03 20016   0.162E+02
DAV:   3    -0.129333873380E+03   -0.13282E+02   -0.13266E+02 26640   0.433E+01
DAV:   4    -0.129362311817E+03   -0.28438E-01   -0.28438E-01 19440   0.191E+00
DAV:   5    -0.129362378765E+03   -0.66948E-04   -0.66948E-04 26016   0.977E-02    0.244E+01
DAV:   6    -0.919954811745E+02    0.37367E+02   -0.72494E+01 26016   0.255E+01    0.139E+01
DAV:   7    -0.100449751029E+03   -0.84543E+01   -0.99197E+00 21696   0.101E+01    0.809E+00
DAV:   8    -0.110407763486E+03   -0.99580E+01   -0.87649E+00 23760   0.895E+00    0.434E+00
DAV:   9    -0.117151721683E+03   -0.67440E+01   -0.39022E+00 19536   0.610E+00    0.278E+00
DAV:  10    -0.123489433004E+03   -0.63377E+01   -0.81374E+00 23856   0.709E+00    0.159E+00
DAV:  11    -0.125278280063E+03   -0.17888E+01   -0.28119E+00 24912   0.383E+00    0.990E-01
DAV:  12    -0.125438335538E+03   -0.16006E+00   -0.22827E-01 19728   0.138E+00    0.463E-01
DAV:  13    -0.125465586666E+03   -0.27251E-01   -0.23059E-02 17808   0.555E-01    0.187E-01
DAV:  14    -0.125487896362E+03   -0.22310E-01   -0.60074E-03 20736   0.284E-01    0.836E-02
DAV:  15    -0.125495363408E+03   -0.74670E-02   -0.31131E-03 19200   0.158E-01    0.437E-02
DAV:  16    -0.125497335728E+03   -0.19723E-02   -0.63302E-04 16944   0.815E-02    0.222E-02
DAV:  17    -0.125498582800E+03   -0.12471E-02   -0.16969E-04 14544   0.519E-02    0.170E-02
DAV:  18    -0.125499310341E+03   -0.72754E-03   -0.84149E-05 16032   0.382E-02    0.122E-02
DAV:  19    -0.125499736113E+03   -0.42577E-03   -0.40505E-05 19488   0.246E-02    0.719E-03
DAV:  20    -0.125499788208E+03   -0.52095E-04   -0.21325E-05 22128   0.178E-02    0.433E-03
DAV:  21    -0.125499809155E+03   -0.20947E-04   -0.57628E-06 20448   0.956E-03    0.216E-03
DAV:  22    -0.125499830859E+03   -0.21704E-04   -0.22205E-06 21696   0.555E-03    0.136E-03
DAV:  23    -0.125499845521E+03   -0.14662E-04   -0.16622E-06 21600   0.397E-03    0.712E-04
DAV:  24    -0.125499848435E+03   -0.29145E-05   -0.31700E-07 23040   0.213E-03    0.374E-04
DAV:  25    -0.125499849379E+03   -0.94328E-06   -0.11548E-07 21984   0.114E-03
   1 F= -.12709051E+03 E0= -.12708973E+03  d E =-.127091E+03  mag=    -0.0000
 curvature:   0.00 expect dE= 0.000E+00 dE for cont linesearch  0.000E+00
 trial: gam= 0.00000 g(F)=  0.292E-01 g(S)=  0.000E+00 ort = 0.000E+00 (trialstep = 0.100E+01)
 search vector abs. value=  0.292E-01
 bond charge predicted
       N       E                     dE             d eps       ncg     rms          rms(c)
DAV:   1    -0.125509424807E+03   -0.95764E-02   -0.32131E+00 14208   0.554E+00    0.487E-01
DAV:   2    -0.125500904019E+03    0.85208E-02   -0.64450E-02 26016   0.720E-01    0.215E-01
DAV:   3    -0.125499946642E+03    0.95738E-03   -0.53689E-03 21456   0.205E-01    0.841E-02
DAV:   4    -0.125499904266E+03    0.42376E-04   -0.61276E-04 26400   0.705E-02    0.223E-02
DAV:   5    -0.125499907393E+03   -0.31267E-05   -0.18289E-05 24624   0.135E-02    0.730E-03
DAV:   6    -0.125499907371E+03    0.21594E-07   -0.39363E-06 22608   0.582E-03
   2 F= -.12709000E+03 E0= -.12708922E+03  d E =0.509811E-03  mag=    -0.0000
 trial-energy change:    0.000510  1 .order    0.000451   -0.029179    0.030080
 step:   0.4909(harm=  0.4924)  dis= 0.00751  next Energy=  -127.097662 (dE=-0.715E-02)
 bond charge predicted
       N       E                     dE             d eps       ncg     rms          rms(c)
DAV:   1    -0.125509792395E+03   -0.98850E-02   -0.83302E-01 14208   0.282E+00    0.248E-01
DAV:   2    -0.125507531308E+03    0.22611E-02   -0.16643E-02 26256   0.365E-01    0.109E-01
DAV:   3    -0.125507290748E+03    0.24056E-03   -0.13614E-03 23616   0.104E-01    0.433E-02
DAV:   4    -0.125507280129E+03    0.10619E-04   -0.15347E-04 22560   0.353E-02    0.111E-02
DAV:   5    -0.125507280874E+03   -0.74520E-06   -0.51307E-06 22704   0.715E-03
   3 F= -.12709766E+03 E0= -.12709688E+03  d E =-.714930E-02  mag=    -0.0000
 curvature:  -0.25 expect dE=-0.183E-02 dE for cont linesearch -0.526E-07
 trial: gam= 0.25243 g(F)=  0.744E-02 g(S)=  0.000E+00 ort = 0.789E-04 (trialstep = 0.898E+00)
 search vector abs. value=  0.934E-02
 bond charge predicted
       N       E                     dE             d eps       ncg     rms          rms(c)
DAV:   1    -0.125513129004E+03   -0.58489E-02   -0.28788E-01 14208   0.191E+00    0.113E-01
DAV:   2    -0.125513176075E+03   -0.47071E-04   -0.19057E-03 27888   0.178E-01    0.655E-02
DAV:   3    -0.125513172619E+03    0.34559E-05   -0.18773E-04 22752   0.493E-02    0.171E-02
DAV:   4    -0.125513173520E+03   -0.90097E-06   -0.29789E-05 26592   0.199E-02    0.649E-03
DAV:   5    -0.125513173965E+03   -0.44537E-06   -0.11408E-06 22128   0.449E-03
   4 F= -.12710344E+03 E0= -.12710266E+03  d E =-.578422E-02  mag=    -0.0000
 trial-energy change:   -0.005784  1 .order   -0.005787   -0.006704   -0.004870
 step:   3.2829(harm=  3.2829)  dis= 0.01990  next Energy=  -127.109909 (dE=-0.123E-01)
 bond charge predicted
       N       E                     dE             d eps       ncg     rms          rms(c)
DAV:   1    -0.125519867775E+03   -0.66943E-02   -0.20399E+00 14208   0.506E+00    0.298E-01
DAV:   2    -0.125520289380E+03   -0.42161E-03   -0.13645E-02 26880   0.476E-01    0.173E-01
DAV:   3    -0.125520258044E+03    0.31337E-04   -0.13491E-03 21504   0.132E-01    0.450E-02
DAV:   4    -0.125520264808E+03   -0.67648E-05   -0.21139E-04 26976   0.530E-02    0.173E-02
DAV:   5    -0.125520268004E+03   -0.31957E-05   -0.77550E-06 23040   0.116E-02    0.748E-03
DAV:   6    -0.125520268168E+03   -0.16441E-06   -0.41093E-06 24192   0.720E-03
   5 F= -.12711022E+03 E0= -.12710944E+03  d E =-.125651E-01  mag=     0.0000
 curvature:  -2.05 expect dE=-0.760E-01 dE for cont linesearch -0.267E-04
 trial: gam= 4.97556 g(F)=  0.370E-01 g(S)=  0.000E+00 ort = 0.349E-03 (trialstep = 0.473E-01)
 search vector abs. value=  0.272E+00
 bond charge predicted
       N       E                     dE             d eps       ncg     rms          rms(c)
DAV:   1    -0.125522027171E+03   -0.17592E-02   -0.25805E-02 14304   0.598E-01    0.349E-02
DAV:   2    -0.125522030867E+03   -0.36958E-05   -0.21246E-04 26976   0.622E-02    0.198E-02
DAV:   3    -0.125522029432E+03    0.14350E-05   -0.21514E-05 21936   0.175E-02    0.586E-03
DAV:   4    -0.125522029875E+03   -0.44339E-06   -0.36157E-06 25536   0.705E-03
   6 F= -.12711196E+03 E0= -.12711117E+03  d E =-.173488E-02  mag=     0.0000
 ZBRENT: can't locate minimum, use default step
 trial-energy change:   -0.001735  1 .order   -0.001734   -0.001830   -0.001638
 step:   0.1891(harm=  0.4503)  dis= 0.00532  next Energy=  -127.118938 (dE=-0.872E-02)
 bond charge predicted
       N       E                     dE             d eps       ncg     rms          rms(c)
DAV:   1    -0.125526161934E+03   -0.41325E-02   -0.23250E-01 14208   0.179E+00    0.105E-01
DAV:   2    -0.125526190731E+03   -0.28798E-04   -0.18500E-03 26352   0.184E-01    0.591E-02
DAV:   3    -0.125526177254E+03    0.13477E-04   -0.18693E-04 19872   0.516E-02    0.173E-02
DAV:   4    -0.125526178072E+03   -0.81803E-06   -0.31285E-05 26640   0.204E-02    0.710E-03
DAV:   5    -0.125526178817E+03   -0.74528E-06   -0.10646E-06 21120   0.434E-03
   7 F= -.12711602E+03 E0= -.12711524E+03  d E =-.579622E-02  mag=     0.0000
 curvature:  -0.92 expect dE=-0.113E-01 dE for cont linesearch -0.172E-02
 ZBRENT: increasing intervall
 opt :   0.4728  next Energy=  -127.119017 (dE=-0.880E-02)
 bond charge predicted
       N       E                     dE             d eps       ncg     rms          rms(c)
DAV:   1    -0.125529392108E+03   -0.32140E-02   -0.93358E-01 14208   0.359E+00    0.209E-01
DAV:   2    -0.125529507098E+03   -0.11499E-03   -0.75072E-03 26496   0.370E-01    0.118E-01
DAV:   3    -0.125529450632E+03    0.56466E-04   -0.75322E-04 21840   0.104E-01    0.346E-02
DAV:   4    -0.125529453556E+03   -0.29247E-05   -0.12201E-04 26160   0.403E-02    0.141E-02
DAV:   5    -0.125529455826E+03   -0.22695E-05   -0.40319E-06 22512   0.852E-03    0.579E-03
DAV:   6    -0.125529455480E+03    0.34587E-06   -0.20635E-06 25008   0.550E-03
   8 F= -.12711909E+03 E0= -.12711832E+03  d E =-.886588E-02  mag=     0.0000
 curvature:  -1.59 expect dE=-0.215E-01 dE for cont linesearch -0.490E-05
 trial: gam= 0.53822 g(F)=  0.135E-01 g(S)=  0.000E+00 ort =-0.914E-03 (trialstep = 0.132E+00)
 search vector abs. value=  0.912E-01
 bond charge predicted
       N       E                     dE             d eps       ncg     rms          rms(c)
DAV:   1    -0.125531153832E+03   -0.16980E-02   -0.65814E-02 14208   0.856E-01    0.490E-02
DAV:   2    -0.125531167262E+03   -0.13430E-04   -0.36733E-04 23808   0.710E-02    0.293E-02
DAV:   3    -0.125531164998E+03    0.22636E-05   -0.43869E-05 21360   0.211E-02    0.481E-03
DAV:   4    -0.125531165151E+03   -0.15289E-06   -0.30203E-06 25488   0.683E-03
   9 F= -.12712070E+03 E0= -.12711992E+03  d E =-.161045E-02  mag=     0.0000
 ZBRENT: can't locate minimum, use default step
 trial-energy change:   -0.001610  1 .order   -0.001612   -0.001723   -0.001502
 step:   0.5295(harm=  1.0350)  dis= 0.00548  next Energy=  -127.125821 (dE=-0.673E-02)
 bond charge predicted
       N       E                     dE             d eps       ncg     rms          rms(c)
DAV:   1    -0.125534914889E+03   -0.37499E-02   -0.59298E-01 14208   0.257E+00    0.146E-01
DAV:   2    -0.125535049349E+03   -0.13446E-03   -0.32215E-03 25968   0.211E-01    0.874E-02
DAV:   3    -0.125535027557E+03    0.21792E-04   -0.38668E-04 20736   0.621E-02    0.137E-02
DAV:   4    -0.125535028241E+03   -0.68345E-06   -0.24602E-05 24336   0.196E-02    0.709E-03
DAV:   5    -0.125535026862E+03    0.13790E-05   -0.32416E-06 22080   0.695E-03    0.252E-03
DAV:   6    -0.125535026431E+03    0.43042E-06   -0.10660E-06 24240   0.379E-03
  10 F= -.12712426E+03 E0= -.12712348E+03  d E =-.517679E-02  mag=    -0.0000
 curvature:  -2.49 expect dE=-0.216E-01 dE for cont linesearch -0.124E-02
 ZBRENT: increasing intervall
 opt :   1.3238  next Energy=  -127.125947 (dE=-0.686E-02)
 bond charge predicted
       N       E                     dE             d eps       ncg     rms          rms(c)
DAV:   1    -0.125537187087E+03   -0.21602E-02   -0.23732E+00 14208   0.512E+00    0.288E-01
DAV:   2    -0.125537748727E+03   -0.56164E-03   -0.12366E-02 26880   0.416E-01    0.173E-01
DAV:   3    -0.125537663870E+03    0.84857E-04   -0.15683E-03 21600   0.124E-01    0.250E-02
DAV:   4    -0.125537664316E+03   -0.44622E-06   -0.91559E-05 23952   0.382E-02    0.140E-02
DAV:   5    -0.125537659933E+03    0.43827E-05   -0.12247E-05 23760   0.135E-02    0.443E-03
DAV:   6    -0.125537658940E+03    0.99368E-06   -0.37658E-06 25104   0.707E-03
  11 F= -.12712632E+03 E0= -.12712557E+03  d E =-.723236E-02  mag=     0.0000
 curvature:  -3.39 expect dE=-0.101E+00 dE for cont linesearch -0.586E-04
 trial: gam= 2.28811 g(F)=  0.298E-01 g(S)=  0.000E+00 ort =-0.126E-02 (trialstep = 0.674E-01)
 search vector abs. value=  0.502E+00
 bond charge predicted
       N       E                     dE             d eps       ncg     rms          rms(c)
DAV:   1    -0.125539362667E+03   -0.17027E-02   -0.98391E-02 14208   0.111E+00    0.593E-02
DAV:   2    -0.125539386776E+03   -0.24109E-04   -0.61606E-04 26112   0.992E-02    0.358E-02
DAV:   3    -0.125539381653E+03    0.51230E-05   -0.74935E-05 18048   0.301E-02    0.698E-03
DAV:   4    -0.125539382681E+03   -0.10281E-05   -0.76148E-06 22752   0.112E-02    0.363E-03
DAV:   5    -0.125539383730E+03   -0.10492E-05   -0.62491E-07 20640   0.359E-03    0.199E-03
DAV:   6    -0.125539384939E+03   -0.12086E-05   -0.30596E-07 20448   0.226E-03    0.897E-04
DAV:   7    -0.125539386388E+03   -0.14490E-05   -0.21918E-07 19872   0.162E-03    0.456E-04
DAV:   8    -0.125539388745E+03   -0.23570E-05   -0.39938E-07 18336   0.177E-03    0.313E-04
DAV:   9    -0.125539389701E+03   -0.95620E-06   -0.75869E-08 23568   0.879E-04
  12 F= -.12712794E+03 E0= -.12712717E+03  d E =-.161829E-02  mag=     0.0000
 trial-energy change:   -0.001618  1 .order   -0.001610   -0.001813   -0.001406
 step:   0.2311(harm=  0.3004)  dis= 0.00513  next Energy=  -127.129765 (dE=-0.345E-02)
 bond charge predicted
       N       E                     dE             d eps       ncg     rms          rms(c)
DAV:   1    -0.125541815474E+03   -0.24267E-02   -0.58001E-01 14208   0.270E+00    0.144E-01
DAV:   2    -0.125541948934E+03   -0.13346E-03   -0.34405E-03 25920   0.236E-01    0.868E-02
DAV:   3    -0.125541919329E+03    0.29606E-04   -0.43316E-04 19968   0.721E-02    0.159E-02
DAV:   4    -0.125541919430E+03   -0.10120E-06   -0.42553E-05 22032   0.256E-02    0.815E-03
DAV:   5    -0.125541919286E+03    0.14389E-06   -0.22939E-06 23952   0.640E-03
  13 F= -.12713019E+03 E0= -.12712941E+03  d E =-.387321E-02  mag=    -0.0000
 curvature:  -2.55 expect dE=-0.820E-02 dE for cont linesearch -0.238E-03
 ZBRENT: extrapolating
 opt :   0.3109  next Energy=  -127.130466 (dE=-0.415E-02)
 bond charge predicted
       N       E                     dE             d eps       ncg     rms          rms(c)
DAV:   1    -0.125542301241E+03   -0.38181E-03   -0.13840E-01 14208   0.132E+00    0.700E-02
DAV:   2    -0.125542335905E+03   -0.34664E-04   -0.84450E-04 26400   0.117E-01    0.424E-02
DAV:   3    -0.125542329011E+03    0.68937E-05   -0.10700E-04 24960   0.357E-02    0.785E-03
DAV:   4    -0.125542328963E+03    0.47835E-07   -0.97639E-06 22896   0.125E-02
  14 F= -.12713047E+03 E0= -.12712969E+03  d E =-.414822E-02  mag=    -0.0000
 curvature:  -2.93 expect dE=-0.603E-02 dE for cont linesearch -0.145E-06
 trial: gam= 0.05642 g(F)=  0.206E-02 g(S)=  0.000E+00 ort = 0.157E-03 (trialstep = 0.116E+00)
 search vector abs. value=  0.368E-02
 bond charge predicted
       N       E                     dE             d eps       ncg     rms          rms(c)
DAV:   1    -0.125542552369E+03   -0.22336E-03   -0.38813E-03 16752   0.262E-01    0.155E-02
DAV:   2    -0.125542549907E+03    0.24625E-05   -0.54229E-05 26448   0.308E-02    0.812E-03
DAV:   3    -0.125542549634E+03    0.27290E-06   -0.57290E-06 21840   0.940E-03
  15 F= -.12713067E+03 E0= -.12712989E+03  d E =-.202171E-03  mag=     0.0000
 trial-energy change:   -0.000202  1 .order   -0.000201   -0.000240   -0.000162
 step:   0.3566(harm=  0.3566)  dis= 0.00129  next Energy=  -127.130837 (dE=-0.369E-03)
 bond charge predicted
