Lattice                                 
           1
     4.198491    2.424000    0.000000
    -4.198491    2.424000    0.000000
     0.000000    0.000000   15.000000
   B    C 
     4    11
Direct configuration=     1
   0.00415361  0.00267210  0.12034134
   0.35695335  0.00285503  0.09748893
   0.00423858  0.35550699  0.09749256
   0.65142295  0.65006557  0.09747688
   0.32808646  0.32671938  0.10030508
   0.68027775  0.00278085  0.10027562
   0.00416530  0.67883808  0.10026559
   0.08333267  0.41666633  0.33646667
   0.24999967  0.24999933  0.33646667
   0.08333267  0.91666633  0.33646667
   0.24999967  0.74999933  0.33646667
   0.58333267  0.41666633  0.33646667
   0.74999967  0.24999933  0.33646667
   0.58333267  0.91666633  0.33646667
   0.74999967  0.74999933  0.33646667
Direct configuration=     2
   0.00414245  0.00267016  0.11910813
   0.35568002  0.00283026  0.09781850
   0.00413911  0.35443879  0.09787977
   0.65261522  0.65109804  0.09785055
   0.32474388  0.32314347  0.10030082
   0.68399836  0.00285636  0.10032591
   0.00417216  0.68222587  0.10027745
   0.08331726  0.41677879  0.33646330
   0.25017589  0.25026212  0.33656047
   0.08349740  0.91679623  0.33645188
   0.25029846  0.74995704  0.33643656
   0.58328540  0.41664569  0.33642173
   0.74993344  0.25000322  0.33646155
   0.58309067  0.91661563  0.33653697
   0.74953763  0.74977900  0.33648577
Direct configuration=     3
   0.00414813  0.00267115  0.11973596
   0.35632827  0.00284287  0.09765072
   0.00418975  0.35498261  0.09768264
   0.65200824  0.65057241  0.09766031
   0.32644559  0.32496397  0.10030299
   0.68210419  0.00281792  0.10030031
   0.00416867  0.68050114  0.10027141
   0.08332510  0.41672154  0.33646501
   0.25008618  0.25012833  0.33651271
   0.08341353  0.91673010  0.33645941
   0.25014634  0.74997857  0.33645189
   0.58330946  0.41665620  0.33644461
   0.74996716  0.25000124  0.33646415
   0.58321387  0.91664144  0.33650118
   0.74977285  0.74989117  0.33647604
Direct configuration=     4
   0.00414768  0.00269651  0.11866436
   0.35680310  0.00280930  0.09795627
   0.00415745  0.35542426  0.09804562
   0.65163425  0.65002710  0.09800892
   0.32659992  0.32494778  0.10026717
   0.68208535  0.00285426  0.10031589
   0.00418133  0.68039599  0.10025071
   0.08328653  0.41665772  0.33646824
   0.24988838  0.24998606  0.33658661
   0.08321680  0.91664326  0.33645815
   0.24983602  0.75006292  0.33642797
   0.58331610  0.41667955  0.33641645
   0.74996816  0.25002935  0.33645916
   0.58339939  0.91675145  0.33656195
   0.75010686  0.75013517  0.33649187
Direct configuration=     5
   0.00414649  0.00276384  0.11581917
   0.35806382  0.00272018  0.09876755
   0.00407172  0.35659688  0.09900937
   0.65064129  0.64857924  0.09893449
   0.32700969  0.32490480  0.10017209
   0.68203530  0.00295077  0.10035728
   0.00421495  0.68011678  0.10019575
   0.08318413  0.41648826  0.33647681
   0.24936321  0.24960829  0.33678280
   0.08269446  0.91641270  0.33645481
   0.24901207  0.75028688  0.33636445
   0.58333372  0.41674154  0.33634168
   0.74997084  0.25010398  0.33644592
   0.58389196  0.91704351  0.33672329
   0.75099369  0.75078301  0.33653388
Direct configuration=     6
   0.00415011  0.00276801  0.11550690
   0.35817851  0.00270993  0.09884287
   0.00407423  0.35669346  0.09909796
   0.65055601  0.64845500  0.09901972
   0.32708561  0.32494835  0.10017815
   0.68198102  0.00294778  0.10037593
   0.00422178  0.68005160  0.10020568
   0.08318312  0.41654084  0.33647891
   0.24942694  0.24966935  0.33679619
   0.08276244  0.91648598  0.33645755
   0.24912961  0.75027052  0.33636170
   0.58330642  0.41675938  0.33633941
   0.74995760  0.25010852  0.33644571
   0.58378307  0.91700645  0.33673508
   0.75083088  0.75068551  0.33653756
Direct configuration=     7
   0.00416094  0.00278051  0.11457011
   0.35852256  0.00267916  0.09906882
   0.00408175  0.35698322  0.09936375
   0.65030018  0.64808228  0.09927538
   0.32731337  0.32507901  0.10019635
   0.68181819  0.00293883  0.10043187
   0.00424228  0.67985606  0.10023546
   0.08318011  0.41669857  0.33648523
   0.24961815  0.24985253  0.33683637
   0.08296637  0.91670581  0.33646576
   0.24948223  0.75022142  0.33635343
   0.58322450  0.41681290  0.33633262
   0.74991788  0.25012211  0.33644510
   0.58345639  0.91689526  0.33677048
   0.75034244  0.75039301  0.33654860
Direct configuration=     8
   0.00418262  0.00280551  0.11269652
   0.35921066  0.00261764  0.09952073
   0.00409681  0.35756274  0.09989533
   0.64978851  0.64733684  0.09978672
   0.32776888  0.32534031  0.10023273
   0.68149252  0.00292092  0.10054376
   0.00428327  0.67946498  0.10029502
   0.08317408  0.41701402  0.33649788
   0.25000057  0.25021890  0.33691672
   0.08337423  0.91714548  0.33648218
   0.25018746  0.75012322  0.33633689
   0.58306066  0.41691993  0.33631904
   0.74983845  0.25014930  0.33644389
   0.58280305  0.91667287  0.33684126
   0.74936557  0.74980800  0.33657067
Direct configuration=     9
   0.00420265  0.00279276  0.11215287
   0.35922862  0.00259883  0.09960394
   0.00413693  0.35754506  0.09998672
   0.64980364  0.64732873  0.09987583
   0.32783906  0.32541092  0.10030418
   0.68141947  0.00287200  0.10062635
   0.00430708  0.67939551  0.10037011
   0.08316809  0.41699198  0.33650505
   0.24999770  0.25033136  0.33691037
   0.08335393  0.91707881  0.33649633
   0.25016257  0.75015006  0.33634883
   0.58306351  0.41686490  0.33633612
   0.74978635  0.25016847  0.33644929
   0.58282696  0.91670228  0.33683875
   0.74933077  0.74986898  0.33657460
Direct configuration=    10
   0.00426276  0.00275452  0.11052193
   0.35928251  0.00254239  0.09985357
   0.00425731  0.35749204  0.10026089
   0.64984905  0.64730441  0.10014317
   0.32804958  0.32562277  0.10051851
   0.68120032  0.00272527  0.10087409
   0.00437853  0.67918709  0.10059536
   0.08315010  0.41692587  0.33652658
   0.24998908  0.25066875  0.33689132
   0.08329303  0.91687880  0.33653881
   0.25008790  0.75023057  0.33638466
   0.58307207  0.41669980  0.33638733
   0.74963004  0.25022595  0.33646550
   0.58289867  0.91679052  0.33683122
   0.74922639  0.75005193  0.33658641
Direct configuration=    11
   0.00438297  0.00267802  0.10726005
   0.35939028  0.00242951  0.10035282
   0.00449807  0.35738598  0.10080922
   0.64993986  0.64725578  0.10067785
   0.32847063  0.32604647  0.10094716
   0.68076202  0.00243181  0.10136959
   0.00452143  0.67877027  0.10104588
   0.08311412  0.41679363  0.33656962
   0.24997183  0.25134352  0.33685323
   0.08317124  0.91647878  0.33662375
   0.24993856  0.75039159  0.33645630
   0.58308919  0.41636960  0.33648977
   0.74931743  0.25034093  0.33649792
   0.58304208  0.91696698  0.33681616
   0.74901761  0.75041781  0.33661001
Direct configuration=    12
   0.00441142  0.00265113  0.10661477
   0.35939101  0.00240823  0.10045002
   0.00454631  0.35735971  0.10090752
   0.64996386  0.64726980  0.10077588
   0.32850875  0.32608755  0.10104053
   0.68073267  0.00237601  0.10146935
   0.00455170  0.67871572  0.10114194
   0.08305367  0.41684684  0.33657742
   0.24989118  0.25114832  0.33684012
   0.08309868  0.91658599  0.33664068
   0.24985893  0.75037495  0.33647733
   0.58305920  0.41650493  0.33651350
   0.74937163  0.25032477  0.33650847
   0.58303795  0.91702906  0.33680571
   0.74915037  0.75041767  0.33661609
Direct configuration=    13
   0.00448047  0.00258584  0.10504822
   0.35939276  0.00235658  0.10068598
   0.00466342  0.35729593  0.10114617
   0.65002212  0.64730383  0.10101388
   0.32860127  0.32618729  0.10126721
   0.68066144  0.00224055  0.10171154
   0.00462517  0.67858330  0.10137515
   0.08290691  0.41697603  0.33659634
   0.24969539  0.25067443  0.33680829
   0.08292255  0.91684628  0.33668179
   0.24966563  0.75033455  0.33652836
   0.58298640  0.41683348  0.33657110
   0.74950322  0.25028552  0.33653407
   0.58302792  0.91717975  0.33678035
   0.74947266  0.75041733  0.33663087
Direct configuration=    14
   0.00451417  0.00255398  0.10428392
   0.35939362  0.00233137  0.10080110
   0.00472055  0.35726481  0.10126260
   0.65005054  0.64732044  0.10113000
   0.32864642  0.32623595  0.10137780
   0.68062669  0.00217446  0.10182971
   0.00466102  0.67851869  0.10148893
   0.08283531  0.41703906  0.33660557
   0.24959986  0.25044322  0.33679277
   0.08283662  0.91697327  0.33670185
   0.24957131  0.75031483  0.33655326
   0.58295088  0.41699377  0.33659920
   0.74956742  0.25026637  0.33654657
   0.58302303  0.91725327  0.33676798
   0.74962990  0.75041716  0.33663808
Direct configuration=    15
   0.00452136  0.00253463  0.10421789
   0.35941165  0.00233158  0.10082921
   0.00471261  0.35729038  0.10127600
   0.65002108  0.64730929  0.10114769
   0.32857865  0.32615110  0.10138106
   0.68073102  0.00219349  0.10182082
   0.00466220  0.67856556  0.10148981
   0.08287062  0.41704460  0.33660456
   0.24958524  0.25039638  0.33679076
   0.08289116  0.91704077  0.33669971
   0.24960109  0.75035947  0.33656316
   0.58292808  0.41702704  0.33660112
   0.74957595  0.25032497  0.33655421
   0.58295003  0.91714243  0.33676060
   0.74958658  0.75038898  0.33664273
Direct configuration=    16
   0.00453627  0.00249455  0.10408111
   0.35944898  0.00233199  0.10088742
   0.00469615  0.35734334  0.10130376
   0.64996007  0.64728619  0.10118433
   0.32843829  0.32597534  0.10138780
   0.68094714  0.00223292  0.10180241
   0.00466464  0.67866264  0.10149165
   0.08294377  0.41705607  0.33660247
   0.24955495  0.25029936  0.33678662
   0.08300413  0.91718061  0.33669528
   0.24966277  0.75045193  0.33658365
   0.58288086  0.41709594  0.33660510
   0.74959364  0.25044636  0.33657004
   0.58279882  0.91691283  0.33674531
   0.74949687  0.75033062  0.33665237
Direct configuration=    17
   0.00454523  0.00246862  0.10404259
   0.35950417  0.00233344  0.10092414
   0.00468079  0.35738046  0.10131493
   0.64989916  0.64724988  0.10120283
   0.32838877  0.32590021  0.10138318
   0.68104042  0.00226659  0.10177506
   0.00466317  0.67869973  0.10148247
   0.08294515  0.41706071  0.33660193
   0.24956862  0.25034858  0.33678417
   0.08298027  0.91714603  0.33669144
   0.24964657  0.75044249  0.33659516
   0.58287379  0.41707508  0.33660682
   0.74957008  0.25042594  0.33657961
   0.58282026  0.91695381  0.33673745
   0.74950088  0.75034910  0.33665756
Direct configuration=    18
   0.00456748  0.00240430  0.10394698
   0.35964113  0.00233702  0.10101525
   0.00464269  0.35747258  0.10134265
   0.64974802  0.64715978  0.10124873
   0.32826590  0.32571380  0.10137170
   0.68127187  0.00235015  0.10170720
   0.00465952  0.67879177  0.10145968
   0.08294856  0.41707224  0.33660059
   0.24960254  0.25047071  0.33677811
   0.08292106  0.91706020  0.33668189
   0.24960638  0.75041908  0.33662374
   0.58285624  0.41702330  0.33661110
   0.74951164  0.25037528  0.33660336
   0.58287347  0.91705549  0.33671794
   0.74951085  0.75039496  0.33667041
Direct configuration=    19
   0.00458098  0.00237818  0.10391062
   0.35972213  0.00233868  0.10105798
   0.00463213  0.35748355  0.10134973
   0.64968593  0.64711366  0.10126590
   0.32830889  0.32573414  0.10136869
   0.68125515  0.00237833  0.10166965
   0.00465747  0.67876004  0.10144989
   0.08289133  0.41707519  0.33660497
   0.24957382  0.25042837  0.33677360
   0.08290958  0.91709370  0.33668119
   0.24960565  0.75040997  0.33663185
   0.58287831  0.41705223  0.33661623
   0.74953854  0.25037835  0.33661068
   0.58287363  0.91708770  0.33671618
   0.74951380  0.75038857  0.33667216
Direct configuration=    20
   0.00459209  0.00235667  0.10388068
   0.35978882  0.00234005  0.10109316
   0.00462345  0.35749259  0.10135557
   0.64963480  0.64707568  0.10128004
   0.32834428  0.32575089  0.10136622
   0.68124139  0.00240153  0.10163874
   0.00465579  0.67873392  0.10144183
   0.08284421  0.41707763  0.33660857
   0.24955018  0.25039350  0.33676988
   0.08290013  0.91712128  0.33668061
   0.24960504  0.75040247  0.33663853
   0.58289647  0.41707604  0.33662046
   0.74956069  0.25038088  0.33661670
   0.58287376  0.91711423  0.33671472
   0.74951623  0.75038330  0.33667360
Direct configuration=    21
   0.00460735  0.00233724  0.10384499
   0.35981605  0.00234240  0.10112668
   0.00462416  0.35745883  0.10135481
   0.64963380  0.64707464  0.10128890
   0.32839864  0.32579377  0.10137105
   0.68120059  0.00240648  0.10160685
   0.00465610  0.67868587  0.10143962
   0.08287041  0.41707582  0.33661648
   0.24954313  0.25040960  0.33676607
   0.08291335  0.91712639  0.33668344
   0.24960034  0.75043790  0.33664101
   0.58287706  0.41707382  0.33662718
   0.74954300  0.25041437  0.33662007
   0.58284813  0.91706689  0.33672017
   0.74949523  0.75039667  0.33667203
Direct configuration=    22
   0.00461616  0.00232601  0.10382436
   0.35983178  0.00234376  0.10114605
   0.00462457  0.35743932  0.10135437
   0.64963321  0.64707403  0.10129401
   0.32843005  0.32581854  0.10137384
   0.68117701  0.00240934  0.10158842
   0.00465629  0.67865811  0.10143834
   0.08288555  0.41707477  0.33662105
   0.24953905  0.25041890  0.33676387
   0.08292099  0.91712934  0.33668507
   0.24959763  0.75045837  0.33664243
   0.58286584  0.41707253  0.33663106
   0.74953278  0.25043371  0.33662201
   0.58283333  0.91703953  0.33672332
   0.74948310  0.75040439  0.33667112
Direct configuration=    23
   0.00463237  0.00231050  0.10378322
   0.35980315  0.00234537  0.10116972
   0.00463375  0.35738527  0.10134739
   0.64968438  0.64711224  0.10129551
   0.32844216  0.32582417  0.10138670
   0.68118069  0.00239511  0.10156346
   0.00466107  0.67863306  0.10144406
   0.08289372  0.41709870  0.33662952
   0.24954804  0.25044160  0.33676366
   0.08290201  0.91712994  0.33668893
   0.24958441  0.75045288  0.33664323
   0.58284042  0.41707961  0.33663699
   0.74951136  0.25042009  0.33662488
   0.58282731  0.91706448  0.33673227
   0.74948250  0.75040765  0.33666980
Direct configuration=    24
   0.00466006  0.00228399  0.10371293
   0.35975422  0.00234812  0.10121018
   0.00464943  0.35729292  0.10133547
   0.64977180  0.64717753  0.10129806
   0.32846286  0.32583378  0.10140866
   0.68118697  0.00237079  0.10152081
   0.00466925  0.67859025  0.10145382
   0.08290769  0.41713957  0.33664399
   0.24956339  0.25048039  0.33676331
   0.08286957  0.91713095  0.33669552
   0.24956183  0.75044352  0.33664459
   0.58279700  0.41709170  0.33664711
   0.74947476  0.25039682  0.33662978
   0.58281705  0.91710711  0.33674755
   0.74948146  0.75041322  0.33666754
Direct configuration=    25
   0.00467448  0.00227236  0.10366799
   0.35973990  0.00234423  0.10122595
   0.00466173  0.35726320  0.10132770
   0.64980852  0.64719362  0.10129671
   0.32846191  0.32582180  0.10142375
   0.68120608  0.00235117  0.10150259
   0.00467931  0.67857904  0.10146274
   0.08286269  0.41712878  0.33664969
   0.24953019  0.25046860  0.33676756
   0.08286583  0.91714867  0.33669789
   0.24955610  0.75045989  0.33664748
   0.58281552  0.41710284  0.33665034
   0.74948636  0.25042514  0.33663476
   0.58281240  0.91711436  0.33675469
   0.74946631  0.75042697  0.33666950
Direct configuration=    26
   0.00469289  0.00225749  0.10361059
   0.35972161  0.00233925  0.10124610
   0.00467744  0.35722525  0.10131777
   0.64985544  0.64721418  0.10129498
   0.32846071  0.32580649  0.10144302
   0.68123049  0.00232611  0.10147931
   0.00469216  0.67856472  0.10147413
   0.08280522  0.41711499  0.33665697
   0.24948780  0.25045355  0.33677298
   0.08286104  0.91717130  0.33670092
   0.24954878  0.75048080  0.33665116
   0.58283918  0.41711707  0.33665446
   0.74950118  0.25046132  0.33664113
   0.58280647  0.91712362  0.33676380
   0.74944695  0.75044453  0.33667200
Direct configuration=    27
   0.00470541  0.00224947  0.10355776
   0.35975378  0.00232510  0.10125378
   0.00469308  0.35723474  0.10131192
   0.64985219  0.64717931  0.10129268
   0.32847002  0.32579298  0.10145824
   0.68124258  0.00230511  0.10146757
   0.00470926  0.67855771  0.10148458
   0.08280147  0.41712664  0.33665981
   0.24947759  0.25046734  0.33678224
   0.08285248  0.91718169  0.33670224
   0.24953876  0.75049676  0.33665739
   0.58282334  0.41712725  0.33665543
   0.74948560  0.25047541  0.33664895
   0.58279005  0.91712460  0.33676831
   0.74943174  0.75045657  0.33667844
Direct configuration=    28
   0.00474297  0.00222540  0.10339927
   0.35985027  0.00228263  0.10127680
   0.00473999  0.35726320  0.10129438
   0.64984246  0.64707468  0.10128576
   0.32849793  0.32575243  0.10150389
   0.68127883  0.00224211  0.10143232
   0.00476059  0.67853665  0.10151594
   0.08279024  0.41716160  0.33666833
   0.24944698  0.25050870  0.33681002
   0.08282680  0.91721287  0.33670620
   0.24950871  0.75054464  0.33667609
   0.58277581  0.41715781  0.33665833
   0.74943884  0.25051770  0.33667243
   0.58274078  0.91712756  0.33678182
   0.74938611  0.75049268  0.33669777
Direct configuration=    29
   0.00481810  0.00217726  0.10308229
   0.36004327  0.00219768  0.10132286
   0.00483382  0.35732013  0.10125929
   0.64982300  0.64686543  0.10127192
   0.32855376  0.32567135  0.10159518
   0.68135134  0.00211612  0.10136183
   0.00486323  0.67849454  0.10157865
   0.08276777  0.41723151  0.33668536
   0.24938575  0.25059143  0.33686556
   0.08277544  0.91727522  0.33671412
   0.24944861  0.75064040  0.33671349
   0.58268077  0.41721892  0.33666413
   0.74934534  0.25060228  0.33671937
   0.58264225  0.91713348  0.33680885
   0.74929486  0.75056491  0.33673643
Direct configuration=    30
   0.00476966  0.00220830  0.10328669
   0.35991882  0.00225246  0.10129316
   0.00477332  0.35728342  0.10128192
   0.64983555  0.64700036  0.10128085
   0.32851776  0.32572364  0.10153631
   0.68130458  0.00219737  0.10140728
   0.00479704  0.67852169  0.10153821
   0.08278226  0.41718643  0.33667437
   0.24942524  0.25053809  0.33682974
   0.08280856  0.91723501  0.33670902
   0.24948736  0.75057865  0.33668937
   0.58274206  0.41717951  0.33666039
   0.74940564  0.25054774  0.33668910
   0.58270579  0.91712966  0.33679142
   0.74935371  0.75051834  0.33671150
Direct configuration=    31
   0.00478441  0.00219684  0.10322250
   0.35995233  0.00222959  0.10129911
   0.00479162  0.35728500  0.10128421
   0.64983745  0.64696240  0.10128382
   0.32853636  0.32570261  0.10154459
   0.68132043  0.00218036  0.10139627
   0.00481803  0.67851453  0.10154332
   0.08276001  0.41721448  0.33668052
   0.24941803  0.25055032  0.33683743
   0.08277616  0.91724990  0.33671526
   0.24946261  0.75056872  0.33669535
   0.58272073  0.41720085  0.33666616
   0.74939090  0.25053731  0.33669533
   0.58270203  0.91718359  0.33679781
   0.74935624  0.75052416  0.33671767
Direct configuration=    32
   0.00480082  0.00218409  0.10315107
   0.35998962  0.00220414  0.10130573
   0.00481199  0.35728676  0.10128676
   0.64983956  0.64692014  0.10128713
   0.32855705  0.32567922  0.10155381
   0.68133807  0.00216144  0.10138401
   0.00484138  0.67850657  0.10154900
   0.08273526  0.41724571  0.33668736
   0.24941001  0.25056394  0.33684599
   0.08274009  0.91726646  0.33672220
   0.24943505  0.75055767  0.33670200
   0.58269700  0.41722459  0.33667257
   0.74937450  0.25052569  0.33670226
   0.58269786  0.91724361  0.33680492
   0.74935907  0.75053065  0.33672454
Direct configuration=    33
   0.00481929  0.00216672  0.10307335
   0.36001080  0.00217271  0.10130997
   0.00483343  0.35726780  0.10130123
   0.64986081  0.64689316  0.10129833
   0.32858508  0.32564815  0.10155049
   0.68136384  0.00215019  0.10137497
   0.00486515  0.67849342  0.10154517
   0.08270354  0.41725550  0.33669791
   0.24938479  0.25058539  0.33685083
   0.08271833  0.91728049  0.33673500
   0.24941100  0.75057579  0.33670751
   0.58268556  0.41723744  0.33668496
   0.74935900  0.25054911  0.33670599
   0.58268622  0.91727049  0.33681355
   0.74934051  0.75055431  0.33673008
Direct configuration=    34
   0.00487469  0.00211463  0.10284020
   0.36007434  0.00207840  0.10132271
   0.00489775  0.35721091  0.10134466
   0.64992457  0.64681220  0.10133192
   0.32866914  0.32555495  0.10154052
   0.68144115  0.00211646  0.10134785
   0.00493644  0.67845399  0.10153368
   0.08260839  0.41728488  0.33672956
   0.24930912  0.25064973  0.33686534
   0.08265303  0.91732259  0.33677339
   0.24933883  0.75063017  0.33672405
   0.58265123  0.41727600  0.33672213
   0.74931248  0.25061934  0.33671716
   0.58265131  0.91735113  0.33683947
   0.74928485  0.75062530  0.33674671
Direct configuration=    35
   0.00498550  0.00201043  0.10237390
   0.36020141  0.00188977  0.10134820
   0.00502640  0.35709713  0.10143151
   0.65005210  0.64665030  0.10139909
   0.32883728  0.32536855  0.10152058
   0.68159578  0.00204900  0.10129361
   0.00507903  0.67837512  0.10151069
   0.08241809  0.41734365  0.33679285
   0.24915779  0.25077841  0.33689437
   0.08252244  0.91740677  0.33685017
   0.24919451  0.75073892  0.33675711
   0.58258256  0.41735312  0.33679646
   0.74921945  0.25075981  0.33673951
   0.58258149  0.91751241  0.33689131
   0.74917351  0.75076728  0.33677997
Direct configuration=    36
   0.00499814  0.00199861  0.10232538
   0.36021179  0.00187255  0.10135048
   0.00504059  0.35708435  0.10144070
   0.65006853  0.64663738  0.10140615
   0.32885480  0.32535225  0.10151745
   0.68161176  0.00203943  0.10128965
   0.00509326  0.67836043  0.10150771
   0.08241372  0.41736046  0.33679830
   0.24914777  0.25078810  0.33689849
   0.08251331  0.91742282  0.33685695
   0.24918658  0.75075357  0.33676174
   0.58256476  0.41736880  0.33680304
   0.74920389  0.25077126  0.33674303
   0.58256124  0.91751459  0.33689567
   0.74915718  0.75077607  0.33678462
Direct configuration=    37
   0.00503607  0.00196312  0.10217982
   0.36024293  0.00182089  0.10135732
   0.00508318  0.35704603  0.10146826
   0.65011781  0.64659863  0.10142730
   0.32890738  0.32530336  0.10150804
   0.68165969  0.00201073  0.10127778
   0.00513595  0.67831637  0.10149877
   0.08240064  0.41741087  0.33681463
   0.24911771  0.25081715  0.33691086
   0.08248592  0.91747096  0.33687729
   0.24916281  0.75079751  0.33677561
   0.58251135  0.41741584  0.33682277
   0.74915722  0.25080562  0.33675359
   0.58250051  0.91752114  0.33690873
   0.74910818  0.75080245  0.33679858
Direct configuration=    38
   0.00511193  0.00189216  0.10188871
   0.36030520  0.00171755  0.10137100
   0.00516835  0.35696937  0.10152338
   0.65021638  0.64652114  0.10146961
   0.32901253  0.32520558  0.10148922
   0.68175554  0.00195332  0.10125404
   0.00522133  0.67822824  0.10148090
   0.08237447  0.41751170  0.33684728
   0.24905760  0.25087527  0.33693560
   0.08243113  0.91756723  0.33691796
   0.24911527  0.75088540  0.33680335
   0.58240453  0.41750992  0.33686224
   0.74906387  0.25087433  0.33677472
   0.58237903  0.91753423  0.33693485
   0.74901018  0.75085521  0.33682649
Direct configuration=    39
   0.00526365  0.00175023  0.10130648
   0.36042973  0.00151089  0.10139836
   0.00533869  0.35681607  0.10163363
   0.65041352  0.64636615  0.10155422
   0.32922282  0.32501002  0.10145158
   0.68194726  0.00183851  0.10120656
   0.00539209  0.67805199  0.10144515
   0.08232212  0.41771337  0.33691260
   0.24893738  0.25099150  0.33698509
   0.08232155  0.91775979  0.33699930
   0.24902018  0.75106117  0.33685882
   0.58219088  0.41769809  0.33694118
   0.74887718  0.25101175  0.33681696
   0.58213609  0.91756041  0.33698709
   0.74881419  0.75096072  0.33688232
Direct configuration=    40
   0.00518399  0.00182475  0.10161217
   0.36036435  0.00161940  0.10138399
   0.00524925  0.35689656  0.10157575
   0.65031002  0.64644752  0.10150979
   0.32911241  0.32511269  0.10147134
   0.68184660  0.00189879  0.10123149
   0.00530244  0.67814453  0.10146392
   0.08234961  0.41760749  0.33687831
   0.24900050  0.25093048  0.33695911
   0.08237909  0.91765869  0.33695659
   0.24907010  0.75096889  0.33682970
   0.58230305  0.41759929  0.33689974
   0.74897520  0.25093960  0.33679478
   0.58226364  0.91754666  0.33695966
   0.74891709  0.75090532  0.33685300
Direct configuration=    41
   0.00521193  0.00179982  0.10153282
   0.36038076  0.00160593  0.10138651
   0.00527743  0.35687023  0.10158614
   0.65034472  0.64643681  0.10151803
   0.32913720  0.32510328  0.10146475
   0.68186629  0.00186411  0.10123448
   0.00532421  0.67810090  0.10145924
   0.08233198  0.41763219  0.33688063
   0.24898169  0.25095182  0.33697318
   0.08234846  0.91767292  0.33695953
   0.24903933  0.75098501  0.33684376
   0.58227640  0.41762087  0.33690273
   0.74895017  0.25095052  0.33680824
   0.58224866  0.91757796  0.33696202
   0.74890812  0.75092830  0.33686727
Direct configuration=    42
   0.00529573  0.00172506  0.10129478
   0.36043001  0.00156554  0.10139406
   0.00536197  0.35679125  0.10161734
   0.65044881  0.64640466  0.10154275
   0.32921158  0.32507503  0.10144499
   0.68192536  0.00176005  0.10124347
   0.00538951  0.67796999  0.10144520
   0.08227909  0.41770628  0.33688760
   0.24892524  0.25101586  0.33701541
   0.08225657  0.91771558  0.33696834
   0.24894700  0.75103338  0.33688594
   0.58219643  0.41768559  0.33691171
   0.74887510  0.25098329  0.33684860
   0.58220373  0.91767185  0.33696908
   0.74888120  0.75099724  0.33691008
Direct configuration=    43
   0.00546335  0.00157554  0.10081869
   0.36052851  0.00148476  0.10140915
   0.00553105  0.35663329  0.10167973
   0.65065699  0.64634037  0.10159218
   0.32936033  0.32501855  0.10140547
   0.68204349  0.00155193  0.10126145
   0.00552012  0.67770818  0.10141713
   0.08217332  0.41785446  0.33690154
   0.24881234  0.25114394  0.33709985
   0.08207278  0.91780092  0.33698595
   0.24876236  0.75113012  0.33697031
   0.58203650  0.41781503  0.33692967
   0.74872495  0.25104884  0.33692931
   0.58211388  0.91785963  0.33698321
   0.74882735  0.75113513  0.33699569
Direct configuration=    44
   0.00536921  0.00165951  0.10108606
   0.36047319  0.00153013  0.10140067
   0.00543610  0.35672201  0.10164469
   0.65054007  0.64637647  0.10156442
   0.32927679  0.32505027  0.10142767
   0.68197714  0.00166881  0.10125135
   0.00544677  0.67785522  0.10143289
   0.08223272  0.41777124  0.33689371
   0.24887575  0.25107201  0.33705243
   0.08217600  0.91775299  0.33697606
   0.24886606  0.75107579  0.33692293
   0.58212632  0.41774234  0.33691958
   0.74880927  0.25101203  0.33688398
   0.58216434  0.91775417  0.33697527
   0.74885759  0.75105769  0.33694761
Direct configuration=    45
   0.00543292  0.00160190  0.10094419
   0.36053441  0.00151643  0.10140591
   0.00549116  0.35664767  0.10165165
   0.65059502  0.64634680  0.10157180
   0.32930591  0.32503586  0.10141432
   0.68200106  0.00158792  0.10127321
   0.00549036  0.67781367  0.10142553
   0.08214603  0.41776903  0.33690045
   0.24880767  0.25111317  0.33707663
   0.08216419  0.91780466  0.33698020
   0.24884623  0.75113208  0.33694564
   0.58212723  0.41776083  0.33692466
   0.74879321  0.25110150  0.33690847
   0.58211853  0.91776857  0.33698594
   0.74877341  0.75110058  0.33697073
Direct configuration=    46
   0.00545470  0.00158221  0.10089568
   0.36055534  0.00151175  0.10140770
   0.00550999  0.35662225  0.10165403
   0.65061381  0.64633665  0.10157432
   0.32931586  0.32503093  0.10140976
   0.68200924  0.00156026  0.10128069
   0.00550526  0.67779947  0.10142301
   0.08211639  0.41776827  0.33690275
   0.24878440  0.25112725  0.33708491
   0.08216015  0.91782233  0.33698162
   0.24883946  0.75115133  0.33695341
   0.58212754  0.41776715  0.33692640
   0.74878771  0.25113208  0.33691684
   0.58210287  0.91777349  0.33698958
   0.74874463  0.75111524  0.33697863
Direct configuration=    47
   0.00549210  0.00154496  0.10083451
   0.36061112  0.00150763  0.10141278
   0.00553349  0.35657793  0.10164660
   0.65062438  0.64630733  0.10157158
   0.32931845  0.32501527  0.10140197
   0.68202271  0.00152122  0.10130341
   0.00553101  0.67780995  0.10141992
   0.08209698  0.41779928  0.33691347
   0.24877077  0.25114465  0.33708867
   0.08214331  0.91785461  0.33698778
   0.24883081  0.75116388  0.33695587
   0.58210161  0.41779440  0.33693387
   0.74876637  0.25114392  0.33692268
   0.58207121  0.91779383  0.33700520
   0.74871302  0.75112180  0.33698102
Direct configuration=    48
   0.00555430  0.00148302  0.10073278
   0.36070387  0.00150078  0.10142123
   0.00557257  0.35650422  0.10163425
   0.65064197  0.64625857  0.10156703
   0.32932276  0.32498922  0.10138903
   0.68204512  0.00145630  0.10134119
   0.00557384  0.67782739  0.10141477
   0.08206471  0.41785085  0.33693130
   0.24874810  0.25117359  0.33709491
   0.08211530  0.91790830  0.33699803
   0.24881644  0.75118474  0.33695997
   0.58205848  0.41783972  0.33694629
   0.74873087  0.25116362  0.33693240
   0.58201855  0.91782764  0.33703117
   0.74866045  0.75113271  0.33698500
Direct configuration=    49
   0.00559469  0.00143696  0.10066783
   0.36076148  0.00149110  0.10143184
   0.00559297  0.35648186  0.10162134
   0.65064875  0.64622355  0.10156257
   0.32933675  0.32496395  0.10137631
   0.68208672  0.00142546  0.10137064
   0.00560690  0.67779499  0.10140834
   0.08205674  0.41787053  0.33694688
   0.24872005  0.25121015  0.33709508
   0.08206976  0.91790132  0.33700665
   0.24875800  0.75122022  0.33695994
   0.58202321  0.41785518  0.33695728
   0.74869100  0.25118370  0.33693741
   0.58201310  0.91785771  0.33705300
   0.74866723  0.75118400  0.33698421
Direct configuration=    50
   0.00560861  0.00142109  0.10064545
   0.36078133  0.00148777  0.10143550
   0.00560000  0.35647415  0.10161688
   0.65065109  0.64621148  0.10156103
   0.32934157  0.32495525  0.10137193
   0.68210106  0.00141483  0.10138079
   0.00561829  0.67778382  0.10140612
   0.08205399  0.41787731  0.33695225
   0.24871038  0.25122274  0.33709514
   0.08205406  0.91789891  0.33700963
   0.24873787  0.75123244  0.33695993
   0.58201105  0.41786051  0.33696106