Lattice                                 
           1
     4.198491    2.424000    0.000000
    -4.198491    2.424000    0.000000
     0.000000    0.000000   15.000000
   B    C 
     4    11
Direct configuration=     1
   0.00415361  0.00267210  0.12034134
   0.35695335  0.00285503  0.09748893
   0.00423858  0.35550699  0.09749256
   0.65142295  0.65006557  0.09747688
   0.32808646  0.32671938  0.10030508
   0.68027775  0.00278085  0.10027562
   0.00416530  0.67883808  0.10026559
   0.08333267  0.41666633  0.33646667
   0.24999967  0.24999933  0.33646667
   0.08333267  0.91666633  0.33646667
   0.24999967  0.74999933  0.33646667
   0.58333267  0.41666633  0.33646667
   0.74999967  0.24999933  0.33646667
   0.58333267  0.91666633  0.33646667
   0.74999967  0.74999933  0.33646667
Direct configuration=     2
   0.00414245  0.00267016  0.11910813
   0.35568002  0.00283026  0.09781850
   0.00413911  0.35443879  0.09787977
   0.65261522  0.65109804  0.09785055
   0.32474388  0.32314347  0.10030082
   0.68399836  0.00285636  0.10032591
   0.00417216  0.68222587  0.10027745
   0.08331726  0.41677879  0.33646330
   0.25017589  0.25026212  0.33656047
   0.08349740  0.91679623  0.33645188
   0.25029846  0.74995704  0.33643656
   0.58328540  0.41664569  0.33642173
   0.74993344  0.25000322  0.33646155
   0.58309067  0.91661563  0.33653697
   0.74953763  0.74977900  0.33648577
Direct configuration=     3
   0.00414813  0.00267115  0.11973596
   0.35632827  0.00284287  0.09765072
   0.00418975  0.35498261  0.09768264
   0.65200824  0.65057241  0.09766031
   0.32644559  0.32496397  0.10030299
   0.68210419  0.00281792  0.10030031
   0.00416867  0.68050114  0.10027141
   0.08332510  0.41672154  0.33646501
   0.25008618  0.25012833  0.33651271
   0.08341353  0.91673010  0.33645941
   0.25014634  0.74997857  0.33645189
   0.58330946  0.41665620  0.33644461
   0.74996716  0.25000124  0.33646415
   0.58321387  0.91664144  0.33650118
   0.74977285  0.74989117  0.33647604
Direct configuration=     4
   0.00414768  0.00269651  0.11866436
   0.35680310  0.00280930  0.09795627
   0.00415745  0.35542426  0.09804562
   0.65163425  0.65002710  0.09800892
   0.32659992  0.32494778  0.10026717
   0.68208535  0.00285426  0.10031589
   0.00418133  0.68039599  0.10025071
   0.08328653  0.41665772  0.33646824
   0.24988838  0.24998606  0.33658661
   0.08321680  0.91664326  0.33645815
   0.24983602  0.75006292  0.33642797
   0.58331610  0.41667955  0.33641645
   0.74996816  0.25002935  0.33645916
   0.58339939  0.91675145  0.33656195
   0.75010686  0.75013517  0.33649187
Direct configuration=     5
   0.00414649  0.00276384  0.11581917
   0.35806382  0.00272018  0.09876755
   0.00407172  0.35659688  0.09900937
   0.65064129  0.64857924  0.09893449
   0.32700969  0.32490480  0.10017209
   0.68203530  0.00295077  0.10035728
   0.00421495  0.68011678  0.10019575
   0.08318413  0.41648826  0.33647681
   0.24936321  0.24960829  0.33678280
   0.08269446  0.91641270  0.33645481
   0.24901207  0.75028688  0.33636445
   0.58333372  0.41674154  0.33634168
   0.74997084  0.25010398  0.33644592
   0.58389196  0.91704351  0.33672329
   0.75099369  0.75078301  0.33653388
Direct configuration=     6
   0.00415011  0.00276801  0.11550690
   0.35817851  0.00270993  0.09884287
   0.00407423  0.35669346  0.09909796
   0.65055601  0.64845500  0.09901972
   0.32708561  0.32494835  0.10017815
   0.68198102  0.00294778  0.10037593
   0.00422178  0.68005160  0.10020568
   0.08318312  0.41654084  0.33647891
   0.24942694  0.24966935  0.33679619
   0.08276244  0.91648598  0.33645755
   0.24912961  0.75027052  0.33636170
   0.58330642  0.41675938  0.33633941
   0.74995760  0.25010852  0.33644571
   0.58378307  0.91700645  0.33673508
   0.75083088  0.75068551  0.33653756
Direct configuration=     7
   0.00416094  0.00278051  0.11457011
   0.35852256  0.00267916  0.09906882
   0.00408175  0.35698322  0.09936375
   0.65030018  0.64808228  0.09927538
   0.32731337  0.32507901  0.10019635
   0.68181819  0.00293883  0.10043187
   0.00424228  0.67985606  0.10023546
   0.08318011  0.41669857  0.33648523
   0.24961815  0.24985253  0.33683637
   0.08296637  0.91670581  0.33646576
   0.24948223  0.75022142  0.33635343
   0.58322450  0.41681290  0.33633262
   0.74991788  0.25012211  0.33644510
   0.58345639  0.91689526  0.33677048
   0.75034244  0.75039301  0.33654860
Direct configuration=     8
   0.00418262  0.00280551  0.11269652
   0.35921066  0.00261764  0.09952073
   0.00409681  0.35756274  0.09989533
   0.64978851  0.64733684  0.09978672
   0.32776888  0.32534031  0.10023273
   0.68149252  0.00292092  0.10054376
   0.00428327  0.67946498  0.10029502
   0.08317408  0.41701402  0.33649788
   0.25000057  0.25021890  0.33691672
   0.08337423  0.91714548  0.33648218
   0.25018746  0.75012322  0.33633689
   0.58306066  0.41691993  0.33631904
   0.74983845  0.25014930  0.33644389
   0.58280305  0.91667287  0.33684126
   0.74936557  0.74980800  0.33657067
Direct configuration=     9
   0.00420265  0.00279276  0.11215287
   0.35922862  0.00259883  0.09960394
   0.00413693  0.35754506  0.09998672
   0.64980364  0.64732873  0.09987583
   0.32783906  0.32541092  0.10030418
   0.68141947  0.00287200  0.10062635
   0.00430708  0.67939551  0.10037011
   0.08316809  0.41699198  0.33650505
   0.24999770  0.25033136  0.33691037
   0.08335393  0.91707881  0.33649633
   0.25016257  0.75015006  0.33634883
   0.58306351  0.41686490  0.33633612
   0.74978635  0.25016847  0.33644929
   0.58282696  0.91670228  0.33683875
   0.74933077  0.74986898  0.33657460
Direct configuration=    10
   0.00426276  0.00275452  0.11052193
   0.35928251  0.00254239  0.09985357
   0.00425731  0.35749204  0.10026089
   0.64984905  0.64730441  0.10014317
   0.32804958  0.32562277  0.10051851
   0.68120032  0.00272527  0.10087409
   0.00437853  0.67918709  0.10059536
   0.08315010  0.41692587  0.33652658
   0.24998908  0.25066875  0.33689132
   0.08329303  0.91687880  0.33653881
   0.25008790  0.75023057  0.33638466
   0.58307207  0.41669980  0.33638733
   0.74963004  0.25022595  0.33646550
   0.58289867  0.91679052  0.33683122
   0.74922639  0.75005193  0.33658641
Direct configuration=    11
   0.00438297  0.00267802  0.10726005
   0.35939028  0.00242951  0.10035282
   0.00449807  0.35738598  0.10080922
   0.64993986  0.64725578  0.10067785
   0.32847063  0.32604647  0.10094716
   0.68076202  0.00243181  0.10136959
   0.00452143  0.67877027  0.10104588
   0.08311412  0.41679363  0.33656962
   0.24997183  0.25134352  0.33685323
   0.08317124  0.91647878  0.33662375
   0.24993856  0.75039159  0.33645630
   0.58308919  0.41636960  0.33648977
   0.74931743  0.25034093  0.33649792
   0.58304208  0.91696698  0.33681616
   0.74901761  0.75041781  0.33661001
Direct configuration=    12
   0.00441142  0.00265113  0.10661477
   0.35939101  0.00240823  0.10045002
   0.00454631  0.35735971  0.10090752
   0.64996386  0.64726980  0.10077588
   0.32850875  0.32608755  0.10104053
   0.68073267  0.00237601  0.10146935
   0.00455170  0.67871572  0.10114194
   0.08305367  0.41684684  0.33657742
   0.24989118  0.25114832  0.33684012
   0.08309868  0.91658599  0.33664068
   0.24985893  0.75037495  0.33647733
   0.58305920  0.41650493  0.33651350
   0.74937163  0.25032477  0.33650847
   0.58303795  0.91702906  0.33680571
   0.74915037  0.75041767  0.33661609
Direct configuration=    13
   0.00448047  0.00258584  0.10504822
   0.35939276  0.00235658  0.10068598
   0.00466342  0.35729593  0.10114617
   0.65002212  0.64730383  0.10101388
   0.32860127  0.32618729  0.10126721
   0.68066144  0.00224055  0.10171154
   0.00462517  0.67858330  0.10137515
   0.08290691  0.41697603  0.33659634
   0.24969539  0.25067443  0.33680829
   0.08292255  0.91684628  0.33668179
   0.24966563  0.75033455  0.33652836
   0.58298640  0.41683348  0.33657110
   0.74950322  0.25028552  0.33653407
   0.58302792  0.91717975  0.33678035
   0.74947266  0.75041733  0.33663087
Direct configuration=    14
   0.00451417  0.00255398  0.10428392
   0.35939362  0.00233137  0.10080110
   0.00472055  0.35726481  0.10126260
   0.65005054  0.64732044  0.10113000
   0.32864642  0.32623595  0.10137780
   0.68062669  0.00217446  0.10182971
   0.00466102  0.67851869  0.10148893
   0.08283531  0.41703906  0.33660557
   0.24959986  0.25044322  0.33679277
   0.08283662  0.91697327  0.33670185
   0.24957131  0.75031483  0.33655326
   0.58295088  0.41699377  0.33659920
   0.74956742  0.25026637  0.33654657
   0.58302303  0.91725327  0.33676798
   0.74962990  0.75041716  0.33663808
Direct configuration=    15
   0.00452136  0.00253463  0.10421789
   0.35941165  0.00233158  0.10082921
   0.00471261  0.35729038  0.10127600
   0.65002108  0.64730929  0.10114769
   0.32857865  0.32615110  0.10138106
   0.68073102  0.00219349  0.10182082
   0.00466220  0.67856556  0.10148981
   0.08287062  0.41704460  0.33660456
   0.24958524  0.25039638  0.33679076
   0.08289116  0.91704077  0.33669971
   0.24960109  0.75035947  0.33656316
   0.58292808  0.41702704  0.33660112
   0.74957595  0.25032497  0.33655421
   0.58295003  0.91714243  0.33676060
   0.74958658  0.75038898  0.33664273
