  15  15   0  16
  0.2035429E+02  0.4848000E-09  0.4848000E-09  0.1500000E-08  0.5000000E-15
  1.000000000000000E-004
  CAR 
 Lattice                                 
     10.30926526    -21.68045903  301     -0.31484567      1.00000000
    -21.680  0.0000E+00  0.0000E+00  0.0000E+00  0.0000E+00
    -21.574  0.0000E+00  0.0000E+00  0.0000E+00  0.0000E+00
    -21.467  0.0000E+00  0.0000E+00  0.0000E+00  0.0000E+00
    -21.361  0.0000E+00  0.0000E+00  0.0000E+00  0.0000E+00
    -21.254  0.0000E+00  0.0000E+00  0.0000E+00  0.0000E+00
    -21.147  0.0000E+00  0.0000E+00  0.0000E+00  0.0000E+00
    -21.041  0.0000E+00  0.0000E+00  0.0000E+00  0.0000E+00
    -20.934  0.0000E+00  0.0000E+00  0.0000E+00  0.0000E+00
    -20.827  0.0000E+00  0.0000E+00  0.0000E+00  0.0000E+00
    -20.721  0.7398E-15  0.7398E-15  0.7888E-16  0.7888E-16
    -20.614  0.1241E-10  0.1241E-10  0.1323E-11  0.1323E-11
    -20.508  0.2516E-07  0.2516E-07  0.2684E-08  0.2684E-08
    -20.401  0.6780E-05  0.6780E-05  0.7256E-06  0.7256E-06
    -20.294  0.2712E-03  0.2712E-03  0.2965E-04  0.2965E-04
    -20.188  0.1973E-02  0.1973E-02  0.2401E-03  0.2401E-03
    -20.081  0.4150E-02  0.4150E-02  0.6826E-03  0.6826E-03
    -19.974  0.4520E-02  0.4520E-02  0.1165E-02  0.1165E-02
    -19.868  0.4937E-02  0.4937E-02  0.1691E-02  0.1691E-02
    -19.761  0.4155E-02  0.4155E-02  0.2134E-02  0.2134E-02
    -19.654  0.5379E-02  0.5379E-02  0.2708E-02  0.2708E-02
    -19.548  0.4224E-02  0.4224E-02  0.3158E-02  0.3158E-02
    -19.441  0.4243E-02  0.4243E-02  0.3610E-02  0.3610E-02
    -19.335  0.6009E-02  0.6009E-02  0.4251E-02  0.4251E-02
    -19.228  0.3830E-02  0.3830E-02  0.4660E-02  0.4660E-02
    -19.121  0.3861E-02  0.3861E-02  0.5071E-02  0.5071E-02
    -19.015  0.6108E-02  0.6108E-02  0.5723E-02  0.5723E-02
    -18.908  0.5224E-02  0.5224E-02  0.6280E-02  0.6280E-02
    -18.801  0.2977E-02  0.2977E-02  0.6597E-02  0.6597E-02
    -18.695  0.4330E-02  0.4330E-02  0.7059E-02  0.7059E-02
    -18.588  0.6919E-02  0.6919E-02  0.7797E-02  0.7797E-02
    -18.481  0.4590E-02  0.4590E-02  0.8286E-02  0.8286E-02
    -18.375  0.3803E-02  0.3803E-02  0.8692E-02  0.8692E-02
    -18.268  0.2964E-02  0.2964E-02  0.9008E-02  0.9008E-02
    -18.162  0.6575E-02  0.6575E-02  0.9709E-02  0.9709E-02
    -18.055  0.6647E-02  0.6647E-02  0.1042E-01  0.1042E-01
    -17.948  0.3574E-02  0.3574E-02  0.1080E-01  0.1080E-01
    -17.842  0.3264E-02  0.3264E-02  0.1115E-01  0.1115E-01
    -17.735  0.4092E-02  0.4092E-02  0.1158E-01  0.1158E-01
    -17.628  0.6165E-02  0.6165E-02  0.1224E-01  0.1224E-01
    -17.522  0.6819E-02  0.6819E-02  0.1297E-01  0.1297E-01
    -17.415  0.5834E-02  0.5834E-02  0.1359E-01  0.1359E-01
    -17.309  0.6998E-02  0.6998E-02  0.1434E-01  0.1434E-01
    -17.202  0.1029E-01  0.1029E-01  0.1543E-01  0.1543E-01
    -17.095  0.1464E-01  0.1464E-01  0.1699E-01  0.1699E-01
    -16.989  0.1582E-01  0.1582E-01  0.1868E-01  0.1868E-01
    -16.882  0.1758E-01  0.1758E-01  0.2056E-01  0.2056E-01
    -16.775  0.2104E-01  0.2104E-01  0.2280E-01  0.2280E-01
    -16.669  0.1533E-01  0.1533E-01  0.2444E-01  0.2444E-01
    -16.562  0.4413E-02  0.4413E-02  0.2491E-01  0.2491E-01
    -16.455  0.7061E-02  0.7061E-02  0.2566E-01  0.2566E-01
    -16.349  0.8244E-02  0.8244E-02  0.2654E-01  0.2654E-01
    -16.242  0.4597E-02  0.4597E-02  0.2703E-01  0.2703E-01
    -16.136  0.4166E-02  0.4166E-02  0.2747E-01  0.2747E-01
    -16.029  0.3857E-02  0.3857E-02  0.2788E-01  0.2788E-01
    -15.922  0.3842E-02  0.3842E-02  0.2829E-01  0.2829E-01
    -15.816  0.3590E-02  0.3590E-02  0.2868E-01  0.2868E-01
    -15.709  0.7964E-02  0.7964E-02  0.2953E-01  0.2953E-01
    -15.602  0.8182E-02  0.8182E-02  0.3040E-01  0.3040E-01
    -15.496  0.3991E-02  0.3991E-02  0.3082E-01  0.3082E-01
    -15.389  0.3873E-02  0.3873E-02  0.3124E-01  0.3124E-01
    -15.283  0.3365E-02  0.3365E-02  0.3160E-01  0.3160E-01
    -15.176  0.4583E-02  0.4583E-02  0.3208E-01  0.3208E-01
    -15.069  0.6206E-02  0.6206E-02  0.3275E-01  0.3275E-01
    -14.963  0.1120E-01  0.1120E-01  0.3394E-01  0.3394E-01
    -14.856  0.1745E-01  0.1745E-01  0.3580E-01  0.3580E-01
    -14.749  0.1858E-01  0.1858E-01  0.3778E-01  0.3778E-01
    -14.643  0.1701E-01  0.1701E-01  0.3960E-01  0.3960E-01
    -14.536  0.1089E-01  0.1089E-01  0.4076E-01  0.4076E-01
    -14.429  0.7759E-02  0.7759E-02  0.4159E-01  0.4159E-01
    -14.323  0.1455E-01  0.1455E-01  0.4314E-01  0.4314E-01
    -14.216  0.1558E-01  0.1558E-01  0.4480E-01  0.4480E-01
    -14.110  0.1158E-01  0.1158E-01  0.4603E-01  0.4603E-01
    -14.003  0.1069E-01  0.1069E-01  0.4717E-01  0.4717E-01
    -13.896  0.1277E-01  0.1277E-01  0.4854E-01  0.4854E-01
    -13.790  0.1964E-01  0.1964E-01  0.5063E-01  0.5063E-01
    -13.683  0.1933E-01  0.1933E-01  0.5269E-01  0.5269E-01
    -13.576  0.1792E-01  0.1792E-01  0.5460E-01  0.5460E-01
    -13.470  0.1074E-01  0.1074E-01  0.5575E-01  0.5575E-01
    -13.363  0.6535E-02  0.6535E-02  0.5644E-01  0.5644E-01
    -13.256  0.3362E-02  0.3362E-02  0.5680E-01  0.5680E-01
    -13.150  0.3926E-02  0.3926E-02  0.5722E-01  0.5722E-01
    -13.043  0.6730E-02  0.6730E-02  0.5794E-01  0.5794E-01
    -12.937  0.7022E-02  0.7022E-02  0.5869E-01  0.5869E-01
    -12.830  0.4817E-02  0.4817E-02  0.5920E-01  0.5920E-01
    -12.723  0.6647E-02  0.6647E-02  0.5991E-01  0.5991E-01
    -12.617  0.7153E-02  0.7153E-02  0.6067E-01  0.6067E-01
    -12.510  0.5582E-02  0.5582E-02  0.6127E-01  0.6127E-01
    -12.403  0.5463E-02  0.5463E-02  0.6185E-01  0.6185E-01
    -12.297  0.3382E-02  0.3382E-02  0.6221E-01  0.6221E-01
    -12.190  0.6064E-02  0.6064E-02  0.6286E-01  0.6286E-01
    -12.084  0.8206E-02  0.8206E-02  0.6373E-01  0.6373E-01
    -11.977  0.3551E-02  0.3551E-02  0.6411E-01  0.6411E-01
    -11.870  0.3282E-02  0.3282E-02  0.6446E-01  0.6446E-01
    -11.764  0.3388E-02  0.3388E-02  0.6482E-01  0.6482E-01
    -11.657  0.5773E-02  0.5773E-02  0.6544E-01  0.6544E-01
    -11.550  0.6845E-02  0.6845E-02  0.6617E-01  0.6617E-01
    -11.444  0.4030E-02  0.4030E-02  0.6660E-01  0.6660E-01
    -11.337  0.1826E-02  0.1826E-02  0.6679E-01  0.6679E-01
    -11.230  0.4520E-02  0.4520E-02  0.6727E-01  0.6727E-01
    -11.124  0.5829E-02  0.5829E-02  0.6789E-01  0.6789E-01
    -11.017  0.5148E-02  0.5148E-02  0.6844E-01  0.6844E-01
    -10.911  0.7466E-02  0.7466E-02  0.6924E-01  0.6924E-01
    -10.804  0.6544E-02  0.6544E-02  0.6994E-01  0.6994E-01
    -10.697  0.2588E-02  0.2588E-02  0.7021E-01  0.7021E-01
    -10.591  0.7967E-02  0.7967E-02  0.7106E-01  0.7106E-01
    -10.484  0.1308E-01  0.1308E-01  0.7246E-01  0.7246E-01
    -10.377  0.1536E-01  0.1536E-01  0.7410E-01  0.7410E-01
    -10.271  0.1489E-01  0.1489E-01  0.7568E-01  0.7568E-01
    -10.164  0.1488E-01  0.1488E-01  0.7727E-01  0.7727E-01
    -10.058  0.1783E-01  0.1783E-01  0.7917E-01  0.7917E-01
     -9.951  0.1794E-01  0.1794E-01  0.8108E-01  0.8108E-01
     -9.844  0.9999E-02  0.9999E-02  0.8215E-01  0.8215E-01
     -9.738  0.7680E-02  0.7680E-02  0.8297E-01  0.8297E-01
     -9.631  0.1400E-01  0.1400E-01  0.8446E-01  0.8446E-01
     -9.524  0.1422E-01  0.1422E-01  0.8598E-01  0.8598E-01
     -9.418  0.1640E-01  0.1640E-01  0.8773E-01  0.8773E-01
     -9.311  0.1672E-01  0.1672E-01  0.8951E-01  0.8951E-01
     -9.204  0.1396E-01  0.1396E-01  0.9100E-01  0.9100E-01
     -9.098  0.1018E-01  0.1018E-01  0.9208E-01  0.9208E-01
     -8.991  0.7264E-02  0.7264E-02  0.9286E-01  0.9286E-01
     -8.885  0.1589E-01  0.1589E-01  0.9455E-01  0.9455E-01
     -8.778  0.2078E-01  0.2078E-01  0.9677E-01  0.9677E-01
     -8.671  0.1469E-01  0.1469E-01  0.9834E-01  0.9834E-01
     -8.565  0.7737E-02  0.7737E-02  0.9916E-01  0.9916E-01
     -8.458  0.1107E-01  0.1107E-01  0.1003E+00  0.1003E+00
     -8.351  0.2016E-01  0.2016E-01  0.1025E+00  0.1025E+00
     -8.245  0.1815E-01  0.1815E-01  0.1044E+00  0.1044E+00
     -8.138  0.1216E-01  0.1216E-01  0.1057E+00  0.1057E+00
     -8.032  0.1652E-01  0.1652E-01  0.1075E+00  0.1075E+00
     -7.925  0.2454E-01  0.2454E-01  0.1101E+00  0.1101E+00
     -7.818  0.2471E-01  0.2471E-01  0.1127E+00  0.1127E+00
     -7.712  0.1965E-01  0.1965E-01  0.1148E+00  0.1148E+00
     -7.605  0.1069E-01  0.1069E-01  0.1160E+00  0.1160E+00
     -7.498  0.7727E-02  0.7727E-02  0.1168E+00  0.1168E+00
     -7.392  0.1778E-01  0.1778E-01  0.1187E+00  0.1187E+00
     -7.285  0.1849E-01  0.1849E-01  0.1207E+00  0.1207E+00
     -7.178  0.1244E-01  0.1244E-01  0.1220E+00  0.1220E+00
     -7.072  0.1074E-01  0.1074E-01  0.1231E+00  0.1231E+00
     -6.965  0.1633E-01  0.1633E-01  0.1249E+00  0.1249E+00
     -6.859  0.1825E-01  0.1825E-01  0.1268E+00  0.1268E+00
     -6.752  0.2002E-01  0.2002E-01  0.1290E+00  0.1290E+00
     -6.645  0.2155E-01  0.2155E-01  0.1313E+00  0.1313E+00
     -6.539  0.1826E-01  0.1826E-01  0.1332E+00  0.1332E+00
     -6.432  0.2098E-01  0.2098E-01  0.1354E+00  0.1354E+00
     -6.325  0.1740E-01  0.1740E-01  0.1373E+00  0.1373E+00
     -6.219  0.1826E-01  0.1826E-01  0.1392E+00  0.1392E+00
     -6.112  0.2646E-01  0.2646E-01  0.1421E+00  0.1421E+00
     -6.005  0.2259E-01  0.2259E-01  0.1445E+00  0.1445E+00
     -5.899  0.3123E-01  0.3123E-01  0.1478E+00  0.1478E+00
     -5.792  0.2866E-01  0.2866E-01  0.1509E+00  0.1509E+00
     -5.686  0.1728E-01  0.1728E-01  0.1527E+00  0.1527E+00
     -5.579  0.1927E-01  0.1927E-01  0.1548E+00  0.1548E+00
     -5.472  0.3253E-01  0.3253E-01  0.1582E+00  0.1582E+00
     -5.366  0.3555E-01  0.3555E-01  0.1620E+00  0.1620E+00
     -5.259  0.2253E-01  0.2253E-01  0.1644E+00  0.1644E+00
     -5.152  0.1660E-01  0.1660E-01  0.1662E+00  0.1662E+00
     -5.046  0.1038E-01  0.1038E-01  0.1673E+00  0.1673E+00
     -4.939  0.1058E-01  0.1058E-01  0.1684E+00  0.1684E+00
     -4.833  0.1411E-01  0.1411E-01  0.1699E+00  0.1699E+00
     -4.726  0.1112E-01  0.1112E-01  0.1711E+00  0.1711E+00
     -4.619  0.7819E-02  0.7819E-02  0.1719E+00  0.1719E+00
     -4.513  0.8871E-02  0.8871E-02  0.1729E+00  0.1729E+00
     -4.406  0.1630E-01  0.1630E-01  0.1746E+00  0.1746E+00
     -4.299  0.2295E-01  0.2295E-01  0.1771E+00  0.1771E+00
     -4.193  0.1960E-01  0.1960E-01  0.1792E+00  0.1792E+00
     -4.086  0.1822E-01  0.1822E-01  0.1811E+00  0.1811E+00
     -3.979  0.2112E-01  0.2112E-01  0.1834E+00  0.1834E+00
     -3.873  0.2459E-01  0.2459E-01  0.1860E+00  0.1860E+00
     -3.766  0.1856E-01  0.1856E-01  0.1880E+00  0.1880E+00
     -3.660  0.1866E-01  0.1866E-01  0.1900E+00  0.1900E+00
     -3.553  0.2028E-01  0.2028E-01  0.1921E+00  0.1921E+00
     -3.446  0.1617E-01  0.1617E-01  0.1938E+00  0.1938E+00
     -3.340  0.1302E-01  0.1302E-01  0.1952E+00  0.1952E+00
     -3.233  0.1265E-01  0.1265E-01  0.1966E+00  0.1966E+00
     -3.126  0.1766E-01  0.1766E-01  0.1985E+00  0.1985E+00
     -3.020  0.1817E-01  0.1817E-01  0.2004E+00  0.2004E+00
     -2.913  0.1199E-01  0.1199E-01  0.2017E+00  0.2017E+00
     -2.807  0.1225E-01  0.1225E-01  0.2030E+00  0.2030E+00
     -2.700  0.7839E-02  0.7839E-02  0.2038E+00  0.2038E+00
     -2.593  0.9568E-02  0.9568E-02  0.2048E+00  0.2048E+00
     -2.487  0.1816E-01  0.1816E-01  0.2068E+00  0.2068E+00
     -2.380  0.1610E-01  0.1610E-01  0.2085E+00  0.2085E+00
     -2.273  0.4546E-02  0.4546E-02  0.2090E+00  0.2090E+00
     -2.167  0.5134E-02  0.5134E-02  0.2095E+00  0.2095E+00
     -2.060  0.1063E-01  0.1063E-01  0.2107E+00  0.2107E+00
     -1.953  0.9654E-02  0.9654E-02  0.2117E+00  0.2117E+00
     -1.847  0.1095E-01  0.1095E-01  0.2129E+00  0.2129E+00
     -1.740  0.1111E-01  0.1111E-01  0.2140E+00  0.2140E+00
     -1.634  0.9937E-02  0.9937E-02  0.2151E+00  0.2151E+00
     -1.527  0.7508E-02  0.7508E-02  0.2159E+00  0.2159E+00
     -1.420  0.4078E-02  0.4078E-02  0.2163E+00  0.2163E+00
     -1.314  0.4097E-02  0.4097E-02  0.2168E+00  0.2168E+00
     -1.207  0.4143E-02  0.4143E-02  0.2172E+00  0.2172E+00
     -1.100  0.3517E-02  0.3517E-02  0.2176E+00  0.2176E+00
     -0.994  0.5653E-02  0.5653E-02  0.2182E+00  0.2182E+00
     -0.887  0.3432E-02  0.3432E-02  0.2186E+00  0.2186E+00
     -0.781  0.7186E-03  0.7186E-03  0.2186E+00  0.2186E+00
     -0.674  0.8244E-04  0.8244E-04  0.2186E+00  0.2186E+00
     -0.567  0.2454E-05  0.2454E-05  0.2186E+00  0.2186E+00
     -0.461  0.3997E-04  0.3997E-04  0.2186E+00  0.2186E+00
     -0.354  0.5506E-03  0.5506E-03  0.2187E+00  0.2187E+00
     -0.247  0.1098E-02  0.1098E-02  0.2188E+00  0.2188E+00
     -0.141  0.3325E-03  0.3325E-03  0.2189E+00  0.2189E+00
     -0.034  0.1415E-04  0.1415E-04  0.2189E+00  0.2189E+00
      0.073  0.1507E-06  0.1507E-06  0.2189E+00  0.2189E+00
      0.179  0.2046E-04  0.2046E-04  0.2189E+00  0.2189E+00
      0.286  0.6784E-03  0.6784E-03  0.2189E+00  0.2189E+00
      0.392  0.3083E-02  0.3083E-02  0.2193E+00  0.2193E+00
      0.499  0.2153E-02  0.2153E-02  0.2195E+00  0.2195E+00
      0.606  0.1075E-02  0.1075E-02  0.2196E+00  0.2196E+00
      0.712  0.3669E-02  0.3669E-02  0.2200E+00  0.2200E+00
      0.819  0.5764E-02  0.5764E-02  0.2206E+00  0.2206E+00
      0.926  0.1002E-01  0.1002E-01  0.2217E+00  0.2217E+00
      1.032  0.2379E-01  0.2379E-01  0.2242E+00  0.2242E+00
      1.139  0.1985E-01  0.1985E-01  0.2263E+00  0.2263E+00
      1.246  0.6074E-02  0.6074E-02  0.2270E+00  0.2270E+00
      1.352  0.3222E-02  0.3222E-02  0.2273E+00  0.2273E+00
      1.459  0.7278E-02  0.7278E-02  0.2281E+00  0.2281E+00
      1.565  0.1429E-01  0.1429E-01  0.2296E+00  0.2296E+00
      1.672  0.1973E-01  0.1973E-01  0.2317E+00  0.2317E+00
      1.779  0.1444E-01  0.1444E-01  0.2333E+00  0.2333E+00
      1.885  0.7073E-02  0.7073E-02  0.2340E+00  0.2340E+00
      1.992  0.7360E-02  0.7360E-02  0.2348E+00  0.2348E+00
      2.099  0.1029E-01  0.1029E-01  0.2359E+00  0.2359E+00
      2.205  0.6977E-02  0.6977E-02  0.2366E+00  0.2366E+00
      2.312  0.8512E-02  0.8512E-02  0.2376E+00  0.2376E+00
      2.418  0.7171E-02  0.7171E-02  0.2383E+00  0.2383E+00
      2.525  0.9333E-02  0.9333E-02  0.2393E+00  0.2393E+00
      2.632  0.1189E-01  0.1189E-01  0.2406E+00  0.2406E+00
      2.738  0.7222E-02  0.7222E-02  0.2414E+00  0.2414E+00
      2.845  0.4562E-02  0.4563E-02  0.2418E+00  0.2418E+00
      2.952  0.8587E-02  0.8588E-02  0.2428E+00  0.2428E+00
      3.058  0.1205E-01  0.1205E-01  0.2440E+00  0.2440E+00
      3.165  0.9300E-02  0.9300E-02  0.2450E+00  0.2450E+00
      3.272  0.1008E-01  0.1008E-01  0.2461E+00  0.2461E+00
      3.378  0.1030E-01  0.1030E-01  0.2472E+00  0.2472E+00
      3.485  0.9709E-02  0.9709E-02  0.2482E+00  0.2482E+00
      3.591  0.1682E-01  0.1682E-01  0.2500E+00  0.2500E+00
      3.698  0.2254E-01  0.2254E-01  0.2524E+00  0.2524E+00
      3.805  0.2504E-01  0.2504E-01  0.2551E+00  0.2551E+00
      3.911  0.2200E-01  0.2200E-01  0.2575E+00  0.2575E+00
      4.018  0.2304E-01  0.2304E-01  0.2599E+00  0.2599E+00
      4.125  0.2359E-01  0.2359E-01  0.2624E+00  0.2624E+00
      4.231  0.2661E-01  0.2661E-01  0.2653E+00  0.2653E+00
      4.338  0.2413E-01  0.2413E-01  0.2678E+00  0.2678E+00
      4.444  0.2383E-01  0.2383E-01  0.2704E+00  0.2704E+00
      4.551  0.2224E-01  0.2224E-01  0.2728E+00  0.2728E+00
      4.658  0.2045E-01  0.2045E-01  0.2749E+00  0.2749E+00
      4.764  0.2673E-01  0.2673E-01  0.2778E+00  0.2778E+00
      4.871  0.2474E-01  0.2473E-01  0.2804E+00  0.2804E+00
      4.978  0.2177E-01  0.2177E-01  0.2827E+00  0.2827E+00
      5.084  0.2525E-01  0.2526E-01  0.2854E+00  0.2854E+00
      5.191  0.2666E-01  0.2666E-01  0.2883E+00  0.2883E+00
      5.298  0.2386E-01  0.2386E-01  0.2908E+00  0.2908E+00
      5.404  0.2185E-01  0.2185E-01  0.2931E+00  0.2932E+00
      5.511  0.2166E-01  0.2166E-01  0.2955E+00  0.2955E+00
      5.617  0.2684E-01  0.2684E-01  0.2983E+00  0.2983E+00
      5.724  0.2320E-01  0.2320E-01  0.3008E+00  0.3008E+00
      5.831  0.2205E-01  0.2204E-01  0.3031E+00  0.3031E+00
      5.937  0.1957E-01  0.1957E-01  0.3052E+00  0.3052E+00
      6.044  0.2055E-01  0.2055E-01  0.3074E+00  0.3074E+00
      6.151  0.1552E-01  0.1552E-01  0.3091E+00  0.3091E+00
      6.257  0.1818E-01  0.1818E-01  0.3110E+00  0.3110E+00
      6.364  0.2357E-01  0.2357E-01  0.3135E+00  0.3135E+00
      6.470  0.2317E-01  0.2317E-01  0.3160E+00  0.3160E+00
      6.577  0.2519E-01  0.2519E-01  0.3187E+00  0.3187E+00
      6.684  0.2744E-01  0.2744E-01  0.3216E+00  0.3216E+00
      6.790  0.3334E-01  0.3334E-01  0.3252E+00  0.3252E+00
      6.897  0.2789E-01  0.2788E-01  0.3281E+00  0.3281E+00
      7.004  0.2542E-01  0.2542E-01  0.3309E+00  0.3309E+00
      7.110  0.2448E-01  0.2449E-01  0.3335E+00  0.3335E+00
      7.217  0.2122E-01  0.2122E-01  0.3357E+00  0.3357E+00
      7.324  0.1888E-01  0.1888E-01  0.3377E+00  0.3377E+00
      7.430  0.2023E-01  0.2023E-01  0.3399E+00  0.3399E+00
      7.537  0.2287E-01  0.2287E-01  0.3423E+00  0.3423E+00
      7.643  0.2323E-01  0.2323E-01  0.3448E+00  0.3448E+00
      7.750  0.2869E-01  0.2869E-01  0.3479E+00  0.3479E+00
      7.857  0.3554E-01  0.3554E-01  0.3517E+00  0.3517E+00
      7.963  0.2838E-01  0.2837E-01  0.3547E+00  0.3547E+00
      8.070  0.3136E-01  0.3136E-01  0.3580E+00  0.3580E+00
      8.177  0.3383E-01  0.3382E-01  0.3616E+00  0.3616E+00
      8.283  0.3073E-01  0.3073E-01  0.3649E+00  0.3649E+00
      8.390  0.3755E-01  0.3756E-01  0.3689E+00  0.3689E+00
      8.497  0.2938E-01  0.2938E-01  0.3721E+00  0.3721E+00
      8.603  0.1460E-01  0.1460E-01  0.3736E+00  0.3736E+00
      8.710  0.6535E-02  0.6535E-02  0.3743E+00  0.3743E+00
      8.816  0.3457E-02  0.3457E-02  0.3747E+00  0.3747E+00
      8.923  0.2504E-02  0.2504E-02  0.3749E+00  0.3749E+00
      9.030  0.5397E-03  0.5395E-03  0.3750E+00  0.3750E+00
      9.136  0.2051E-04  0.2050E-04  0.3750E+00  0.3750E+00
      9.243  0.1031E-06  0.1031E-06  0.3750E+00  0.3750E+00
      9.350  0.6023E-10  0.6017E-10  0.3750E+00  0.3750E+00
      9.456  0.3870E-14  0.3866E-14  0.3750E+00  0.3750E+00
      9.563  0.0000E+00  0.0000E+00  0.3750E+00  0.3750E+00
      9.669  0.0000E+00  0.0000E+00  0.3750E+00  0.3750E+00
      9.776  0.0000E+00  0.0000E+00  0.3750E+00  0.3750E+00
      9.883  0.0000E+00  0.0000E+00  0.3750E+00  0.3750E+00
      9.989  0.0000E+00  0.0000E+00  0.3750E+00  0.3750E+00
     10.096  0.0000E+00  0.0000E+00  0.3750E+00  0.3750E+00
     10.203  0.0000E+00  0.0000E+00  0.3750E+00  0.3750E+00
     10.309  0.0000E+00  0.0000E+00  0.3750E+00  0.3750E+00
