   8   8   1   4
  0.4142730E+02  0.5051000E-09  0.5051000E-09  0.1500000E-08  0.5000000E-15
  1.000000000000000E-004
  CAR 
 BC3                                     
     13.15374908    -19.36961326 4000     -2.22421427      1.00000000
    -19.370  0.0000E+00  0.0000E+00
    -19.361  0.0000E+00  0.0000E+00
    -19.353  0.0000E+00  0.0000E+00
    -19.345  0.0000E+00  0.0000E+00
    -19.337  0.0000E+00  0.0000E+00
    -19.329  0.0000E+00  0.0000E+00
    -19.321  0.0000E+00  0.0000E+00
    -19.313  0.0000E+00  0.0000E+00
    -19.305  0.0000E+00  0.0000E+00
    -19.296  0.0000E+00  0.0000E+00
    -19.288  0.0000E+00  0.0000E+00
    -19.280  0.0000E+00  0.0000E+00
    -19.272  0.0000E+00  0.0000E+00
    -19.264  0.0000E+00  0.0000E+00
    -19.256  0.0000E+00  0.0000E+00
    -19.248  0.0000E+00  0.0000E+00
    -19.239  0.0000E+00  0.0000E+00
    -19.231  0.0000E+00  0.0000E+00
    -19.223  0.0000E+00  0.0000E+00
    -19.215  0.0000E+00  0.0000E+00
    -19.207  0.0000E+00  0.0000E+00
    -19.199  0.0000E+00  0.0000E+00
    -19.191  0.0000E+00  0.0000E+00
    -19.183  0.0000E+00  0.0000E+00
    -19.174  0.0000E+00  0.0000E+00
    -19.166  0.0000E+00  0.0000E+00
    -19.158  0.0000E+00  0.0000E+00
    -19.150  0.0000E+00  0.0000E+00
    -19.142  0.0000E+00  0.0000E+00
    -19.134  0.0000E+00  0.0000E+00
    -19.126  0.0000E+00  0.0000E+00
    -19.117  0.0000E+00  0.0000E+00
    -19.109  0.0000E+00  0.0000E+00
    -19.101  0.0000E+00  0.0000E+00
    -19.093  0.0000E+00  0.0000E+00
    -19.085  0.0000E+00  0.0000E+00
    -19.077  0.0000E+00  0.0000E+00
    -19.069  0.0000E+00  0.0000E+00
    -19.061  0.0000E+00  0.0000E+00
    -19.052  0.0000E+00  0.0000E+00
    -19.044  0.0000E+00  0.0000E+00
    -19.036  0.0000E+00  0.0000E+00
    -19.028  0.0000E+00  0.0000E+00
    -19.020  0.0000E+00  0.0000E+00
    -19.012  0.0000E+00  0.0000E+00
    -19.004  0.0000E+00  0.0000E+00
    -18.996  0.0000E+00  0.0000E+00
    -18.987  0.0000E+00  0.0000E+00
    -18.979  0.0000E+00  0.0000E+00
    -18.971  0.0000E+00  0.0000E+00
    -18.963  0.0000E+00  0.0000E+00
    -18.955  0.0000E+00  0.0000E+00
    -18.947  0.0000E+00  0.0000E+00
    -18.939  0.0000E+00  0.0000E+00
    -18.930  0.0000E+00  0.0000E+00
    -18.922  0.0000E+00  0.0000E+00
    -18.914  0.0000E+00  0.0000E+00
    -18.906  0.0000E+00  0.0000E+00
    -18.898  0.0000E+00  0.0000E+00
    -18.890  0.0000E+00  0.0000E+00
    -18.882  0.0000E+00  0.0000E+00
    -18.874  0.0000E+00  0.0000E+00
    -18.865  0.0000E+00  0.0000E+00
    -18.857  0.0000E+00  0.0000E+00
    -18.849  0.0000E+00  0.0000E+00
    -18.841  0.0000E+00  0.0000E+00
    -18.833  0.0000E+00  0.0000E+00
    -18.825  0.0000E+00  0.0000E+00
    -18.817  0.0000E+00  0.0000E+00
    -18.808  0.0000E+00  0.0000E+00
    -18.800  0.0000E+00  0.0000E+00
    -18.792  0.0000E+00  0.0000E+00
    -18.784  0.0000E+00  0.0000E+00
    -18.776  0.0000E+00  0.0000E+00
    -18.768  0.0000E+00  0.0000E+00
    -18.760  0.0000E+00  0.0000E+00
    -18.752  0.0000E+00  0.0000E+00
    -18.743  0.0000E+00  0.0000E+00
    -18.735  0.0000E+00  0.0000E+00
    -18.727  0.0000E+00  0.0000E+00
    -18.719  0.0000E+00  0.0000E+00
    -18.711  0.0000E+00  0.0000E+00
    -18.703  0.0000E+00  0.0000E+00
    -18.695  0.0000E+00  0.0000E+00
    -18.686  0.0000E+00  0.0000E+00
    -18.678  0.0000E+00  0.0000E+00
    -18.670  0.0000E+00  0.0000E+00
    -18.662  0.0000E+00  0.0000E+00
    -18.654  0.0000E+00  0.0000E+00
    -18.646  0.0000E+00  0.0000E+00
    -18.638  0.0000E+00  0.0000E+00
    -18.630  0.0000E+00  0.0000E+00
    -18.621  0.0000E+00  0.0000E+00
    -18.613  0.0000E+00  0.0000E+00
    -18.605  0.0000E+00  0.0000E+00
    -18.597  0.0000E+00  0.0000E+00
    -18.589  0.0000E+00  0.0000E+00
    -18.581  0.0000E+00  0.0000E+00
    -18.573  0.0000E+00  0.0000E+00
    -18.564  0.0000E+00  0.0000E+00
    -18.556  0.0000E+00  0.0000E+00
    -18.548  0.0000E+00  0.0000E+00
    -18.540  0.0000E+00  0.0000E+00
    -18.532  0.0000E+00  0.0000E+00
    -18.524  0.0000E+00  0.0000E+00
    -18.516  0.0000E+00  0.0000E+00
    -18.508  0.0000E+00  0.0000E+00
    -18.499  0.0000E+00  0.0000E+00
    -18.491  0.0000E+00  0.0000E+00
    -18.483  0.1128E-15  0.9175E-18
    -18.475  0.0000E+00  0.9175E-18
    -18.467  0.3385E-15  0.3670E-17
    -18.459  0.5641E-15  0.8258E-17
    -18.451  0.1579E-14  0.2110E-16
    -18.442  0.4626E-14  0.5872E-16
    -18.434  0.1027E-13  0.1422E-15
    -18.426  0.2538E-13  0.3487E-15
    -18.418  0.6081E-13  0.8432E-15
    -18.410  0.1442E-12  0.2016E-14
    -18.402  0.3364E-12  0.4752E-14
    -18.394  0.7756E-12  0.1106E-13
    -18.386  0.1766E-11  0.2542E-13
    -18.377  0.3970E-11  0.5771E-13
    -18.369  0.8811E-11  0.1294E-12
    -18.361  0.1930E-10  0.2864E-12
    -18.353  0.4175E-10  0.6259E-12
    -18.345  0.8917E-10  0.1351E-11
    -18.337  0.1880E-09  0.2880E-11
    -18.329  0.3914E-09  0.6064E-11
    -18.320  0.8046E-09  0.1261E-10
    -18.312  0.1633E-08  0.2589E-10
    -18.304  0.3273E-08  0.5251E-10
    -18.296  0.6476E-08  0.1052E-09
    -18.288  0.1266E-07  0.2081E-09
    -18.280  0.2442E-07  0.4067E-09
    -18.272  0.4653E-07  0.7851E-09
    -18.264  0.8756E-07  0.1497E-08
    -18.255  0.1627E-06  0.2820E-08
    -18.247  0.2986E-06  0.5249E-08
    -18.239  0.5412E-06  0.9650E-08
    -18.231  0.9686E-06  0.1753E-07
    -18.223  0.1712E-05  0.3145E-07
    -18.215  0.2990E-05  0.5577E-07
    -18.207  0.5156E-05  0.9770E-07
    -18.198  0.8781E-05  0.1691E-06
    -18.190  0.1477E-04  0.2893E-06
    -18.182  0.2455E-04  0.4889E-06
    -18.174  0.4029E-04  0.8166E-06
    -18.166  0.6533E-04  0.1348E-05
    -18.158  0.1046E-03  0.2199E-05
    -18.150  0.1655E-03  0.3545E-05
    -18.142  0.2587E-03  0.5649E-05
    -18.133  0.3994E-03  0.8897E-05
    -18.125  0.6091E-03  0.1385E-04
    -18.117  0.9177E-03  0.2131E-04
    -18.109  0.1366E-02  0.3242E-04
    -18.101  0.2009E-02  0.4876E-04
    -18.093  0.2918E-02  0.7250E-04
    -18.085  0.4189E-02  0.1066E-03
    -18.076  0.5941E-02  0.1549E-03
    -18.068  0.8324E-02  0.2226E-03
    -18.060  0.1153E-01  0.3163E-03
    -18.052  0.1577E-01  0.4446E-03
    -18.044  0.2132E-01  0.6179E-03
    -18.036  0.2848E-01  0.8495E-03
    -18.028  0.3760E-01  0.1155E-02
    -18.020  0.4906E-01  0.1554E-02
    -18.011  0.6327E-01  0.2069E-02
    -18.003  0.8065E-01  0.2725E-02
    -17.995  0.1016E+00  0.3551E-02
    -17.987  0.1267E+00  0.4581E-02
    -17.979  0.1560E+00  0.5851E-02
    -17.971  0.1901E+00  0.7397E-02
    -17.963  0.2292E+00  0.9261E-02
    -17.954  0.2732E+00  0.1148E-01
    -17.946  0.3223E+00  0.1410E-01
    -17.938  0.3764E+00  0.1717E-01
    -17.930  0.4351E+00  0.2070E-01
    -17.922  0.4980E+00  0.2475E-01
    -17.914  0.5646E+00  0.2935E-01
    -17.906  0.6342E+00  0.3450E-01
    -17.898  0.7061E+00  0.4025E-01
    -17.889  0.7795E+00  0.4659E-01
    -17.881  0.8535E+00  0.5353E-01
    -17.873  0.9271E+00  0.6107E-01
    -17.865  0.9996E+00  0.6920E-01
    -17.857  0.1070E+01  0.7790E-01
    -17.849  0.1138E+01  0.8715E-01
    -17.841  0.1202E+01  0.9692E-01
    -17.833  0.1261E+01  0.1072E+00
    -17.824  0.1316E+01  0.1179E+00
    -17.816  0.1366E+01  0.1290E+00
    -17.808  0.1410E+01  0.1405E+00
    -17.800  0.1449E+01  0.1522E+00
    -17.792  0.1481E+01  0.1643E+00
    -17.784  0.1508E+01  0.1766E+00
    -17.776  0.1529E+01  0.1890E+00
    -17.767  0.1546E+01  0.2016E+00
    -17.759  0.1559E+01  0.2142E+00
    -17.751  0.1568E+01  0.2270E+00
    -17.743  0.1575E+01  0.2398E+00
    -17.735  0.1580E+01  0.2527E+00
    -17.727  0.1586E+01  0.2656E+00
    -17.719  0.1592E+01  0.2785E+00
    -17.711  0.1600E+01  0.2915E+00
    -17.702  0.1610E+01  0.3046E+00
    -17.694  0.1622E+01  0.3178E+00
    -17.686  0.1636E+01  0.3311E+00
    -17.678  0.1652E+01  0.3445E+00
    -17.670  0.1669E+01  0.3581E+00
    -17.662  0.1687E+01  0.3718E+00
    -17.654  0.1703E+01  0.3857E+00
    -17.645  0.1717E+01  0.3996E+00
    -17.637  0.1727E+01  0.4137E+00
    -17.629  0.1734E+01  0.4278E+00
    -17.621  0.1735E+01  0.4419E+00
    -17.613  0.1731E+01  0.4560E+00
    -17.605  0.1721E+01  0.4700E+00
    -17.597  0.1706E+01  0.4838E+00
    -17.589  0.1688E+01  0.4976E+00
    -17.580  0.1666E+01  0.5111E+00
    -17.572  0.1644E+01  0.5245E+00
    -17.564  0.1623E+01  0.5377E+00
    -17.556  0.1604E+01  0.5507E+00
    -17.548  0.1590E+01  0.5637E+00
    -17.540  0.1583E+01  0.5765E+00
    -17.532  0.1583E+01  0.5894E+00
    -17.523  0.1591E+01  0.6024E+00
    -17.515  0.1608E+01  0.6154E+00
    -17.507  0.1634E+01  0.6287E+00
    -17.499  0.1666E+01  0.6423E+00
    -17.491  0.1705E+01  0.6561E+00
    -17.483  0.1749E+01  0.6704E+00
    -17.475  0.1794E+01  0.6850E+00
    -17.467  0.1838E+01  0.6999E+00
    -17.458  0.1879E+01  0.7152E+00
    -17.450  0.1915E+01  0.7308E+00
    -17.442  0.1943E+01  0.7466E+00
    -17.434  0.1962E+01  0.7625E+00
    -17.426  0.1970E+01  0.7785E+00
    -17.418  0.1968E+01  0.7945E+00
    -17.410  0.1954E+01  0.8104E+00
    -17.401  0.1931E+01  0.8261E+00
    -17.393  0.1899E+01  0.8416E+00
    -17.385  0.1861E+01  0.8567E+00
    -17.377  0.1818E+01  0.8715E+00
    -17.369  0.1773E+01  0.8859E+00
    -17.361  0.1730E+01  0.9000E+00
    -17.353  0.1690E+01  0.9137E+00
    -17.345  0.1657E+01  0.9272E+00
    -17.336  0.1633E+01  0.9405E+00
    -17.328  0.1619E+01  0.9537E+00
    -17.320  0.1617E+01  0.9668E+00
    -17.312  0.1629E+01  0.9801E+00
    -17.304  0.1655E+01  0.9935E+00
    -17.296  0.1694E+01  0.1007E+01
    -17.288  0.1745E+01  0.1021E+01
    -17.279  0.1809E+01  0.1036E+01
    -17.271  0.1881E+01  0.1052E+01
    -17.263  0.1961E+01  0.1067E+01
    -17.255  0.2046E+01  0.1084E+01
    -17.247  0.2131E+01  0.1101E+01
    -17.239  0.2215E+01  0.1119E+01
    -17.231  0.2294E+01  0.1138E+01
    -17.223  0.2365E+01  0.1157E+01
    -17.214  0.2425E+01  0.1177E+01
    -17.206  0.2473E+01  0.1197E+01
    -17.198  0.2506E+01  0.1218E+01
    -17.190  0.2525E+01  0.1238E+01
    -17.182  0.2529E+01  0.1259E+01
    -17.174  0.2519E+01  0.1279E+01
    -17.166  0.2497E+01  0.1299E+01
    -17.157  0.2464E+01  0.1320E+01
    -17.149  0.2424E+01  0.1339E+01
    -17.141  0.2380E+01  0.1359E+01
    -17.133  0.2334E+01  0.1378E+01
    -17.125  0.2290E+01  0.1396E+01
    -17.117  0.2250E+01  0.1414E+01
    -17.109  0.2218E+01  0.1433E+01
    -17.101  0.2196E+01  0.1450E+01
    -17.092  0.2183E+01  0.1468E+01
    -17.084  0.2183E+01  0.1486E+01
    -17.076  0.2192E+01  0.1504E+01
    -17.068  0.2212E+01  0.1522E+01
    -17.060  0.2240E+01  0.1540E+01
    -17.052  0.2274E+01  0.1558E+01
    -17.044  0.2310E+01  0.1577E+01
    -17.035  0.2345E+01  0.1596E+01
    -17.027  0.2376E+01  0.1616E+01
    -17.019  0.2399E+01  0.1635E+01
    -17.011  0.2410E+01  0.1655E+01
    -17.003  0.2407E+01  0.1674E+01
    -16.995  0.2387E+01  0.1694E+01
    -16.987  0.2350E+01  0.1713E+01
    -16.979  0.2293E+01  0.1731E+01
    -16.970  0.2218E+01  0.1750E+01
    -16.962  0.2126E+01  0.1767E+01
    -16.954  0.2018E+01  0.1783E+01
    -16.946  0.1899E+01  0.1799E+01
    -16.938  0.1770E+01  0.1813E+01
    -16.930  0.1636E+01  0.1826E+01
    -16.922  0.1501E+01  0.1839E+01
    -16.913  0.1368E+01  0.1850E+01
    -16.905  0.1240E+01  0.1860E+01
    -16.897  0.1121E+01  0.1869E+01
    -16.889  0.1013E+01  0.1877E+01
    -16.881  0.9185E+00  0.1885E+01
    -16.873  0.8376E+00  0.1891E+01
    -16.865  0.7710E+00  0.1898E+01
    -16.857  0.7183E+00  0.1904E+01
    -16.848  0.6785E+00  0.1909E+01
    -16.840  0.6501E+00  0.1914E+01
    -16.832  0.6312E+00  0.1919E+01
    -16.824  0.6198E+00  0.1925E+01
    -16.816  0.6135E+00  0.1930E+01
    -16.808  0.6101E+00  0.1934E+01
    -16.800  0.6075E+00  0.1939E+01
    -16.791  0.6038E+00  0.1944E+01
    -16.783  0.5975E+00  0.1949E+01
    -16.775  0.5875E+00  0.1954E+01
    -16.767  0.5730E+00  0.1959E+01
    -16.759  0.5537E+00  0.1963E+01
    -16.751  0.5297E+00  0.1967E+01
    -16.743  0.5013E+00  0.1972E+01
    -16.735  0.4692E+00  0.1975E+01
    -16.726  0.4345E+00  0.1979E+01
    -16.718  0.3982E+00  0.1982E+01
    -16.710  0.3615E+00  0.1985E+01
    -16.702  0.3256E+00  0.1988E+01
    -16.694  0.2916E+00  0.1990E+01
    -16.686  0.2606E+00  0.1992E+01
    -16.678  0.2335E+00  0.1994E+01
    -16.669  0.2112E+00  0.1996E+01
    -16.661  0.1943E+00  0.1997E+01
    -16.653  0.1832E+00  0.1999E+01
    -16.645  0.1782E+00  0.2000E+01
    -16.637  0.1796E+00  0.2002E+01
    -16.629  0.1872E+00  0.2003E+01
    -16.621  0.2008E+00  0.2005E+01
    -16.613  0.2201E+00  0.2007E+01
    -16.604  0.2445E+00  0.2009E+01
    -16.596  0.2733E+00  0.2011E+01
    -16.588  0.3057E+00  0.2013E+01
    -16.580  0.3406E+00  0.2016E+01
    -16.572  0.3770E+00  0.2019E+01
    -16.564  0.4137E+00  0.2023E+01
    -16.556  0.4494E+00  0.2026E+01
    -16.548  0.4830E+00  0.2030E+01
    -16.539  0.5136E+00  0.2034E+01
    -16.531  0.5402E+00  0.2039E+01
    -16.523  0.5623E+00  0.2043E+01
    -16.515  0.5796E+00  0.2048E+01
    -16.507  0.5924E+00  0.2053E+01
    -16.499  0.6010E+00  0.2058E+01
    -16.491  0.6066E+00  0.2063E+01
    -16.482  0.6105E+00  0.2068E+01
    -16.474  0.6146E+00  0.2073E+01
    -16.466  0.6210E+00  0.2078E+01
    -16.458  0.6320E+00  0.2083E+01
    -16.450  0.6500E+00  0.2088E+01
    -16.442  0.6776E+00  0.2094E+01
    -16.434  0.7169E+00  0.2099E+01
    -16.426  0.7698E+00  0.2106E+01
    -16.417  0.8379E+00  0.2113E+01
    -16.409  0.9219E+00  0.2120E+01
    -16.401  0.1022E+01  0.2128E+01
    -16.393  0.1137E+01  0.2138E+01
    -16.385  0.1266E+01  0.2148E+01
    -16.377  0.1407E+01  0.2159E+01
    -16.369  0.1556E+01  0.2172E+01
    -16.360  0.1709E+01  0.2186E+01
    -16.352  0.1862E+01  0.2201E+01
    -16.344  0.2011E+01  0.2217E+01
    -16.336  0.2151E+01  0.2235E+01
    -16.328  0.2276E+01  0.2253E+01
    -16.320  0.2384E+01  0.2273E+01
    -16.312  0.2470E+01  0.2293E+01
    -16.304  0.2533E+01  0.2313E+01
    -16.295  0.2570E+01  0.2334E+01
    -16.287  0.2580E+01  0.2355E+01
    -16.279  0.2565E+01  0.2376E+01
    -16.271  0.2526E+01  0.2397E+01
    -16.263  0.2466E+01  0.2417E+01
    -16.255  0.2387E+01  0.2436E+01
    -16.247  0.2294E+01  0.2455E+01
    -16.238  0.2191E+01  0.2473E+01
    -16.230  0.2083E+01  0.2490E+01
    -16.222  0.1974E+01  0.2506E+01
    -16.214  0.1868E+01  0.2521E+01
    -16.206  0.1769E+01  0.2535E+01
    -16.198  0.1679E+01  0.2549E+01
    -16.190  0.1602E+01  0.2562E+01
    -16.182  0.1538E+01  0.2574E+01
    -16.173  0.1489E+01  0.2587E+01
    -16.165  0.1455E+01  0.2598E+01
    -16.157  0.1435E+01  0.2610E+01
    -16.149  0.1428E+01  0.2622E+01
    -16.141  0.1433E+01  0.2633E+01
    -16.133  0.1447E+01  0.2645E+01
    -16.125  0.1469E+01  0.2657E+01
    -16.116  0.1496E+01  0.2669E+01
    -16.108  0.1526E+01  0.2682E+01
    -16.100  0.1558E+01  0.2694E+01
    -16.092  0.1589E+01  0.2707E+01
    -16.084  0.1618E+01  0.2720E+01
    -16.076  0.1645E+01  0.2734E+01
    -16.068  0.1668E+01  0.2747E+01
    -16.060  0.1687E+01  0.2761E+01
    -16.051  0.1701E+01  0.2775E+01
    -16.043  0.1711E+01  0.2789E+01
    -16.035  0.1716E+01  0.2803E+01
    -16.027  0.1716E+01  0.2817E+01
    -16.019  0.1710E+01  0.2831E+01
    -16.011  0.1700E+01  0.2844E+01
    -16.003  0.1685E+01  0.2858E+01
    -15.994  0.1664E+01  0.2872E+01
    -15.986  0.1638E+01  0.2885E+01
    -15.978  0.1607E+01  0.2898E+01
    -15.970  0.1571E+01  0.2911E+01
    -15.962  0.1530E+01  0.2923E+01
    -15.954  0.1485E+01  0.2935E+01
    -15.946  0.1436E+01  0.2947E+01
    -15.938  0.1384E+01  0.2958E+01
    -15.929  0.1330E+01  0.2969E+01
    -15.921  0.1274E+01  0.2980E+01
    -15.913  0.1216E+01  0.2989E+01
    -15.905  0.1158E+01  0.2999E+01
    -15.897  0.1100E+01  0.3008E+01
    -15.889  0.1042E+01  0.3016E+01
    -15.881  0.9856E+00  0.3024E+01
    -15.872  0.9300E+00  0.3032E+01
    -15.864  0.8762E+00  0.3039E+01
    -15.856  0.8250E+00  0.3046E+01
    -15.848  0.7769E+00  0.3052E+01
    -15.840  0.7330E+00  0.3058E+01
    -15.832  0.6941E+00  0.3064E+01
    -15.824  0.6614E+00  0.3069E+01
    -15.816  0.6360E+00  0.3074E+01
    -15.807  0.6190E+00  0.3079E+01
    -15.799  0.6114E+00  0.3084E+01
    -15.791  0.6140E+00  0.3089E+01
    -15.783  0.6274E+00  0.3094E+01
    -15.775  0.6518E+00  0.3100E+01
    -15.767  0.6870E+00  0.3105E+01
    -15.759  0.7324E+00  0.3111E+01
    -15.750  0.7870E+00  0.3117E+01
    -15.742  0.8494E+00  0.3124E+01
    -15.734  0.9176E+00  0.3132E+01
    -15.726  0.9895E+00  0.3140E+01
    -15.718  0.1063E+01  0.3149E+01
    -15.710  0.1135E+01  0.3158E+01
    -15.702  0.1203E+01  0.3168E+01
    -15.694  0.1266E+01  0.3178E+01
    -15.685  0.1321E+01  0.3189E+01
    -15.677  0.1366E+01  0.3200E+01
    -15.669  0.1399E+01  0.3211E+01
    -15.661  0.1421E+01  0.3223E+01
    -15.653  0.1430E+01  0.3234E+01
    -15.645  0.1426E+01  0.3246E+01
    -15.637  0.1410E+01  0.3257E+01
    -15.628  0.1382E+01  0.3269E+01
    -15.620  0.1344E+01  0.3280E+01
    -15.612  0.1297E+01  0.3290E+01
    -15.604  0.1241E+01  0.3300E+01
    -15.596  0.1179E+01  0.3310E+01
    -15.588  0.1113E+01  0.3319E+01
    -15.580  0.1043E+01  0.3327E+01
    -15.572  0.9715E+00  0.3335E+01
    -15.563  0.9002E+00  0.3342E+01
    -15.555  0.8304E+00  0.3349E+01
    -15.547  0.7636E+00  0.3355E+01
    -15.539  0.7011E+00  0.3361E+01
    -15.531  0.6441E+00  0.3366E+01
    -15.523  0.5937E+00  0.3371E+01
    -15.515  0.5506E+00  0.3376E+01
    -15.506  0.5155E+00  0.3380E+01
    -15.498  0.4887E+00  0.3384E+01
    -15.490  0.4702E+00  0.3388E+01
    -15.482  0.4600E+00  0.3391E+01
    -15.474  0.4573E+00  0.3395E+01
    -15.466  0.4614E+00  0.3399E+01
    -15.458  0.4712E+00  0.3403E+01
    -15.450  0.4854E+00  0.3407E+01
    -15.441  0.5026E+00  0.3411E+01
    -15.433  0.5212E+00  0.3415E+01
    -15.425  0.5399E+00  0.3419E+01
    -15.417  0.5571E+00  0.3424E+01
    -15.409  0.5717E+00  0.3429E+01
    -15.401  0.5827E+00  0.3433E+01
    -15.393  0.5896E+00  0.3438E+01
    -15.385  0.5921E+00  0.3443E+01
    -15.376  0.5903E+00  0.3448E+01
    -15.368  0.5848E+00  0.3452E+01
    -15.360  0.5766E+00  0.3457E+01
    -15.352  0.5669E+00  0.3462E+01
    -15.344  0.5571E+00  0.3466E+01
    -15.336  0.5489E+00  0.3471E+01
    -15.328  0.5439E+00  0.3475E+01
    -15.319  0.5439E+00  0.3480E+01
    -15.311  0.5501E+00  0.3484E+01
    -15.303  0.5637E+00  0.3489E+01
    -15.295  0.5854E+00  0.3493E+01
    -15.287  0.6155E+00  0.3498E+01
    -15.279  0.6537E+00  0.3504E+01
    -15.271  0.6994E+00  0.3509E+01
    -15.263  0.7511E+00  0.3516E+01
    -15.254  0.8071E+00  0.3522E+01
    -15.246  0.8654E+00  0.3529E+01
    -15.238  0.9234E+00  0.3537E+01
    -15.230  0.9785E+00  0.3545E+01
    -15.222  0.1028E+01  0.3553E+01
    -15.214  0.1070E+01  0.3562E+01
    -15.206  0.1102E+01  0.3571E+01
    -15.197  0.1122E+01  0.3580E+01
    -15.189  0.1129E+01  0.3589E+01
    -15.181  0.1122E+01  0.3598E+01
    -15.173  0.1101E+01  0.3607E+01
    -15.165  0.1067E+01  0.3616E+01
    -15.157  0.1021E+01  0.3624E+01
    -15.149  0.9647E+00  0.3632E+01
    -15.141  0.8994E+00  0.3639E+01
    -15.132  0.8278E+00  0.3646E+01
    -15.124  0.7519E+00  0.3652E+01
    -15.116  0.6742E+00  0.3658E+01
    -15.108  0.5967E+00  0.3662E+01
    -15.100  0.5214E+00  0.3667E+01
    -15.092  0.4498E+00  0.3670E+01
    -15.084  0.3834E+00  0.3673E+01
    -15.075  0.3230E+00  0.3676E+01
    -15.067  0.2694E+00  0.3678E+01
    -15.059  0.2228E+00  0.3680E+01
    -15.051  0.1834E+00  0.3682E+01
    -15.043  0.1511E+00  0.3683E+01
    -15.035  0.1257E+00  0.3684E+01
    -15.027  0.1068E+00  0.3685E+01
    -15.019  0.9420E-01  0.3685E+01
    -15.010  0.8753E-01  0.3686E+01
    -15.002  0.8649E-01  0.3687E+01
    -14.994  0.9080E-01  0.3688E+01
    -14.986  0.1002E+00  0.3688E+01
    -14.978  0.1146E+00  0.3689E+01
    -14.970  0.1336E+00  0.3690E+01
    -14.962  0.1571E+00  0.3692E+01
    -14.953  0.1847E+00  0.3693E+01
    -14.945  0.2160E+00  0.3695E+01
    -14.937  0.2505E+00  0.3697E+01
    -14.929  0.2876E+00  0.3699E+01
    -14.921  0.3265E+00  0.3702E+01
    -14.913  0.3663E+00  0.3705E+01
    -14.905  0.4060E+00  0.3708E+01
    -14.897  0.4447E+00  0.3712E+01
    -14.888  0.4814E+00  0.3716E+01
    -14.880  0.5150E+00  0.3720E+01
    -14.872  0.5448E+00  0.3724E+01
    -14.864  0.5702E+00  0.3729E+01
    -14.856  0.5908E+00  0.3734E+01
    -14.848  0.6065E+00  0.3739E+01
    -14.840  0.6175E+00  0.3744E+01
    -14.831  0.6243E+00  0.3749E+01
    -14.823  0.6277E+00  0.3754E+01
    -14.815  0.6286E+00  0.3759E+01
    -14.807  0.6283E+00  0.3764E+01
    -14.799  0.6280E+00  0.3769E+01
    -14.791  0.6288E+00  0.3774E+01
    -14.783  0.6320E+00  0.3780E+01
    -14.775  0.6386E+00  0.3785E+01
    -14.766  0.6492E+00  0.3790E+01
    -14.758  0.6644E+00  0.3795E+01
    -14.750  0.6845E+00  0.3801E+01
    -14.742  0.7092E+00  0.3807E+01
    -14.734  0.7383E+00  0.3813E+01
    -14.726  0.7712E+00  0.3819E+01
    -14.718  0.8072E+00  0.3826E+01
    -14.709  0.8453E+00  0.3832E+01
    -14.701  0.8847E+00  0.3840E+01
    -14.693  0.9244E+00  0.3847E+01
    -14.685  0.9636E+00  0.3855E+01
    -14.677  0.1002E+01  0.3863E+01
    -14.669  0.1038E+01  0.3872E+01
    -14.661  0.1071E+01  0.3880E+01
    -14.653  0.1102E+01  0.3889E+01
    -14.644  0.1130E+01  0.3898E+01
    -14.636  0.1154E+01  0.3908E+01
    -14.628  0.1176E+01  0.3917E+01
    -14.620  0.1194E+01  0.3927E+01
    -14.612  0.1210E+01  0.3937E+01
    -14.604  0.1223E+01  0.3947E+01
    -14.596  0.1234E+01  0.3957E+01
    -14.587  0.1243E+01  0.3967E+01
    -14.579  0.1251E+01  0.3977E+01
    -14.571  0.1258E+01  0.3987E+01
    -14.563  0.1266E+01  0.3998E+01
    -14.555  0.1274E+01  0.4008E+01
    -14.547  0.1284E+01  0.4019E+01
    -14.539  0.1296E+01  0.4029E+01
    -14.531  0.1311E+01  0.4040E+01
    -14.522  0.1330E+01  0.4051E+01
    -14.514  0.1353E+01  0.4062E+01
    -14.506  0.1380E+01  0.4073E+01
    -14.498  0.1411E+01  0.4084E+01
    -14.490  0.1446E+01  0.4096E+01
    -14.482  0.1486E+01  0.4108E+01
    -14.474  0.1528E+01  0.4121E+01
    -14.465  0.1574E+01  0.4133E+01
    -14.457  0.1621E+01  0.4147E+01
    -14.449  0.1669E+01  0.4160E+01
    -14.441  0.1717E+01  0.4174E+01
    -14.433  0.1765E+01  0.4188E+01
    -14.425  0.1811E+01  0.4203E+01
    -14.417  0.1855E+01  0.4218E+01
    -14.409  0.1896E+01  0.4234E+01
    -14.400  0.1934E+01  0.4249E+01
    -14.392  0.1968E+01  0.4265E+01
    -14.384  0.1999E+01  0.4282E+01
    -14.376  0.2024E+01  0.4298E+01
    -14.368  0.2045E+01  0.4315E+01
    -14.360  0.2062E+01  0.4332E+01
    -14.352  0.2073E+01  0.4348E+01
    -14.343  0.2079E+01  0.4365E+01
    -14.335  0.2080E+01  0.4382E+01
    -14.327  0.2076E+01  0.4399E+01
    -14.319  0.2069E+01  0.4416E+01
    -14.311  0.2059E+01  0.4433E+01
    -14.303  0.2048E+01  0.4449E+01
    -14.295  0.2037E+01  0.4466E+01
    -14.287  0.2028E+01  0.4482E+01
    -14.278  0.2023E+01  0.4499E+01
    -14.270  0.2025E+01  0.4515E+01
    -14.262  0.2034E+01  0.4532E+01
    -14.254  0.2052E+01  0.4549E+01
    -14.246  0.2082E+01  0.4565E+01
    -14.238  0.2123E+01  0.4583E+01
    -14.230  0.2175E+01  0.4600E+01
    -14.222  0.2237E+01  0.4619E+01
    -14.213  0.2309E+01  0.4637E+01
    -14.205  0.2388E+01  0.4657E+01
    -14.197  0.2471E+01  0.4677E+01
    -14.189  0.2557E+01  0.4698E+01
    -14.181  0.2641E+01  0.4719E+01
    -14.173  0.2721E+01  0.4741E+01
    -14.165  0.2795E+01  0.4764E+01
    -14.156  0.2860E+01  0.4787E+01
    -14.148  0.2915E+01  0.4811E+01
    -14.140  0.2958E+01  0.4835E+01
    -14.132  0.2990E+01  0.4859E+01
    -14.124  0.3010E+01  0.4884E+01
    -14.116  0.3019E+01  0.4908E+01
    -14.108  0.3019E+01  0.4933E+01
    -14.100  0.3012E+01  0.4957E+01
    -14.091  0.2998E+01  0.4982E+01
    -14.083  0.2980E+01  0.5006E+01
    -14.075  0.2961E+01  0.5030E+01
    -14.067  0.2940E+01  0.5054E+01
    -14.059  0.2920E+01  0.5078E+01
    -14.051  0.2902E+01  0.5101E+01
    -14.043  0.2887E+01  0.5125E+01
    -14.034  0.2874E+01  0.5148E+01
    -14.026  0.2864E+01  0.5172E+01
    -14.018  0.2858E+01  0.5195E+01
    -14.010  0.2853E+01  0.5218E+01
    -14.002  0.2851E+01  0.5241E+01
    -13.994  0.2849E+01  0.5264E+01
    -13.986  0.2846E+01  0.5288E+01
    -13.978  0.2842E+01  0.5311E+01
    -13.969  0.2835E+01  0.5334E+01
    -13.961  0.2824E+01  0.5357E+01
    -13.953  0.2808E+01  0.5379E+01
    -13.945  0.2786E+01  0.5402E+01
    -13.937  0.2756E+01  0.5425E+01
    -13.929  0.2719E+01  0.5447E+01
    -13.921  0.2675E+01  0.5468E+01
    -13.912  0.2624E+01  0.5490E+01
    -13.904  0.2566E+01  0.5511E+01
    -13.896  0.2504E+01  0.5531E+01
    -13.888  0.2438E+01  0.5551E+01
    -13.880  0.2370E+01  0.5570E+01
    -13.872  0.2303E+01  0.5589E+01
    -13.864  0.2237E+01  0.5607E+01
    -13.856  0.2174E+01  0.5625E+01
    -13.847  0.2116E+01  0.5642E+01
    -13.839  0.2064E+01  0.5659E+01
    -13.831  0.2018E+01  0.5675E+01
    -13.823  0.1979E+01  0.5691E+01
    -13.815  0.1945E+01  0.5707E+01
    -13.807  0.1916E+01  0.5723E+01
    -13.799  0.1891E+01  0.5738E+01
    -13.790  0.1868E+01  0.5753E+01
    -13.782  0.1847E+01  0.5768E+01
    -13.774  0.1824E+01  0.5783E+01
    -13.766  0.1800E+01  0.5798E+01
    -13.758  0.1773E+01  0.5812E+01
    -13.750  0.1742E+01  0.5826E+01
    -13.742  0.1706E+01  0.5840E+01
    -13.734  0.1664E+01  0.5854E+01
    -13.725  0.1617E+01  0.5867E+01
    -13.717  0.1564E+01  0.5880E+01
    -13.709  0.1506E+01  0.5892E+01
    -13.701  0.1442E+01  0.5904E+01
    -13.693  0.1374E+01  0.5915E+01
    -13.685  0.1301E+01  0.5925E+01
    -13.677  0.1225E+01  0.5935E+01
    -13.668  0.1146E+01  0.5945E+01
    -13.660  0.1065E+01  0.5953E+01
    -13.652  0.9832E+00  0.5961E+01
    -13.644  0.9008E+00  0.5969E+01
    -13.636  0.8189E+00  0.5975E+01
    -13.628  0.7385E+00  0.5981E+01
    -13.620  0.6604E+00  0.5987E+01
    -13.612  0.5854E+00  0.5991E+01
    -13.603  0.5142E+00  0.5996E+01
    -13.595  0.4474E+00  0.5999E+01
    -13.587  0.3855E+00  0.6002E+01
    -13.579  0.3289E+00  0.6005E+01
    -13.571  0.2777E+00  0.6007E+01
    -13.563  0.2320E+00  0.6009E+01
    -13.555  0.1918E+00  0.6011E+01
    -13.546  0.1568E+00  0.6012E+01
    -13.538  0.1268E+00  0.6013E+01
    -13.530  0.1014E+00  0.6014E+01
    -13.522  0.8021E-01  0.6014E+01
    -13.514  0.6270E-01  0.6015E+01
    -13.506  0.4845E-01  0.6015E+01
    -13.498  0.3700E-01  0.6016E+01
    -13.490  0.2793E-01  0.6016E+01
    -13.481  0.2084E-01  0.6016E+01
    -13.473  0.1536E-01  0.6016E+01
    -13.465  0.1119E-01  0.6016E+01
    -13.457  0.8067E-02  0.6016E+01
    -13.449  0.5753E-02  0.6016E+01
    -13.441  0.4069E-02  0.6016E+01
    -13.433  0.2869E-02  0.6016E+01
    -13.424  0.2041E-02  0.6017E+01
    -13.416  0.1499E-02  0.6017E+01
    -13.408  0.1186E-02  0.6017E+01
    -13.400  0.1067E-02  0.6017E+01
    -13.392  0.1129E-02  0.6017E+01
    -13.384  0.1380E-02  0.6017E+01
    -13.376  0.1850E-02  0.6017E+01
    -13.368  0.2589E-02  0.6017E+01
    -13.359  0.3675E-02  0.6017E+01
    -13.351  0.5210E-02  0.6017E+01
    -13.343  0.7328E-02  0.6017E+01
    -13.335  0.1020E-01  0.6017E+01
    -13.327  0.1401E-01  0.6017E+01
    -13.319  0.1901E-01  0.6017E+01
    -13.311  0.2547E-01  0.6017E+01
    -13.302  0.3367E-01  0.6018E+01
    -13.294  0.4392E-01  0.6018E+01
    -13.286  0.5655E-01  0.6018E+01
    -13.278  0.7185E-01  0.6019E+01
    -13.270  0.9009E-01  0.6020E+01
    -13.262  0.1115E+00  0.6021E+01
    -13.254  0.1361E+00  0.6022E+01
    -13.246  0.1641E+00  0.6023E+01
    -13.237  0.1951E+00  0.6025E+01
    -13.229  0.2290E+00  0.6026E+01
    -13.221  0.2653E+00  0.6029E+01
    -13.213  0.3033E+00  0.6031E+01
    -13.205  0.3421E+00  0.6034E+01
    -13.197  0.3809E+00  0.6037E+01
    -13.189  0.4185E+00  0.6040E+01
    -13.180  0.4538E+00  0.6044E+01
    -13.172  0.4856E+00  0.6048E+01
    -13.164  0.5128E+00  0.6052E+01
    -13.156  0.5344E+00  0.6057E+01
    -13.148  0.5496E+00  0.6061E+01
    -13.140  0.5578E+00  0.6066E+01
    -13.132  0.5587E+00  0.6070E+01
    -13.124  0.5523E+00  0.6075E+01
    -13.115  0.5387E+00  0.6079E+01
    -13.107  0.5186E+00  0.6083E+01
    -13.099  0.4928E+00  0.6087E+01
    -13.091  0.4620E+00  0.6091E+01
    -13.083  0.4275E+00  0.6094E+01
    -13.075  0.3904E+00  0.6098E+01
    -13.067  0.3519E+00  0.6100E+01
    -13.059  0.3130E+00  0.6103E+01
    -13.050  0.2748E+00  0.6105E+01
    -13.042  0.2383E+00  0.6107E+01
    -13.034  0.2040E+00  0.6109E+01
    -13.026  0.1726E+00  0.6110E+01
    -13.018  0.1444E+00  0.6111E+01
    -13.010  0.1198E+00  0.6112E+01
    -13.002  0.9886E-01  0.6113E+01
    -12.993  0.8161E-01  0.6114E+01
    -12.985  0.6806E-01  0.6114E+01
    -12.977  0.5821E-01  0.6115E+01
    -12.969  0.5206E-01  0.6115E+01
    -12.961  0.4966E-01  0.6116E+01
    -12.953  0.5117E-01  0.6116E+01
    -12.945  0.5681E-01  0.6117E+01
    -12.937  0.6695E-01  0.6117E+01
    -12.928  0.8206E-01  0.6118E+01
    -12.920  0.1027E+00  0.6119E+01
    -12.912  0.1296E+00  0.6120E+01
    -12.904  0.1634E+00  0.6121E+01
    -12.896  0.2050E+00  0.6123E+01
    -12.888  0.2550E+00  0.6125E+01
    -12.880  0.3143E+00  0.6127E+01
    -12.871  0.3832E+00  0.6130E+01
    -12.863  0.4622E+00  0.6134E+01
    -12.855  0.5514E+00  0.6139E+01
    -12.847  0.6505E+00  0.6144E+01
    -12.839  0.7590E+00  0.6150E+01
    -12.831  0.8759E+00  0.6157E+01
    -12.823  0.9998E+00  0.6165E+01
    -12.815  0.1129E+01  0.6175E+01
    -12.806  0.1261E+01  0.6185E+01
    -12.798  0.1394E+01  0.6196E+01
    -12.790  0.1526E+01  0.6209E+01
    -12.782  0.1652E+01  0.6222E+01
    -12.774  0.1771E+01  0.6236E+01
    -12.766  0.1881E+01  0.6252E+01
    -12.758  0.1978E+01  0.6268E+01
    -12.749  0.2061E+01  0.6285E+01
    -12.741  0.2127E+01  0.6302E+01
    -12.733  0.2177E+01  0.6320E+01
    -12.725  0.2210E+01  0.6338E+01
    -12.717  0.2225E+01  0.6356E+01
    -12.709  0.2223E+01  0.6374E+01
    -12.701  0.2205E+01  0.6392E+01
    -12.693  0.2173E+01  0.6409E+01
    -12.684  0.2130E+01  0.6427E+01
    -12.676  0.2076E+01  0.6444E+01
    -12.668  0.2016E+01  0.6460E+01
    -12.660  0.1953E+01  0.6476E+01