Lattice                                 
           1
     4.195893    2.422500    0.000000
    -4.195893    2.422500    0.000000
     0.000000    0.000000   15.000000
   B    C 
     4    11
Direct configuration=     1
   0.00415361  0.00267210  0.12034134
   0.35695335  0.00285503  0.09748893
   0.00423858  0.35550699  0.09749256
   0.65142295  0.65006557  0.09747688
   0.32808646  0.32671938  0.10030508
   0.68027775  0.00278085  0.10027562
   0.00416530  0.67883808  0.10026559
   0.99999933  0.49999967  0.33373333
   0.16666633  0.33333267  0.33373333
   0.99999933  0.99999967  0.33373333
   0.16666633  0.83333267  0.33373333
   0.49999933  0.49999967  0.33373333
   0.66666633  0.33333267  0.33373333
   0.49999933  0.99999967  0.33373333
   0.66666633  0.83333267  0.33373333
Direct configuration=     2
   0.00418054  0.00275260  0.11923511
   0.35585227  0.00303316  0.09783045
   0.00395852  0.35418154  0.09783254
   0.65274161  0.65112332  0.09782186
   0.32472823  0.32301640  0.10029601
   0.68394192  0.00310634  0.10027451
   0.00388518  0.68221852  0.10026720
   0.00012694  0.49997564  0.33374228
   0.16687232  0.33394417  0.33380175
   0.99999921  0.99999366  0.33363283
   0.16706440  0.83312531  0.33380463
   0.50003955  0.50016380  0.33374516
   0.66666626  0.33333787  0.33368510
   0.49985037  0.99987114  0.33374181
   0.66605336  0.83292388  0.33380143
Direct configuration=     3
   0.00416612  0.00270951  0.11982729
   0.35644169  0.00293780  0.09764763
   0.00410844  0.35489107  0.09765055
   0.65203572  0.65055709  0.09763719
   0.32652594  0.32499865  0.10030087
   0.68198044  0.00293210  0.10027510
   0.00403513  0.68040893  0.10026634
   0.00005863  0.49998850  0.33373749
   0.16676205  0.33361682  0.33376512
   0.99999927  0.99999688  0.33368663
   0.16685131  0.83323631  0.33376646
   0.50001802  0.50007594  0.33373883
   0.66666630  0.33333508  0.33371092
   0.49993011  0.99993994  0.33373727
   0.66638149  0.83314271  0.33376498
Direct configuration=     4
   0.00418016  0.00276566  0.11891833
   0.35687990  0.00305370  0.09795083
   0.00391005  0.35518731  0.09795221
   0.65175429  0.65008859  0.09794372
   0.32662706  0.32488178  0.10026265
   0.68207619  0.00312519  0.10024461
   0.00385533  0.68032620  0.10023793
  -0.00008081  0.50001009  0.33375728
   0.16662205  0.33315313  0.33380959
   0.99999998  0.00000278  0.33362935
   0.16654020  0.83338373  0.33381309
   0.49998539  0.49990705  0.33376076
   0.66666941  0.33333223  0.33366659
   0.50008862  0.00008111  0.33375664
   0.66685285  0.83346878  0.33380910
Direct configuration=     5
   0.00419929  0.00284218  0.11767966
   0.35747707  0.00321165  0.09836400
   0.00363971  0.35559100  0.09836329
   0.65137077  0.64945015  0.09836144
   0.32676486  0.32472251  0.10021057
   0.68220668  0.00338832  0.10020304
   0.00361031  0.68021346  0.10019922
  -0.00027083  0.50003951  0.33378425
   0.16643126  0.33252125  0.33387018
   0.00000093  0.00001083  0.33355128
   0.16611625  0.83358463  0.33387663
   0.49994093  0.49967690  0.33379064
   0.66667364  0.33332834  0.33360618
   0.50030462  0.00027348  0.33378303
   0.66749518  0.83391314  0.33386923
Direct configuration=     6
   0.00420166  0.00285249  0.11743830
   0.35758484  0.00323079  0.09843464
   0.00360490  0.35567560  0.09843358
   0.65129089  0.64933645  0.09843282
   0.32683017  0.32475399  0.10021009
   0.68217140  0.00341601  0.10020445
   0.00358197  0.68015211  0.10020108
  -0.00023787  0.50003652  0.33379002
   0.16644823  0.33259799  0.33387846
   0.00000224  0.00001032  0.33354342
   0.16617338  0.83356659  0.33388531
   0.49994749  0.49971408  0.33379680
   0.66667315  0.33332916  0.33359756
   0.50027081  0.00024171  0.33378869
   0.66741741  0.83385352  0.33387743
Direct configuration=     7
   0.00420877  0.00288342  0.11671422
   0.35790815  0.00328823  0.09864655
   0.00350049  0.35592937  0.09864446
   0.65105124  0.64899535  0.09864695
   0.32702612  0.32484845  0.10020866
   0.68206556  0.00349907  0.10020865
   0.00349695  0.67996807  0.10020667
  -0.00013896  0.50002757  0.33380732
   0.16649914  0.33282823  0.33390329
   0.00000615  0.00000881  0.33351984
   0.16634476  0.83351246  0.33391135
   0.49996716  0.49982562  0.33381527
   0.66667166  0.33333161  0.33357170
   0.50016937  0.00014641  0.33380569
   0.66718410  0.83367465  0.33390203
Direct configuration=     8
   0.00422299  0.00294529  0.11526607
   0.35855477  0.00340311  0.09907036
   0.00329165  0.35643693  0.09906621
   0.65057195  0.64831314  0.09907521
   0.32741801  0.32503737  0.10020581
   0.68185387  0.00366521  0.10021706
   0.00332692  0.67959999  0.10021785
   0.00005885  0.50000966  0.33384192
   0.16660096  0.33328871  0.33395296
   0.00001399  0.00000578  0.33347268
   0.16668753  0.83340420  0.33396343
   0.50000649  0.50004869  0.33385222
   0.66666869  0.33333651  0.33351996
   0.49996650 -0.00004419  0.33383968
   0.66671750  0.83331693  0.33395124
Direct configuration=     9
   0.00425142  0.00306903  0.11236976
   0.35984802  0.00363286  0.09991800
   0.00287397  0.35745204  0.09990971
   0.64961336  0.64694874  0.09993173
   0.32820178  0.32541520  0.10020009
   0.68143051  0.00399747  0.10023389
   0.00298685  0.67886384  0.10024021
   0.00045448  0.49997384  0.33391112
   0.16680460  0.33420967  0.33405228
   0.00002965 -0.00000027  0.33337835
   0.16737307  0.83318769  0.33406759
   0.50008516  0.50049483  0.33392612
   0.66666274  0.33334632  0.33341649
   0.49956077 -0.00042539  0.33390767
   0.66578428  0.83260148  0.33404964
Direct configuration=    10
   0.00423329  0.00299012  0.11421663
   0.35902336  0.00348636  0.09937749
   0.00314031  0.35680474  0.09937184
   0.65022462  0.64781877  0.09938556
   0.32770200  0.32517427  0.10020373
   0.68170047  0.00378560  0.10022316
   0.00320370  0.67933326  0.10022596
   0.00020220  0.49999668  0.33386700
   0.16667475  0.33362241  0.33398895
   0.00001966  0.00000359  0.33343850
   0.16693593  0.83332575  0.33400117
   0.50003500  0.50021034  0.33387900
   0.66666653  0.33334007  0.33348247
   0.49981949 -0.00018231  0.33386432
   0.66637936  0.83305769  0.33398689
Direct configuration=    11
   0.00423065  0.00298186  0.11367933
   0.35901620  0.00345518  0.09946208
   0.00318130  0.35683785  0.09945628
   0.65019853  0.64782559  0.09947053
   0.32772974  0.32527977  0.10027542
   0.68159794  0.00370191  0.10029728
   0.00326678  0.67930677  0.10030044
   0.00013166  0.50000719  0.33387844
   0.16672818  0.33362468  0.33398520
   0.00001215  0.00000299  0.33347003
   0.16689996  0.83328227  0.33399711
   0.50001738  0.50013335  0.33389001
   0.66667338  0.33334099  0.33349175
   0.49988955 -0.00011792  0.33387564
   0.66638726  0.83310485  0.33398312
Direct configuration=    12
   0.00422274  0.00295705  0.11206745
   0.35899471  0.00336166  0.09971583
   0.00330428  0.35693718  0.09970958
   0.65012025  0.64784606  0.09972545
   0.32781296  0.32559628  0.10049047
   0.68129033  0.00345084  0.10051964
   0.00345600  0.67922732  0.10052391
  -0.00007996  0.50003873  0.33391279
   0.16688849  0.33363148  0.33397397
  -0.00001039  0.00000120  0.33356461
   0.16679206  0.83315184  0.33398490
   0.49996455  0.49990238  0.33392307
   0.66669394  0.33334377  0.33351960
   0.50009974  0.00007526  0.33390962
   0.66641096  0.83324630  0.33397181
Direct configuration=    13
   0.00420691  0.00290744  0.10884367
   0.35895174  0.00317460  0.10022333
   0.00355023  0.35713583  0.10021618
   0.64996370  0.64788699  0.10023527
   0.32797942  0.32622929  0.10092057
   0.68067512  0.00294871  0.10096436
   0.00383446  0.67906842  0.10097083
  -0.00050321  0.50010180  0.33398147
   0.16720911  0.33364509  0.33395151
  -0.00005547 -0.00000238  0.33375376
   0.16657625  0.83289097  0.33396049
   0.49985889  0.49944043  0.33398918
   0.66673505  0.33334933  0.33357529
   0.50052012  0.00046162  0.33397757
   0.66645836  0.83352920  0.33394918
Direct configuration=    14
   0.00420516  0.00289395  0.10796129
   0.35893413  0.00310878  0.10034534
   0.00365801  0.35719258  0.10033864
   0.64988977  0.64791551  0.10035684
   0.32793961  0.32631973  0.10105274
   0.68058258  0.00283389  0.10109808
   0.00394071  0.67907955  0.10110456
  -0.00022077  0.50001754  0.33398467
   0.16688341  0.33349351  0.33395239
  -0.00000154  0.00000758  0.33381324
   0.16666563  0.83316452  0.33396019
   0.49999833  0.49977780  0.33399095
   0.66669471  0.33334498  0.33362282
   0.50023643  0.00023283  0.33398068
   0.66655449  0.83338458  0.33395023
Direct configuration=    15
   0.00420341  0.00288046  0.10707849
   0.35891652  0.00304293  0.10046741
   0.00376584  0.35724936  0.10046116
   0.64981581  0.64794404  0.10047847
   0.32789978  0.32641021  0.10118496
   0.68049000  0.00271902  0.10123187
   0.00404701  0.67909069  0.10123836
   0.00006181  0.49993325  0.33398787
   0.16655756  0.33334186  0.33395327
   0.00005242  0.00001755  0.33387275
   0.16675505  0.83343820  0.33395989
   0.50013784  0.50011534  0.33399272
   0.66665435  0.33334063  0.33367038
   0.49995260  0.00000393  0.33398380
   0.66665067  0.83323988  0.33395127
Direct configuration=    16
   0.00420251  0.00287378  0.10686562
   0.35896310  0.00302958  0.10049981
   0.00380327  0.35730252  0.10049432
   0.64973105  0.64790889  0.10050969
   0.32784455  0.32633872  0.10121021
   0.68055703  0.00276273  0.10125462
   0.00403308  0.67911816  0.10126047
   0.00010049  0.49998535  0.33397313
   0.16661922  0.33336822  0.33396637
   0.00002773  0.00001287  0.33388382
   0.16676398  0.83340580  0.33397238
   0.50005675  0.50011902  0.33397729
   0.66668116  0.33334577  0.33371102
   0.49992096 -0.00006258  0.33396929
   0.66665578  0.83325851  0.33396461
Direct configuration=    17
   0.00420084  0.00286137  0.10646984
   0.35904972  0.00300475  0.10056005
   0.00387287  0.35740137  0.10055599
   0.64957346  0.64784353  0.10056774
   0.32774185  0.32620578  0.10125717
   0.68068167  0.00284400  0.10129692
   0.00400719  0.67916924  0.10130157
   0.00017240  0.50008221  0.33394574
   0.16673387  0.33341725  0.33399075
  -0.00001818  0.00000417  0.33390441
   0.16678056  0.83334555  0.33399559
   0.49990599  0.50012586  0.33394861
   0.66673100  0.33335534  0.33378658
   0.49986215 -0.00018625  0.33394231
   0.66666530  0.83329316  0.33398941
Direct configuration=    18
   0.00418792  0.00282677  0.10620786
   0.35915121  0.00299607  0.10061078
   0.00390915  0.35750567  0.10060812
   0.64942665  0.64775865  0.10061602
   0.32772743  0.32612254  0.10127186
   0.68077164  0.00295101  0.10130552
   0.00394770  0.67916578  0.10130881
   0.00007835  0.50005368  0.33392889
   0.16673978  0.33342651  0.33400994
   0.00001446  0.00001096  0.33392009
   0.16672596  0.83330205  0.33401394
   0.49997510  0.50003686  0.33393081
   0.66669619  0.33334947  0.33384509
   0.49999147 -0.00005168  0.33392591
   0.66661764  0.83331299  0.33400902
Direct configuration=    19
   0.00418086  0.00280786  0.10606475
   0.35920665  0.00299133  0.10063849
   0.00392897  0.35756265  0.10063660
   0.64934646  0.64771228  0.10064240
   0.32771955  0.32607707  0.10127989
   0.68082080  0.00300947  0.10131021
   0.00391520  0.67916390  0.10131276
   0.00002698  0.50003809  0.33391969
   0.16674302  0.33343157  0.33402043
   0.00003229  0.00001467  0.33392866
   0.16669613  0.83327829  0.33402396
   0.50001286  0.49998824  0.33392109
   0.66667718  0.33334627  0.33387705
   0.50006212  0.00002183  0.33391696
   0.66659160  0.83332382  0.33401974
Direct configuration=    20
   0.00416228  0.00276437  0.10591988
   0.35925685  0.00299934  0.10067711
   0.00392637  0.35761069  0.10067616
   0.64929085  0.64766929  0.10067907
   0.32778990  0.32609203  0.10127114
   0.68082277  0.00307426  0.10129578
   0.00386441  0.67911156  0.10129714
  -0.00000182  0.49997180  0.33392867
   0.16668161  0.33340789  0.33402330
   0.00003094  0.00001492  0.33394474
   0.16674264  0.83334567  0.33402667
   0.50007706  0.50002838  0.33392987
   0.66668017  0.33334647  0.33389387
   0.50001883  0.00004719  0.33392633
   0.66661781  0.83328350  0.33402291
Direct configuration=    21
   0.00414872  0.00273263  0.10581415
   0.35929350  0.00300518  0.10070530
   0.00392447  0.35764575  0.10070504
   0.64925026  0.64763792  0.10070584
   0.32784123  0.32610294  0.10126475
   0.68082422  0.00312155  0.10128525
   0.00382734  0.67907336  0.10128574
  -0.00002284  0.49992342  0.33393523
   0.16663679  0.33339060  0.33402540
   0.00002996  0.00001510  0.33395648
   0.16677659  0.83339484  0.33402865
   0.50012392  0.50005767  0.33393629
   0.66668235  0.33334661  0.33390615
   0.49998723  0.00006570  0.33393318
   0.66663693  0.83325407  0.33402522
Direct configuration=    22
   0.00413461  0.00269942  0.10566440
   0.35930575  0.00302750  0.10074696
   0.00390718  0.35764175  0.10074767
   0.64925162  0.64763153  0.10074534
   0.32790037  0.32612239  0.10124854
   0.68081603  0.00316556  0.10126210
   0.00378789  0.67902741  0.10126115
   0.00003220  0.49997103  0.33395877
   0.16666579  0.33339426  0.33402453
   0.00001801  0.00001270  0.33397485
   0.16677407  0.83338154  0.33402793
   0.50006257  0.50007430  0.33396002
   0.66669677  0.33334960  0.33390863
   0.49995720 -0.00000250  0.33395714
   0.66665060  0.83327084  0.33402465
Direct configuration=    23
   0.00412003  0.00266512  0.10550974
   0.35931841  0.00305055  0.10079000
   0.00388933  0.35763761  0.10079169
   0.64925302  0.64762494  0.10078613
   0.32796145  0.32614248  0.10123180
   0.68080757  0.00321102  0.10123818
   0.00374715  0.67897995  0.10123576
   0.00008905  0.50002021  0.33398309
   0.16669574  0.33339803  0.33402362
   0.00000567  0.00001023  0.33399382
   0.16677147  0.83336781  0.33402718
   0.49999922  0.50009148  0.33398453
   0.66671166  0.33335268  0.33391120
   0.49992619 -0.00007293  0.33398189
   0.66666472  0.83328817  0.33402405
Direct configuration=    24
   0.00412773  0.00268115  0.10536113
   0.35928443  0.00308116  0.10081989
   0.00387001  0.35756913  0.10082226
   0.64931149  0.64766140  0.10081424
   0.32792363  0.32611804  0.10122146
   0.68081921  0.00320308  0.10122132
   0.00375358  0.67899345  0.10121757
   0.00007670  0.50004254  0.33400829
   0.16671278  0.33340749  0.33403092
   0.00003345  0.00001617  0.33400249
   0.16671345  0.83331860  0.33403486
   0.50001016  0.50003655  0.33401033
   0.66668404  0.33334911  0.33390910
   0.50001501 -0.00002608  0.33400733
   0.66662500  0.83331556  0.33403149
Direct configuration=    25
   0.00413064  0.00268722  0.10530490
   0.35927157  0.00309274  0.10083119
   0.00386270  0.35754322  0.10083382
   0.64933361  0.64767519  0.10082488
   0.32790932  0.32610879  0.10121755
   0.68082361  0.00320007  0.10121494
   0.00375601  0.67899855  0.10121068
   0.00007203  0.50005099  0.33401782
   0.16671923  0.33341107  0.33403368
   0.00004396  0.00001841  0.33400577
   0.16669151  0.83329999  0.33403777
   0.50001430  0.50001577  0.33402010
   0.66667359  0.33334776  0.33390831
   0.50004862 -0.00000836  0.33401695
   0.66660997  0.83332592  0.33403430
Direct configuration=    26
   0.00414817  0.00272775  0.10515075
   0.35923733  0.00311528  0.10084603
   0.00384487  0.35747991  0.10084895
   0.64939100  0.64770391  0.10083859
   0.32784754  0.32609976  0.10121670
   0.68081222  0.00314534  0.10120862
   0.00379811  0.67902869  0.10120329
   0.00001116  0.49999170  0.33403785
   0.16670057  0.33341423  0.33405413
   0.00003089  0.00001705  0.33400413
   0.16674311  0.83333822  0.33405871
   0.50005806  0.50002480  0.33404093
   0.66668924  0.33335037  0.33391216
   0.50002419  0.00003615  0.33403706
   0.66662420  0.83329417  0.33405476
Direct configuration=    27
   0.00415784  0.00275011  0.10506569
   0.35921844  0.00312772  0.10085421
   0.00383503  0.35744497  0.10085730
   0.64942267  0.64771976  0.10084616
   0.32781345  0.32609478  0.10121623
   0.68080593  0.00311514  0.10120513
   0.00382134  0.67904533  0.10119920
  -0.00002242  0.49995898  0.33404890
   0.16669028  0.33341598  0.33406542
   0.00002368  0.00001629  0.33400323
   0.16677158  0.83335932  0.33407027
   0.50008221  0.50002977  0.33405242
   0.66669787  0.33335181  0.33391429
   0.50001071  0.00006072  0.33404816
   0.66663206  0.83327665  0.33406606
Direct configuration=    28
   0.00416544  0.00277194  0.10491446
   0.35922101  0.00312800  0.10085754
   0.00382062  0.35744774  0.10086054
   0.64943172  0.64770432  0.10084911
   0.32781152  0.32614350  0.10122145
   0.68075109  0.00304857  0.10120658
   0.00386454  0.67904814  0.10119997
   0.00001946  0.49997685  0.33406337
   0.16668797  0.33341128  0.33409230
   0.00001936  0.00001523  0.33400057
   0.16678075  0.83337033  0.33409748
   0.50006030  0.50005894  0.33406751
   0.66670473  0.33335314  0.33392638
   0.49997681  0.00001411  0.33406256
   0.66664537  0.83327523  0.33409286
Direct configuration=    29
   0.00417937  0.00281197  0.10463717
   0.35922572  0.00312852  0.10086364
   0.00379420  0.35745284  0.10086647
   0.64944832  0.64767600  0.10085452
   0.32780797  0.32623283  0.10123102
   0.68065053  0.00292650  0.10120925
   0.00394376  0.67905331  0.10120136
   0.00009624  0.50000962  0.33408991
   0.16668374  0.33340265  0.33414160
   0.00001144  0.00001329  0.33399568
   0.16679756  0.83339051  0.33414739
   0.50002011  0.50011243  0.33409517
   0.66671729  0.33335559  0.33394855
   0.49991465 -0.00007133  0.33408897
   0.66666978  0.83327262  0.33414199
Direct configuration=    30
   0.00417539  0.00281022  0.10448159
   0.35924840  0.00311069  0.10086417
   0.00378645  0.35749733  0.10086668
   0.64942472  0.64764128  0.10085522
   0.32783248  0.32627427  0.10123466
   0.68061245  0.00289002  0.10121072
   0.00396026  0.67905197  0.10120249
   0.00009742  0.50003428  0.33410625
   0.16669528  0.33339995  0.33416559
   0.00003330  0.00001838  0.33400529
   0.16674524  0.83335514  0.33417138
   0.50002136  0.50007329  0.33411175
   0.66669720  0.33335360  0.33396591
   0.49998028 -0.00004547  0.33410513
   0.66665044  0.83330239  0.33416584
Direct configuration=    31
   0.00417190  0.00280868  0.10434497
   0.35926833  0.00309502  0.10086463
   0.00377964  0.35753641  0.10086687
   0.64940399  0.64761079  0.10085583
   0.32785400  0.32631067  0.10123785
   0.68057901  0.00285798  0.10121202
   0.00397476  0.67905080  0.10120348
   0.00009845  0.50005594  0.33412060
   0.16670541  0.33339758  0.33418666
   0.00005250  0.00002284  0.33401373
   0.16669930  0.83332407  0.33419244
   0.50002245  0.50003891  0.33412631
   0.66667955  0.33335185  0.33398115
   0.50003792 -0.00002275  0.33411933
   0.66663347  0.83332853  0.33418678
Direct configuration=    32
   0.00416342  0.00279699  0.10419330
   0.35929152  0.00306755  0.10086640
   0.00378416  0.35758700  0.10086822
   0.64936515  0.64758241  0.10085832
   0.32786376  0.32629136  0.10123454
   0.68060041  0.00287831  0.10120875
   0.00395287  0.67906030  0.10120029
   0.00003995  0.50002183  0.33414077
   0.16671497  0.33340881  0.33420233
   0.00004235  0.00002264  0.33404183
   0.16672478  0.83333031  0.33420770
   0.50004439  0.50002192  0.33414624
   0.66669228  0.33335456  0.33400245
   0.50004348  0.00002425  0.33413929
   0.66663718  0.83331910  0.33420225
Direct configuration=    33
   0.00415032  0.00277892  0.10395883
   0.35932736  0.00302507  0.10086913
   0.00379113  0.35766521  0.10087030
   0.64930511  0.64753854  0.10086216
   0.32787884  0.32626151  0.10122942
   0.68063350  0.00290973  0.10120370
   0.00391904  0.67907499  0.10119534
  -0.00005049  0.49996911  0.33417195
   0.16672975  0.33342616  0.33422655
   0.00002666  0.00002232  0.33408527
   0.16676418  0.83333995  0.33423127
   0.50007829  0.49999566  0.33417704
   0.66671197  0.33335875  0.33403538
   0.50005207  0.00009691  0.33417013
   0.66664293  0.83330451  0.33422618
Direct configuration=    34
   0.00414807  0.00277839  0.10381865
   0.35933560  0.00300578  0.10087411
   0.00380307  0.35768673  0.10087492
   0.64927551  0.64752972  0.10086800
   0.32787057  0.32621315  0.10121909
   0.68067649  0.00295554  0.10119472
   0.00388574  0.67907825  0.10118667
  -0.00001489  0.49997410  0.33419223
   0.16671792  0.33342589  0.33423861
   0.00002792  0.00002209  0.33411943
   0.16677775  0.83335471  0.33424279
   0.50007595  0.50002790  0.33419688
   0.66671351  0.33335918  0.33405827
   0.50002193  0.00006323  0.33419022
   0.66664551  0.83329268  0.33423808
Direct configuration=    35
   0.00414307  0.00277720  0.10350634
   0.35935396  0.00296279  0.10088521
   0.00382965  0.35773467  0.10088521
   0.64920957  0.64751008  0.10088099
   0.32785216  0.32610542  0.10119606
   0.68077226  0.00305759  0.10117471
   0.00381156  0.67908551  0.10116735
   0.00006442  0.49998522  0.33423742
   0.16669157  0.33342528  0.33426548
   0.00003073  0.00002158  0.33419553
   0.16680799  0.83338760  0.33426845
   0.50007073  0.50009973  0.33424108
   0.66671696  0.33336013  0.33410927
   0.49995479 -0.00001180  0.33423497
   0.66665126  0.83326633  0.33426460
Direct configuration=    36
   0.00414709  0.00278561  0.10336527
   0.35934007  0.00296343  0.10089587
   0.00384431  0.35771305  0.10089564
   0.64920221  0.64752521  0.10089249
   0.32785716  0.32608703  0.10117461
   0.68078310  0.00309882  0.10115618
   0.00378688  0.67905301  0.10114942
   0.00009727  0.50003117  0.33425618
   0.16670360  0.33340690  0.33428206
   0.00004700  0.00002524  0.33422893
   0.16675049  0.83335859  0.33428459
   0.50004516  0.50007560  0.33425935
   0.66670316  0.33335921  0.33413738
   0.49999854 -0.00002432  0.33425359
   0.66665464  0.83330877  0.33428111
Direct configuration=    37
   0.00415000  0.00279171  0.10326292
   0.35932998  0.00296389  0.10090360
   0.00385495  0.35769736  0.10090321
   0.64919687  0.64753619  0.10090083
   0.32786079  0.32607368  0.10115905
   0.68079096  0.00312874  0.10114274
   0.00376898  0.67902944  0.10113640
   0.00012110  0.50006450  0.33426979
   0.16671233  0.33339357  0.33429409
   0.00005880  0.00002790  0.33425317
   0.16670877  0.83333755  0.33429630
   0.50002660  0.50005809  0.33427261
   0.66669315  0.33335854  0.33415778
   0.50003028 -0.00003341  0.33426710
   0.66665710  0.83333957  0.33429308
Direct configuration=    38
   0.00414991  0.00278689  0.10311073
   0.35930015  0.00298194  0.10091863
   0.00386528  0.35765052  0.10091817
   0.64921519  0.64756941  0.10091666
   0.32788839  0.32610591  0.10112735
   0.68075767  0.00314066  0.10111549
   0.00376241  0.67897711  0.10111007
   0.00007143  0.50004386  0.33428815
   0.16672692  0.33339766  0.33431896
   0.00004824  0.00002804  0.33428226
   0.16672359  0.83333971  0.33432100
   0.50003482  0.50003700  0.33429057
   0.66670719  0.33336179  0.33419120
   0.50003966  0.00000476  0.33428544
   0.66666982  0.83334207  0.33431799
Direct configuration=    39
   0.00414982  0.00278170  0.10294682
   0.35926802  0.00300138  0.10093482
   0.00387640  0.35760008  0.10093428
   0.64923492  0.64760519  0.10093370
   0.32791810  0.32614063  0.10109321
   0.68072182  0.00315350  0.10108615
   0.00375534  0.67892075  0.10108172
   0.00001793  0.50002163  0.33430792
   0.16674264  0.33340206  0.33434575
   0.00003686  0.00002820  0.33431358
   0.16673955  0.83334203  0.33434761
   0.50004367  0.50001429  0.33430991
   0.66672232  0.33336528  0.33422719
   0.50004977  0.00004587  0.33430519
   0.66668351  0.83334476  0.33434482
Direct configuration=    40
   0.00413383  0.00274255  0.10281095
   0.35925386  0.00302292  0.10094399
   0.00386960  0.35757962  0.10094356
   0.64926421  0.64762700  0.10094326
   0.32792615  0.32618417  0.10106492
   0.68068790  0.00311383  0.10106234
   0.00377557  0.67892477  0.10105883
   0.00005936  0.49999657  0.33432711
   0.16670319  0.33342524  0.33437323
   0.00004832  0.00002877  0.33433043
   0.16678740  0.83337548  0.33437546
   0.50008306  0.50007719  0.33432906
   0.66671462  0.33336385  0.33425255
   0.50000149  0.00001765  0.33432451
   0.66665213  0.83328772  0.33437247
Direct configuration=    41
   0.00413291  0.00274029  0.10280313
   0.35925304  0.00302416  0.10094452
   0.00386921  0.35757844  0.10094409
   0.64926589  0.64762825  0.10094381
   0.32792661  0.32618667  0.10106329
   0.68068595  0.00311155  0.10106098
   0.00377673  0.67892500  0.10105751
   0.00006174  0.49999513  0.33432821
   0.16670092  0.33342657  0.33437481
   0.00004898  0.00002880  0.33433139
   0.16679015  0.83337740  0.33437706
   0.50008533  0.50008081  0.33433016
   0.66671417  0.33336377  0.33425401
   0.49999871  0.00001603  0.33432562
   0.66665032  0.83328444  0.33437406
Direct configuration=    42
   0.00411753  0.00270559  0.10270437
   0.35926854  0.00304183  0.10094401
   0.00385239  0.35758999  0.10094380
   0.64927614  0.64761888  0.10094320
   0.32790056  0.32620530  0.10104644
   0.68067417  0.00305532  0.10104733
   0.00381020  0.67897069  0.10104452
   0.00009801  0.50002441  0.33434731
   0.16670604  0.33342146  0.33439684
   0.00005525  0.00002983  0.33433815
   0.16677228  0.83336847  0.33439978
   0.50006510  0.50008520  0.33434954
   0.66671021  0.33336370  0.33426611
   0.50000232 -0.00001222  0.33434494
   0.66665192  0.83329888  0.33439632
Direct configuration=    43
   0.00410616  0.00267994  0.10263135
   0.35928000  0.00305488  0.10094363
   0.00383996  0.35759852  0.10094359
   0.64928372  0.64761196  0.10094275
   0.32788130  0.32621907  0.10103398
   0.68066546  0.00301375  0.10103724
   0.00383494  0.67900446  0.10103491
   0.00012483  0.50004606  0.33436143
   0.16670983  0.33341768  0.33441313
   0.00005988  0.00003059  0.33434314
   0.16675907  0.83336186  0.33441658
   0.50005015  0.50008845  0.33436387
   0.66670728  0.33336365  0.33427506
   0.50000498 -0.00003310  0.33435922
   0.66665310  0.83330956  0.33441278
Direct configuration=    44
   0.00410910  0.00268847  0.10252456
   0.35932230  0.00307461  0.10093553
   0.00382129  0.35761886  0.10093586
   0.64925736  0.64756649  0.10093420
   0.32783785  0.32621595  0.10102127
   0.68066120  0.00297584  0.10102728
   0.00386970  0.67903451  0.10102551
   0.00005897  0.50003342  0.33438732
   0.16673426  0.33340461  0.33443526
   0.00004508  0.00003109  0.33435165
   0.16675416  0.83335773  0.33443958
   0.50004473  0.50004468  0.33439023
   0.66672540  0.33336789  0.33428377
   0.50003171  0.00001655  0.33438542
   0.66668755  0.83333662  0.33443522
Direct configuration=    45
   0.00410938  0.00268929  0.10251432
   0.35932635  0.00307650  0.10093475
   0.00381950  0.35762081  0.10093512
   0.64925484  0.64756213  0.10093338
   0.32783369  0.32621565  0.10102005
   0.68066079  0.00297221  0.10102632
   0.00387304  0.67903739  0.10102461
   0.00005266  0.50003221  0.33438981
   0.16673660  0.33340335  0.33443738
   0.00004366  0.00003114  0.33435246
   0.16675369  0.83335733  0.33444178
   0.50004421  0.50004049  0.33439275
   0.66672714  0.33336830  0.33428461
   0.50003427  0.00002131  0.33438793
   0.66669085  0.83333921  0.33443737
Direct configuration=    46
   0.00412529  0.00272937  0.10243671
   0.35935668  0.00308139  0.10092315
   0.00381085  0.35763120  0.10092383
   0.64921754  0.64751970  0.10092120
   0.32781457  0.32620047  0.10101375
   0.68066180  0.00297931  0.10102103
   0.00388039  0.67902606  0.10101952
   0.00004814  0.50000699  0.33441177
   0.16671617  0.33341614  0.33445200
   0.00005417  0.00003330  0.33436343
   0.16677216  0.83337015  0.33445690
   0.50008113  0.50005551  0.33441501
   0.66671973  0.33336766  0.33429204
   0.50003210  0.00003820  0.33441012
   0.66666994  0.83331188  0.33445221
Direct configuration=    47
   0.00412914  0.00273905  0.10241795
   0.35936401  0.00308258  0.10092034
   0.00380876  0.35763371  0.10092110
   0.64920852  0.64750945  0.10091826
   0.32780995  0.32619680  0.10101223
   0.68066205  0.00298103  0.10101975
   0.00388217  0.67902332  0.10101829
   0.00004705  0.50000089  0.33441708
   0.16671123  0.33341923  0.33445553
   0.00005671  0.00003382  0.33436608
   0.16677662  0.83337324  0.33446055
   0.50009005  0.50005914  0.33442038
   0.66671794  0.33336751  0.33429383
   0.50003158  0.00004228  0.33441548
   0.66666488  0.83330527  0.33445579
Direct configuration=    48
   0.00413575  0.00276106  0.10235076
   0.35936046  0.00306790  0.10090778
   0.00380549  0.35763498  0.10090877
   0.64919796  0.64750077  0.10090512
   0.32782300  0.32618305  0.10100603
   0.68066857  0.00300761  0.10101335
   0.00386296  0.67900406  0.10101184
   0.00009072  0.50002730  0.33443582
   0.16671895  0.33342620  0.33446887
   0.00005883  0.00003335  0.33438079
   0.16677543  0.83336666  0.33447406
   0.50006873  0.50007747  0.33443920
   0.66671800  0.33336777  0.33430666
   0.50001686  0.00000186  0.33443436
   0.66665897  0.83330727  0.33446927
Direct configuration=    49
   0.00413739  0.00276651  0.10233413
   0.35935958  0.00306427  0.10090467
   0.00380468  0.35763530  0.10090571
   0.64919535  0.64749862  0.10090187
   0.32782624  0.32617965  0.10100450
   0.68067019  0.00301419  0.10101177
   0.00385820  0.67899930  0.10101025
   0.00010152  0.50003384  0.33444046
   0.16672086  0.33342792  0.33447217
   0.00005935  0.00003324  0.33438443
   0.16677513  0.83336503  0.33447740
   0.50006346  0.50008201  0.33444385
   0.66671801  0.33336783  0.33430983
   0.50001322 -0.00000814  0.33443904
   0.66665750  0.83330777  0.33447261
Direct configuration=    50
   0.00412813  0.00275454  0.10226913
   0.35932357  0.00303461  0.10089290
   0.00380542  0.35763059  0.10089406
   0.64921996  0.64752809  0.10088960
   0.32786000  0.32617143  0.10099419
   0.68068019  0.00304001  0.10100028
   0.00382289  0.67899139  0.10099851
   0.00008602  0.50004275  0.33445636
   0.16673602  0.33341195  0.33448777
   0.00005180  0.00003356  0.33440297
   0.16676276  0.83336181  0.33449289
   0.50004649  0.50006325  0.33445962