  15  15   0   0
  0.2033749E+02  0.4846000E-09  0.4846000E-09  0.1500000E-08  0.5000000E-15
  1.000000000000000E-004
  CAR 
 Dielectric_function                     
     31.74576621    -25.48926081 4000     -0.68553728      1.00000000
    -25.489  0.0000E+00  0.0000E+00
    -25.475  0.0000E+00  0.0000E+00
    -25.461  0.0000E+00  0.0000E+00
    -25.446  0.0000E+00  0.0000E+00
    -25.432  0.0000E+00  0.0000E+00
    -25.418  0.0000E+00  0.0000E+00
    -25.403  0.0000E+00  0.0000E+00
    -25.389  0.0000E+00  0.0000E+00
    -25.375  0.0000E+00  0.0000E+00
    -25.360  0.0000E+00  0.0000E+00
    -25.346  0.0000E+00  0.0000E+00
    -25.332  0.0000E+00  0.0000E+00
    -25.318  0.0000E+00  0.0000E+00
    -25.303  0.0000E+00  0.0000E+00
    -25.289  0.0000E+00  0.0000E+00
    -25.275  0.0000E+00  0.0000E+00
    -25.260  0.0000E+00  0.0000E+00
    -25.246  0.0000E+00  0.0000E+00
    -25.232  0.0000E+00  0.0000E+00
    -25.217  0.0000E+00  0.0000E+00
    -25.203  0.0000E+00  0.0000E+00
    -25.189  0.0000E+00  0.0000E+00
    -25.174  0.0000E+00  0.0000E+00
    -25.160  0.0000E+00  0.0000E+00
    -25.146  0.0000E+00  0.0000E+00
    -25.131  0.0000E+00  0.0000E+00
    -25.117  0.0000E+00  0.0000E+00
    -25.103  0.0000E+00  0.0000E+00
    -25.089  0.0000E+00  0.0000E+00
    -25.074  0.0000E+00  0.0000E+00
    -25.060  0.0000E+00  0.0000E+00
    -25.046  0.0000E+00  0.0000E+00
    -25.031  0.0000E+00  0.0000E+00
    -25.017  0.0000E+00  0.0000E+00
    -25.003  0.0000E+00  0.0000E+00
    -24.988  0.0000E+00  0.0000E+00
    -24.974  0.0000E+00  0.0000E+00
    -24.960  0.0000E+00  0.0000E+00
    -24.945  0.0000E+00  0.0000E+00
    -24.931  0.0000E+00  0.0000E+00
    -24.917  0.0000E+00  0.0000E+00
    -24.902  0.0000E+00  0.0000E+00
    -24.888  0.0000E+00  0.0000E+00
    -24.874  0.0000E+00  0.0000E+00
    -24.860  0.0000E+00  0.0000E+00
    -24.845  0.0000E+00  0.0000E+00
    -24.831  0.0000E+00  0.0000E+00
    -24.817  0.0000E+00  0.0000E+00
    -24.802  0.0000E+00  0.0000E+00
    -24.788  0.0000E+00  0.0000E+00
    -24.774  0.0000E+00  0.0000E+00
    -24.759  0.0000E+00  0.0000E+00
    -24.745  0.0000E+00  0.0000E+00
    -24.731  0.0000E+00  0.0000E+00
    -24.716  0.0000E+00  0.0000E+00
    -24.702  0.0000E+00  0.0000E+00
    -24.688  0.0000E+00  0.0000E+00
    -24.673  0.0000E+00  0.0000E+00
    -24.659  0.0000E+00  0.0000E+00
    -24.645  0.0000E+00  0.0000E+00
    -24.631  0.0000E+00  0.0000E+00
    -24.616  0.0000E+00  0.0000E+00
    -24.602  0.0000E+00  0.0000E+00
    -24.588  0.0000E+00  0.0000E+00
    -24.573  0.0000E+00  0.0000E+00
    -24.559  0.0000E+00  0.0000E+00
    -24.545  0.0000E+00  0.0000E+00
    -24.530  0.0000E+00  0.0000E+00
    -24.516  0.0000E+00  0.0000E+00
    -24.502  0.0000E+00  0.0000E+00
    -24.487  0.0000E+00  0.0000E+00
    -24.473  0.0000E+00  0.0000E+00
    -24.459  0.0000E+00  0.0000E+00
    -24.444  0.0000E+00  0.0000E+00
    -24.430  0.0000E+00  0.0000E+00
    -24.416  0.0000E+00  0.0000E+00
    -24.402  0.0000E+00  0.0000E+00
    -24.387  0.0000E+00  0.0000E+00
    -24.373  0.0000E+00  0.0000E+00
    -24.359  0.0000E+00  0.0000E+00
    -24.344  0.0000E+00  0.0000E+00
    -24.330  0.0000E+00  0.0000E+00
    -24.316  0.0000E+00  0.0000E+00
    -24.301  0.0000E+00  0.0000E+00
    -24.287  0.0000E+00  0.0000E+00
    -24.273  0.0000E+00  0.0000E+00
    -24.258  0.0000E+00  0.0000E+00
    -24.244  0.0000E+00  0.0000E+00
    -24.230  0.0000E+00  0.0000E+00
    -24.215  0.0000E+00  0.0000E+00
    -24.201  0.0000E+00  0.0000E+00
    -24.187  0.0000E+00  0.0000E+00
    -24.173  0.0000E+00  0.0000E+00
    -24.158  0.0000E+00  0.0000E+00
    -24.144  0.0000E+00  0.0000E+00
    -24.130  0.0000E+00  0.0000E+00
    -24.115  0.0000E+00  0.0000E+00
    -24.101  0.0000E+00  0.0000E+00
    -24.087  0.0000E+00  0.0000E+00
    -24.072  0.0000E+00  0.0000E+00
    -24.058  0.0000E+00  0.0000E+00
    -24.044  0.0000E+00  0.0000E+00
    -24.029  0.0000E+00  0.0000E+00
    -24.015  0.0000E+00  0.0000E+00
    -24.001  0.0000E+00  0.0000E+00
    -23.986  0.0000E+00  0.0000E+00
    -23.972  0.0000E+00  0.0000E+00
    -23.958  0.0000E+00  0.0000E+00
    -23.944  0.0000E+00  0.0000E+00
    -23.929  0.0000E+00  0.0000E+00
    -23.915  0.0000E+00  0.0000E+00
    -23.901  0.0000E+00  0.0000E+00
    -23.886  0.0000E+00  0.0000E+00
    -23.872  0.0000E+00  0.0000E+00
    -23.858  0.0000E+00  0.0000E+00
    -23.843  0.0000E+00  0.0000E+00
    -23.829  0.0000E+00  0.0000E+00
    -23.815  0.0000E+00  0.0000E+00
    -23.800  0.0000E+00  0.0000E+00
    -23.786  0.0000E+00  0.0000E+00
    -23.772  0.0000E+00  0.0000E+00
    -23.757  0.0000E+00  0.0000E+00
    -23.743  0.0000E+00  0.0000E+00
    -23.729  0.0000E+00  0.0000E+00
    -23.715  0.0000E+00  0.0000E+00
    -23.700  0.0000E+00  0.0000E+00
    -23.686  0.0000E+00  0.0000E+00
    -23.672  0.0000E+00  0.0000E+00
    -23.657  0.0000E+00  0.0000E+00
    -23.643  0.0000E+00  0.0000E+00
    -23.629  0.0000E+00  0.0000E+00
    -23.614  0.0000E+00  0.0000E+00
    -23.600  0.0000E+00  0.0000E+00
    -23.586  0.0000E+00  0.0000E+00
    -23.571  0.0000E+00  0.0000E+00
    -23.557  0.0000E+00  0.0000E+00
    -23.543  0.0000E+00  0.0000E+00
    -23.528  0.0000E+00  0.0000E+00
    -23.514  0.0000E+00  0.0000E+00
    -23.500  0.0000E+00  0.0000E+00
    -23.486  0.0000E+00  0.0000E+00
    -23.471  0.0000E+00  0.0000E+00
    -23.457  0.0000E+00  0.0000E+00
    -23.443  0.0000E+00  0.0000E+00
    -23.428  0.0000E+00  0.0000E+00
    -23.414  0.0000E+00  0.0000E+00
    -23.400  0.0000E+00  0.0000E+00
    -23.385  0.0000E+00  0.0000E+00
    -23.371  0.0000E+00  0.0000E+00
    -23.357  0.0000E+00  0.0000E+00
    -23.342  0.0000E+00  0.0000E+00
    -23.328  0.0000E+00  0.0000E+00
    -23.314  0.0000E+00  0.0000E+00
    -23.299  0.0000E+00  0.0000E+00
    -23.285  0.0000E+00  0.0000E+00
    -23.271  0.0000E+00  0.0000E+00
    -23.257  0.0000E+00  0.0000E+00
    -23.242  0.0000E+00  0.0000E+00
    -23.228  0.0000E+00  0.0000E+00
    -23.214  0.0000E+00  0.0000E+00
    -23.199  0.0000E+00  0.0000E+00
    -23.185  0.0000E+00  0.0000E+00
    -23.171  0.0000E+00  0.0000E+00
    -23.156  0.0000E+00  0.0000E+00
    -23.142  0.0000E+00  0.0000E+00
    -23.128  0.0000E+00  0.0000E+00
    -23.113  0.0000E+00  0.0000E+00
    -23.099  0.0000E+00  0.0000E+00
    -23.085  0.0000E+00  0.0000E+00
    -23.070  0.0000E+00  0.0000E+00
    -23.056  0.0000E+00  0.0000E+00
    -23.042  0.0000E+00  0.0000E+00
    -23.028  0.0000E+00  0.0000E+00
    -23.013  0.0000E+00  0.0000E+00
    -22.999  0.0000E+00  0.0000E+00
    -22.985  0.0000E+00  0.0000E+00
    -22.970  0.0000E+00  0.0000E+00
    -22.956  0.0000E+00  0.0000E+00
    -22.942  0.5395E-14  0.7722E-16
    -22.927  0.4830E-08  0.6913E-10
    -22.913  0.8052E-04  0.1152E-05
    -22.899  0.2840E-01  0.4077E-03
    -22.884  0.3066E+00  0.4796E-02
    -22.870  0.7883E+00  0.1608E-01
    -22.856  0.1959E+01  0.4411E-01
    -22.841  0.3030E+00  0.4845E-01
    -22.827  0.3367E+00  0.5327E-01
    -22.813  0.1997E+01  0.8184E-01
    -22.799  0.1564E+01  0.1042E+00
    -22.784  0.1754E+01  0.1293E+00
    -22.770  0.1501E+00  0.1315E+00
    -22.756  0.5158E-03  0.1315E+00
    -22.741  0.1184E+00  0.1332E+00
    -22.727  0.2734E+01  0.1723E+00
    -22.713  0.2819E+01  0.2127E+00
    -22.698  0.1507E+00  0.2148E+00
    -22.684  0.9361E+00  0.2282E+00
    -22.670  0.1781E+01  0.2537E+00
    -22.655  0.1642E+00  0.2560E+00
    -22.641  0.5081E-03  0.2561E+00
    -22.627  0.5405E-01  0.2568E+00
    -22.612  0.1332E+01  0.2759E+00
    -22.598  0.2028E+01  0.3049E+00
    -22.584  0.3969E+01  0.3617E+00
    -22.570  0.1304E+01  0.3804E+00
    -22.555  0.1622E-01  0.3806E+00
    -22.541  0.5256E-02  0.3807E+00
    -22.527  0.5401E+00  0.3884E+00
    -22.512  0.1986E+01  0.4169E+00
    -22.498  0.3674E+00  0.4221E+00
    -22.484  0.2283E-02  0.4221E+00
    -22.469  0.3499E-01  0.4226E+00
    -22.455  0.1784E+01  0.4482E+00
    -22.441  0.3624E+01  0.5000E+00
    -22.426  0.3691E+00  0.5053E+00
    -22.412  0.1071E+01  0.5206E+00
    -22.398  0.3975E+01  0.5775E+00
    -22.383  0.7430E+00  0.5882E+00
    -22.369  0.4642E-02  0.5882E+00
    -22.355  0.6572E-06  0.5882E+00
    -22.341  0.2879E-03  0.5882E+00
    -22.326  0.1299E+00  0.5901E+00
    -22.312  0.1693E+01  0.6143E+00
    -22.298  0.1051E+01  0.6294E+00
    -22.283  0.7991E-01  0.6305E+00
    -22.269  0.1322E+01  0.6494E+00
    -22.255  0.2036E+01  0.6786E+00
    -22.240  0.3969E+01  0.7354E+00
    -22.226  0.1307E+01  0.7541E+00
    -22.212  0.1631E-01  0.7543E+00
    -22.197  0.1147E-01  0.7545E+00
    -22.183  0.1123E+01  0.7706E+00
    -22.169  0.3962E+01  0.8273E+00
    -22.154  0.7023E+00  0.8373E+00
    -22.140  0.4122E-02  0.8374E+00
    -22.126  0.5350E-06  0.8374E+00
    -22.112  0.9483E-11  0.8374E+00
    -22.097  0.1663E-05  0.8374E+00
    -22.083  0.6531E-02  0.8375E+00
    -22.069  0.5945E+00  0.8460E+00
    -22.054  0.2099E+01  0.8760E+00
    -22.040  0.3128E+01  0.9208E+00
    -22.026  0.2755E+01  0.9602E+00
    -22.011  0.1690E+00  0.9626E+00
    -21.997  0.2011E+01  0.9914E+00
    -21.983  0.3458E+01  0.1041E+01
    -21.968  0.2854E+00  0.1045E+01
    -21.954  0.6881E-03  0.1045E+01
    -21.940  0.6860E-06  0.1045E+01
    -21.925  0.4675E-02  0.1045E+01
    -21.911  0.7456E+00  0.1056E+01
    -21.897  0.3975E+01  0.1113E+01
    -21.883  0.1067E+01  0.1128E+01
    -21.868  0.1020E-01  0.1128E+01
    -21.854  0.2238E-05  0.1128E+01
    -21.840  0.1119E-10  0.1128E+01
    -21.825  0.5507E-06  0.1128E+01
    -21.811  0.3266E-02  0.1128E+01
    -21.797  0.4359E+00  0.1134E+01
    -21.782  0.2108E+01  0.1164E+01
    -21.768  0.3983E+01  0.1222E+01
    -21.754  0.4772E+01  0.1290E+01
    -21.739  0.3016E+00  0.1294E+01
    -21.725  0.9735E-03  0.1294E+01
    -21.711  0.2242E+00  0.1297E+01
    -21.696  0.3268E+01  0.1344E+01
    -21.682  0.2245E+01  0.1376E+01
    -21.668  0.6512E-01  0.1377E+01
    -21.654  0.4812E-04  0.1377E+01
    -21.639  0.7087E-09  0.1377E+01
    -21.625  0.3452E-07  0.1377E+01
    -21.611  0.6843E-03  0.1377E+01
    -21.596  0.2846E+00  0.1381E+01
    -21.582  0.3455E+01  0.1431E+01
    -21.568  0.2013E+01  0.1460E+01
    -21.553  0.4818E-01  0.1460E+01
    -21.539  0.2875E-04  0.1460E+01
    -21.525  0.3941E-04  0.1460E+01
    -21.510  0.5797E-01  0.1461E+01
    -21.496  0.2154E+01  0.1492E+01
    -21.482  0.3344E+01  0.1540E+01
    -21.467  0.2679E+00  0.1544E+01
    -21.453  0.1468E+01  0.1565E+01
    -21.439  0.3909E+01  0.1621E+01
    -21.425  0.2039E+01  0.1650E+01
    -21.410  0.1224E+01  0.1667E+01
    -21.396  0.4178E-01  0.1668E+01
    -21.382  0.2218E-02  0.1668E+01
    -21.367  0.5153E+00  0.1675E+01
    -21.353  0.3841E+01  0.1730E+01
    -21.339  0.1424E+01  0.1751E+01
    -21.324  0.1997E-01  0.1751E+01
    -21.310  0.6631E-05  0.1751E+01
    -21.296  0.4276E-10  0.1751E+01
    -21.281  0.4831E-15  0.1751E+01
    -21.267  0.1128E-08  0.1751E+01
    -21.253  0.5763E-04  0.1751E+01
    -21.238  0.6413E-01  0.1752E+01
    -21.224  0.2103E+01  0.1782E+01
    -21.210  0.3343E+01  0.1830E+01
    -21.196  0.3041E+00  0.1834E+01
    -21.181  0.7804E+00  0.1845E+01
    -21.167  0.2100E+01  0.1875E+01
    -21.153  0.3463E+01  0.1925E+01
    -21.138  0.2281E+01  0.1958E+01
    -21.124  0.6809E-01  0.1958E+01
    -21.110  0.4058E-02  0.1959E+01
    -21.095  0.6330E+00  0.1968E+01
    -21.081  0.3825E+01  0.2022E+01
    -21.067  0.1321E+01  0.2041E+01
    -21.052  0.1708E+00  0.2044E+01
    -21.038  0.1750E+01  0.2069E+01
    -21.024  0.9778E+00  0.2083E+01
    -21.010  0.2227E-01  0.2083E+01
    -20.995  0.5995E-02  0.2083E+01
    -20.981  0.8368E+00  0.2095E+01
    -20.967  0.3992E+01  0.2152E+01
    -20.952  0.9595E+00  0.2166E+01
    -20.938  0.8063E-02  0.2166E+01
    -20.924  0.1537E-05  0.2166E+01
    -20.909  0.5607E-11  0.2166E+01
    -20.895  0.0000E+00  0.2166E+01
    -20.881  0.0000E+00  0.2166E+01
    -20.866  0.1255E-10  0.2166E+01
    -20.852  0.2807E-05  0.2166E+01
    -20.838  0.1347E-01  0.2166E+01
    -20.823  0.1668E+01  0.2190E+01
    -20.809  0.7886E+01  0.2303E+01
    -20.795  0.2020E+01  0.2332E+01
    -20.781  0.5402E+00  0.2340E+01
    -20.766  0.3846E+01  0.2395E+01
    -20.752  0.1414E+01  0.2415E+01
    -20.738  0.1964E-01  0.2415E+01
    -20.723  0.6456E-05  0.2415E+01
    -20.709  0.2116E-03  0.2415E+01
    -20.695  0.1509E+00  0.2417E+01
    -20.680  0.2939E+01  0.2459E+01
    -20.666  0.2610E+01  0.2497E+01
    -20.652  0.1021E+00  0.2498E+01
    -20.637  0.9449E-03  0.2498E+01
    -20.623  0.2260E+00  0.2502E+01
    -20.609  0.1885E+01  0.2528E+01
    -20.594  0.7767E+00  0.2540E+01
    -20.580  0.1235E-01  0.2540E+01
    -20.566  0.1432E-01  0.2540E+01
    -20.552  0.1237E+01  0.2558E+01
    -20.537  0.3924E+01  0.2614E+01
    -20.523  0.6238E+00  0.2623E+01
    -20.509  0.3221E-02  0.2623E+01
    -20.494  0.3647E-06  0.2623E+01
    -20.480  0.2329E-09  0.2623E+01
    -20.466  0.1791E-04  0.2623E+01
    -20.451  0.2741E-01  0.2623E+01
    -20.437  0.1057E+01  0.2638E+01
    -20.423  0.2129E+01  0.2669E+01
    -20.408  0.3764E+01  0.2723E+01
    -20.394  0.1690E+01  0.2747E+01
    -20.380  0.2115E+00  0.2750E+01
    -20.365  0.3076E+01  0.2794E+01
    -20.351  0.3567E+01  0.2845E+01
    -20.337  0.4056E+01  0.2903E+01
    -20.323  0.7252E+00  0.2913E+01
    -20.308  0.4409E-02  0.2913E+01
    -20.294  0.5941E-06  0.2913E+01
    -20.280  0.1186E-09  0.2913E+01
    -20.265  0.1357E-04  0.2913E+01
    -20.251  0.3082E-01  0.2914E+01
    -20.237  0.1697E+01  0.2938E+01
    -20.222  0.3682E+01  0.2991E+01
    -20.208  0.3913E+00  0.2997E+01
    -20.194  0.1263E-02  0.2997E+01
    -20.179  0.4705E-06  0.2997E+01
    -20.165  0.2596E-02  0.2997E+01
    -20.151  0.3916E+00  0.3002E+01
    -20.136  0.1992E+01  0.3031E+01
    -20.122  0.5103E+00  0.3038E+01
    -20.108  0.4648E-02  0.3038E+01
    -20.094  0.4575E-01  0.3039E+01
    -20.079  0.1975E+01  0.3067E+01
    -20.065  0.3485E+01  0.3117E+01
    -20.051  0.2958E+00  0.3121E+01
    -20.036  0.1754E-02  0.3121E+01
    -20.022  0.3500E+00  0.3126E+01
    -20.008  0.3606E+01  0.3178E+01
    -19.993  0.1809E+01  0.3204E+01
    -19.979  0.2463E+00  0.3207E+01
    -19.965  0.3214E+01  0.3253E+01
    -19.950  0.2307E+01  0.3286E+01
    -19.936  0.7046E-01  0.3287E+01
    -19.922  0.5512E-04  0.3287E+01
    -19.907  0.1153E-03  0.3287E+01
    -19.893  0.1276E+00  0.3289E+01
    -19.879  0.4260E+01  0.3350E+01
    -19.865  0.6676E+01  0.3446E+01
    -19.850  0.5397E+00  0.3453E+01
    -19.836  0.1368E-02  0.3453E+01
    -19.822  0.7650E-07  0.3453E+01
    -19.807  0.8203E-13  0.3453E+01
    -19.793  0.9819E-11  0.3453E+01
    -19.779  0.2305E-05  0.3453E+01
    -19.764  0.1040E-01  0.3453E+01
    -19.750  0.1075E+01  0.3469E+01
    -19.736  0.3973E+01  0.3526E+01
    -19.721  0.7386E+00  0.3536E+01
    -19.707  0.4650E-02  0.3536E+01
    -19.693  0.2592E-01  0.3537E+01
    -19.678  0.3780E+00  0.3542E+01
    -19.664  0.1680E+01  0.3566E+01
    -19.650  0.1300E+01  0.3585E+01
    -19.636  0.2005E+01  0.3613E+01
    -19.621  0.4276E+01  0.3675E+01
    -19.607  0.2193E+01  0.3706E+01
    -19.593  0.2346E+00  0.3709E+01
    -19.578  0.1179E+01  0.3726E+01
    -19.564  0.9351E+01  0.3860E+01
    -19.550  0.5905E+01  0.3945E+01
    -19.535  0.5520E+01  0.4024E+01
    -19.521  0.1232E+01  0.4041E+01
    -19.507  0.1089E+00  0.4043E+01
    -19.492  0.1925E+01  0.4070E+01
    -19.478  0.7456E+01  0.4177E+01
    -19.464  0.4870E+01  0.4247E+01
    -19.449  0.2357E+00  0.4250E+01
    -19.435  0.1452E+01  0.4271E+01
    -19.421  0.1323E+01  0.4290E+01
    -19.407  0.2123E+00  0.4293E+01
    -19.392  0.3004E+01  0.4336E+01
    -19.378  0.4617E+01  0.4402E+01
    -19.364  0.7954E+01  0.4516E+01
    -19.349  0.1982E+01  0.4544E+01
    -19.335  0.3561E+01  0.4595E+01
    -19.321  0.2247E+01  0.4627E+01
    -19.306  0.2068E+01  0.4657E+01
    -19.292  0.1847E+01  0.4683E+01
    -19.278  0.3111E+01  0.4728E+01
    -19.263  0.3831E+01  0.4783E+01
    -19.249  0.9040E+00  0.4796E+01
    -19.235  0.3799E+01  0.4850E+01
    -19.220  0.2177E+01  0.4881E+01
    -19.206  0.3917E+01  0.4937E+01
    -19.192  0.1734E+01  0.4962E+01
    -19.178  0.2456E+01  0.4997E+01
    -19.163  0.4460E+01  0.5061E+01
    -19.149  0.5059E+01  0.5133E+01
    -19.135  0.2035E+01  0.5163E+01
    -19.120  0.1975E+01  0.5191E+01
    -19.106  0.3545E+01  0.5242E+01
    -19.092  0.2113E+01  0.5272E+01
    -19.077  0.6477E+01  0.5365E+01
    -19.063  0.6571E+01  0.5459E+01
    -19.049  0.9724E+01  0.5598E+01
    -19.034  0.2882E+01  0.5639E+01
    -19.020  0.9616E+01  0.5777E+01
    -19.006  0.7230E+01  0.5880E+01
    -18.991  0.3057E+01  0.5924E+01
    -18.977  0.7318E+01  0.6029E+01
    -18.963  0.1131E+02  0.6190E+01
    -18.949  0.5358E+01  0.6267E+01
    -18.934  0.3708E+01  0.6320E+01
    -18.920  0.3411E+01  0.6369E+01
    -18.906  0.4974E+01  0.6440E+01
    -18.891  0.1867E+01  0.6467E+01
    -18.877  0.1604E+01  0.6490E+01
    -18.863  0.1027E+00  0.6491E+01
    -18.848  0.8733E-03  0.6491E+01
    -18.834  0.2852E+00  0.6495E+01
    -18.820  0.3457E+01  0.6545E+01
    -18.805  0.2011E+01  0.6574E+01
    -18.791  0.2365E+00  0.6577E+01
    -18.777  0.3125E+01  0.6622E+01
    -18.762  0.2408E+01  0.6656E+01
    -18.748  0.7991E-01  0.6657E+01
    -18.734  0.6856E-04  0.6657E+01
    -18.720  0.1179E-08  0.6657E+01
    -18.705  0.6442E-14  0.6657E+01
    -18.691  0.1021E-07  0.6657E+01
    -18.677  0.3015E-03  0.6657E+01
    -18.662  0.1833E+00  0.6660E+01
    -18.648  0.3102E+01  0.6704E+01
    -18.634  0.2434E+01  0.6739E+01
    -18.619  0.8247E-01  0.6740E+01
    -18.605  0.9746E-02  0.6741E+01
    -18.591  0.7030E+00  0.6751E+01
    -18.576  0.2175E+01  0.6782E+01
    -18.562  0.3616E+01  0.6834E+01
    -18.548  0.2143E+01  0.6864E+01
    -18.533  0.5708E-01  0.6865E+01
    -18.519  0.2172E-01  0.6865E+01
    -18.505  0.1849E+01  0.6892E+01
    -18.491  0.5879E+01  0.6976E+01
    -18.476  0.9479E+00  0.6990E+01
    -18.462  0.5472E-02  0.6990E+01
    -18.448  0.2020E+00  0.6993E+01
    -18.433  0.3111E+01  0.7037E+01
    -18.419  0.2402E+01  0.7071E+01
    -18.405  0.3186E+00  0.7076E+01
    -18.390  0.3296E+01  0.7123E+01
    -18.376  0.2211E+01  0.7155E+01
    -18.362  0.6244E-01  0.7156E+01
    -18.347  0.4475E-04  0.7156E+01
    -18.333  0.6387E-09  0.7156E+01
    -18.319  0.0000E+00  0.7156E+01
    -18.304  0.0000E+00  0.7156E+01
    -18.290  0.9299E-10  0.7156E+01
    -18.276  0.1153E-04  0.7156E+01
    -18.262  0.2794E-01  0.7156E+01
    -18.247  0.1632E+01  0.7179E+01
    -18.233  0.3723E+01  0.7233E+01
    -18.219  0.4176E+00  0.7239E+01
    -18.204  0.3823E-02  0.7239E+01
    -18.190  0.5388E+00  0.7247E+01
    -18.176  0.3863E+01  0.7302E+01
    -18.161  0.1380E+01  0.7322E+01
    -18.147  0.1852E-01  0.7322E+01
    -18.133  0.5862E-05  0.7322E+01
    -18.118  0.3599E-10  0.7322E+01
    -18.104  0.5814E-11  0.7322E+01
    -18.090  0.1770E-05  0.7322E+01
    -18.075  0.1059E-01  0.7322E+01
    -18.061  0.1502E+01  0.7343E+01
    -18.047  0.7810E+01  0.7455E+01
    -18.033  0.2259E+01  0.7488E+01
    -18.018  0.7284E+00  0.7498E+01
    -18.004  0.3892E+01  0.7554E+01
    -17.990  0.1190E+01  0.7571E+01
    -17.975  0.1489E-01  0.7571E+01
    -17.961  0.8631E-05  0.7571E+01
    -17.947  0.1284E-01  0.7571E+01
    -17.932  0.1117E+01  0.7587E+01
    -17.918  0.3913E+01  0.7643E+01
    -17.904  0.8482E+00  0.7655E+01
    -17.889  0.1565E+01  0.7678E+01
    -17.875  0.1207E+01  0.7695E+01
    -17.861  0.4029E-01  0.7696E+01
    -17.846  0.2689E-01  0.7696E+01
    -17.832  0.1607E+01  0.7719E+01
    -17.818  0.3827E+01  0.7774E+01
    -17.804  0.2833E+01  0.7814E+01
    -17.789  0.3105E+01  0.7859E+01
    -17.775  0.2048E+00  0.7862E+01
    -17.761  0.4260E-03  0.7862E+01
    -17.746  0.2004E-07  0.7862E+01
    -17.732  0.1836E-13  0.7862E+01
    -17.718  0.0000E+00  0.7862E+01
    -17.703  0.0000E+00  0.7862E+01
    -17.689  0.5783E-10  0.7862E+01
    -17.675  0.7338E-05  0.7862E+01
    -17.660  0.1938E-01  0.7862E+01
    -17.646  0.1340E+01  0.7881E+01
    -17.632  0.3841E+01  0.7936E+01
    -17.617  0.5988E+00  0.7945E+01
    -17.603  0.3379E-02  0.7945E+01
    -17.589  0.3609E-01  0.7945E+01
    -17.575  0.1747E+01  0.7970E+01
    -17.560  0.3625E+01  0.8022E+01
    -17.546  0.3929E+00  0.8028E+01
    -17.532  0.2253E-02  0.8028E+01
    -17.517  0.2265E+00  0.8031E+01
    -17.503  0.1961E+01  0.8059E+01
    -17.489  0.3137E+01  0.8104E+01
    -17.474  0.3180E+01  0.8149E+01
    -17.460  0.4378E+00  0.8156E+01
    -17.446  0.3273E+01  0.8203E+01
    -17.431  0.3960E+01  0.8259E+01
    -17.417  0.3745E+01  0.8313E+01
    -17.403  0.3859E+00  0.8318E+01
    -17.388  0.1230E-02  0.8318E+01
    -17.374  0.8612E-07  0.8318E+01
    -17.360  0.1214E-03  0.8318E+01
    -17.346  0.1106E+00  0.8320E+01
    -17.331  0.2677E+01  0.8358E+01
    -17.317  0.2879E+01  0.8399E+01
    -17.303  0.6566E+00  0.8409E+01
    -17.288  0.1991E+01  0.8437E+01
    -17.274  0.3861E+00  0.8443E+01
    -17.260  0.4499E-02  0.8443E+01
    -17.245  0.4668E+00  0.8450E+01
    -17.231  0.3732E+01  0.8503E+01
    -17.217  0.1678E+01  0.8527E+01
    -17.202  0.2654E+01  0.8565E+01
    -17.188  0.2924E+01  0.8607E+01
    -17.174  0.1482E+00  0.8609E+01
    -17.159  0.2049E-03  0.8609E+01
    -17.145  0.5788E-08  0.8609E+01
    -17.131  0.2577E-14  0.8609E+01
    -17.117  0.0000E+00  0.8609E+01
    -17.102  0.1355E-10  0.8609E+01
    -17.088  0.2910E-05  0.8609E+01
    -17.074  0.1213E-01  0.8609E+01
    -17.059  0.1258E+01  0.8627E+01
    -17.045  0.7648E+01  0.8737E+01
    -17.031  0.7633E+01  0.8846E+01
    -17.016  0.8527E+00  0.8858E+01
    -17.002  0.4605E+00  0.8865E+01
    -16.988  0.5513E+01  0.8944E+01
    -16.973  0.5247E+01  0.9019E+01
    -16.959  0.4941E+00  0.9026E+01
    -16.945  0.2738E+01  0.9065E+01
    -16.930  0.6977E+01  0.9165E+01
    -16.916  0.6876E+01  0.9263E+01
    -16.902  0.6294E+01  0.9353E+01
    -16.888  0.9139E+01  0.9484E+01
    -16.873  0.6316E+01  0.9575E+01
    -16.859  0.9327E+00  0.9588E+01
    -16.845  0.4035E+01  0.9646E+01
    -16.830  0.6457E+01  0.9738E+01
    -16.816  0.4139E+01  0.9797E+01
    -16.802  0.3294E+01  0.9844E+01
    -16.787  0.4195E+01  0.9904E+01
    -16.773  0.3353E+01  0.9952E+01
    -16.759  0.6059E+01  0.1004E+02
    -16.744  0.6266E+01  0.1013E+02
    -16.730  0.2505E+01  0.1016E+02
    -16.716  0.1525E+01  0.1019E+02
    -16.701  0.5814E+01  0.1027E+02
    -16.687  0.6280E+01  0.1036E+02
    -16.673  0.6043E+01  0.1045E+02
    -16.659  0.7405E+00  0.1046E+02
    -16.644  0.4001E-02  0.1046E+02
    -16.630  0.5076E-06  0.1046E+02
    -16.616  0.1219E-03  0.1046E+02
    -16.601  0.1132E+00  0.1046E+02
    -16.587  0.3224E+01  0.1050E+02
    -16.573  0.6774E+01  0.1060E+02
    -16.558  0.2612E+01  0.1064E+02
    -16.544  0.1666E+01  0.1066E+02
    -16.530  0.1160E+00  0.1066E+02
    -16.515  0.2330E-03  0.1066E+02
    -16.501  0.1458E-05  0.1066E+02
    -16.487  0.5993E-02  0.1066E+02
    -16.472  0.5775E+00  0.1067E+02
    -16.458  0.2781E+01  0.1071E+02
    -16.444  0.5340E+01  0.1079E+02
    -16.430  0.2854E+01  0.1083E+02
    -16.415  0.1749E+01  0.1085E+02
    -16.401  0.1292E+01  0.1087E+02
    -16.387  0.1797E+01  0.1090E+02
    -16.372  0.3024E+01  0.1094E+02
    -16.358  0.7966E+01  0.1106E+02
    -16.344  0.5075E+01  0.1113E+02
    -16.329  0.5618E+01  0.1121E+02
    -16.315  0.5090E+01  0.1128E+02
    -16.301  0.3309E+01  0.1133E+02
    -16.286  0.5073E+01  0.1140E+02
    -16.272  0.3355E+01  0.1145E+02
    -16.258  0.2142E+00  0.1145E+02
    -16.243  0.4012E-03  0.1145E+02
    -16.229  0.1733E-04  0.1145E+02
    -16.215  0.3566E-01  0.1145E+02
    -16.201  0.1797E+01  0.1148E+02
    -16.186  0.3615E+01  0.1153E+02
    -16.172  0.4390E+00  0.1154E+02
    -16.158  0.1980E+01  0.1157E+02
    -16.143  0.6094E+01  0.1165E+02
    -16.129  0.5575E+01  0.1173E+02
    -16.115  0.7687E+00  0.1174E+02
    -16.100  0.4931E-02  0.1174E+02
    -16.086  0.1747E+00  0.1175E+02
    -16.072  0.3061E+01  0.1179E+02
    -16.057  0.2479E+01  0.1183E+02
    -16.043  0.8779E-01  0.1183E+02
    -16.029  0.2798E+00  0.1183E+02
    -16.014  0.3527E+01  0.1188E+02
    -16.000  0.3548E+01  0.1193E+02
    -15.986  0.1338E+01  0.1195E+02
    -15.972  0.2192E+01  0.1198E+02
    -15.957  0.8680E+01  0.1211E+02
    -15.943  0.3745E+01  0.1216E+02
    -15.929  0.3208E+01  0.1221E+02
    -15.914  0.2413E+01  0.1224E+02
    -15.900  0.8054E-01  0.1224E+02
    -15.886  0.1188E+00  0.1224E+02
    -15.871  0.3017E+01  0.1229E+02
    -15.857  0.7122E+01  0.1239E+02
    -15.843  0.5386E+01  0.1247E+02
    -15.828  0.3216E+01  0.1251E+02
    -15.814  0.7919E+01  0.1263E+02
    -15.800  0.6420E+01  0.1272E+02
    -15.785  0.6173E+01  0.1281E+02
    -15.771  0.6744E+01  0.1290E+02
    -15.757  0.7364E+01  0.1301E+02
    -15.743  0.4395E+01  0.1307E+02
    -15.728  0.2580E+01  0.1311E+02
    -15.714  0.7637E+01  0.1322E+02
    -15.700  0.4634E+01  0.1328E+02
    -15.685  0.4564E+01  0.1335E+02
    -15.671  0.2418E+01  0.1338E+02
    -15.657  0.4455E+00  0.1339E+02
    -15.642  0.4789E+01  0.1346E+02
    -15.628  0.4316E+01  0.1352E+02
    -15.614  0.4055E+01  0.1358E+02
    -15.599  0.5509E+01  0.1366E+02
    -15.585  0.1404E+01  0.1368E+02
    -15.571  0.4283E+01  0.1374E+02
    -15.557  0.7781E+01  0.1385E+02
    -15.542  0.2202E+01  0.1388E+02
    -15.528  0.1038E+00  0.1388E+02
    -15.514  0.1074E+00  0.1388E+02
    -15.499  0.1743E+01  0.1391E+02
    -15.485  0.4307E+01  0.1397E+02
    -15.471  0.6314E+01  0.1406E+02
    -15.456  0.2475E+01  0.1410E+02
    -15.442  0.2160E+01  0.1413E+02
    -15.428  0.3016E+01  0.1417E+02
    -15.413  0.3555E+01  0.1422E+02
    -15.399  0.3233E+01  0.1427E+02
    -15.385  0.4780E+01  0.1434E+02
    -15.370  0.5360E+01  0.1441E+02
    -15.356  0.1624E+01  0.1444E+02
    -15.342  0.8482E+00  0.1445E+02
    -15.328  0.2069E+01  0.1448E+02
    -15.313  0.2073E+01  0.1451E+02
    -15.299  0.8052E+00  0.1452E+02
    -15.285  0.1348E-01  0.1452E+02
    -15.270  0.3387E-04  0.1452E+02
    -15.256  0.4785E-01  0.1452E+02
    -15.242  0.2008E+01  0.1455E+02
    -15.227  0.3459E+01  0.1460E+02
    -15.213  0.2862E+00  0.1460E+02
    -15.199  0.6921E-03  0.1460E+02
    -15.184  0.3514E-07  0.1460E+02
    -15.170  0.4608E-12  0.1460E+02
    -15.156  0.2201E-06  0.1460E+02
    -15.141  0.2217E-02  0.1460E+02
    -15.127  0.5063E+00  0.1461E+02
    -15.113  0.3805E+01  0.1466E+02
    -15.099  0.1466E+01  0.1468E+02
    -15.084  0.5220E-01  0.1469E+02
    -15.070  0.1675E+01  0.1471E+02
    -15.056  0.3696E+01  0.1476E+02
    -15.041  0.4004E+00  0.1477E+02
    -15.027  0.2946E-01  0.1477E+02
    -15.013  0.1986E+01  0.1480E+02
    -14.998  0.5778E+01  0.1488E+02
    -14.984  0.1328E+01  0.1490E+02
    -14.970  0.3732E+01  0.1495E+02
    -14.955  0.1625E+01  0.1498E+02
    -14.941  0.2763E-01  0.1498E+02
    -14.927  0.1132E-04  0.1498E+02
    -14.912  0.9066E-10  0.1498E+02
    -14.898  0.0000E+00  0.1498E+02
    -14.884  0.2308E-14  0.1498E+02
    -14.870  0.3988E-08  0.1498E+02
    -14.855  0.1276E-03  0.1498E+02
    -14.841  0.8487E-01  0.1498E+02
    -14.827  0.1790E+01  0.1500E+02
    -14.812  0.3235E+01  0.1505E+02
    -14.798  0.2563E+01  0.1509E+02
    -14.784  0.3637E+01  0.1514E+02
    -14.769  0.2559E+01  0.1517E+02
    -14.755  0.5588E+01  0.1525E+02
    -14.741  0.8463E+00  0.1527E+02
    -14.726  0.2277E+00  0.1527E+02
    -14.712  0.3263E+01  0.1532E+02
    -14.698  0.2250E+01  0.1535E+02
    -14.683  0.6656E-01  0.1535E+02
    -14.669  0.3421E+00  0.1535E+02
    -14.655  0.3590E+01  0.1541E+02
    -14.641  0.1832E+01  0.1543E+02
    -14.626  0.3748E-01  0.1543E+02
    -14.612  0.1882E-04  0.1543E+02
    -14.598  0.3084E-07  0.1543E+02
    -14.583  0.5593E-03  0.1543E+02
    -14.569  0.2343E+00  0.1544E+02
    -14.555  0.3196E+01  0.1548E+02
    -14.540  0.2292E+01  0.1551E+02
    -14.526  0.1123E+00  0.1552E+02
    -14.512  0.2631E+01  0.1555E+02
    -14.497  0.7779E+01  0.1567E+02
    -14.483  0.1156E+01  0.1568E+02
    -14.469  0.5555E-02  0.1568E+02
    -14.454  0.5883E-06  0.1568E+02
    -14.440  0.1187E-11  0.1568E+02
    -14.426  0.9142E-13  0.1568E+02
    -14.412  0.7477E-07  0.1568E+02
    -14.397  0.1144E-02  0.1568E+02
    -14.383  0.3718E+00  0.1569E+02
    -14.369  0.3648E+01  0.1574E+02
    -14.354  0.1748E+01  0.1576E+02
    -14.340  0.3342E-01  0.1576E+02
    -14.326  0.1398E+00  0.1577E+02
    -14.311  0.2874E+01  0.1581E+02
    -14.297  0.2678E+01  0.1585E+02
    -14.283  0.2922E+00  0.1585E+02
    -14.268  0.3698E+01  0.1590E+02
    -14.254  0.6380E+01  0.1599E+02
    -14.240  0.1330E+01  0.1601E+02
    -14.225  0.1461E-01  0.1601E+02
    -14.211  0.3954E-05  0.1601E+02
    -14.197  0.2077E-10  0.1601E+02
    -14.183  0.0000E+00  0.1601E+02
    -14.168  0.0000E+00  0.1601E+02
    -14.154  0.0000E+00  0.1601E+02
    -14.140  0.0000E+00  0.1601E+02
    -14.125  0.4243E-11  0.1601E+02
    -14.111  0.1118E-05  0.1601E+02
    -14.097  0.6174E-02  0.1601E+02
    -14.082  0.9146E+00  0.1603E+02
    -14.068  0.5643E+01  0.1611E+02
    -14.054  0.2719E+01  0.1615E+02
    -14.039  0.3954E+01  0.1620E+02
    -14.025  0.1255E+01  0.1622E+02
    -14.011  0.1901E-01  0.1622E+02
    -13.996  0.4882E+00  0.1623E+02
    -13.982  0.1995E+01  0.1626E+02
    -13.968  0.4110E+00  0.1626E+02
    -13.954  0.1743E+00  0.1627E+02
    -13.939  0.3009E+01  0.1631E+02
    -13.925  0.2525E+01  0.1634E+02
    -13.911  0.9637E-01  0.1635E+02
    -13.896  0.1016E-03  0.1635E+02
    -13.882  0.2266E-08  0.1635E+02
    -13.868  0.4999E-08  0.1635E+02
    -13.853  0.1854E-03  0.1635E+02
    -13.839  0.1402E+00  0.1635E+02
    -13.825  0.2877E+01  0.1639E+02
    -13.810  0.2807E+01  0.1643E+02
    -13.796  0.2942E+01  0.1647E+02
    -13.782  0.2721E+01  0.1651E+02
    -13.767  0.1165E+00  0.1651E+02
    -13.753  0.1331E-03  0.1651E+02
    -13.739  0.4385E-05  0.1651E+02
    -13.725  0.1549E-01  0.1651E+02
    -13.710  0.1279E+01  0.1653E+02
    -13.696  0.3908E+01  0.1659E+02
    -13.682  0.5971E+00  0.1660E+02