Lattice                                 
           1
     4.156922    2.400000    0.000000
    -4.156922    2.400000    0.000000
     0.000000    0.000000   15.000000
   B    C 
     4    11
Direct configuration=     1
   0.00415361  0.00267210  0.12034134
   0.35695335  0.00285503  0.09748893
   0.00423858  0.35550699  0.09749256
   0.65142295  0.65006557  0.09747688
   0.32808646  0.32671938  0.10030508
   0.68027775  0.00278085  0.10027562
   0.00416530  0.67883808  0.10026559
   0.11111044  0.38888856  0.33726667
   0.27777744  0.22222156  0.33726667
   0.11111044  0.88888856  0.33726667
   0.27777744  0.72222156  0.33726667
   0.61111044  0.38888856  0.33726667
   0.77777744  0.22222156  0.33726667
   0.61111044  0.88888856  0.33726667
   0.77777744  0.72222156  0.33726667
Direct configuration=     2
   0.00417169  0.00270703  0.11938118
   0.35604967  0.00278691  0.09773544
   0.00418463  0.35482780  0.09779035
   0.65221713  0.65074954  0.09776117
   0.32569318  0.32416405  0.10030464
   0.68293197  0.00279588  0.10031672
   0.00422691  0.68125307  0.10027180
   0.11104291  0.38899378  0.33727650
   0.27792539  0.22235908  0.33734713
   0.11129757  0.88900760  0.33728465
   0.27796622  0.72221749  0.33720276
   0.61106836  0.38883558  0.33719810
   0.77773206  0.22226081  0.33728624
   0.61092788  0.88884680  0.33733817
   0.77741401  0.72207302  0.33728450
Direct configuration=     3
   0.00416221  0.00268873  0.11988426
   0.35652316  0.00282260  0.09760628
   0.00421290  0.35518367  0.09763432
   0.65180101  0.65039117  0.09761221
   0.32694716  0.32550294  0.10030487
   0.68154127  0.00278801  0.10029518
   0.00419463  0.67998771  0.10026854
   0.11107829  0.38893865  0.33727135
   0.27784787  0.22228702  0.33730497
   0.11119952  0.88894523  0.33727523
   0.27786731  0.72221962  0.33723624
   0.61109041  0.38886334  0.33723403
   0.77775584  0.22224024  0.33727598
   0.61102354  0.88886868  0.33730070
   0.77760443  0.72215085  0.33727515
Direct configuration=     4
   0.00417645  0.00272916  0.11896960
   0.35696038  0.00274865  0.09785588
   0.00420500  0.35562298  0.09793877
   0.65142968  0.64988312  0.09790181
   0.32704054  0.32546833  0.10027850
   0.68153901  0.00278229  0.10031138
   0.00424070  0.67994659  0.10024930
   0.11108740  0.38887644  0.33728371
   0.27767511  0.22224971  0.33737846
   0.11097513  0.88885830  0.33729672
   0.27766122  0.72225999  0.33718182
   0.61109637  0.38892205  0.33717790
   0.77773973  0.22222610  0.33729459
   0.61115419  0.88897766  0.33736754
   0.77786866  0.72232709  0.33729336
Direct configuration=     5
   0.00421118  0.00282780  0.11673781
   0.35802721  0.00256821  0.09846491
   0.00418573  0.35669490  0.09868163
   0.65052362  0.64864346  0.09860844
   0.32726836  0.32538389  0.10021414
   0.68153349  0.00276834  0.10035089
   0.00435312  0.67984623  0.10020235
   0.11110961  0.38872466  0.33731387
   0.27725356  0.22215866  0.33755778
   0.11042760  0.88864620  0.33734916
   0.27715837  0.72235851  0.33704904
   0.61111091  0.38906533  0.33704095
   0.77770041  0.22219158  0.33733997
   0.61147299  0.88924357  0.33753061
   0.77851339  0.72275712  0.33733779
Direct configuration=     6
   0.00421690  0.00283317  0.11646210
   0.35812758  0.00255123  0.09852926
   0.00419267  0.35678199  0.09875919
   0.65044840  0.64853539  0.09868237
   0.32733634  0.32542579  0.10021958
   0.68148184  0.00275898  0.10036734
   0.00436333  0.67978974  0.10020977
   0.11108375  0.38878031  0.33731749
   0.27731769  0.22217619  0.33757240
   0.11052730  0.88872633  0.33735525
   0.27724018  0.72236034  0.33704082
   0.61108189  0.38906214  0.33703296
   0.77769547  0.22222169  0.33734431
   0.61137997  0.88919471  0.33754415
   0.77835626  0.72268045  0.33734234
Direct configuration=     7
   0.00423408  0.00284928  0.11563496
   0.35842869  0.00250029  0.09872233
   0.00421349  0.35704327  0.09899187
   0.65022274  0.64821118  0.09890416
   0.32754028  0.32555152  0.10023591
   0.68132688  0.00273089  0.10041672
   0.00439393  0.67962027  0.10023202
   0.11100614  0.38894726  0.33732835
   0.27751010  0.22222879  0.33761625
   0.11082639  0.88896672  0.33737352
   0.27748561  0.72236584  0.33701618
   0.61099481  0.38905256  0.33700899
   0.77768066  0.22231201  0.33735733
   0.61110092  0.88904813  0.33758477
   0.77788485  0.72245044  0.33735599
Direct configuration=     8
   0.00426843  0.00288150  0.11398068
   0.35903090  0.00239841  0.09910846
   0.00425514  0.35756584  0.09945724
   0.64977142  0.64756275  0.09934774
   0.32794815  0.32580296  0.10026856
   0.68101695  0.00267472  0.10051547
   0.00445515  0.67928133  0.10027651
   0.11085093  0.38928116  0.33735007
   0.27789492  0.22233399  0.33770395
   0.11142456  0.88944751  0.33741006
   0.27797648  0.72237683  0.33696689
   0.61082066  0.38903341  0.33696106
   0.77765102  0.22249264  0.33738336
   0.61054281  0.88875497  0.33766602
   0.77694203  0.72199042  0.33738328
Direct configuration=     9
   0.00425604  0.00286987  0.11457741
   0.35881367  0.00243516  0.09896917
   0.00424012  0.35737734  0.09928937
   0.64993422  0.64779665  0.09918773
   0.32780102  0.32571226  0.10025678
   0.68112875  0.00269498  0.10047985
   0.00443307  0.67940359  0.10026046
   0.11090691  0.38916072  0.33734224
   0.27775611  0.22229604  0.33767231
   0.11120879  0.88927408  0.33739688
   0.27779942  0.72237287  0.33698467
   0.61088348  0.38904032  0.33697835
   0.77766171  0.22242748  0.33737397
   0.61074413  0.88886072  0.33763671
   0.77728212  0.72215636  0.33737343
Direct configuration=    10
   0.00426992  0.00285293  0.11421482
   0.35879409  0.00242945  0.09902286
   0.00427106  0.35732255  0.09934891
   0.64998509  0.64783220  0.09924545
   0.32787857  0.32578717  0.10030419
   0.68105698  0.00266487  0.10053527
   0.00443896  0.67932284  0.10030937
   0.11090670  0.38915185  0.33734646
   0.27775846  0.22238610  0.33766854
   0.11117601  0.88922410  0.33740259
   0.27779818  0.72238474  0.33699925
   0.61088299  0.38900838  0.33699480
   0.77761685  0.22242108  0.33737597
   0.61074611  0.88890289  0.33763400
   0.77726956  0.72218728  0.33737683
Direct configuration=    11
   0.00431158  0.00280209  0.11312707
   0.35873534  0.00241230  0.09918391
   0.00436390  0.35715819  0.09952752
   0.65013769  0.64793887  0.09941862
   0.32811123  0.32601187  0.10044644
   0.68084168  0.00257454  0.10070155
   0.00445662  0.67908058  0.10045610
   0.11090605  0.38912527  0.33735911
   0.27776553  0.22265629  0.33765723
   0.11107770  0.88907417  0.33741972
   0.27779447  0.72242036  0.33704300
   0.61088155  0.38891256  0.33704417
   0.77748227  0.22240189  0.33738198
   0.61075206  0.88902940  0.33762588
   0.77723189  0.72228006  0.33738702
Direct configuration=    12
   0.00439489  0.00270042  0.11095157
   0.35861784  0.00237802  0.09950603
   0.00454958  0.35682947  0.09988475
   0.65044290  0.64815221  0.09976496
   0.32857654  0.32646129  0.10073092
   0.68041108  0.00239386  0.10103410
   0.00449194  0.67859605  0.10074956
   0.11090476  0.38907209  0.33738442
   0.27777966  0.22319667  0.33763462
   0.11088106  0.88877431  0.33745399
   0.27778705  0.72249160  0.33713049
   0.61087865  0.38872093  0.33714292
   0.77721311  0.22236350  0.33739400
   0.61076395  0.88928242  0.33760962
   0.77715655  0.72246561  0.33740739
Direct configuration=    13
   0.00442620  0.00265929  0.11037598
   0.35861597  0.00237807  0.09958964
   0.00459387  0.35679032  0.09996624
   0.65047247  0.64817457  0.09984696
   0.32864493  0.32652176  0.10081633
   0.68037184  0.00235725  0.10112499
   0.00450784  0.67849807  0.10083633
   0.11083497  0.38911431  0.33738987
   0.27764680  0.22292253  0.33761797
   0.11082914  0.88893601  0.33746086
   0.27766247  0.72247166  0.33716855
   0.61085710  0.38890382  0.33718203
   0.77731542  0.22238813  0.33739706
   0.61079331  0.88928834  0.33759373
   0.77727724  0.72247433  0.33741281
Direct configuration=    14
   0.00447547  0.00259456  0.10946999
   0.35861302  0.00237814  0.09972124
   0.00466357  0.35672869  0.10009451
   0.65051902  0.64820977  0.09997602
   0.32875259  0.32661695  0.10095077
   0.68031008  0.00229962  0.10126804
   0.00453285  0.67834384  0.10097291
   0.11072512  0.38918076  0.33739844
   0.27743768  0.22249103  0.33759176
   0.11074740  0.88919052  0.33747167
   0.27746638  0.72244028  0.33722847
   0.61082318  0.38919169  0.33724359
   0.77747646  0.22242688  0.33740189
   0.61083953  0.88929767  0.33756871
   0.77746722  0.72248805  0.33742134
Direct configuration=    15
   0.00448871  0.00257338  0.10935076
   0.35872085  0.00238377  0.09975068
   0.00465696  0.35683328  0.10010924
   0.65040235  0.64810327  0.09999522
   0.32870099  0.32654692  0.10096680
   0.68039523  0.00231645  0.10127516
   0.00454641  0.67837452  0.10098827
   0.11074975  0.38917899  0.33739850
   0.27743323  0.22246008  0.33758114
   0.11079260  0.88922422  0.33747042
   0.27746084  0.72249969  0.33724865
   0.61078864  0.38919334  0.33726077
   0.77747711  0.22249649  0.33740371
   0.61079311  0.88919412  0.33755632
   0.77744277  0.72249992  0.33742368
Direct configuration=    16
   0.00451933  0.00252441  0.10907499
   0.35897027  0.00239679  0.09981880
   0.00464167  0.35707521  0.10014333
   0.65013249  0.64785693  0.10003963
   0.32858164  0.32638496  0.10100389
   0.68059221  0.00235539  0.10129164
   0.00457778  0.67844549  0.10102381
   0.11080672  0.38917487  0.33739864
   0.27742296  0.22238848  0.33755658
   0.11089715  0.88930218  0.33746753
   0.27744801  0.72263711  0.33729532
   0.61070874  0.38919715  0.33730051
   0.77747860  0.22265749  0.33740793
   0.61068575  0.88895460  0.33752765
   0.77738623  0.72252739  0.33742910
Direct configuration=    17
   0.00453242  0.00248517  0.10892427
   0.35918998  0.00240321  0.09987315
   0.00462233  0.35724309  0.10016381
   0.64992315  0.64766033  0.10007037
   0.32850479  0.32627261  0.10101840
   0.68072007  0.00239252  0.10128260
   0.00459887  0.67851445  0.10103667
   0.11080610  0.38920535  0.33739898
   0.27744630  0.22248816  0.33753903
   0.11083775  0.88925588  0.33746478
   0.27745746  0.72259213  0.33732782
   0.61071017  0.38918742  0.33732784
   0.77742058  0.22258020  0.33741122
   0.61069673  0.88907996  0.33750774
   0.77738285  0.72251798  0.33743265
Direct configuration=    18
   0.00454258  0.00245468  0.10880716
   0.35936072  0.00240819  0.09991538
   0.00460729  0.35737354  0.10017974
   0.64976047  0.64750756  0.10009426
   0.32844507  0.32618531  0.10102967
   0.68081943  0.00242137  0.10127557
   0.00461527  0.67856803  0.10104667
   0.11080563  0.38922903  0.33739925
   0.27746444  0.22256562  0.33752539
   0.11079159  0.88921989  0.33746263
   0.27746480  0.72255717  0.33735308
   0.61071128  0.38917985  0.33734907
   0.77737549  0.22252014  0.33741378
   0.61070526  0.88917738  0.33749227
   0.77738022  0.72251066  0.33743541
Direct configuration=    19
   0.00453896  0.00243972  0.10876798
   0.35938957  0.00240479  0.09994281
   0.00460519  0.35733778  0.10018827
   0.64976944  0.64750765  0.10010846
   0.32847605  0.32620559  0.10102785
   0.68079454  0.00242466  0.10125750
   0.00461661  0.67856296  0.10104403
   0.11073199  0.38921032  0.33740134
   0.27742683  0.22254615  0.33752234
   0.11077454  0.88923383  0.33746331
   0.27745144  0.72253866  0.33735864
   0.61074715  0.38919284  0.33735503
   0.77741364  0.22252750  0.33741487
   0.61073995  0.88921968  0.33749109
   0.77737365  0.72252631  0.33743582
Direct configuration=    20
   0.00453593  0.00242721  0.10873520
   0.35941371  0.00240193  0.09996576
   0.00460342  0.35730785  0.10019540
   0.64977694  0.64750772  0.10012035
   0.32850198  0.32622256  0.10102633
   0.68077371  0.00242742  0.10124238
   0.00461774  0.67855872  0.10104182
   0.11067037  0.38919467  0.33740309
   0.27739536  0.22252986  0.33751979
   0.11076027  0.88924549  0.33746388
   0.27744027  0.72252318  0.33736329
   0.61077716  0.38920370  0.33736002
   0.77744555  0.22253366  0.33741577
   0.61076899  0.88925507  0.33749010
   0.77736815  0.72253940  0.33743617
Direct configuration=    21
   0.00453804  0.00241556  0.10869634
   0.35940602  0.00239854  0.09999476
   0.00460558  0.35725806  0.10020356
   0.64981368  0.64753210  0.10013475
   0.32853550  0.32624435  0.10102443
   0.68075248  0.00242514  0.10122136
   0.00462022  0.67853677  0.10103895
   0.11067808  0.38919977  0.33740579
   0.27739488  0.22253880  0.33751874
   0.11076220  0.88924928  0.33746520
   0.27743686  0.72254239  0.33736633
   0.61076240  0.38920326  0.33736391
   0.77743331  0.22254944  0.33741717
   0.61075156  0.88923813  0.33749143
   0.77735874  0.72254685  0.33743661
Direct configuration=    22
   0.00454436  0.00238063  0.10857976
   0.35938298  0.00238836  0.10008177
   0.00461205  0.35710866  0.10022803
   0.64992392  0.64760525  0.10017796
   0.32863608  0.32630972  0.10101873
   0.68068878  0.00241832  0.10115830
   0.00462767  0.67847091  0.10103035
   0.11070121  0.38921507  0.33741390
   0.27739343  0.22256563  0.33751559
   0.11076799  0.88926064  0.33746916
   0.27742663  0.72260004  0.33737542
   0.61071810  0.38920193  0.33737559
   0.77739658  0.22259676  0.33742138
   0.61069928  0.88918733  0.33749543
   0.77733050  0.72256921  0.33743796
Direct configuration=    23
   0.00457190  0.00237356  0.10850821
   0.35934156  0.00238442  0.10011987
   0.00462603  0.35709777  0.10023606
   0.64996132  0.64762150  0.10019486
   0.32864184  0.32629054  0.10102451
   0.68072663  0.00240383  0.10113272
   0.00464247  0.67842528  0.10103440
   0.11072834  0.38926282  0.33741777
   0.27739971  0.22257889  0.33751877
   0.11074172  0.88927556  0.33747157
   0.27741168  0.72258739  0.33737754
   0.61068419  0.38923207  0.33737746
   0.77735674  0.22256214  0.33742519
   0.61067806  0.88923047  0.33750023
   0.77733738  0.72255220  0.33744018
Direct configuration=    24
   0.00458154  0.00237108  0.10848314
   0.35932705  0.00238304  0.10013322
   0.00463093  0.35709396  0.10023887
   0.64997443  0.64762719  0.10020077
   0.32864385  0.32628383  0.10102654
   0.68073989  0.00239876  0.10112376
   0.00464766  0.67840930  0.10103582
   0.11073785  0.38927955  0.33741913
   0.27740191  0.22258354  0.33751988
   0.11073252  0.88928079  0.33747242
   0.27740644  0.72258296  0.33737828
   0.61067231  0.38924263  0.33737812
   0.77734278  0.22255001  0.33742653
   0.61067062  0.88924559  0.33750191
   0.77733978  0.72254624  0.33744096
Direct configuration=    25
   0.00461436  0.00236963  0.10840694
   0.35932482  0.00237342  0.10015591
   0.00465236  0.35713424  0.10024107
   0.64996841  0.64759463  0.10020886
   0.32862888  0.32624101  0.10104151
   0.68079601  0.00237561  0.10111126
   0.00466781  0.67838329  0.10104947
   0.11069582  0.38927111  0.33742231
   0.27737472  0.22259650  0.33752731
   0.11071675  0.88928742  0.33747504
   0.27738962  0.72259539  0.33737849
   0.61067644  0.38924650  0.33737652
   0.77734754  0.22257539  0.33743162
   0.61067342  0.88926169  0.33750835
   0.77732261  0.72257262  0.33744467
Direct configuration=    26
   0.00466761  0.00236729  0.10828332
   0.35932122  0.00235781  0.10019272
   0.00468712  0.35719958  0.10024466
   0.64995864  0.64754181  0.10022198
   0.32860459  0.32617155  0.10106580
   0.68088705  0.00233807  0.10109099
   0.00470051  0.67834111  0.10107161
   0.11062763  0.38925743  0.33742746
   0.27733060  0.22261753  0.33753936
   0.11069116  0.88929817  0.33747929
   0.27736233  0.72261555  0.33737883
   0.61068315  0.38925278  0.33737393
   0.77735526  0.22261657  0.33743987
   0.61067795  0.88928780  0.33751880
   0.77729474  0.72261542  0.33745070
Direct configuration=    27
   0.00467874  0.00236056  0.10822653
   0.35936212  0.00234383  0.10020404
   0.00470219  0.35721102  0.10024635
   0.64994683  0.64750474  0.10022638
   0.32861512  0.32616220  0.10107782
   0.68089196  0.00232127  0.10108633
   0.00471230  0.67834019  0.10108311
   0.11062102  0.38926943  0.33742985
   0.27732333  0.22262498  0.33754491
   0.11068562  0.88931063  0.33748162
   0.27735601  0.72262791  0.33737900
   0.61067013  0.38926218  0.33737309
   0.77734266  0.22262797  0.33744335
   0.61066134  0.88928955  0.33752347
   0.77728018  0.72262200  0.33745352
Direct configuration=    28
   0.00471216  0.00234038  0.10805614
   0.35948484  0.00230191  0.10023800
   0.00474741  0.35724536  0.10025141
   0.64991138  0.64739352  0.10023955
   0.32864671  0.32613414  0.10111389
   0.68090670  0.00227086  0.10107235
   0.00474765  0.67833746  0.10111761
   0.11060119  0.38930542  0.33743699
   0.27730151  0.22264734  0.33756154
   0.11066899  0.88934800  0.33748859
   0.27733705  0.72266498  0.33737948
   0.61063108  0.38929039  0.33737056
   0.77730485  0.22266216  0.33745376
   0.61061154  0.88929479  0.33753748
   0.77723649  0.72264171  0.33746197
Direct configuration=    29
   0.00477898  0.00230003  0.10771538
   0.35973028  0.00221805  0.10030591
   0.00483784  0.35731403  0.10026155
   0.64984048  0.64717110  0.10026590
   0.32870990  0.32607803  0.10118604
   0.68093619  0.00217005  0.10104438
   0.00481835  0.67833199  0.10118661
   0.11056154  0.38937742  0.33745129
   0.27725787  0.22269206  0.33759482
   0.11063575  0.88942275  0.33750255
   0.27729912  0.72273913  0.33738046
   0.61055297  0.38934682  0.33736549
   0.77722923  0.22273056  0.33747460
   0.61051193  0.88930527  0.33756551
   0.77714912  0.72268115  0.33747887
Direct configuration=    30
   0.00478846  0.00226880  0.10758086
   0.35978699  0.00218251  0.10032729
   0.00486206  0.35726819  0.10027738
   0.64987342  0.64714442  0.10028298
   0.32876541  0.32607753  0.10120424
   0.68093689  0.00214626  0.10103896
   0.00484292  0.67831355  0.10120444
   0.11054702  0.38940432  0.33745823
   0.27722595  0.22272477  0.33760228
   0.11057434  0.88942521  0.33750993
   0.27724432  0.72273734  0.33738433
   0.61052437  0.38938061  0.33737091
   0.77719642  0.22271719  0.33747987
   0.61051573  0.88938064  0.33757360
   0.77716526  0.72270710  0.33748403
Direct configuration=    31
   0.00479959  0.00223208  0.10742275
   0.35985363  0.00214072  0.10035242
   0.00489052  0.35721432  0.10029598
   0.64991214  0.64711306  0.10030307
   0.32883065  0.32607694  0.10122563
   0.68093772  0.00211830  0.10103258
   0.00487180  0.67829188  0.10122540
   0.11052996  0.38943595  0.33746640
   0.27718843  0.22276322  0.33761106
   0.11050215  0.88942810  0.33751860
   0.27717990  0.72273524  0.33738888
   0.61049076  0.38942034  0.33737727
   0.77715786  0.22270148  0.33748606
   0.61052020  0.88946923  0.33758312
   0.77718424  0.72273760  0.33749010
Direct configuration=    32
   0.00481541  0.00220021  0.10729881
   0.35985833  0.00211231  0.10037012
   0.00490906  0.35715293  0.10031989
   0.64997208  0.64712099  0.10032477
   0.32888473  0.32607165  0.10123360
   0.68095427  0.00210604  0.10103076
   0.00489736  0.67824873  0.10123356
   0.11049505  0.38944684  0.33747322
   0.27715872  0.22278551  0.33761434
   0.11048145  0.88944950  0.33752612
   0.27715652  0.72276198  0.33739549
   0.61047149  0.38943544  0.33738695
   0.77714205  0.22273697  0.33748945
   0.61049734  0.88948263  0.33758792
   0.77715568  0.72276672  0.33749435
Direct configuration=    33
   0.00486287  0.00210457  0.10692697
   0.35987242  0.00202707  0.10042320
   0.00496469  0.35696875  0.10039163
   0.65015191  0.64714478  0.10038987
   0.32904697  0.32605579  0.10125750
   0.68100391  0.00206927  0.10102530
   0.00497405  0.67811930  0.10125803
   0.11039032  0.38947952  0.33749367
   0.27706960  0.22285240  0.33762417
   0.11041936  0.88951369  0.33754869
   0.27708635  0.72284220  0.33741530
   0.61041369  0.38948074  0.33741600
   0.77709465  0.22284345  0.33749961
   0.61042876  0.88952284  0.33760230
   0.77706999  0.72285407  0.33750709
Direct configuration=    34
   0.00495780  0.00191331  0.10618330
   0.35990059  0.00185659  0.10052937
   0.00507595  0.35660038  0.10053510
   0.65051156  0.64719235  0.10052006
   0.32937145  0.32602407  0.10130532
   0.68110319  0.00199572  0.10101438
   0.00512744  0.67786042  0.10130698
   0.11018086  0.38954487  0.33753457
   0.27689135  0.22298618  0.33764385
   0.11029517  0.88964208  0.33759382
   0.27694603  0.72300265  0.33745493
   0.61029809  0.38957134  0.33747409
   0.77699985  0.22305641  0.33751993
   0.61029160  0.88960327  0.33763107
   0.77689863  0.72302879  0.33753256
Direct configuration=    35
   0.00491368  0.00200220  0.10652891
   0.35988750  0.00193582  0.10048003
   0.00502424  0.35677158  0.10046842
   0.65034442  0.64717024  0.10045956
   0.32922065  0.32603881  0.10128310
   0.68105705  0.00202990  0.10101945
   0.00505615  0.67798073  0.10128423
   0.11027820  0.38951450  0.33751556
   0.27697419  0.22292401  0.33763471
   0.11035289  0.88958241  0.33757284
   0.27701125  0.72292809  0.33743652
   0.61035181  0.38952924  0.33744709
   0.77704391  0.22295744  0.33751049
   0.61035535  0.88956589  0.33761770
   0.77697827  0.72294759  0.33752072
Direct configuration=    36
   0.00496740  0.00196984  0.10636386
   0.35989794  0.00190705  0.10050390
   0.00505954  0.35674437  0.10050689
   0.65038385  0.64714012  0.10049321
   0.32926957  0.32600547  0.10128563
   0.68109614  0.00200842  0.10102022
   0.00509890  0.67791303  0.10128737
   0.11026341  0.38957500  0.33752310
   0.27695774  0.22294129  0.33763929
   0.11033309  0.88963228  0.33758138
   0.27699444  0.72295431  0.33744849
   0.61030682  0.38957471  0.33746025
   0.77699224  0.22296907  0.33751637
   0.61029974  0.88959206  0.33762128
   0.77692875  0.72295145  0.33752810
Direct configuration=    37
   0.00511061  0.00188358  0.10592383
   0.35992577  0.00183035  0.10056753
   0.00515366  0.35667183  0.10060943
   0.65048897  0.64705980  0.10058293
   0.32939998  0.32591657  0.10129239
   0.68120034  0.00195114  0.10102226
   0.00521287  0.67773251  0.10129572
   0.11022396  0.38973630  0.33754321
   0.27691388  0.22298735  0.33765153
   0.11028030  0.88976525  0.33760415
   0.27694962  0.72302421  0.33748040
   0.61018687  0.38969595  0.33749535
   0.77685449  0.22300007  0.33753204
   0.61015149  0.88966181  0.33763080
   0.77679674  0.72296173  0.33754776
Direct configuration=    38
   0.00520541  0.00184328  0.10569047
   0.36001198  0.00179477  0.10060187
   0.00522091  0.35669847  0.10067002
   0.65047503  0.64694210  0.10063526
   0.32943417  0.32584300  0.10128604
   0.68126387  0.00190048  0.10103092
   0.00527669  0.67766957  0.10129085
   0.11018489  0.38976951  0.33755111
   0.27686357  0.22305131  0.33766029
   0.11021221  0.88978154  0.33761330
   0.27688637  0.72307683  0.33750019
   0.61013395  0.38973221  0.33751146
   0.77679703  0.22303992  0.33754321
   0.61011475  0.88971178  0.33763326
   0.77676872  0.72302368  0.33756108
Direct configuration=    39
   0.00548980  0.00172237  0.10499040
   0.36027058  0.00168803  0.10070489
   0.00542267  0.35677840  0.10085177
   0.65043320  0.64658901  0.10079225
   0.32953673  0.32562229  0.10126701
   0.68145447  0.00174852  0.10105691
   0.00546815  0.67748074  0.10127622
   0.11006770  0.38986917  0.33757482
   0.27671262  0.22324317  0.33768655
   0.11000796  0.88983041  0.33764075
   0.27669662  0.72323468  0.33755955
   0.60997519  0.38984099  0.33755978
   0.77662468  0.22315947  0.33757672
   0.61000455  0.88986167  0.33764064
   0.77668465  0.72320954  0.33760106
Direct configuration=    40
   0.00554622  0.00163480  0.10465954
   0.36049428  0.00161965  0.10075227
   0.00551607  0.35675956  0.10093318
   0.65043155  0.64643210  0.10086366
   0.32958532  0.32554114  0.10125536
   0.68153883  0.00164787  0.10108422
   0.00553822  0.67747986  0.10126733
   0.10993478  0.38991724  0.33758618
   0.27660789  0.22326096  0.33770155
   0.10995906  0.88994635  0.33765333
   0.27662941  0.72327785  0.33758293
   0.60993279  0.38991140  0.33757790
   0.77660794  0.22326057  0.33759351
   0.60993827  0.88992242  0.33764866
   0.77658893  0.72326665  0.33761971
Direct configuration=    41
   0.00560057  0.00155044  0.10434081
   0.36070979  0.00155378  0.10079791
   0.00560603  0.35674142  0.10101160
   0.65042996  0.64628094  0.10093246
   0.32963214  0.32546297  0.10124414
   0.68162010  0.00155092  0.10111053
   0.00560572  0.67747901  0.10125877
   0.10980673  0.38996356  0.33759712
   0.27650700  0.22327810  0.33771600
   0.10991195  0.89005804  0.33766544
   0.27656466  0.72331944  0.33760546
   0.60989194  0.38997924  0.33759536
   0.77659182  0.22335796  0.33760968
   0.60987441  0.88998095  0.33765639
   0.77649673  0.72332167  0.33763767
Direct configuration=    42
   0.00559792  0.00146517  0.10408133
   0.36086102  0.00148502  0.10083370
   0.00567045  0.35666292  0.10106217
   0.65049920  0.64622526  0.10097965
   0.32969712  0.32543004  0.10123953
   0.68168871  0.00146080  0.10115058
   0.00565386  0.67747497  0.10125647
   0.10979730  0.39004257  0.33760898
   0.27648602  0.22336513  0.33772911
   0.10985597  0.89009003  0.33767734
   0.27652029  0.72338030  0.33761334
   0.60980771  0.39002489  0.33760452
   0.77648662  0.22337692  0.33762141
   0.60979549  0.89003603  0.33767237
   0.77643187  0.72335839  0.33764884
Direct configuration=    43
   0.00559617  0.00140879  0.10390980
   0.36096099  0.00143956  0.10085736
   0.00571303  0.35661103  0.10109559
   0.65054497  0.64618845  0.10101085
   0.32974007  0.32540827  0.10123648
   0.68173406  0.00140123  0.10117706
   0.00568567  0.67747230  0.10125495
   0.10979107  0.39009480  0.33761682
   0.27647216  0.22342266  0.33773778
   0.10981896  0.89011119  0.33768521
   0.27649097  0.72342054  0.33761855
   0.60975203  0.39005507  0.33761058
   0.77641708  0.22338946  0.33762917
   0.60974332  0.89007243  0.33768293
   0.77638900  0.72338266  0.33765622
Direct configuration=    44
   0.00564928  0.00135268  0.10366308
   0.36097660  0.00137443  0.10089279
   0.00577661  0.35653816  0.10112882
   0.65065251  0.64617210  0.10104648
   0.32983063  0.32537929  0.10123885
   0.68179103  0.00133106  0.10123028
   0.00575581  0.67737311  0.10125915
   0.10974332  0.39013717  0.33763063
   0.27641174  0.22347861  0.33775106
   0.10974287  0.89013888  0.33769797
   0.27642175  0.72348684  0.33761653
   0.60969256  0.39010728  0.33761461
   0.77635479  0.22344005  0.33763900
   0.60969549  0.89011620  0.33770674
   0.77635455  0.72345257  0.33766335
Direct configuration=    45
   0.00578274  0.00121168  0.10304311
   0.36101581  0.00121075  0.10098184
   0.00593638  0.35635506  0.10121233
   0.65092275  0.64613101  0.10113599
   0.33005819  0.32530647  0.10124481
   0.68193420  0.00115474  0.10136403
   0.00593205  0.67712386  0.10126968
   0.10962335  0.39024365  0.33766534
   0.27625991  0.22361921  0.33778443
   0.10955166  0.89020847  0.33773005
   0.27624783  0.72365345  0.33761147
   0.60954312  0.39023848  0.33762473
   0.77619826  0.22356717  0.33766370
   0.60957531  0.89022618  0.33776657
   0.77626799  0.72362827  0.33768126
Direct configuration=    46
   0.00586708  0.00118078  0.10284195
   0.36102618  0.00115847  0.10101574
   0.00599448  0.35630137  0.10123818
   0.65098962  0.64608683  0.10116572
   0.33012762  0.32526179  0.10124729
   0.68196161  0.00111146  0.10140444
   0.00599939  0.67704970  0.10127337
   0.10954454  0.39029496  0.33767475
   0.27619947  0.22362860  0.33779555
   0.10952994  0.89030125  0.33773818
   0.27621168  0.72366882  0.33761230
   0.60950963  0.39029136  0.33762705
   0.77617627  0.22361929  0.33767318
   0.60952103  0.89027834  0.33778346
   0.77619103  0.72364542  0.33768818
Direct configuration=    47
   0.00595367  0.00114905  0.10263543
   0.36103683  0.00110479  0.10105054
   0.00605411  0.35624626  0.10126471
   0.65105827  0.64604147  0.10119625
   0.33019889  0.32521591  0.10124983
   0.68198975  0.00106703  0.10144593
   0.00606852  0.67697357  0.10127717
   0.10946363  0.39034763  0.33768440
   0.27613742  0.22363824  0.33780698
   0.10950764  0.89039650  0.33774652
   0.27617456  0.72368461  0.33761315
   0.60947525  0.39034565  0.33762944
   0.77615369  0.22367280  0.33768292
   0.60946531  0.89033190  0.33780079
   0.77611201  0.72366303  0.33769529
Direct configuration=    48
   0.00600676  0.00113983  0.10255117
   0.36107270  0.00108196  0.10107244
   0.00608085  0.35622547  0.10127710
   0.65106104  0.64598930  0.10121207
   0.33021759  0.32517365  0.10125042
   0.68199855  0.00105984  0.10145426
   0.00609814  0.67697088  0.10127785
   0.10944116  0.39036439  0.33768541
   0.27612404  0.22367726  0.33781122
   0.10949473  0.89041366  0.33774656
   0.27616042  0.72370213  0.33761891
   0.60945008  0.39035019  0.33763054
   0.77612851  0.22369489  0.33768882
   0.60943781  0.89035544  0.33780243
   0.77607719  0.72367957  0.33770013
Direct configuration=    49
   0.00614930  0.00111506  0.10232494
   0.36116899  0.00102067  0.10113126
   0.00615264  0.35616965  0.10131037
   0.65106849  0.64584923  0.10125456
   0.33026780  0.32506017  0.10125199
   0.68202219  0.00104052  0.10147665
   0.00617764  0.67696365  0.10127971
   0.10938085  0.39040938  0.33768811
   0.27608811  0.22378202  0.33782260
   0.10946004  0.89045972  0.33774666
   0.27612244  0.72374918  0.33763437
   0.60938249  0.39036240  0.33763351
   0.77606089  0.22375420  0.33770466
   0.60936398  0.89041863  0.33780683
   0.77598369  0.72372396  0.33771311
Direct configuration=    50
   0.00617974  0.00108653  0.10222852
   0.36122617  0.00099270  0.10116143
   0.00617730  0.35615402  0.10132663
   0.65107767  0.64579941  0.10127557
   0.33029128  0.32501516  0.10125305
   0.68206679  0.00102709  0.10147839
   0.00620217  0.67695242  0.10128056
   0.10936205  0.39043415  0.33768863
   0.27605729  0.22379829  0.33782520
   0.10941718  0.89047200  0.33774591
   0.27608461  0.72377934  0.33764352
   0.60935441  0.39039818  0.33763688