 vasp.6.3.2 27Jun22 (build Dec 22 2022 13:13:19) complex                        
  
 executed on             LinuxIFC date 2024.02.25  02:01:51
 running   48 mpi-ranks, with    1 threads/rank
 distrk:  each k-point on   48 cores,    1 groups
 distr:  one band on NCORE=   1 cores,   48 groups


--------------------------------------------------------------------------------------------------------


 INCAR:
   SYSTEM = PDoS
   ISTART = 1
   ICHARG = 11
   PREC = Accurate
   LORBIT = 11
   NEDOS = 4000
   ENCUT = 450
   LCHARG = .FALSE.
   LWAVE = .FALSE.
   ALGO = Normal
   EDIFF = 1E-6
   EDIFFG = -1E-3
   SIGMA = 0.1
   ISMEAR = 0
   SYMPREC = 1E-6
   NSW = 0
   IBRION = -1
   POTIM = .5

 POTCAR:    PAW_PBE B 06Sep2000                   
 POTCAR:    PAW_PBE C 08Apr2002                   
 POTCAR:    PAW_PBE B 06Sep2000                   
   SHA256 =  a32ced30f5ae56fd4d10b4325ff17eb3e4e38ee0f4288bc219fb012fddfa6e97 B/POTCAR              
   COPYR  = (c) Copyright 06Sep2000 Georg Kresse                                                    
   COPYR  = This file is part of the software VASP. Any use, copying, and all other rights are regul
   COPYR  = If you do not have a valid VASP license, you may not use, copy or distribute this file. 
   VRHFIN =B: s2p1                                                                                  
   LEXCH  = PE                                                                                      
   EATOM  =    71.1703 eV,    5.2309 Ry                                                             
                                                                                                    
   TITEL  = PAW_PBE B 06Sep2000                                                                     
   LULTRA =        F    use ultrasoft PP ?                                                          
   IUNSCR =        1    unscreen: 0-lin 1-nonlin 2-no                                               
   RPACOR =    1.200    partial core radius                                                         
   POMASS =   10.811; ZVAL   =    3.000    mass and valenz                                          
   RCORE  =    1.700    outmost cutoff radius                                                       
   RWIGS  =    1.710; RWIGS  =    0.905    wigner-seitz radius (au A)                               
   ENMAX  =  318.614; ENMIN  =  238.960 eV                                                          
   ICORE  =        2    local potential                                                             
   LCOR   =        T    correct aug charges                                                         
   LPAW   =        T    paw PP                                                                      
   EAUG   =  535.514                                                                                
   DEXC   =    0.000                                                                                
   RMAX   =    1.732    core radius for proj-oper                                                   
   RAUG   =    1.300    factor for augmentation sphere                                              
   RDEP   =    1.757    radius for radial grids                                                     
   RDEPT  =    1.436    core radius for aug-charge                                                  
                                                                                                    
   Atomic configuration                                                                             
    4 entries                                                                                       
     n  l   j            E        occ.                                                              
     1  0  0.50      -180.5896   2.0000                                                             
     2  0  0.50        -9.4431   2.0000                                                             
     2  1  0.50        -3.6068   1.0000                                                             
     3  2  1.50        -4.0817   0.0000                                                             
   Description                                                                                      
     l       E           TYP  RCUT    TYP  RCUT                                                     
     0     -9.4430752     23  1.500                                                                 
     0      0.8675899     23  1.500                                                                 
     1     -3.6067955     23  1.700                                                                 
     1      6.1086146     23  1.700                                                                 
     2     -4.0817478      7  1.700                                                                 
  local pseudopotential read in
  partial core-charges read in
  partial kinetic energy density read in
  atomic valenz-charges read in
  non local Contribution for L=           0  read in
    real space projection operators read in
  non local Contribution for L=           0  read in
    real space projection operators read in
  non local Contribution for L=           1  read in
    real space projection operators read in
  non local Contribution for L=           1  read in
    real space projection operators read in
    PAW grid and wavefunctions read in
 
   number of l-projection  operators is LMAX  =           4
   number of lm-projection operators is LMMAX =           8
 
 POTCAR:    PAW_PBE C 08Apr2002                   
   SHA256 =  253f7b50bb8d59471dbedb8285d89021f4a42ed1a2c5d38a03a736e69125dd95 C/POTCAR              
   COPYR  = (c) Copyright 08Apr2002 Georg Kresse                                                    
   COPYR  = This file is part of the software VASP. Any use, copying, and all other rights are regul
   COPYR  = If you do not have a valid VASP license, you may not use, copy or distribute this file. 
   VRHFIN =C: s2p2                                                                                  
   LEXCH  = PE                                                                                      
   EATOM  =   147.1560 eV,   10.8157 Ry                                                             
                                                                                                    
   TITEL  = PAW_PBE C 08Apr2002                                                                     
   LULTRA =        F    use ultrasoft PP ?                                                          
   IUNSCR =        1    unscreen: 0-lin 1-nonlin 2-no                                               
   RPACOR =    1.200    partial core radius                                                         
   POMASS =   12.011; ZVAL   =    4.000    mass and valenz                                          
   RCORE  =    1.500    outmost cutoff radius                                                       
   RWIGS  =    1.630; RWIGS  =    0.863    wigner-seitz radius (au A)                               
   ENMAX  =  400.000; ENMIN  =  300.000 eV                                                          
   ICORE  =        2    local potential                                                             
   LCOR   =        T    correct aug charges                                                         
   LPAW   =        T    paw PP                                                                      
   EAUG   =  644.873                                                                                
   DEXC   =    0.000                                                                                
   RMAX   =    1.529    core radius for proj-oper                                                   
   RAUG   =    1.300    factor for augmentation sphere                                              
   RDEP   =    1.501    radius for radial grids                                                     
   RDEPT  =    1.300    core radius for aug-charge                                                  
                                                                                                    
   Atomic configuration                                                                             
    4 entries                                                                                       
     n  l   j            E        occ.                                                              
     1  0  0.50      -273.3789   2.0000                                                             
     2  0  0.50       -13.7508   2.0000                                                             
     2  1  0.50        -5.2854   2.0000                                                             
     3  2  1.50        -5.4423   0.0000                                                             
   Description                                                                                      
     l       E           TYP  RCUT    TYP  RCUT                                                     
     0    -13.7508458     23  1.200                                                                 
     0     -8.2022199     23  1.200                                                                 
     1     -5.2854383     23  1.500                                                                 
     1     34.0145650     23  1.500                                                                 
     2     -5.4423304      7  1.500                                                                 
  local pseudopotential read in
  partial core-charges read in
  partial kinetic energy density read in
  atomic valenz-charges read in
  non local Contribution for L=           0  read in
    real space projection operators read in
  non local Contribution for L=           0  read in
    real space projection operators read in
  non local Contribution for L=           1  read in
    real space projection operators read in
  non local Contribution for L=           1  read in
    real space projection operators read in
    PAW grid and wavefunctions read in
 
   number of l-projection  operators is LMAX  =           4
   number of lm-projection operators is LMMAX =           8
 
  PAW_PBE B 06Sep2000                   :
 energy of atom  1       EATOM=  -71.1703
 kinetic energy error for atom=    0.0015 (will be added to EATOM!!)
  PAW_PBE C 08Apr2002                   :
 energy of atom  2       EATOM= -147.1560
 kinetic energy error for atom=    0.0116 (will be added to EATOM!!)
 
 
 POSCAR: Graphene-Borophene Top with lattice para
  positions in direct lattice
  velocities in cartesian coordinates
 exchange correlation table for  LEXCH =        8
   RHO(1)=    0.500       N(1)  =     2000
   RHO(2)=  100.500       N(2)  =     4000

 VTST: version 4.2, (08/11/21)

 CHAIN: initializing optimizer
 
 OPT: Using VASP Dynamics algorithm
 CHAIN: Read ICHAIN            0
 
 POSCAR: Graphene-Borophene Top with lattice para
  positions in direct lattice
  velocities in cartesian coordinates
 


--------------------------------------------------------------------------------------------------------


 ion  position               nearest neighbor table
   1  0.669  0.000  0.101-   3 1.65   6 1.65   7 1.68   8 1.68   2 1.68
   2  0.332  0.000  0.101-   5 1.65   4 1.65   7 1.68   8 1.68   1 1.68
   3  1.000  0.331  0.101-   1 1.65   5 1.65   7 1.68   8 1.68   4 1.68
   4  1.000  0.668  0.101-   6 1.65   2 1.65   7 1.68   8 1.68   3 1.68
   5  0.332  0.331  0.101-   2 1.65   3 1.65   7 1.68   8 1.68   6 1.68
   6  0.669  0.668  0.101-   4 1.65   1 1.65   7 1.68   8 1.68   5 1.68
   7  0.667  0.333  0.088-   5 1.68   6 1.68   2 1.68   1 1.68   4 1.68   3 1.68
   8  0.333  0.667  0.114-   5 1.68   6 1.68   3 1.68   4 1.68   1 1.68   2 1.68
   9  0.167  0.333  0.335-  14 1.44  10 1.44  12 1.44
  10  0.333  0.167  0.334-  11 1.44   9 1.44  13 1.44
  11  0.167  0.833  0.335-  16 1.44  10 1.44  12 1.44
  12  0.333  0.667  0.335-   9 1.44  15 1.44  11 1.44
  13  0.667  0.333  0.334-  10 1.44  16 1.44  14 1.44
  14  0.833  0.167  0.334-   9 1.44  15 1.44  13 1.44
  15  0.667  0.833  0.335-  14 1.44  16 1.44  12 1.44
  16  0.833  0.667  0.334-  11 1.44  15 1.44  13 1.44
 
  LATTYP: Found a hexagonal cell.
 ALAT       =     4.9790000000
 C/A-ratio  =     3.0126531432
  
  Lattice vectors:
  
 A1 = (   4.3119404854,   2.4895000000,   0.0000000000)
 A2 = (  -4.3119404854,   2.4895000000,   0.0000000000)
 A3 = (   0.0000000000,   0.0000000000,  15.0000000000)


Analysis of symmetry for initial positions (statically):
=====================================================================
 Subroutine PRICEL returns:
 Original cell was already a primitive cell.
 

 Routine SETGRP: Setting up the symmetry group for a 
 hexagonal supercell.


 Subroutine GETGRP returns: Found  2 space group operations
 (whereof  1 operations were pure point group operations)
 out of a pool of 24 trial point group operations.


The static configuration has the point symmetry C_1 .
 The point group associated with its full space group is C_1h.


Analysis of symmetry for dynamics (positions and initial velocities):
=====================================================================
 Subroutine PRICEL returns:
 Original cell was already a primitive cell.
 

 Routine SETGRP: Setting up the symmetry group for a 
 hexagonal supercell.


 Subroutine GETGRP returns: Found  2 space group operations
 (whereof  1 operations were pure point group operations)
 out of a pool of 24 trial point group operations.


The dynamic configuration has the point symmetry C_1 .
 The point group associated with its full space group is C_1h.


 Subroutine INISYM returns: Found  2 space group operations
 (whereof  1 operations are pure point group operations),
 and found     1 'primitive' translations


----------------------------------------------------------------------------------------

                                     Primitive cell                                     

  volume of cell :     322.0373

  direct lattice vectors                    reciprocal lattice vectors
     4.311940485  2.489500000  0.000000000     0.115957074  0.200843543  0.000000000
    -4.311940485  2.489500000  0.000000000    -0.115957074  0.200843543  0.000000000
     0.000000000  0.000000000 15.000000000     0.000000000  0.000000000  0.066666667

  length of vectors
     4.979000000  4.979000000 15.000000000     0.231914147  0.231914147  0.066666667

  position of ions in fractional coordinates (direct lattice)
     0.668529486  0.000031744  0.101490874
     0.331501257  0.000031744  0.101490874
     0.999968256  0.331469514  0.101490874
     0.999968256  0.668497743  0.101490874
     0.331501257  0.331469514  0.101490874
     0.668529486  0.668497743  0.101490874
     0.666666000  0.333333000  0.088455217
     0.333333000  0.666666000  0.114424057
     0.166653576  0.333308152  0.334568638
     0.333330518  0.166664759  0.334466239
     0.166653576  0.833345424  0.334568638
     0.333333000  0.666666000  0.334626021
     0.666666000  0.333333000  0.334444829
     0.833334241  0.166664759  0.334466239
     0.666690848  0.833345424  0.334568638
     0.833334241  0.666668482  0.334466239

  ion indices of the primitive-cell ions
   primitive index   ion index
                 1           1
                 2           2
                 3           3
                 4           4
                 5           5
                 6           6
                 7           7
                 8           8
                 9           9
                10          10
                11          11
                12          12
                13          13
                14          14
                15          15
                16          16

----------------------------------------------------------------------------------------

 
 
 KPOINTS: k-points                                

Automatic generation of k-mesh.
 Grid dimensions read from file:
 generate k-points for:   19   19    1

 Generating k-lattice:

  Cartesian coordinates                     Fractional coordinates (reciprocal lattice)
     0.006103004  0.010570713  0.000000000     0.052631579 -0.000000000  0.000000000
    -0.006103004  0.010570713  0.000000000    -0.000000000  0.052631579  0.000000000
     0.000000000  0.000000000  0.066666667     0.000000000  0.000000000  1.000000000

  Length of vectors
     0.012206008  0.012206008  0.066666667

  Shift w.r.t. Gamma in fractional coordinates (k-lattice)
     0.000000000  0.000000000  0.000000000

 
 Subroutine IBZKPT returns following result:
 ===========================================
 
 Found    100 irreducible k-points:
 
 Following reciprocal coordinates:
            Coordinates               Weight
  0.000000  0.000000  0.000000      1.000000
  0.052632 -0.000000  0.000000      4.000000
 -0.052632  0.052632  0.000000      2.000000
  0.105263 -0.000000  0.000000      4.000000
 -0.105263  0.105263  0.000000      2.000000
  0.157895 -0.000000  0.000000      4.000000
 -0.157895  0.157895  0.000000      2.000000
  0.210526  0.000000  0.000000      4.000000
 -0.210526  0.210526  0.000000      2.000000
  0.263158  0.000000  0.000000      4.000000
 -0.263158  0.263158  0.000000      2.000000
  0.315789 -0.000000  0.000000      4.000000
 -0.315789  0.315789  0.000000      2.000000
  0.368421 -0.000000  0.000000      4.000000
 -0.368421  0.368421  0.000000      2.000000
  0.421053  0.000000  0.000000      4.000000
 -0.421053  0.421053  0.000000      2.000000
  0.473684  0.000000  0.000000      4.000000
 -0.473684  0.473684  0.000000      2.000000
  0.052632  0.052632  0.000000      2.000000
 -0.052632  0.105263  0.000000      4.000000
  0.105263  0.052632  0.000000      4.000000
 -0.052632  0.157895  0.000000      4.000000
 -0.157895  0.105263  0.000000      4.000000
  0.157895  0.052632  0.000000      4.000000
 -0.052632  0.210526  0.000000      4.000000
 -0.210526  0.157895  0.000000      4.000000
  0.210526  0.052632  0.000000      4.000000
 -0.052632  0.263158  0.000000      4.000000
 -0.263158  0.210526  0.000000      4.000000
  0.263158  0.052632  0.000000      4.000000
 -0.052632  0.315789  0.000000      4.000000
 -0.315789  0.263158  0.000000      4.000000
  0.315789  0.052632  0.000000      4.000000
 -0.052632  0.368421  0.000000      4.000000
 -0.368421  0.315789  0.000000      4.000000
  0.368421  0.052632  0.000000      4.000000
 -0.052632  0.421053  0.000000      4.000000
 -0.421053  0.368421  0.000000      4.000000
  0.421053  0.052632  0.000000      4.000000
 -0.052632  0.473684  0.000000      4.000000
 -0.473684  0.421053  0.000000      4.000000
  0.473684  0.052632  0.000000      4.000000
  0.473684  0.473684  0.000000      2.000000
  0.105263  0.105263  0.000000      2.000000
 -0.105263  0.210526  0.000000      4.000000
  0.157895  0.105263  0.000000      4.000000
 -0.105263  0.263158  0.000000      4.000000
 -0.263158  0.157895  0.000000      4.000000
  0.210526  0.105263  0.000000      4.000000
 -0.105263  0.315789  0.000000      4.000000
 -0.315789  0.210526  0.000000      4.000000
  0.263158  0.105263  0.000000      4.000000
 -0.105263  0.368421  0.000000      4.000000
 -0.368421  0.263158  0.000000      4.000000
  0.315789  0.105263  0.000000      4.000000
 -0.105263  0.421053  0.000000      4.000000
 -0.421053  0.315789  0.000000      4.000000
  0.368421  0.105263  0.000000      4.000000
 -0.105263  0.473684  0.000000      4.000000
 -0.473684  0.368421  0.000000      4.000000
  0.421053  0.105263  0.000000      4.000000
 -0.105263 -0.473684  0.000000      4.000000
  0.473684  0.421053  0.000000      4.000000
  0.157895  0.157895  0.000000      2.000000
 -0.157895  0.315789  0.000000      4.000000
  0.210526  0.157895  0.000000      4.000000
 -0.157895  0.368421  0.000000      4.000000
 -0.368421  0.210526  0.000000      4.000000
  0.263158  0.157895  0.000000      4.000000
 -0.157895  0.421053  0.000000      4.000000
 -0.421053  0.263158  0.000000      4.000000
  0.315789  0.157895  0.000000      4.000000
 -0.157895  0.473684  0.000000      4.000000
 -0.473684  0.315789  0.000000      4.000000
  0.368421  0.157895  0.000000      4.000000
 -0.157895 -0.473684  0.000000      4.000000
  0.473684  0.368421  0.000000      4.000000
  0.421053  0.157895  0.000000      4.000000
  0.421053  0.421053  0.000000      2.000000
  0.210526  0.210526  0.000000      2.000000
 -0.210526  0.421053  0.000000      4.000000
  0.263158  0.210526  0.000000      4.000000
 -0.210526  0.473684  0.000000      4.000000
 -0.473684  0.263158  0.000000      4.000000
  0.315789  0.210526  0.000000      4.000000
 -0.210526 -0.473684  0.000000      4.000000
  0.473684  0.315789  0.000000      4.000000
  0.368421  0.210526  0.000000      4.000000
 -0.210526 -0.421053  0.000000      4.000000
  0.421053  0.368421  0.000000      4.000000
  0.263158  0.263158  0.000000      2.000000
 -0.263158 -0.473684  0.000000      4.000000
  0.315789  0.263158  0.000000      4.000000
 -0.263158 -0.421053  0.000000      4.000000
  0.421053  0.315789  0.000000      4.000000
  0.368421  0.263158  0.000000      4.000000
  0.368421  0.368421  0.000000      2.000000
  0.315789  0.315789  0.000000      2.000000
 -0.315789 -0.368421  0.000000      4.000000
 
 Following cartesian coordinates:
            Coordinates               Weight
  0.000000  0.000000  0.000000      1.000000
  0.006103  0.010571  0.000000      4.000000
 -0.012206 -0.000000  0.000000      2.000000
  0.012206  0.021141  0.000000      4.000000
 -0.024412 -0.000000  0.000000      2.000000
  0.018309  0.031712  0.000000      4.000000
 -0.036618 -0.000000  0.000000      2.000000
  0.024412  0.042283  0.000000      4.000000
 -0.048824  0.000000  0.000000      2.000000
  0.030515  0.052854  0.000000      4.000000
 -0.061030 -0.000000  0.000000      2.000000
  0.036618  0.063424  0.000000      4.000000
 -0.073236  0.000000  0.000000      2.000000
  0.042721  0.073995  0.000000      4.000000
 -0.085442 -0.000000  0.000000      2.000000
  0.048824  0.084566  0.000000      4.000000
 -0.097648  0.000000  0.000000      2.000000
  0.054927  0.095136  0.000000      4.000000
 -0.109854  0.000000  0.000000      2.000000
  0.000000  0.021141  0.000000      2.000000
 -0.018309  0.010571  0.000000      4.000000
  0.006103  0.031712  0.000000      4.000000
 -0.024412  0.021141  0.000000      4.000000
 -0.030515 -0.010571  0.000000      4.000000
  0.012206  0.042283  0.000000      4.000000
 -0.030515  0.031712  0.000000      4.000000
 -0.042721 -0.010571  0.000000      4.000000
  0.018309  0.052854  0.000000      4.000000
 -0.036618  0.042283  0.000000      4.000000
 -0.054927 -0.010571  0.000000      4.000000
  0.024412  0.063424  0.000000      4.000000
 -0.042721  0.052854  0.000000      4.000000
 -0.067133 -0.010571  0.000000      4.000000
  0.030515  0.073995  0.000000      4.000000
 -0.048824  0.063424  0.000000      4.000000
 -0.079339 -0.010571  0.000000      4.000000
  0.036618  0.084566  0.000000      4.000000
 -0.054927  0.073995  0.000000      4.000000
 -0.091545 -0.010571  0.000000      4.000000
  0.042721  0.095136  0.000000      4.000000
 -0.061030  0.084566  0.000000      4.000000
 -0.103751 -0.010571  0.000000      4.000000
  0.048824  0.105707  0.000000      4.000000
 -0.000000  0.190273  0.000000      2.000000
  0.000000  0.042283  0.000000      2.000000
 -0.036618  0.021141  0.000000      4.000000
  0.006103  0.052854  0.000000      4.000000
 -0.042721  0.031712  0.000000      4.000000
 -0.048824 -0.021141  0.000000      4.000000
  0.012206  0.063424  0.000000      4.000000
 -0.048824  0.042283  0.000000      4.000000
 -0.061030 -0.021141  0.000000      4.000000
  0.018309  0.073995  0.000000      4.000000
 -0.054927  0.052854  0.000000      4.000000
 -0.073236 -0.021141  0.000000      4.000000
  0.024412  0.084566  0.000000      4.000000
 -0.061030  0.063424  0.000000      4.000000
 -0.085442 -0.021141  0.000000      4.000000
  0.030515  0.095136  0.000000      4.000000
 -0.067133  0.073995  0.000000      4.000000
 -0.097648 -0.021141  0.000000      4.000000
  0.036618  0.105707  0.000000      4.000000
  0.042721 -0.116278  0.000000      4.000000
  0.006103  0.179702  0.000000      4.000000
 -0.000000  0.063424  0.000000      2.000000
 -0.054927  0.031712  0.000000      4.000000
  0.006103  0.073995  0.000000      4.000000
 -0.061030  0.042283  0.000000      4.000000
 -0.067133 -0.031712  0.000000      4.000000
  0.012206  0.084566  0.000000      4.000000
 -0.067133  0.052854  0.000000      4.000000
 -0.079339 -0.031712  0.000000      4.000000
  0.018309  0.095136  0.000000      4.000000
 -0.073236  0.063424  0.000000      4.000000
 -0.091545 -0.031712  0.000000      4.000000
  0.024412  0.105707  0.000000      4.000000
  0.036618 -0.126849  0.000000      4.000000
  0.012206  0.169131  0.000000      4.000000
  0.030515  0.116278  0.000000      4.000000
  0.000000  0.169131  0.000000      2.000000
 -0.000000  0.084566  0.000000      2.000000
 -0.073236  0.042283  0.000000      4.000000
  0.006103  0.095136  0.000000      4.000000
 -0.079339  0.052854  0.000000      4.000000
 -0.085442 -0.042283  0.000000      4.000000
  0.012206  0.105707  0.000000      4.000000
  0.030515 -0.137419  0.000000      4.000000
  0.018309  0.158561  0.000000      4.000000
  0.018309  0.116278  0.000000      4.000000
  0.024412 -0.126849  0.000000      4.000000
  0.006103  0.158561  0.000000      4.000000
  0.000000  0.105707  0.000000      2.000000
  0.024412 -0.147990  0.000000      4.000000
  0.006103  0.116278  0.000000      4.000000
  0.018309 -0.137419  0.000000      4.000000
  0.012206  0.147990  0.000000      4.000000
  0.012206  0.126849  0.000000      4.000000
 -0.000000  0.147990  0.000000      2.000000
 -0.000000  0.126849  0.000000      2.000000
  0.006103 -0.137419  0.000000      4.000000
 


--------------------------------------------------------------------------------------------------------




 Dimension of arrays:
   k-points           NKPTS =    100   k-points in BZ     NKDIM =    100   number of bands    NBANDS=     48
   number of dos      NEDOS =   4000   number of ions     NIONS =     16
   non local maximal  LDIM  =      4   non local SUM 2l+1 LMDIM =      8
   total plane-waves  NPLWV = 139968
   max r-space proj   IRMAX =      1   max aug-charges    IRDMAX=   6977
   dimension x,y,z NGX =    36 NGY =   36 NGZ =  108
   dimension x,y,z NGXF=    72 NGYF=   72 NGZF=  216
   support grid    NGXF=    72 NGYF=   72 NGZF=  216
   ions per type =               8   8
   NGX,Y,Z   is equivalent  to a cutoff of  12.02, 12.02, 11.97 a.u.
   NGXF,Y,Z  is equivalent  to a cutoff of  24.04, 24.04, 23.94 a.u.

 SYSTEM =  PDoS                                    
 POSCAR =  Graphene-Borophene Top with lattice para

 Startparameter for this run:
   NWRITE =      2    write-flag & timer
   PREC   = accura    normal or accurate (medium, high low for compatibility)
   ISTART =      0    job   : 0-new  1-cont  2-samecut
   ICHARG =     11    charge: 1-file 2-atom 10-const
   ISPIN  =      1    spin polarized calculation?
   LNONCOLLINEAR =      F non collinear calculations
   LSORBIT =      F    spin-orbit coupling
   INIWAV =      1    electr: 0-lowe 1-rand  2-diag
   LASPH  =      F    aspherical Exc in radial PAW
 Electronic Relaxation 1
   ENCUT  =  450.0 eV  33.07 Ry    5.75 a.u.   8.61  8.61 25.95*2*pi/ulx,y,z
   ENINI  =  450.0     initial cutoff
   ENAUG  =  644.9 eV  augmentation charge cutoff
   NELM   =     60;   NELMIN=  2; NELMDL=  0     # of ELM steps 
   EDIFF  = 0.1E-05   stopping-criterion for ELM
   LREAL  =      F    real-space projection
   NLSPLINE    = F    spline interpolate recip. space projectors
   LCOMPAT=      F    compatible to vasp.4.4
   GGA_COMPAT  = T    GGA compatible to vasp.4.4-vasp.4.6
   LMAXPAW     = -100 max onsite density
   LMAXMIX     =    2 max onsite mixed and CHGCAR
   VOSKOWN=      0    Vosko Wilk Nusair interpolation
   ROPT   =    0.00000   0.00000
 Ionic relaxation
   EDIFFG = -.1E-02   stopping-criterion for IOM
   NSW    =      0    number of steps for IOM
   NBLOCK =      1;   KBLOCK =      1    inner block; outer block 
   IBRION =     -1    ionic relax: 0-MD 1-quasi-New 2-CG
   NFREE  =      0    steps in history (QN), initial steepest desc. (CG)
   ISIF   =      2    stress and relaxation
   IWAVPR =     10    prediction:  0-non 1-charg 2-wave 3-comb
   ISYM   =      2    0-nonsym 1-usesym 2-fastsym
   LCORR  =      T    Harris-Foulkes like correction to forces

   POTIM  = 0.5000    time-step for ionic-motion
   TEIN   =    0.0    initial temperature
   TEBEG  =    0.0;   TEEND  =   0.0 temperature during run
   SMASS  =  -3.00    Nose mass-parameter (am)
   estimated Nose-frequenzy (Omega)   =  0.10E-29 period in steps = 0.13E+47 mass=  -0.567E-27a.u.
   SCALEE = 1.0000    scale energy and forces
   NPACO  =    256;   APACO  = 10.0  distance and # of slots for P.C.
   PSTRESS=    0.0 pullay stress

  Mass of Ions in am
   POMASS =  10.81 12.01
  Ionic Valenz
   ZVAL   =   3.00  4.00
  Atomic Wigner-Seitz radii
   RWIGS  =  -1.00 -1.00
  virtual crystal weights 
   VCA    =   1.00  1.00
   NELECT =      56.0000    total number of electrons
   NUPDOWN=      -1.0000    fix difference up-down

 DOS related values:
   EMIN   =  10.00;   EMAX   =-10.00  energy-range for DOS
   EFERMI =   0.00
   ISMEAR =     0;   SIGMA  =   0.10  broadening in eV -4-tet -1-fermi 0-gaus

 Electronic relaxation 2 (details)
   IALGO  =     38    algorithm
   LDIAG  =      T    sub-space diagonalisation (order eigenvalues)
   LSUBROT=      F    optimize rotation matrix (better conditioning)
   TURBO    =      0    0=normal 1=particle mesh
   IRESTART =      0    0=no restart 2=restart with 2 vectors
   NREBOOT  =      0    no. of reboots
   NMIN     =      0    reboot dimension
   EREF     =   0.00    reference energy to select bands
   IMIX   =      4    mixing-type and parameters
     AMIX     =   0.40;   BMIX     =  1.00
     AMIX_MAG =   1.60;   BMIX_MAG =  1.00
     AMIN     =   0.10
     WC   =   100.;   INIMIX=   1;  MIXPRE=   1;  MAXMIX= -45

 Intra band minimization:
   WEIMIN = 0.0000     energy-eigenvalue tresh-hold
   EBREAK =  0.52E-08  absolut break condition
   DEPER  =   0.30     relativ break condition  

   TIME   =   0.40     timestep for ELM

  volume/ion in A,a.u.               =      20.13       135.83
  Fermi-wavevector in a.u.,A,eV,Ry     =   0.913767  1.726769 11.360458  0.834970
  Thomas-Fermi vector in A             =   2.038317
 
 Write flags
   LWAVE        =      F    write WAVECAR
   LDOWNSAMPLE  =      F    k-point downsampling of WAVECAR
   LCHARG       =      F    write CHGCAR
   LVTOT        =      F    write LOCPOT, total local potential
   LVHAR        =      F    write LOCPOT, Hartree potential only
   LELF         =      F    write electronic localiz. function (ELF)
   LORBIT       =     11    0 simple, 1 ext, 2 COOP (PROOUT), +10 PAW based schemes


 Dipole corrections
   LMONO  =      F    monopole corrections only (constant potential shift)
   LDIPOL =      F    correct potential (dipole corrections)
   IDIPOL =      0    1-x, 2-y, 3-z, 4-all directions 
   EPSILON=  1.0000000 bulk dielectric constant

 Exchange correlation treatment:
   GGA     =    --    GGA type
   LEXCH   =     8    internal setting for exchange type
   LIBXC   =     F    Libxc                    
   VOSKOWN =     0    Vosko Wilk Nusair interpolation
   LHFCALC =     F    Hartree Fock is set to
   LHFONE  =     F    Hartree Fock one center treatment
   AEXX    =    0.0000 exact exchange contribution

 Linear response parameters
   LEPSILON=     F    determine dielectric tensor
   LRPA    =     F    only Hartree local field effects (RPA)
   LNABLA  =     F    use nabla operator in PAW spheres
   LVEL    =     F    velocity operator in full k-point grid
   CSHIFT  =0.1000    complex shift for real part using Kramers Kronig
   OMEGAMAX=  -1.0    maximum frequency
   DEG_THRESHOLD= 0.2000000E-02 threshold for treating states as degnerate
   RTIME   =   -0.100 relaxation time in fs
  (WPLASMAI=    0.000 imaginary part of plasma frequency in eV, 0.658/RTIME)
   DFIELD  = 0.0000000 0.0000000 0.0000000 field for delta impulse in time
 
  Optional k-point grid parameters
   LKPOINTS_OPT  =     F    use optional k-point grid
   KPOINTS_OPT_MODE=     1    mode for optional k-point grid
 
 Orbital magnetization related:
   ORBITALMAG=     F  switch on orbital magnetization
   LCHIMAG   =     F  perturbation theory with respect to B field
   DQ        =  0.001000  dq finite difference perturbation B field
   LLRAUG    =     F  two centre corrections for induced B field



--------------------------------------------------------------------------------------------------------


 Static calculation
 charge density and potential remain constant during run
 non-spin polarized calculation
 Variant of blocked Davidson
 Davidson routine will perform the subspace rotation
 perform sub-space diagonalisation
    after iterative eigenvector-optimisation
 no mixing
 using additional bands           20
 reciprocal scheme for non local part
 use partial core corrections
 calculate Harris-corrections to forces 
   (improved forces if not selfconsistent)
 use gradient corrections 
 WARNING: stress and forces are not correct
  (second derivative of E(xc) not defined)
 use of overlap-Matrix (Vanderbilt PP)
 Gauss-broadening in eV      SIGMA  =   0.10


--------------------------------------------------------------------------------------------------------


  energy-cutoff  :      450.00
  volume of cell :      322.04
      direct lattice vectors                 reciprocal lattice vectors
     4.311940485  2.489500000  0.000000000     0.115957074  0.200843543  0.000000000
    -4.311940485  2.489500000  0.000000000    -0.115957074  0.200843543  0.000000000
     0.000000000  0.000000000 15.000000000     0.000000000  0.000000000  0.066666667

  length of vectors
     4.979000000  4.979000000 15.000000000     0.231914147  0.231914147  0.066666667


 
 k-points in units of 2pi/SCALE and weight: k-points                                
   0.00000000  0.00000000  0.00000000       0.003
   0.00610300  0.01057071  0.00000000       0.011
  -0.01220601 -0.00000000  0.00000000       0.006
   0.01220601  0.02114143  0.00000000       0.011
  -0.02441202 -0.00000000  0.00000000       0.006
   0.01830901  0.03171214  0.00000000       0.011
  -0.03661802 -0.00000000  0.00000000       0.006
   0.02441202  0.04228285  0.00000000       0.011
  -0.04882403  0.00000000  0.00000000       0.006
   0.03051502  0.05285356  0.00000000       0.011
  -0.06103004 -0.00000000  0.00000000       0.006
   0.03661802  0.06342428  0.00000000       0.011
  -0.07323605  0.00000000  0.00000000       0.006
   0.04272103  0.07399499  0.00000000       0.011
  -0.08544205 -0.00000000  0.00000000       0.006
   0.04882403  0.08456570  0.00000000       0.011
  -0.09764806  0.00000000  0.00000000       0.006
   0.05492703  0.09513642  0.00000000       0.011
  -0.10985407  0.00000000  0.00000000       0.006
   0.00000000  0.02114143  0.00000000       0.006
  -0.01830901  0.01057071  0.00000000       0.011
   0.00610300  0.03171214  0.00000000       0.011
  -0.02441202  0.02114143  0.00000000       0.011
  -0.03051502 -0.01057071  0.00000000       0.011
   0.01220601  0.04228285  0.00000000       0.011
  -0.03051502  0.03171214  0.00000000       0.011
  -0.04272103 -0.01057071  0.00000000       0.011
   0.01830901  0.05285356  0.00000000       0.011
  -0.03661802  0.04228285  0.00000000       0.011
  -0.05492703 -0.01057071  0.00000000       0.011
   0.02441202  0.06342428  0.00000000       0.011
  -0.04272103  0.05285356  0.00000000       0.011
  -0.06713304 -0.01057071  0.00000000       0.011
   0.03051502  0.07399499  0.00000000       0.011
  -0.04882403  0.06342428  0.00000000       0.011
  -0.07933905 -0.01057071  0.00000000       0.011
   0.03661802  0.08456570  0.00000000       0.011
  -0.05492703  0.07399499  0.00000000       0.011
  -0.09154506 -0.01057071  0.00000000       0.011
   0.04272103  0.09513642  0.00000000       0.011
  -0.06103004  0.08456570  0.00000000       0.011
  -0.10375107 -0.01057071  0.00000000       0.011
   0.04882403  0.10570713  0.00000000       0.011
  -0.00000000  0.19027283  0.00000000       0.006
   0.00000000  0.04228285  0.00000000       0.006
  -0.03661802  0.02114143  0.00000000       0.011
   0.00610300  0.05285356  0.00000000       0.011
  -0.04272103  0.03171214  0.00000000       0.011
  -0.04882403 -0.02114143  0.00000000       0.011
   0.01220601  0.06342428  0.00000000       0.011
  -0.04882403  0.04228285  0.00000000       0.011
  -0.06103004 -0.02114143  0.00000000       0.011
   0.01830901  0.07399499  0.00000000       0.011
  -0.05492703  0.05285356  0.00000000       0.011
  -0.07323605 -0.02114143  0.00000000       0.011
   0.02441202  0.08456570  0.00000000       0.011
  -0.06103004  0.06342428  0.00000000       0.011
  -0.08544205 -0.02114143  0.00000000       0.011
   0.03051502  0.09513642  0.00000000       0.011
  -0.06713304  0.07399499  0.00000000       0.011
  -0.09764806 -0.02114143  0.00000000       0.011
   0.03661802  0.10570713  0.00000000       0.011
   0.04272103 -0.11627784  0.00000000       0.011
   0.00610300  0.17970212  0.00000000       0.011
  -0.00000000  0.06342428  0.00000000       0.006
  -0.05492703  0.03171214  0.00000000       0.011
   0.00610300  0.07399499  0.00000000       0.011
  -0.06103004  0.04228285  0.00000000       0.011
  -0.06713304 -0.03171214  0.00000000       0.011
   0.01220601  0.08456570  0.00000000       0.011
  -0.06713304  0.05285356  0.00000000       0.011
  -0.07933905 -0.03171214  0.00000000       0.011
   0.01830901  0.09513642  0.00000000       0.011
  -0.07323605  0.06342428  0.00000000       0.011
  -0.09154506 -0.03171214  0.00000000       0.011
   0.02441202  0.10570713  0.00000000       0.011
   0.03661802 -0.12684855  0.00000000       0.011
   0.01220601  0.16913140  0.00000000       0.011
   0.03051502  0.11627784  0.00000000       0.011
   0.00000000  0.16913140  0.00000000       0.006
  -0.00000000  0.08456570  0.00000000       0.006
  -0.07323605  0.04228285  0.00000000       0.011
   0.00610300  0.09513642  0.00000000       0.011
  -0.07933905  0.05285356  0.00000000       0.011
  -0.08544205 -0.04228285  0.00000000       0.011
   0.01220601  0.10570713  0.00000000       0.011
   0.03051502 -0.13741927  0.00000000       0.011
   0.01830901  0.15856069  0.00000000       0.011
   0.01830901  0.11627784  0.00000000       0.011
   0.02441202 -0.12684855  0.00000000       0.011
   0.00610300  0.15856069  0.00000000       0.011
   0.00000000  0.10570713  0.00000000       0.006
   0.02441202 -0.14798998  0.00000000       0.011
   0.00610300  0.11627784  0.00000000       0.011
   0.01830901 -0.13741927  0.00000000       0.011
   0.01220601  0.14798998  0.00000000       0.011
   0.01220601  0.12684855  0.00000000       0.011
  -0.00000000  0.14798998  0.00000000       0.006
  -0.00000000  0.12684855  0.00000000       0.006
   0.00610300 -0.13741927  0.00000000       0.011
 
 k-points in reciprocal lattice and weights: k-points                                
   0.00000000  0.00000000  0.00000000       0.003
   0.05263158 -0.00000000  0.00000000       0.011
  -0.05263158  0.05263158  0.00000000       0.006
   0.10526316 -0.00000000  0.00000000       0.011
  -0.10526316  0.10526316  0.00000000       0.006
   0.15789474 -0.00000000  0.00000000       0.011
  -0.15789474  0.15789474  0.00000000       0.006
   0.21052632  0.00000000  0.00000000       0.011
  -0.21052632  0.21052632  0.00000000       0.006
   0.26315789  0.00000000  0.00000000       0.011
  -0.26315789  0.26315789  0.00000000       0.006
   0.31578947 -0.00000000  0.00000000       0.011
  -0.31578947  0.31578947  0.00000000       0.006
   0.36842105 -0.00000000  0.00000000       0.011
  -0.36842105  0.36842105  0.00000000       0.006
   0.42105263  0.00000000  0.00000000       0.011
  -0.42105263  0.42105263  0.00000000       0.006
   0.47368421  0.00000000  0.00000000       0.011
  -0.47368421  0.47368421  0.00000000       0.006
   0.05263158  0.05263158  0.00000000       0.006
  -0.05263158  0.10526316  0.00000000       0.011
   0.10526316  0.05263158  0.00000000       0.011
  -0.05263158  0.15789474  0.00000000       0.011
  -0.15789474  0.10526316  0.00000000       0.011
   0.15789474  0.05263158  0.00000000       0.011
  -0.05263158  0.21052632  0.00000000       0.011
  -0.21052632  0.15789474  0.00000000       0.011
   0.21052632  0.05263158  0.00000000       0.011
  -0.05263158  0.26315789  0.00000000       0.011
  -0.26315789  0.21052632  0.00000000       0.011
   0.26315789  0.05263158  0.00000000       0.011
  -0.05263158  0.31578947  0.00000000       0.011
  -0.31578947  0.26315789  0.00000000       0.011
   0.31578947  0.05263158  0.00000000       0.011
  -0.05263158  0.36842105  0.00000000       0.011
  -0.36842105  0.31578947  0.00000000       0.011
   0.36842105  0.05263158  0.00000000       0.011
  -0.05263158  0.42105263  0.00000000       0.011
  -0.42105263  0.36842105  0.00000000       0.011
   0.42105263  0.05263158  0.00000000       0.011
  -0.05263158  0.47368421  0.00000000       0.011
  -0.47368421  0.42105263  0.00000000       0.011
   0.47368421  0.05263158  0.00000000       0.011
   0.47368421  0.47368421  0.00000000       0.006
   0.10526316  0.10526316  0.00000000       0.006
  -0.10526316  0.21052632  0.00000000       0.011
   0.15789474  0.10526316  0.00000000       0.011
  -0.10526316  0.26315789  0.00000000       0.011
  -0.26315789  0.15789474  0.00000000       0.011
   0.21052632  0.10526316  0.00000000       0.011
  -0.10526316  0.31578947  0.00000000       0.011
  -0.31578947  0.21052632  0.00000000       0.011
   0.26315789  0.10526316  0.00000000       0.011
  -0.10526316  0.36842105  0.00000000       0.011
  -0.36842105  0.26315789  0.00000000       0.011
   0.31578947  0.10526316  0.00000000       0.011
  -0.10526316  0.42105263  0.00000000       0.011
  -0.42105263  0.31578947  0.00000000       0.011
   0.36842105  0.10526316  0.00000000       0.011
  -0.10526316  0.47368421  0.00000000       0.011
  -0.47368421  0.36842105  0.00000000       0.011
   0.42105263  0.10526316  0.00000000       0.011
  -0.10526316 -0.47368421  0.00000000       0.011
   0.47368421  0.42105263  0.00000000       0.011
   0.15789474  0.15789474  0.00000000       0.006
  -0.15789474  0.31578947  0.00000000       0.011
   0.21052632  0.15789474  0.00000000       0.011
  -0.15789474  0.36842105  0.00000000       0.011
  -0.36842105  0.21052632  0.00000000       0.011
   0.26315789  0.15789474  0.00000000       0.011
  -0.15789474  0.42105263  0.00000000       0.011
  -0.42105263  0.26315789  0.00000000       0.011
   0.31578947  0.15789474  0.00000000       0.011
  -0.15789474  0.47368421  0.00000000       0.011
  -0.47368421  0.31578947  0.00000000       0.011
   0.36842105  0.15789474  0.00000000       0.011
  -0.15789474 -0.47368421  0.00000000       0.011
   0.47368421  0.36842105  0.00000000       0.011
   0.42105263  0.15789474  0.00000000       0.011
   0.42105263  0.42105263  0.00000000       0.006
   0.21052632  0.21052632  0.00000000       0.006
  -0.21052632  0.42105263  0.00000000       0.011
   0.26315789  0.21052632  0.00000000       0.011
  -0.21052632  0.47368421  0.00000000       0.011
  -0.47368421  0.26315789  0.00000000       0.011
   0.31578947  0.21052632  0.00000000       0.011
  -0.21052632 -0.47368421  0.00000000       0.011
   0.47368421  0.31578947  0.00000000       0.011
   0.36842105  0.21052632  0.00000000       0.011
  -0.21052632 -0.42105263  0.00000000       0.011
   0.42105263  0.36842105  0.00000000       0.011
   0.26315789  0.26315789  0.00000000       0.006
  -0.26315789 -0.47368421  0.00000000       0.011
   0.31578947  0.26315789  0.00000000       0.011
  -0.26315789 -0.42105263  0.00000000       0.011
   0.42105263  0.31578947  0.00000000       0.011
   0.36842105  0.26315789  0.00000000       0.011
   0.36842105  0.36842105  0.00000000       0.006
   0.31578947  0.31578947  0.00000000       0.006
  -0.31578947 -0.36842105  0.00000000       0.011
 
 position of ions in fractional coordinates (direct lattice) 
   0.66852949  0.00003174  0.10149087
   0.33150126  0.00003174  0.10149087
   0.99996826  0.33146951  0.10149087
   0.99996826  0.66849774  0.10149087
   0.33150126  0.33146951  0.10149087
   0.66852949  0.66849774  0.10149087
   0.66666600  0.33333300  0.08845522
   0.33333300  0.66666600  0.11442406
   0.16665358  0.33330815  0.33456864
   0.33333052  0.16666476  0.33446624
   0.16665358  0.83334542  0.33456864
   0.33333300  0.66666600  0.33462602
   0.66666600  0.33333300  0.33444483
   0.83333424  0.16666476  0.33446624
   0.66669085  0.83334542  0.33456864
   0.83333424  0.66666848  0.33446624
 
 position of ions in cartesian coordinates  (Angst):
   2.88252248  1.66438318  1.52236312
   1.42927682  0.82535141  1.52236312
   2.88252679  3.31461433  1.52236312
   1.42928113  4.15364610  1.52236312
   0.00013688  1.65046573  1.52236312
   0.00013688  3.32852929  1.52236312
   1.43731206  2.48949751  1.32682825
  -1.43731206  2.48949751  1.71636086
  -0.71860461  1.24465472  5.01852957
   0.71865283  1.24473824  5.01699358
  -2.87473557  2.48949751  5.01852957
  -1.43731206  2.48949751  5.01939032
   1.43731206  2.48949751  5.01667243
   2.87463913  2.48949751  5.01699358
  -0.71860461  3.73434030  5.01852957
   0.71865283  3.73425678  5.01699358
 


--------------------------------------------------------------------------------------------------------


 k-point   1 :   0.0000 0.0000 0.0000  plane waves:    7005
 k-point   2 :   0.0526-0.0000 0.0000  plane waves:    7011
 k-point   3 :  -0.0526 0.0526 0.0000  plane waves:    7011
 k-point   4 :   0.1053-0.0000 0.0000  plane waves:    6987
 k-point   5 :  -0.1053 0.1053 0.0000  plane waves:    6987
 k-point   6 :   0.1579-0.0000 0.0000  plane waves:    6993
 k-point   7 :  -0.1579 0.1579 0.0000  plane waves:    6993
 k-point   8 :   0.2105 0.0000 0.0000  plane waves:    6985
 k-point   9 :  -0.2105 0.2105 0.0000  plane waves:    6985
 k-point  10 :   0.2632 0.0000 0.0000  plane waves:    6991
 k-point  11 :  -0.2632 0.2632 0.0000  plane waves:    6991
 k-point  12 :   0.3158-0.0000 0.0000  plane waves:    7001
 k-point  13 :  -0.3158 0.3158 0.0000  plane waves:    7001
 k-point  14 :   0.3684-0.0000 0.0000  plane waves:    6975
 k-point  15 :  -0.3684 0.3684 0.0000  plane waves:    6975
 k-point  16 :   0.4211 0.0000 0.0000  plane waves:    6983
 k-point  17 :  -0.4211 0.4211 0.0000  plane waves:    6983
 k-point  18 :   0.4737 0.0000 0.0000  plane waves:    6964
 k-point  19 :  -0.4737 0.4737 0.0000  plane waves:    6964
 k-point  20 :   0.0526 0.0526 0.0000  plane waves:    6979
 k-point  21 :  -0.0526 0.1053 0.0000  plane waves:    6979
 k-point  22 :   0.1053 0.0526 0.0000  plane waves:    6997
 k-point  23 :  -0.0526 0.1579 0.0000  plane waves:    6997
 k-point  24 :  -0.1579 0.1053 0.0000  plane waves:    6997
 k-point  25 :   0.1579 0.0526 0.0000  plane waves:    7005
 k-point  26 :  -0.0526 0.2105 0.0000  plane waves:    7005
 k-point  27 :  -0.2105 0.1579 0.0000  plane waves:    7005
 k-point  28 :   0.2105 0.0526 0.0000  plane waves:    7000
 k-point  29 :  -0.0526 0.2632 0.0000  plane waves:    7000
 k-point  30 :  -0.2632 0.2105 0.0000  plane waves:    7000
 k-point  31 :   0.2632 0.0526 0.0000  plane waves:    6996
 k-point  32 :  -0.0526 0.3158 0.0000  plane waves:    6996
 k-point  33 :  -0.3158 0.2632 0.0000  plane waves:    6996
 k-point  34 :   0.3158 0.0526 0.0000  plane waves:    6983
 k-point  35 :  -0.0526 0.3684 0.0000  plane waves:    6983
 k-point  36 :  -0.3684 0.3158 0.0000  plane waves:    6983
 k-point  37 :   0.3684 0.0526 0.0000  plane waves:    6972
 k-point  38 :  -0.0526 0.4211 0.0000  plane waves:    6972
 k-point  39 :  -0.4211 0.3684 0.0000  plane waves:    6972
 k-point  40 :   0.4211 0.0526 0.0000  plane waves:    6968
 k-point  41 :  -0.0526 0.4737 0.0000  plane waves:    6968
 k-point  42 :  -0.4737 0.4211 0.0000  plane waves:    6968
 k-point  43 :   0.4737 0.0526 0.0000  plane waves:    6970
 k-point  44 :   0.4737 0.4737 0.0000  plane waves:    6970
 k-point  45 :   0.1053 0.1053 0.0000  plane waves:    7003
 k-point  46 :  -0.1053 0.2105 0.0000  plane waves:    7003
 k-point  47 :   0.1579 0.1053 0.0000  plane waves:    7001
 k-point  48 :  -0.1053 0.2632 0.0000  plane waves:    7001
 k-point  49 :  -0.2632 0.1579 0.0000  plane waves:    7001
 k-point  50 :   0.2105 0.1053 0.0000  plane waves:    6991
 k-point  51 :  -0.1053 0.3158 0.0000  plane waves:    6991
 k-point  52 :  -0.3158 0.2105 0.0000  plane waves:    6991
 k-point  53 :   0.2632 0.1053 0.0000  plane waves:    6991
 k-point  54 :  -0.1053 0.3684 0.0000  plane waves:    6991
 k-point  55 :  -0.3684 0.2632 0.0000  plane waves:    6991
 k-point  56 :   0.3158 0.1053 0.0000  plane waves:    6987
 k-point  57 :  -0.1053 0.4211 0.0000  plane waves:    6987
 k-point  58 :  -0.4211 0.3158 0.0000  plane waves:    6987
 k-point  59 :   0.3684 0.1053 0.0000  plane waves:    6973
 k-point  60 :  -0.1053 0.4737 0.0000  plane waves:    6973
 k-point  61 :  -0.4737 0.3684 0.0000  plane waves:    6973
 k-point  62 :   0.4211 0.1053 0.0000  plane waves:    6963
 k-point  63 :  -0.1053-0.4737 0.0000  plane waves:    6963
 k-point  64 :   0.4737 0.4211 0.0000  plane waves:    6963
 k-point  65 :   0.1579 0.1579 0.0000  plane waves:    6997
 k-point  66 :  -0.1579 0.3158 0.0000  plane waves:    6997
 k-point  67 :   0.2105 0.1579 0.0000  plane waves:    6990
 k-point  68 :  -0.1579 0.3684 0.0000  plane waves:    6990
 k-point  69 :  -0.3684 0.2105 0.0000  plane waves:    6990
 k-point  70 :   0.2632 0.1579 0.0000  plane waves:    6982
 k-point  71 :  -0.1579 0.4211 0.0000  plane waves:    6982
 k-point  72 :  -0.4211 0.2632 0.0000  plane waves:    6982
 k-point  73 :   0.3158 0.1579 0.0000  plane waves:    6976
 k-point  74 :  -0.1579 0.4737 0.0000  plane waves:    6976
 k-point  75 :  -0.4737 0.3158 0.0000  plane waves:    6976
 k-point  76 :   0.3684 0.1579 0.0000  plane waves:    6969
 k-point  77 :  -0.1579-0.4737 0.0000  plane waves:    6969
 k-point  78 :   0.4737 0.3684 0.0000  plane waves:    6969
 k-point  79 :   0.4211 0.1579 0.0000  plane waves:    6952
 k-point  80 :   0.4211 0.4211 0.0000  plane waves:    6952
 k-point  81 :   0.2105 0.2105 0.0000  plane waves:    6977
 k-point  82 :  -0.2105 0.4211 0.0000  plane waves:    6977
 k-point  83 :   0.2632 0.2105 0.0000  plane waves:    6965
 k-point  84 :  -0.2105 0.4737 0.0000  plane waves:    6965
 k-point  85 :  -0.4737 0.2632 0.0000  plane waves:    6965
 k-point  86 :   0.3158 0.2105 0.0000  plane waves:    6954
 k-point  87 :  -0.2105-0.4737 0.0000  plane waves:    6954
 k-point  88 :   0.4737 0.3158 0.0000  plane waves:    6954
 k-point  89 :   0.3684 0.2105 0.0000  plane waves:    6948
 k-point  90 :  -0.2105-0.4211 0.0000  plane waves:    6948
 k-point  91 :   0.4211 0.3684 0.0000  plane waves:    6948
 k-point  92 :   0.2632 0.2632 0.0000  plane waves:    6957
 k-point  93 :  -0.2632-0.4737 0.0000  plane waves:    6957
 k-point  94 :   0.3158 0.2632 0.0000  plane waves:    6953
 k-point  95 :  -0.2632-0.4211 0.0000  plane waves:    6953
 k-point  96 :   0.4211 0.3158 0.0000  plane waves:    6953
 k-point  97 :   0.3684 0.2632 0.0000  plane waves:    6936
 k-point  98 :   0.3684 0.3684 0.0000  plane waves:    6936
 k-point  99 :   0.3158 0.3158 0.0000  plane waves:    6924
 k-point 100 :  -0.3158-0.3684 0.0000  plane waves:    6924

 maximum and minimum number of plane-waves per node :      7011     6924

 maximum number of plane-waves:      7011
 maximum index in each direction: 
   IXMAX=    9   IYMAX=    9   IZMAX=   25
   IXMIN=   -9   IYMIN=   -9   IZMIN=  -25


 serial   3D FFT for wavefunctions
 parallel 3D FFT for charge:
    minimum data exchange during FFTs selected (reduces bandwidth)


 total amount of memory used by VASP MPI-rank0   142624. kBytes
=======================================================================

   base      :      30000. kBytes
   nonl-proj :      92123. kBytes
   fftplans  :       1560. kBytes
   grid      :       7372. kBytes
   one-center:         49. kBytes
   wavefun   :      11520. kBytes
 
     INWAV:  cpu time      0.0001: real time      0.0003
 initial charge density was supplied:
 number of electron      55.9999991 magnetization 
 keeping initial charge density in first step


--------------------------------------------------------------------------------------------------------


 Maximum index for augmentation-charges          383 (set IRDMAX)


--------------------------------------------------------------------------------------------------------


 First call to EWALD:  gamma=   0.259
 Maximum number of real-space cells 4x 4x 2
 Maximum number of reciprocal cells 2x 2x 5

    FEWALD:  cpu time      0.0015: real time      0.0019


--------------------------------------- Iteration      1(   1)  ---------------------------------------


    POTLOK:  cpu time      0.0209: real time      0.0222
    SETDIJ:  cpu time      0.0023: real time      0.0023
     EDDAV:  cpu time      3.7725: real time      3.8368
       DOS:  cpu time      0.0030: real time      0.0031
    --------------------------------------------
      LOOP:  cpu time      3.7986: real time      3.8644

 eigenvalue-minimisations  :  9600
 total energy-change (2. order) : 0.1672686E+03  (-0.2396590E+04)
 number of electron      55.9999991 magnetization 
 augmentation part       55.9999991 magnetization 

 Free energy of the ion-electron system (eV)
  ---------------------------------------------------
  alpha Z        PSCENC =        60.47074313
  Ewald energy   TEWEN  =      4495.95153103
  -Hartree energ DENC   =     -6105.97160522
  -exchange      EXHF   =         0.00000000
  -V(xc)+E(xc)   XCENC  =       168.42621274
  PAW double counting   =      5765.87674027    -5765.24031214
  entropy T*S    EENTRO =        -0.01800426
  eigenvalues    EBANDS =      -198.73224737
  atomic energy  EATOM  =      1746.50554237
  Solvation  Ediel_sol  =         0.00000000
  ---------------------------------------------------
  free energy    TOTEN  =       167.26860055 eV

  energy without entropy =      167.28660480  energy(sigma->0) =      167.27760267


--------------------------------------------------------------------------------------------------------




--------------------------------------- Iteration      1(   2)  ---------------------------------------


     EDDAV:  cpu time      5.6976: real time      5.7689
       DOS:  cpu time      0.0022: real time      0.0022
    --------------------------------------------
      LOOP:  cpu time      5.6998: real time      5.7711

 eigenvalue-minimisations  : 14400
 total energy-change (2. order) :-0.2816218E+03  (-0.2809828E+03)
 number of electron      55.9999991 magnetization 
 augmentation part       55.9999991 magnetization 

 Free energy of the ion-electron system (eV)
  ---------------------------------------------------
  alpha Z        PSCENC =        60.47074313
  Ewald energy   TEWEN  =      4495.95153103
  -Hartree energ DENC   =     -6105.97160522
  -exchange      EXHF   =         0.00000000
  -V(xc)+E(xc)   XCENC  =       168.42621274
  PAW double counting   =      5765.87674027    -5765.24031214
  entropy T*S    EENTRO =        -0.00199794
  eigenvalues    EBANDS =      -480.37001474
  atomic energy  EATOM  =      1746.50554237
  Solvation  Ediel_sol  =         0.00000000
  ---------------------------------------------------
  free energy    TOTEN  =      -114.35316051 eV

  energy without entropy =     -114.35116257  energy(sigma->0) =     -114.35216154


--------------------------------------------------------------------------------------------------------




--------------------------------------- Iteration      1(   3)  ---------------------------------------


     EDDAV:  cpu time      6.6397: real time      6.7076
       DOS:  cpu time      0.0023: real time      0.0023
    --------------------------------------------
      LOOP:  cpu time      6.6420: real time      6.7100

 eigenvalue-minimisations  : 15984
 total energy-change (2. order) :-0.9679094E+01  (-0.9676294E+01)
 number of electron      55.9999991 magnetization 
 augmentation part       55.9999991 magnetization 

 Free energy of the ion-electron system (eV)
  ---------------------------------------------------
  alpha Z        PSCENC =        60.47074313
  Ewald energy   TEWEN  =      4495.95153103
  -Hartree energ DENC   =     -6105.97160522
  -exchange      EXHF   =         0.00000000
  -V(xc)+E(xc)   XCENC  =       168.42621274
  PAW double counting   =      5765.87674027    -5765.24031214
  entropy T*S    EENTRO =        -0.00332874
  eigenvalues    EBANDS =      -490.04777771
  atomic energy  EATOM  =      1746.50554237
  Solvation  Ediel_sol  =         0.00000000
  ---------------------------------------------------
  free energy    TOTEN  =      -124.03225427 eV

  energy without entropy =     -124.02892553  energy(sigma->0) =     -124.03058990


--------------------------------------------------------------------------------------------------------




--------------------------------------- Iteration      1(   4)  ---------------------------------------


     EDDAV:  cpu time      6.7319: real time      6.8004
       DOS:  cpu time      0.0021: real time      0.0022
    --------------------------------------------
      LOOP:  cpu time      6.7340: real time      6.8026

 eigenvalue-minimisations  : 15984
 total energy-change (2. order) :-0.2587192E-01  (-0.2587186E-01)
 number of electron      55.9999991 magnetization 
 augmentation part       55.9999991 magnetization 

 Free energy of the ion-electron system (eV)
  ---------------------------------------------------
  alpha Z        PSCENC =        60.47074313
  Ewald energy   TEWEN  =      4495.95153103
  -Hartree energ DENC   =     -6105.97160522
  -exchange      EXHF   =         0.00000000
  -V(xc)+E(xc)   XCENC  =       168.42621274
  PAW double counting   =      5765.87674027    -5765.24031214
  entropy T*S    EENTRO =        -0.00332985
  eigenvalues    EBANDS =      -490.07364852
  atomic energy  EATOM  =      1746.50554237
  Solvation  Ediel_sol  =         0.00000000
  ---------------------------------------------------
  free energy    TOTEN  =      -124.05812619 eV

  energy without entropy =     -124.05479634  energy(sigma->0) =     -124.05646127


--------------------------------------------------------------------------------------------------------




--------------------------------------- Iteration      1(   5)  ---------------------------------------


     EDDAV:  cpu time      5.9527: real time      6.0061
       DOS:  cpu time      0.0022: real time      0.0022
    --------------------------------------------
      LOOP:  cpu time      5.9549: real time      6.0083

 eigenvalue-minimisations  : 14304
 total energy-change (2. order) :-0.2299154E-04  (-0.2299155E-04)
 number of electron      55.9999991 magnetization 
 augmentation part       55.9999991 magnetization 

 Free energy of the ion-electron system (eV)
  ---------------------------------------------------
  alpha Z        PSCENC =        60.47074313
  Ewald energy   TEWEN  =      4495.95153103
  -Hartree energ DENC   =     -6105.97160522
  -exchange      EXHF   =         0.00000000
  -V(xc)+E(xc)   XCENC  =       168.42621274
  PAW double counting   =      5765.87674027    -5765.24031214
  entropy T*S    EENTRO =        -0.00332986
  eigenvalues    EBANDS =      -490.07367149
  atomic energy  EATOM  =      1746.50554237
  Solvation  Ediel_sol  =         0.00000000
  ---------------------------------------------------
  free energy    TOTEN  =      -124.05814918 eV

  energy without entropy =     -124.05481932  energy(sigma->0) =     -124.05648425


--------------------------------------------------------------------------------------------------------




--------------------------------------- Iteration      1(   6)  ---------------------------------------


     EDDAV:  cpu time      6.5770: real time      6.6278
       DOS:  cpu time      0.0021: real time      0.0021
    --------------------------------------------
      LOOP:  cpu time      6.5791: real time      6.6299

 eigenvalue-minimisations  : 15696
 total energy-change (2. order) :-0.7372637E-07  (-0.7375205E-07)
 number of electron      55.9999991 magnetization 
 augmentation part       55.9999991 magnetization 

 Free energy of the ion-electron system (eV)
  ---------------------------------------------------
  alpha Z        PSCENC =        60.47074313
  Ewald energy   TEWEN  =      4495.95153103
  -Hartree energ DENC   =     -6105.97160522
  -exchange      EXHF   =         0.00000000
  -V(xc)+E(xc)   XCENC  =       168.42621274
  PAW double counting   =      5765.87674027    -5765.24031214
  entropy T*S    EENTRO =        -0.00332986
  eigenvalues    EBANDS =      -490.07367157
  atomic energy  EATOM  =      1746.50554237
  Solvation  Ediel_sol  =         0.00000000
  ---------------------------------------------------
  free energy    TOTEN  =      -124.05814926 eV

  energy without entropy =     -124.05481939  energy(sigma->0) =     -124.05648432


--------------------------------------------------------------------------------------------------------




 average (electrostatic) potential at core
  the test charge radii are     0.7672  0.6991
  (the norm of the test charge is              1.0000)
       1 -33.1604       2 -33.1605       3 -33.1605       4 -33.1604       5 -33.1605
       6 -33.1604       7 -34.5012       8 -34.5099       9 -55.9648      10 -55.9626
      11 -55.9648      12 -55.9671      13 -55.9667      14 -55.9625      15 -55.9648
      16 -55.9626
 
 
 
 E-fermi :  -0.2723     XC(G=0):  -5.2164     alpha+bet : -5.2469

 Fermi energy:        -0.2723133419

 k-point     1 :       0.0000    0.0000    0.0000
  band No.  band energies     occupation 
      1     -19.7683      2.00000
      2     -15.8967      2.00000
      3     -14.6561      2.00000
      4     -14.6515      2.00000
      5     -14.6514      2.00000
      6     -13.5283      2.00000
      7     -13.5283      2.00000
      8     -13.5258      2.00000
      9     -11.7062      2.00000
     10     -11.5209      2.00000
     11     -11.5209      2.00000
     12      -9.3202      2.00000
     13      -9.3202      2.00000
     14      -8.0838      2.00000
     15      -7.3231      2.00000
     16      -6.8059      2.00000
     17      -6.8059      2.00000
     18      -6.8054      2.00000
     19      -6.5479      2.00000
     20      -3.5170      2.00000
     21      -3.5169      2.00000
     22      -2.8551      2.00000
     23      -2.8214      2.00000
     24      -2.8214      2.00000
     25      -1.5295      2.00000
     26      -1.5295      2.00000
     27      -0.3682      1.82493
     28      -0.3682      1.82490
     29      -0.2358      0.60593
     30       0.9498      0.00000
     31       0.9498      0.00000
     32       1.1278      0.00000
     33       1.1278      0.00000
     34       1.1305      0.00000
     35       1.7632      0.00000
     36       1.7632      0.00000
     37       2.9912      0.00000
     38       3.5977      0.00000
     39       4.4960      0.00000
     40       4.8100      0.00000
     41       6.6148      0.00000
     42       6.6176      0.00000
     43       6.6176      0.00000
     44       7.0712      0.00000
     45       7.6624      0.00000
     46       7.6637      0.00000
     47       7.6779      0.00000
     48       8.4068      0.00000

 k-point     2 :       0.0526   -0.0000    0.0000
  band No.  band energies     occupation 
      1     -19.7522      2.00000
      2     -15.8837      2.00000
      3     -14.8802      2.00000
      4     -14.7093      2.00000
      5     -14.7065      2.00000
      6     -13.4469      2.00000
      7     -13.4454      2.00000
      8     -13.2763      2.00000
      9     -11.9683      2.00000
     10     -11.5342      2.00000
     11     -11.2684      2.00000
     12      -9.3472      2.00000
     13      -9.2863      2.00000
     14      -8.0631      2.00000
     15      -7.2582      2.00000
     16      -6.8566      2.00000
     17      -6.8563      2.00000
     18      -6.7899      2.00000
     19      -6.5282      2.00000
     20      -3.5846      2.00000
     21      -3.5520      2.00000
     22      -2.9430      2.00000
     23      -2.8527      2.00000
     24      -2.8350      2.00000
     25      -1.7146      2.00000
     26      -1.6922      2.00000
     27      -0.6720      2.00000
     28      -0.3222      1.51943
     29       0.0780      0.00000
     30       0.8951      0.00000
     31       0.9634      0.00000
     32       1.1665      0.00000
     33       1.1868      0.00000
     34       1.2607      0.00000
     35       1.9123      0.00000
     36       1.9487      0.00000
     37       3.0173      0.00000
     38       3.6240      0.00000
     39       4.5553      0.00000
     40       4.8356      0.00000
     41       6.6254      0.00000
     42       6.6918      0.00000
     43       6.6937      0.00000
     44       7.0889      0.00000
     45       7.6597      0.00000
     46       7.7076      0.00000
     47       7.7326      0.00000
     48       8.2794      0.00000

 k-point     3 :      -0.0526    0.0526    0.0000
  band No.  band energies     occupation 
      1     -19.7522      2.00000
      2     -15.8837      2.00000
      3     -14.8802      2.00000
      4     -14.7093      2.00000
      5     -14.7065      2.00000
      6     -13.4469      2.00000
      7     -13.4455      2.00000
      8     -13.2763      2.00000
      9     -11.9683      2.00000
     10     -11.5342      2.00000
     11     -11.2684      2.00000
     12      -9.3472      2.00000
     13      -9.2863      2.00000
     14      -8.0631      2.00000
     15      -7.2582      2.00000
     16      -6.8566      2.00000
     17      -6.8563      2.00000
     18      -6.7899      2.00000
     19      -6.5282      2.00000
     20      -3.5846      2.00000
     21      -3.5520      2.00000
     22      -2.9430      2.00000
     23      -2.8527      2.00000
     24      -2.8350      2.00000
     25      -1.7146      2.00000
     26      -1.6922      2.00000
     27      -0.6720      2.00000
     28      -0.3222      1.51940
     29       0.0780      0.00000
     30       0.8951      0.00000
     31       0.9634      0.00000
     32       1.1665      0.00000
     33       1.1867      0.00000
     34       1.2607      0.00000
     35       1.9123      0.00000
     36       1.9487      0.00000
     37       3.0173      0.00000
     38       3.6240      0.00000
     39       4.5553      0.00000
     40       4.8356      0.00000
     41       6.6254      0.00000
     42       6.6918      0.00000
     43       6.6937      0.00000
     44       7.0889      0.00000
     45       7.6598      0.00000
     46       7.7077      0.00000
     47       7.7323      0.00000
     48       8.2805      0.00000

 k-point     4 :       0.1053   -0.0000    0.0000
  band No.  band energies     occupation 
      1     -19.7039      2.00000
      2     -15.8452      2.00000
      3     -15.3148      2.00000
      4     -14.8390      2.00000
      5     -14.8365      2.00000
      6     -13.2378      2.00000
      7     -13.2368      2.00000
      8     -12.7700      2.00000
      9     -12.3054      2.00000
     10     -11.5711      2.00000
     11     -10.9672      2.00000
     12      -9.4031      2.00000
     13      -9.1880      2.00000
     14      -8.0023      2.00000
     15      -7.0835      2.00000
     16      -7.0046      2.00000
     17      -7.0043      2.00000
     18      -6.7423      2.00000
     19      -6.4693      2.00000
     20      -3.7825      2.00000
     21      -3.6536      2.00000
     22      -3.2244      2.00000
     23      -2.8907      2.00000
     24      -2.8747      2.00000
     25      -2.1242      2.00000
     26      -2.0607      2.00000
     27      -1.0871      2.00000
     28      -0.3353      1.62717
     29       0.3538      0.00000
     30       0.9418      0.00000
     31       1.0987      0.00000
     32       1.2843      0.00000
     33       1.3557      0.00000
     34       1.6080      0.00000
     35       2.2750      0.00000
     36       2.3454      0.00000
     37       3.1003      0.00000
     38       3.7015      0.00000
     39       4.7194      0.00000
     40       4.9186      0.00000
     41       6.6515      0.00000
     42       6.9154      0.00000
     43       6.9173      0.00000
     44       7.1396      0.00000
     45       7.6718      0.00000
     46       7.7430      0.00000
     47       7.9321      0.00000
     48       7.9412      0.00000

 k-point     5 :      -0.1053    0.1053    0.0000
  band No.  band energies     occupation 
      1     -19.7039      2.00000
      2     -15.8452      2.00000
      3     -15.3148      2.00000
      4     -14.8390      2.00000
      5     -14.8366      2.00000
      6     -13.2378      2.00000
      7     -13.2368      2.00000
      8     -12.7700      2.00000
      9     -12.3054      2.00000
     10     -11.5711      2.00000
     11     -10.9672      2.00000
     12      -9.4031      2.00000
     13      -9.1880      2.00000
     14      -8.0023      2.00000
     15      -7.0835      2.00000
     16      -7.0046      2.00000
     17      -7.0043      2.00000
     18      -6.7424      2.00000
     19      -6.4693      2.00000
     20      -3.7824      2.00000
     21      -3.6536      2.00000
     22      -3.2245      2.00000
     23      -2.8907      2.00000
     24      -2.8747      2.00000
     25      -2.1242      2.00000
     26      -2.0607      2.00000
     27      -1.0871      2.00000
     28      -0.3353      1.62715
     29       0.3538      0.00000
     30       0.9418      0.00000
     31       1.0987      0.00000
     32       1.2843      0.00000
     33       1.3557      0.00000
     34       1.6080      0.00000
     35       2.2750      0.00000
     36       2.3454      0.00000
     37       3.1003      0.00000
     38       3.7015      0.00000
     39       4.7194      0.00000
     40       4.9186      0.00000
     41       6.6515      0.00000
     42       6.9154      0.00000
     43       6.9173      0.00000
     44       7.1396      0.00000
     45       7.6726      0.00000
     46       7.7435      0.00000
     47       7.9320      0.00000
     48       8.0155      0.00000

 k-point     6 :       0.1579   -0.0000    0.0000
  band No.  band energies     occupation 
      1     -19.6234      2.00000
      2     -15.7899      2.00000
      3     -15.7731      2.00000
      4     -14.9927      2.00000
      5     -14.9906      2.00000
      6     -12.9536      2.00000
      7     -12.9529      2.00000
      8     -12.6425      2.00000
      9     -12.1841      2.00000
     10     -11.6240      2.00000
     11     -10.7186      2.00000
     12      -9.4271      2.00000
     13      -9.0346      2.00000
     14      -7.9033      2.00000
     15      -7.2388      2.00000
     16      -7.2384      2.00000
     17      -6.8445      2.00000
     18      -6.6635      2.00000
     19      -6.3716      2.00000
     20      -4.0989      2.00000
     21      -3.8137      2.00000
     22      -3.6127      2.00000
     23      -2.9459      2.00000
     24      -2.9413      2.00000
     25      -2.6001      2.00000
     26      -2.4863      2.00000
     27      -1.5625      2.00000
     28      -0.4650      1.99357
     29       0.3544      0.00000
     30       1.2308      0.00000
     31       1.2968      0.00000
     32       1.5359      0.00000
     33       1.6921      0.00000
     34       2.1020      0.00000
     35       2.7470      0.00000
     36       2.7794      0.00000
     37       3.2607      0.00000
     38       3.8285      0.00000
     39       4.9273      0.00000
     40       5.0960      0.00000
     41       6.6938      0.00000
     42       7.1563      0.00000
     43       7.2761      0.00000
     44       7.2763      0.00000
     45       7.3541      0.00000
     46       7.7012      0.00000
     47       7.8954      0.00000
     48       8.1752      0.00000

 k-point     7 :      -0.1579    0.1579    0.0000
  band No.  band energies     occupation 
      1     -19.6234      2.00000
      2     -15.7899      2.00000
      3     -15.7731      2.00000
      4     -14.9926      2.00000
      5     -14.9906      2.00000
      6     -12.9536      2.00000
      7     -12.9529      2.00000
      8     -12.6426      2.00000
      9     -12.1841      2.00000
     10     -11.6240      2.00000
     11     -10.7186      2.00000
     12      -9.4271      2.00000
     13      -9.0346      2.00000
     14      -7.9033      2.00000
     15      -7.2388      2.00000
     16      -7.2384      2.00000
     17      -6.8445      2.00000
     18      -6.6636      2.00000
     19      -6.3716      2.00000
     20      -4.0988      2.00000
     21      -3.8138      2.00000
     22      -3.6127      2.00000
     23      -2.9459      2.00000
     24      -2.9413      2.00000
     25      -2.6001      2.00000
     26      -2.4863      2.00000
     27      -1.5625      2.00000
     28      -0.4650      1.99357
     29       0.3545      0.00000
     30       1.2308      0.00000
     31       1.2968      0.00000
     32       1.5359      0.00000
     33       1.6921      0.00000
     34       2.1021      0.00000
     35       2.7470      0.00000
     36       2.7794      0.00000
     37       3.2607      0.00000
     38       3.8285      0.00000
     39       4.9273      0.00000
     40       5.0960      0.00000
     41       6.6938      0.00000
     42       7.1563      0.00000
     43       7.2762      0.00000
     44       7.2763      0.00000
     45       7.3542      0.00000
     46       7.7030      0.00000
     47       7.8962      0.00000
     48       8.1747      0.00000

 k-point     8 :       0.2105    0.0000    0.0000
  band No.  band energies     occupation 
      1     -19.5109      2.00000
      2     -16.2408      2.00000
      3     -15.6928      2.00000
      4     -15.1424      2.00000
      5     -15.1406      2.00000
      6     -12.9719      2.00000
      7     -12.6244      2.00000
      8     -12.6238      2.00000
      9     -11.6842      2.00000
     10     -11.5605      2.00000
     11     -10.5691      2.00000
     12      -9.3512      2.00000
     13      -8.8382      2.00000
     14      -7.7666      2.00000
     15      -7.5424      2.00000
     16      -7.5420      2.00000
     17      -6.5931      2.00000
     18      -6.5541      2.00000
     19      -6.2364      2.00000
     20      -4.5166      2.00000
     21      -4.0487      2.00000
     22      -4.0210      2.00000
     23      -3.1617      2.00000
     24      -3.0220      2.00000
     25      -2.9466      2.00000
     26      -2.8865      2.00000
     27      -2.0605      2.00000
     28      -0.6365      2.00000
     29       0.2561      0.00000
     30       1.4748      0.00000
     31       1.4915      0.00000
     32       1.9887      0.00000
     33       2.1633      0.00000
     34       2.6864      0.00000
     35       3.1420      0.00000
     36       3.2748      0.00000
     37       3.5433      0.00000
     38       4.0085      0.00000
     39       5.1166      0.00000
     40       5.3840      0.00000
     41       6.6043      0.00000
     42       6.7506      0.00000
     43       7.3680      0.00000
     44       7.7001      0.00000
     45       7.7325      0.00000
     46       7.7559      0.00000
     47       7.7840      0.00000
     48       8.0601      0.00000

 k-point     9 :      -0.2105    0.2105    0.0000
  band No.  band energies     occupation 
      1     -19.5109      2.00000
      2     -16.2408      2.00000
      3     -15.6928      2.00000
      4     -15.1423      2.00000
      5     -15.1406      2.00000
      6     -12.9719      2.00000
      7     -12.6244      2.00000
      8     -12.6238      2.00000
      9     -11.6842      2.00000
     10     -11.5604      2.00000
     11     -10.5691      2.00000
     12      -9.3512      2.00000
     13      -8.8382      2.00000
     14      -7.7666      2.00000
     15      -7.5424      2.00000
     16      -7.5420      2.00000
     17      -6.5931      2.00000
     18      -6.5542      2.00000
     19      -6.2364      2.00000
     20      -4.5166      2.00000
     21      -4.0487      2.00000
     22      -4.0210      2.00000
     23      -3.1617      2.00000
     24      -3.0220      2.00000
     25      -2.9466      2.00000
     26      -2.8865      2.00000
     27      -2.0605      2.00000
     28      -0.6365      2.00000
     29       0.2561      0.00000
     30       1.4748      0.00000
     31       1.4915      0.00000
     32       1.9887      0.00000
     33       2.1633      0.00000
     34       2.6864      0.00000
     35       3.1420      0.00000
     36       3.2748      0.00000
     37       3.5433      0.00000
     38       4.0085      0.00000
     39       5.1166      0.00000
     40       5.3841      0.00000
     41       6.6044      0.00000
     42       6.7506      0.00000
     43       7.3679      0.00000
     44       7.6977      0.00000
     45       7.7203      0.00000
     46       7.7555      0.00000
     47       7.7627      0.00000
     48       8.0522      0.00000

 k-point    10 :       0.2632    0.0000    0.0000
  band No.  band energies     occupation 
      1     -19.3664      2.00000
      2     -16.6800      2.00000
      3     -15.5819      2.00000
      4     -15.2753      2.00000
      5     -15.2738      2.00000
      6     -13.2883      2.00000
      7     -12.2672      2.00000
      8     -12.2666      2.00000
      9     -11.7439      2.00000
     10     -10.9121      2.00000
     11     -10.5289      2.00000
     12      -9.1527      2.00000
     13      -8.6124      2.00000
     14      -7.8966      2.00000
     15      -7.8961      2.00000
     16      -7.5928      2.00000
     17      -6.4153      2.00000
     18      -6.3838      2.00000
     19      -6.0661      2.00000
     20      -5.0170      2.00000
     21      -4.4966      2.00000
     22      -4.2622      2.00000
     23      -3.6230      2.00000
     24      -3.2557      2.00000
     25      -3.0756      2.00000
     26      -3.0395      2.00000
     27      -2.5463      2.00000
     28      -0.8031      2.00000
     29       0.1480      0.00000
     30       1.6796      0.00000
     31       1.6868      0.00000
     32       2.5085      0.00000
     33       2.6998      0.00000
     34       3.3095      0.00000
     35       3.4468      0.00000
     36       3.8269      0.00000
     37       3.9121      0.00000
     38       4.2539      0.00000
     39       5.3195      0.00000
     40       5.6549      0.00000
     41       5.9808      0.00000
     42       6.8144      0.00000
     43       7.2114      0.00000
     44       7.5401      0.00000
     45       7.6798      0.00000
     46       7.7870      0.00000
     47       7.8934      0.00000
     48       8.0178      0.00000

 k-point    11 :      -0.2632    0.2632    0.0000
  band No.  band energies     occupation 
      1     -19.3664      2.00000
      2     -16.6800      2.00000
      3     -15.5819      2.00000
      4     -15.2753      2.00000
      5     -15.2738      2.00000
      6     -13.2883      2.00000
      7     -12.2672      2.00000
      8     -12.2666      2.00000
      9     -11.7439      2.00000
     10     -10.9121      2.00000
     11     -10.5289      2.00000
[...]
     14      -7.5028      2.00000
     15      -7.4237      2.00000
     16      -7.3237      2.00000
     17      -7.2536      2.00000
     18      -6.7753      2.00000
     19      -6.3508      2.00000
     20      -6.1229      2.00000
     21      -5.6639      2.00000
     22      -5.3244      2.00000
     23      -4.8998      2.00000
     24      -4.2050      2.00000
     25      -4.0028      2.00000
     26      -3.8148      2.00000
     27      -2.4996      2.00000
     28      -1.1312      2.00000
     29       0.0732      0.00000
     30       2.1742      0.00000
     31       3.1397      0.00000
     32       3.5859      0.00000
     33       4.0677      0.00000
     34       4.6711      0.00000
     35       4.7129      0.00000
     36       4.8115      0.00000
     37       4.9342      0.00000
     38       5.4116      0.00000
     39       5.5351      0.00000
     40       5.6526      0.00000
     41       6.0236      0.00000
     42       6.3587      0.00000
     43       6.5163      0.00000
     44       6.6588      0.00000
     45       6.7978      0.00000
     46       7.2166      0.00000
     47       7.3778      0.00000
     48       7.4679      0.00000

 k-point    97 :       0.3684    0.2632    0.0000
  band No.  band energies     occupation 
      1     -18.0334      2.00000
      2     -18.0295      2.00000
      3     -17.4369      2.00000
      4     -14.7817      2.00000
      5     -14.4664      2.00000
      6     -13.4253      2.00000
      7     -12.6188      2.00000
      8     -12.5042      2.00000
      9     -10.7004      2.00000
     10      -9.3231      2.00000
     11      -8.8213      2.00000
     12      -8.7424      2.00000
     13      -7.9800      2.00000
     14      -7.9784      2.00000
     15      -7.4647      2.00000
     16      -7.4558      2.00000
     17      -7.3420      2.00000
     18      -6.4665      2.00000
     19      -6.4658      2.00000
     20      -6.0775      2.00000
     21      -5.9642      2.00000
     22      -5.3350      2.00000
     23      -4.7838      2.00000
     24      -4.3330      2.00000
     25      -4.0329      2.00000
     26      -3.7831      2.00000
     27      -2.5472      2.00000
     28      -1.0255      2.00000
     29      -0.0197      0.00035
     30       2.2202      0.00000
     31       3.3185      0.00000
     32       3.6707      0.00000
     33       3.9392      0.00000
     34       4.4724      0.00000
     35       4.6445      0.00000
     36       4.9468      0.00000
     37       5.1238      0.00000
     38       5.2879      0.00000
     39       5.8658      0.00000
     40       5.8921      0.00000
     41       6.0422      0.00000
     42       6.0623      0.00000
     43       6.1341      0.00000
     44       6.7129      0.00000
     45       6.7547      0.00000
     46       7.0355      0.00000
     47       7.5445      0.00000
     48       7.7281      0.00000

 k-point    98 :       0.3684    0.3684    0.0000
  band No.  band energies     occupation 
      1     -18.0334      2.00000
      2     -18.0295      2.00000
      3     -17.4369      2.00000
      4     -14.7817      2.00000
      5     -14.4664      2.00000
      6     -13.4253      2.00000
      7     -12.6188      2.00000
      8     -12.5042      2.00000
      9     -10.7004      2.00000
     10      -9.3231      2.00000
     11      -8.8213      2.00000
     12      -8.7424      2.00000
     13      -7.9799      2.00000
     14      -7.9784      2.00000
     15      -7.4647      2.00000
     16      -7.4558      2.00000
     17      -7.3419      2.00000
     18      -6.4665      2.00000
     19      -6.4658      2.00000
     20      -6.0775      2.00000
     21      -5.9642      2.00000
     22      -5.3350      2.00000
     23      -4.7838      2.00000
     24      -4.3330      2.00000
     25      -4.0329      2.00000
     26      -3.7831      2.00000
     27      -2.5471      2.00000
     28      -1.0255      2.00000
     29      -0.0198      0.00035
     30       2.2202      0.00000
     31       3.3185      0.00000
     32       3.6707      0.00000
     33       3.9392      0.00000
     34       4.4724      0.00000
     35       4.6445      0.00000
     36       4.9468      0.00000
     37       5.1238      0.00000
     38       5.2879      0.00000
     39       5.8658      0.00000
     40       5.8921      0.00000
     41       6.0422      0.00000
     42       6.0621      0.00000
     43       6.1341      0.00000
     44       6.7129      0.00000
     45       6.7547      0.00000
     46       7.0356      0.00000
     47       7.5441      0.00000
     48       7.7185      0.00000

 k-point    99 :       0.3158    0.3158    0.0000
  band No.  band energies     occupation 
      1     -18.0472      2.00000
      2     -17.7509      2.00000
      3     -17.7471      2.00000
      4     -14.7153      2.00000
      5     -14.5308      2.00000
      6     -13.1554      2.00000
      7     -12.8408      2.00000
      8     -12.5384      2.00000
      9     -10.7815      2.00000
     10      -9.0923      2.00000
     11      -8.8955      2.00000
     12      -8.3838      2.00000
     13      -8.3821      2.00000
     14      -7.8823      2.00000
     15      -7.5484      2.00000
     16      -7.4404      2.00000
     17      -6.9165      2.00000
     18      -6.9162      2.00000
     19      -6.5348      2.00000
     20      -6.0511      2.00000
     21      -5.7367      2.00000
     22      -5.6352      2.00000
     23      -4.6933      2.00000
     24      -4.4128      2.00000
     25      -3.9240      2.00000
     26      -3.8474      2.00000
     27      -2.6221      2.00000
     28      -0.7518      2.00000
     29      -0.2892      1.18893
     30       2.6112      0.00000
     31       3.0112      0.00000
     32       3.6839      0.00000
     33       3.8615      0.00000
     34       4.3916      0.00000
     35       4.5832      0.00000
     36       5.1320      0.00000
     37       5.4218      0.00000
     38       5.5132      0.00000
     39       5.5431      0.00000
     40       5.6970      0.00000
     41       5.9510      0.00000
     42       6.0936      0.00000
     43       6.2772      0.00000
     44       6.4169      0.00000
     45       6.8118      0.00000
     46       7.0898      0.00000
     47       7.4442      0.00000
     48       7.8537      0.00000

 k-point   100 :      -0.3158   -0.3684    0.0000
  band No.  band energies     occupation 
      1     -18.0472      2.00000
      2     -17.7509      2.00000
      3     -17.7471      2.00000
      4     -14.7152      2.00000
      5     -14.5308      2.00000
      6     -13.1554      2.00000
      7     -12.8408      2.00000
      8     -12.5384      2.00000
      9     -10.7815      2.00000
     10      -9.0923      2.00000
     11      -8.8955      2.00000
     12      -8.3838      2.00000
     13      -8.3821      2.00000
     14      -7.8823      2.00000
     15      -7.5484      2.00000
     16      -7.4404      2.00000
     17      -6.9165      2.00000
     18      -6.9162      2.00000
     19      -6.5348      2.00000
     20      -6.0511      2.00000
     21      -5.7367      2.00000
     22      -5.6352      2.00000
     23      -4.6933      2.00000
     24      -4.4128      2.00000
     25      -3.9240      2.00000
     26      -3.8474      2.00000
     27      -2.6221      2.00000
     28      -0.7518      2.00000
     29      -0.2892      1.18919
     30       2.6112      0.00000
     31       3.0112      0.00000
     32       3.6839      0.00000
     33       3.8615      0.00000
     34       4.3916      0.00000
     35       4.5832      0.00000
     36       5.1320      0.00000
     37       5.4217      0.00000
     38       5.5132      0.00000
     39       5.5431      0.00000
     40       5.6970      0.00000
     41       5.9510      0.00000
     42       6.0937      0.00000
     43       6.2772      0.00000
     44       6.4169      0.00000
     45       6.8117      0.00000
     46       7.0898      0.00000
     47       7.4442      0.00000
     48       7.8541      0.00000


--------------------------------------------------------------------------------------------------------


 soft charge-density along one line, spin component           1
         0         1         2         3         4         5         6         7         8         9
 total charge-density along one line
 
 pseudopotential strength for first ion, spin component:           1
  6.651  10.142  -0.005   0.000  -0.008  -0.007   0.000  -0.012
 10.142  15.460  -0.007   0.000  -0.012  -0.011   0.000  -0.018
 -0.005  -0.007  -2.274   0.001   0.003  -3.895   0.002   0.005
  0.000   0.000   0.001  -2.269  -0.001   0.002  -3.881  -0.001
 -0.008  -0.012   0.003  -0.001  -2.272   0.005  -0.001  -3.889
 -0.007  -0.011  -3.895   0.002   0.005  -6.471   0.004   0.010
  0.000   0.000   0.002  -3.881  -0.001   0.004  -6.442  -0.002
 -0.012  -0.018   0.005  -0.001  -3.889   0.010  -0.002  -6.459
 total augmentation occupancy for first ion, spin component:           1
  2.000   0.000   0.000   0.000   0.000   0.000   0.000   0.000
  0.000   0.000   0.000   0.000   0.000   0.000   0.000   0.000
  0.000   0.000   0.333   0.000   0.000   0.000   0.000   0.000
  0.000   0.000   0.000   0.333   0.000   0.000   0.000   0.000
  0.000   0.000   0.000   0.000   0.333   0.000   0.000   0.000
  0.000   0.000   0.000   0.000   0.000   0.000   0.000   0.000
  0.000   0.000   0.000   0.000   0.000   0.000   0.000   0.000
  0.000   0.000   0.000   0.000   0.000   0.000   0.000   0.000


------------------------ aborting loop because EDIFF is reached ----------------------------------------





 total charge

# of ion       s       p       d       tot
------------------------------------------
    1        0.706   1.442   0.000   2.149
    2        0.706   1.442   0.000   2.149
    3        0.706   1.442   0.000   2.149
    4        0.706   1.442   0.000   2.149
    5        0.706   1.442   0.000   2.149
    6        0.706   1.442   0.000   2.149
    7        0.686   1.409   0.000   2.095
    8        0.686   1.409   0.000   2.095
    9        0.858   1.759   0.000   2.617
   10        0.858   1.759   0.000   2.617
   11        0.858   1.759   0.000   2.617
   12        0.858   1.759   0.000   2.618
   13        0.858   1.759   0.000   2.617
   14        0.858   1.759   0.000   2.617
   15        0.858   1.759   0.000   2.617
   16        0.858   1.759   0.000   2.617
--------------------------------------------------
tot         12.477  25.545   0.000  38.023
 
    CHARGE:  cpu time      0.1857: real time      0.2004
    FORLOC:  cpu time      0.0019: real time      0.0020
    FORNL :  cpu time      0.6795: real time      0.6874
    STRESS:  cpu time      4.4530: real time      4.4731
    FORCOR:  cpu time      0.0144: real time      0.0144
    FORHAR:  cpu time      0.0048: real time      0.0049
    OFIELD:  cpu time      0.0001: real time      0.0001

  FORCE on cell =-STRESS in cart. coord.  units (eV):
  Direction    XX          YY          ZZ          XY          YZ          ZX
  --------------------------------------------------------------------------------------
  Alpha Z    60.47074    60.47074    60.47074
  Ewald    6159.79023  6159.79504 -7823.63738     0.00000     0.00000    -0.00008
  Hartree  6045.42998  6045.43040 -5984.62708    -0.00000    -0.00000    -0.00002
  E(xc)    -195.83983  -195.83981  -202.25385     0.00000     0.00000     0.00000
  Local  -12755.14920-12755.15323 13138.60658     0.00001    -0.00000     0.00008
  n-local   -38.09636   -38.09637   -39.11264    -0.17156     0.00783     0.00000
  augment    -2.75895    -2.75888    -2.47012    -0.00000     0.00000    -0.00000
  Kinetic   727.17967   727.17925   854.09316    -0.72399    -0.07185    -0.00000
  Fock        0.00000     0.00000     0.00000     0.00000     0.00000     0.00000
  -------------------------------------------------------------------------------------
  Total       1.02627     1.02714     1.06941     0.00000     0.00000    -0.00002
  in kB       5.10585     5.11013     5.32046     0.00000     0.00000    -0.00009
  external pressure =        5.18 kB  Pullay stress =        0.00 kB


 VOLUME and BASIS-vectors are now :
 -----------------------------------------------------------------------------
  energy-cutoff  :      450.00
  volume of cell :      322.04
      direct lattice vectors                 reciprocal lattice vectors
     4.311940485  2.489500000  0.000000000     0.115957074  0.200843543  0.000000000
    -4.311940485  2.489500000  0.000000000    -0.115957074  0.200843543  0.000000000
     0.000000000  0.000000000 15.000000000     0.000000000  0.000000000  0.066666667

  length of vectors
     4.979000000  4.979000000 15.000000000     0.231914147  0.231914147  0.066666667


 FORCES acting on ions
    electron-ion (+dipol)            ewald-force                    non-local-force                 convergence-correction
 -----------------------------------------------------------------------------------------------
   -.259E+02 -.149E+02 0.216E+03   0.288E+02 0.166E+02 -.216E+03   -.291E+01 -.169E+01 -.247E-01   -.231E-02 -.118E-02 -.235E-01
   0.258E+02 0.150E+02 0.216E+03   -.287E+02 -.166E+02 -.216E+03   0.292E+01 0.168E+01 -.247E-01   0.221E-02 0.141E-02 -.235E-01
   -.259E+02 0.149E+02 0.216E+03   0.288E+02 -.166E+02 -.216E+03   -.291E+01 0.169E+01 -.247E-01   -.231E-02 0.118E-02 -.235E-01
   0.258E+02 -.150E+02 0.216E+03   -.287E+02 0.166E+02 -.216E+03   0.292E+01 -.168E+01 -.247E-01   0.221E-02 -.141E-02 -.235E-01
   0.399E-01 0.298E+02 0.216E+03   -.365E-01 -.332E+02 -.216E+03   -.385E-02 0.336E+01 -.247E-01   0.165E-03 0.259E-02 -.236E-01
   0.399E-01 -.298E+02 0.216E+03   -.365E-01 0.332E+02 -.216E+03   -.385E-02 -.336E+01 -.247E-01   0.165E-03 -.259E-02 -.236E-01
   -.102E-03 -.127E-04 0.254E+03   0.206E-03 0.308E-03 -.255E+03   0.290E-04 0.183E-17 0.122E+01   -.455E-04 -.179E-08 -.186E-01
   0.300E-03 -.127E-04 0.178E+03   -.206E-03 0.308E-03 -.177E+03   -.362E-04 0.156E-17 -.125E+01   -.677E-04 -.147E-08 -.284E-01
   -.662E+00 0.115E+01 -.216E+03   0.671E+00 -.116E+01 0.216E+03   -.784E-02 0.138E-01 0.256E-01   -.243E-03 -.700E-03 -.324E-01
   0.368E+00 0.638E+00 -.215E+03   -.371E+00 -.642E+00 0.215E+03   0.328E-02 0.584E-02 0.443E-01   -.358E-03 -.122E-02 -.319E-01
   0.132E+01 0.493E-04 -.216E+03   -.134E+01 -.328E-05 0.216E+03   0.159E-01 0.514E-17 0.256E-01   -.618E-03 -.171E-08 -.324E-01
   0.445E-03 0.493E-04 -.218E+03   -.498E-03 0.354E-05 0.218E+03   -.719E-04 -.511E-17 -.595E-02   -.426E-04 -.764E-09 -.328E-01
   -.861E-03 0.492E-04 -.216E+03   0.500E-03 0.355E-05 0.216E+03   -.301E-04 -.393E-17 0.181E-01   0.479E-03 -.137E-08 -.320E-01
   -.736E+00 0.494E-04 -.215E+03   0.741E+00 -.329E-05 0.215E+03   -.679E-02 0.503E-17 0.443E-01   0.110E-02 -.190E-08 -.319E-01
   -.662E+00 -.115E+01 -.216E+03   0.671E+00 0.116E+01 0.216E+03   -.784E-02 -.138E-01 0.256E-01   -.243E-03 0.700E-03 -.324E-01
   0.368E+00 -.638E+00 -.215E+03   -.371E+00 0.642E+00 0.215E+03   0.328E-02 -.584E-02 0.443E-01   -.358E-03 0.122E-02 -.319E-01
 -----------------------------------------------------------------------------------------------
   0.347E-03 0.761E-03 0.399E+00   -.160E-13 -.103E-13 0.171E-12   -.646E-04 -.446E-15 0.485E-01   -.259E-03 0.852E-08 -.446E+00
 
 
 POSITION                                       TOTAL-FORCE (eV/Angst)
 -----------------------------------------------------------------------------------
      2.88252      1.66438      1.52236        -0.001812     -0.001394     -0.046510
      1.42928      0.82535      1.52236         0.002107      0.000847     -0.046507
      2.88253      3.31461      1.52236        -0.001812      0.001394     -0.046510
      1.42928      4.15365      1.52236         0.002107     -0.000847     -0.046507
      0.00014      1.65047      1.52236        -0.000345      0.002242     -0.046503
      0.00014      3.32853      1.52236        -0.000345     -0.002242     -0.046503
      1.43731      2.48950      1.32683         0.000086     -0.000000     -0.050439
     -1.43731      2.48950      1.71636        -0.000012     -0.000000     -0.052248
     -0.71860      1.24465      5.01853         0.000815     -0.001001      0.047186
      0.71865      1.24474      5.01699         0.000106      0.000555      0.047877
     -2.87474      2.48950      5.01853        -0.000997      0.000000      0.047185
     -1.43731      2.48950      5.01939        -0.000169      0.000000      0.047531
      1.43731      2.48950      5.01667         0.000086     -0.000000      0.049008
      2.87464      2.48950      5.01699        -0.000736      0.000000      0.047876
     -0.71860      3.73434      5.01853         0.000815      0.001001      0.047186
      0.71865      3.73426      5.01699         0.000106     -0.000555      0.047877
 -----------------------------------------------------------------------------------
    total drift:                                0.000024      0.000761      0.001102


--------------------------------------------------------------------------------------------------------



  FREE ENERGIE OF THE ION-ELECTRON SYSTEM (eV)
  ---------------------------------------------------
  free  energy   TOTEN  =      -124.05814926 eV

  energy  without entropy=     -124.05481939  energy(sigma->0) =     -124.05648432
 


--------------------------------------------------------------------------------------------------------


    POTLOK:  cpu time      0.0188: real time      0.0190


--------------------------------------------------------------------------------------------------------


 stress matrix after NEB project (eV)
      1.02627      0.00000     -0.00002
      0.00000      1.02714      0.00000
     -0.00002      0.00000      1.06941
  FORCES: max atom, RMS     0.052248    0.047765
  FORCE total and by dimension    0.191061    0.052248
  Stress total and by dimension    1.803298    1.069411
     LOOP+:  cpu time     40.7903: real time     41.2158
    4ORBIT:  cpu time      0.0000: real time      0.0000



 total charge

# of ion       s       p       d       tot
------------------------------------------
    1        0.706   1.442   0.000   2.149
    2        0.706   1.442   0.000   2.149
    3        0.706   1.442   0.000   2.149
    4        0.706   1.442   0.000   2.149
    5        0.706   1.442   0.000   2.149
    6        0.706   1.442   0.000   2.149
    7        0.686   1.409   0.000   2.095
    8        0.686   1.409   0.000   2.095
    9        0.858   1.759   0.000   2.617
   10        0.858   1.759   0.000   2.617
   11        0.858   1.759   0.000   2.617
   12        0.858   1.759   0.000   2.618
   13        0.858   1.759   0.000   2.617
   14        0.858   1.759   0.000   2.617
   15        0.858   1.759   0.000   2.617
   16        0.858   1.759   0.000   2.617
--------------------------------------------------
tot         12.477  25.545   0.000  38.023
 

 total amount of memory used by VASP MPI-rank0   142624. kBytes
=======================================================================

   base      :      30000. kBytes
   nonl-proj :      92123. kBytes
   fftplans  :       1560. kBytes
   grid      :       7372. kBytes
   one-center:         49. kBytes
   wavefun   :      11520. kBytes
 
  
  
 General timing and accounting informations for this job:
 ========================================================
  
                  Total CPU time used (sec):       49.455
                            User time (sec):       45.358
                          System time (sec):        4.097
                         Elapsed time (sec):       53.142
  
                   Maximum memory used (kb):      644216.
                   Average memory used (kb):          N/A
  
                          Minor page faults:       170898
                          Major page faults:         1468
                 Voluntary context switches:         6223
