 ----------------------------------------------------
    OOO  PPPP  EEEEE N   N M   M PPPP
   O   O P   P E     NN  N MM MM P   P
   O   O PPPP  EEEEE N N N M M M PPPP   -- VERSION
   O   O P     E     N  NN M   M P
    OOO  P     EEEEE N   N M   M P
 ----------------------------------------------------
 running   48 mpi-ranks, with    1 threads/rank
 distrk:  each k-point on   48 cores,    1 groups
 distr:  one band on    1 cores,   48 groups
 vasp.6.3.2 27Jun22 (build Dec 22 2022 13:13:19) complex                        
  
 POSCAR found type information on POSCAR B C 
 POSCAR found :  2 types and      16 ions
 Reading from existing POTCAR
 -----------------------------------------------------------------------------
|                                                                             |
|           W    W    AA    RRRRR   N    N  II  N    N   GGGG   !!!           |
|           W    W   A  A   R    R  NN   N  II  NN   N  G    G  !!!           |
|           W    W  A    A  R    R  N N  N  II  N N  N  G       !!!           |
|           W WW W  AAAAAA  RRRRR   N  N N  II  N  N N  G  GGG   !            |
|           WW  WW  A    A  R   R   N   NN  II  N   NN  G    G                |
|           W    W  A    A  R    R  N    N  II  N    N   GGGG   !!!           |
|                                                                             |
|     You use a magnetic or noncollinear calculation, but did not specify     |
|     the initial magnetic moment with the MAGMOM tag. Note that a            |
|     default of 1 will be used for all atoms. This ferromagnetic setup       |
|     may break the symmetry of the crystal, in particular it may rule        |
|     out finding an antiferromagnetic solution. Thence, we recommend         |
|     setting the initial magnetic moment manually or verifying carefully     |
|     that this magnetic setup is desired.                                    |
|                                                                             |
 -----------------------------------------------------------------------------

 scaLAPACK will be used
 Reading from existing POTCAR
 LDA part: xc-table for Pade appr. of Perdew
 POSCAR found type information on POSCAR B C 
 POSCAR found :  2 types and      16 ions
 POSCAR, INCAR and KPOINTS ok, starting setup
 FFT: planning ... GRIDC
 FFT: planning ... GRID_SOFT
 FFT: planning ... GRID
 WAVECAR not read
 entering main loop
       N       E                     dE             d eps       ncg     rms          rms(c)
DAV:   1     0.258784440044E+03    0.25878E+03   -0.28513E+04 14208   0.963E+02
DAV:   2    -0.129516541264E+03   -0.38830E+03   -0.38775E+03 21792   0.180E+02
DAV:   3    -0.145424763230E+03   -0.15908E+02   -0.15890E+02 25488   0.501E+01
DAV:   4    -0.145474209149E+03   -0.49446E-01   -0.49419E-01 21648   0.255E+00
DAV:   5    -0.145474291928E+03   -0.82779E-04   -0.82779E-04 23856   0.111E-01    0.248E+01
DAV:   6    -0.107258188677E+03    0.38216E+02   -0.68157E+01 23904   0.265E+01    0.144E+01
DAV:   7    -0.114714484082E+03   -0.74563E+01   -0.99197E+00 22944   0.109E+01    0.851E+00
DAV:   8    -0.123699145599E+03   -0.89847E+01   -0.82606E+00 24144   0.901E+00    0.458E+00
DAV:   9    -0.131113582972E+03   -0.74144E+01   -0.38515E+00 17616   0.675E+00    0.306E+00
DAV:  10    -0.138608043327E+03   -0.74945E+01   -0.10468E+01 21408   0.802E+00    0.174E+00
DAV:  11    -0.140053964332E+03   -0.14459E+01   -0.16011E+00 21360   0.332E+00    0.116E+00
DAV:  12    -0.140285567928E+03   -0.23160E+00   -0.29501E-01 19872   0.150E+00    0.500E-01
DAV:  13    -0.140345891069E+03   -0.60323E-01   -0.49329E-02 17136   0.793E-01    0.209E-01
DAV:  14    -0.140372658032E+03   -0.26767E-01   -0.89039E-03 20448   0.341E-01    0.961E-02
DAV:  15    -0.140381840146E+03   -0.91821E-02   -0.46791E-03 15840   0.181E-01    0.491E-02
DAV:  16    -0.140383457564E+03   -0.16174E-02   -0.64091E-04 15456   0.961E-02    0.269E-02
DAV:  17    -0.140385188377E+03   -0.17308E-02   -0.23322E-04 15168   0.623E-02    0.173E-02
DAV:  18    -0.140386305807E+03   -0.11174E-02   -0.13620E-04 15840   0.460E-02    0.125E-02
DAV:  19    -0.140386843560E+03   -0.53775E-03   -0.71284E-05 19008   0.383E-02    0.760E-03
DAV:  20    -0.140387031475E+03   -0.18791E-03   -0.26980E-05 16608   0.249E-02    0.451E-03
DAV:  21    -0.140387083507E+03   -0.52032E-04   -0.96173E-06 19248   0.144E-02    0.270E-03
DAV:  22    -0.140387096870E+03   -0.13363E-04   -0.38885E-06 24384   0.828E-03    0.185E-03
DAV:  23    -0.140387102592E+03   -0.57218E-05   -0.13925E-06 20016   0.448E-03    0.850E-04
DAV:  24    -0.140387105894E+03   -0.33029E-05   -0.35918E-07 23184   0.227E-03    0.502E-04
DAV:  25    -0.140387107676E+03   -0.17817E-05   -0.11194E-07 19008   0.116E-03    0.264E-04
DAV:  26    -0.140387108844E+03   -0.11675E-05   -0.80142E-08 18528   0.859E-04    0.135E-04
DAV:  27    -0.140387109163E+03   -0.31916E-06   -0.26648E-08 19056   0.490E-04
   1 F= -.14227243E+03 E0= -.14227120E+03  d E =-.142272E+03  mag=     0.0000
 curvature:   0.00 expect dE= 0.000E+00 dE for cont linesearch  0.000E+00
 trial: gam= 0.00000 g(F)=  0.711E-01 g(S)=  0.000E+00 ort = 0.000E+00 (trialstep = 0.100E+01)
 search vector abs. value=  0.711E-01
 bond charge predicted
       N       E                     dE             d eps       ncg     rms          rms(c)
DAV:   1    -0.140357945376E+03    0.29163E-01   -0.11361E+01 14208   0.112E+01    0.959E-01
DAV:   2    -0.140330122150E+03    0.27823E-01   -0.19266E-01 25344   0.150E+00    0.457E-01
DAV:   3    -0.140327567372E+03    0.25548E-02   -0.25545E-02 22512   0.495E-01    0.197E-01
DAV:   4    -0.140327514196E+03    0.53177E-04   -0.28372E-03 18912   0.162E-01    0.751E-02
DAV:   5    -0.140327516695E+03   -0.24992E-05   -0.19731E-04 19728   0.521E-02    0.195E-02
DAV:   6    -0.140327519472E+03   -0.27772E-05   -0.19331E-05 23280   0.158E-02    0.108E-02
DAV:   7    -0.140327527472E+03   -0.80002E-05   -0.12709E-05 21744   0.114E-02    0.232E-03
DAV:   8    -0.140327534435E+03   -0.69627E-05   -0.11276E-06 20976   0.345E-03    0.138E-03
DAV:   9    -0.140327546465E+03   -0.12030E-04   -0.12795E-06 20256   0.238E-03    0.828E-04
DAV:  10    -0.140327551910E+03   -0.54446E-05   -0.39505E-07 19824   0.123E-03    0.626E-04
DAV:  11    -0.140327556945E+03   -0.50347E-05   -0.49877E-07 16944   0.116E-03    0.303E-04
DAV:  12    -0.140327558334E+03   -0.13894E-05   -0.10606E-07 16944   0.534E-04    0.221E-04
DAV:  13    -0.140327558761E+03   -0.42688E-06   -0.21900E-08 19824   0.263E-04
   2 F= -.14221661E+03 E0= -.14221514E+03  d E =0.558131E-01  mag=    -0.0000
 trial-energy change:    0.055813  1 .order    0.055024   -0.071089    0.181137
 step:   0.2781(harm=  0.2818)  dis= 0.00679  next Energy=  -142.282295 (dE=-0.987E-02)
 bond charge predicted
       N       E                     dE             d eps       ncg     rms          rms(c)
DAV:   1    -0.140411390228E+03   -0.83832E-01   -0.58927E+00 14208   0.808E+00    0.693E-01
DAV:   2    -0.140397176126E+03    0.14214E-01   -0.97908E-02 24096   0.109E+00    0.328E-01
DAV:   3    -0.140395765823E+03    0.14103E-02   -0.15063E-02 22368   0.370E-01    0.136E-01
DAV:   4    -0.140395717637E+03    0.48186E-04   -0.17272E-03 19920   0.124E-01    0.578E-02
DAV:   5    -0.140395714155E+03    0.34824E-05   -0.13161E-04 16512   0.421E-02    0.104E-02
DAV:   6    -0.140395713184E+03    0.97016E-06   -0.24661E-05 23040   0.168E-02    0.553E-03
DAV:   7    -0.140395716256E+03   -0.30711E-05   -0.21098E-06 21792   0.500E-03    0.143E-03
DAV:   8    -0.140395719302E+03   -0.30462E-05   -0.21823E-07 21168   0.143E-03    0.956E-04
DAV:   9    -0.140395725520E+03   -0.62178E-05   -0.36457E-07 17664   0.131E-03    0.531E-04
DAV:  10    -0.140395730126E+03   -0.46067E-05   -0.27202E-07 16800   0.938E-04    0.472E-04
DAV:  11    -0.140395733150E+03   -0.30238E-05   -0.22882E-07 14208   0.782E-04    0.209E-04
DAV:  12    -0.140395733425E+03   -0.27541E-06   -0.48444E-09 24672   0.162E-04
   3 F= -.14228229E+03 E0= -.14228097E+03  d E =-.986050E-02  mag=     0.0000
 curvature:  -0.14 expect dE=-0.317E-04 dE for cont linesearch -0.145E-08
 trial: gam= 0.00354 g(F)=  0.225E-03 g(S)=  0.000E+00 ort =-0.270E-04 (trialstep = 0.856E+00)
 search vector abs. value=  0.225E-03
 bond charge predicted
       N       E                     dE             d eps       ncg     rms          rms(c)
DAV:   1    -0.140395833206E+03   -0.10006E-03   -0.12548E-02 14208   0.473E-01    0.215E-02
DAV:   2    -0.140395834459E+03   -0.12528E-05   -0.61677E-05 25056   0.354E-02    0.131E-02
DAV:   3    -0.140395837623E+03   -0.31644E-05   -0.75190E-06 14208   0.102E-02    0.210E-03
DAV:   4    -0.140395837689E+03   -0.65644E-07   -0.70301E-07 24864   0.337E-03
   4 F= -.14228241E+03 E0= -.14228109E+03  d E =-.118224E-03  mag=     0.0000
 trial-energy change:   -0.000118  1 .order   -0.000118   -0.000192   -0.000043
 step:   1.1033(harm=  1.1033)  dis= 0.00218  next Energy=  -142.282412 (dE=-0.124E-03)
 bond charge predicted
       N       E                     dE             d eps       ncg     rms          rms(c)
DAV:   1    -0.140395839610E+03   -0.19865E-05   -0.10581E-03 15744   0.137E-01    0.636E-03
DAV:   2    -0.140395839606E+03    0.39181E-08   -0.50737E-06 22944   0.102E-02
   5 F= -.14228241E+03 E0= -.14228110E+03  d E =-.124211E-03  mag=     0.0000
 curvature:  -0.55 expect dE=-0.313E-04 dE for cont linesearch -0.706E-08
 trial: gam= 0.24343 g(F)=  0.565E-04 g(S)=  0.000E+00 ort = 0.170E-05 (trialstep = 0.905E+00)
 search vector abs. value=  0.707E-04
 bond charge predicted
       N       E                     dE             d eps       ncg     rms          rms(c)
DAV:   1    -0.140395830315E+03    0.92945E-05   -0.51209E-03 14208   0.313E-01    0.157E-02
DAV:   2    -0.140395829799E+03    0.51608E-06   -0.45855E-05 20352   0.306E-02    0.975E-03
DAV:   3    -0.140395830799E+03   -0.99979E-06   -0.71925E-06 17952   0.103E-02
   6 F= -.14228243E+03 E0= -.14228112E+03  d E =-.180220E-04  mag=    -0.0000
 trial-energy change:   -0.000018  1 .order   -0.000017   -0.000052    0.000017
 step:   0.6845(harm=  0.6845)  dis= 0.00067  next Energy=  -142.282432 (dE=-0.195E-04)
 bond charge predicted
       N       E                     dE             d eps       ncg     rms          rms(c)
DAV:   1    -0.140395839085E+03   -0.92862E-05   -0.29751E-04 21984   0.754E-02    0.326E-03
DAV:   2    -0.140395839047E+03    0.38774E-07   -0.21644E-06 16992   0.646E-03
   7 F= -.14228243E+03 E0= -.14228112E+03  d E =-.197149E-04  mag=    -0.0000
 curvature:  -0.43 expect dE=-0.143E-04 dE for cont linesearch -0.460E-08
 trial: gam= 0.58016 g(F)=  0.336E-04 g(S)=  0.000E+00 ort = 0.875E-06 (trialstep = 0.861E+00)
 search vector abs. value=  0.584E-04
 bond charge predicted
       N       E                     dE             d eps       ncg     rms          rms(c)
DAV:   1    -0.140395791110E+03    0.47975E-04   -0.42020E-03 14208   0.282E-01    0.143E-02
DAV:   2    -0.140395790767E+03    0.34339E-06   -0.44314E-05 14208   0.285E-02    0.905E-03
DAV:   3    -0.140395791085E+03   -0.31821E-06   -0.67118E-06 16896   0.988E-03
   8 F= -.14228242E+03 E0= -.14228111E+03  d E =0.107378E-04  mag=     0.0000
 trial-energy change:    0.000011  1 .order    0.000012   -0.000029    0.000053
 step:   0.3076(harm=  0.3076)  dis= 0.00025  next Energy=  -142.282438 (dE=-0.525E-05)
 bond charge predicted
       N       E                     dE             d eps       ncg     rms          rms(c)
DAV:   1    -0.140395831268E+03   -0.40502E-04   -0.17096E-03 15360   0.180E-01    0.876E-03
DAV:   2    -0.140395831099E+03    0.16940E-06   -0.18010E-05 15936   0.179E-02    0.547E-03
DAV:   3    -0.140395831179E+03   -0.79917E-07   -0.24102E-06 14208   0.591E-03
   9 F= -.14228244E+03 E0= -.14228112E+03  d E =-.542806E-05  mag=    -0.0000
 curvature:  -0.26 expect dE=-0.205E-05 dE for cont linesearch -0.214E-07
 ZBRENT: interpolating
 opt :   0.3266  next Energy=  -142.282438 (dE=-0.545E-05)
 bond charge predicted
       N       E                     dE             d eps       ncg     rms          rms(c)
DAV:   1    -0.140395830416E+03    0.68267E-06   -0.20438E-06 22224   0.628E-03    0.474E-04
DAV:   2    -0.140395830476E+03   -0.59506E-07   -0.27057E-08 17280   0.704E-04
  10 F= -.14228244E+03 E0= -.14228112E+03  d E =-.554589E-05  mag=    -0.0000
 curvature:  -0.25 expect dE=-0.223E-05 dE for cont linesearch -0.454E-08
 trial: gam= 0.33086 g(F)=  0.877E-05 g(S)=  0.000E+00 ort =-0.102E-05 (trialstep = 0.754E+00)
 search vector abs. value=  0.145E-04
 bond charge predicted
       N       E                     dE             d eps       ncg     rms          rms(c)
DAV:   1    -0.140395803702E+03    0.26714E-04   -0.78815E-04 14208   0.122E-01    0.613E-03
DAV:   2    -0.140395803434E+03    0.26784E-06   -0.89662E-06 14208   0.135E-02
  11 F= -.14228244E+03 E0= -.14228113E+03  d E =-.724622E-06  mag=     0.0000
 trial-energy change:   -0.000001  1 .order   -0.000001   -0.000006    0.000004
 step:   0.4420(harm=  0.4420)  dis= 0.00019  next Energy=  -142.282440 (dE=-0.186E-05)
 bond charge predicted
       N       E                     dE             d eps       ncg     rms          rms(c)
DAV:   1    -0.140395815994E+03   -0.12291E-04   -0.14806E-04 14208   0.522E-02    0.235E-03
DAV:   2    -0.140395816043E+03   -0.48917E-07   -0.23947E-06 16704   0.678E-03
  12 F= -.14228244E+03 E0= -.14228113E+03  d E =-.184179E-05  mag=     0.0000
 curvature:  -0.38 expect dE=-0.122E-05 dE for cont linesearch -0.954E-08
 trial: gam= 0.35195 g(F)=  0.322E-05 g(S)=  0.000E+00 ort =-0.604E-06 (trialstep = 0.692E+00)
 search vector abs. value=  0.459E-05
 bond charge predicted
       N       E                     dE             d eps       ncg     rms          rms(c)
DAV:   1    -0.140395794617E+03    0.21377E-04   -0.19271E-04 16512   0.579E-02    0.262E-03
DAV:   2    -0.140395794559E+03    0.57731E-07   -0.14783E-06 15408   0.544E-03
  13 F= -.14228244E+03 E0= -.14228113E+03  d E =-.148482E-05  mag=     0.0000
 trial-energy change:   -0.000001  1 .order   -0.000001   -0.000002   -0.000000
 step:   0.7657(harm=  0.7657)  dis= 0.00019  next Energy=  -142.282441 (dE=-0.115E-05)
 bond charge predicted
       N       E                     dE             d eps       ncg     rms          rms(c)
DAV:   1    -0.140395792200E+03    0.24169E-05   -0.18308E-06 15888   0.603E-03    0.635E-04
DAV:   2    -0.140395792202E+03   -0.17990E-08   -0.13237E-08 22128   0.514E-04
  14 F= -.14228244E+03 E0= -.14228113E+03  d E =-.158377E-05  mag=     0.0000
 curvature:  -0.58 expect dE=-0.709E-06 dE for cont linesearch -0.200E-09
 trial: gam= 0.34512 g(F)=  0.121E-05 g(S)=  0.000E+00 ort =-0.397E-07 (trialstep = 0.706E+00)
 search vector abs. value=  0.173E-05
 bond charge predicted
       N       E                     dE             d eps       ncg     rms          rms(c)
DAV:   1    -0.140395766962E+03    0.25238E-04   -0.10033E-04 16128   0.426E-02    0.222E-03
DAV:   2    -0.140395766889E+03    0.73577E-07   -0.13045E-06 15456   0.472E-03
  15 F= -.14228244E+03 E0= -.14228113E+03  d E =0.137110E-06  mag=    -0.0000
 trial-energy change:    0.000000  1 .order    0.000000   -0.000001    0.000001
 step:   0.3311(harm=  0.3311)  dis= 0.00003  next Energy=  -142.282441 (dE=-0.198E-06)
 bond charge predicted
       N       E                     dE             d eps       ncg     rms          rms(c)
DAV:   1    -0.140395780590E+03   -0.13628E-04   -0.30482E-05 15456   0.233E-02    0.959E-04
DAV:   2    -0.140395780620E+03   -0.29879E-07   -0.52574E-07 15840   0.290E-03
  16 F= -.14228244E+03 E0= -.14228113E+03  d E =-.215462E-06  mag=    -0.0000
 curvature:  -0.24 expect dE=-0.182E-06 dE for cont linesearch -0.886E-09
 trial: gam= 0.68736 g(F)=  0.763E-06 g(S)=  0.000E+00 ort =-0.801E-07 (trialstep = 0.631E+00)
 search vector abs. value=  0.147E-05
 bond charge predicted
       N       E                     dE             d eps       ncg     rms          rms(c)
DAV:   1    -0.140395752145E+03    0.28445E-04   -0.75010E-05 17568   0.357E-02    0.168E-03
DAV:   2    -0.140395752063E+03    0.82309E-07   -0.85003E-07 16032   0.389E-03
  17 F= -.14228244E+03 E0= -.14228113E+03  d E =-.287013E-06  mag=     0.0000
 trial-energy change:   -0.000000  1 .order   -0.000000   -0.000000   -0.000000
 step:   1.6423(harm=  1.6423)  dis= 0.00015  next Energy=  -142.282442 (dE=-0.581E-06)
 bond charge predicted
       N       E                     dE             d eps       ncg     rms          rms(c)
DAV:   1    -0.140395706079E+03    0.46066E-04   -0.18443E-04 15072   0.565E-02    0.297E-03
DAV:   2    -0.140395705857E+03    0.22185E-06   -0.20323E-06 16992   0.612E-03
  18 F= -.14228244E+03 E0= -.14228113E+03  d E =-.263177E-06  mag=     0.0000
 curvature:  -1.71 expect dE=-0.536E-05 dE for cont linesearch -0.810E-08
 trial: gam= 4.12937 g(F)=  0.314E-05 g(S)=  0.000E+00 ort =-0.836E-07 (trialstep = 0.445E-01)
 search vector abs. value=  0.275E-04
 bond charge predicted
       N       E                     dE             d eps       ncg     rms          rms(c)
DAV:   1    -0.140395696814E+03    0.92646E-05   -0.59478E-06 14208   0.105E-02    0.888E-04
DAV:   2    -0.140395696810E+03    0.45811E-08   -0.53473E-08 16032   0.108E-03
  19 F= -.14228244E+03 E0= -.14228113E+03  d E =-.247106E-06  mag=     0.0000
 ZBRENT: can't locate minimum, use default step
 trial-energy change:   -0.000000  1 .order   -0.000000   -0.000000   -0.000000
 step:   0.1781(harm=  0.3157)  dis= 0.00006  next Energy=  -142.282442 (dE=-0.441E-06)
 bond charge predicted
       N       E                     dE             d eps       ncg     rms          rms(c)
DAV:   1    -0.140395669289E+03    0.27526E-04   -0.63798E-05 16608   0.325E-02    0.175E-03
DAV:   2    -0.140395669188E+03    0.10114E-06   -0.67800E-07 15456   0.349E-03
  20 F= -.14228244E+03 E0= -.14228113E+03  d E =-.508885E-06  mag=     0.0000
 curvature:  -1.15 expect dE=-0.336E-05 dE for cont linesearch -0.210E-06
 ZBRENT: increasing intervall
 opt :   0.4454  next Energy=  -142.282443 (dE=-0.106E-05)
 bond charge predicted
       N       E                     dE             d eps       ncg     rms          rms(c)
DAV:   1    -0.140395614007E+03    0.55282E-04   -0.25146E-04 14208   0.648E-02    0.344E-03
DAV:   2    -0.140395613722E+03    0.28458E-06   -0.27149E-06 16992   0.705E-03
  21 F= -.14228244E+03 E0= -.14228113E+03  d E =-.884872E-06  mag=     0.0000
 curvature:  -3.05 expect dE=-0.922E-05 dE for cont linesearch -0.365E-06
 ZBRENT: increasing intervall
 opt :   0.9798  next Energy=  -142.282443 (dE=-0.163E-05)
 bond charge predicted
       N       E                     dE             d eps       ncg     rms          rms(c)
DAV:   1    -0.140395503040E+03    0.11097E-03   -0.10051E-03 14208   0.130E-01    0.682E-03
DAV:   2    -0.140395502336E+03    0.70354E-06   -0.10695E-05 15840   0.140E-02    0.416E-03
DAV:   3    -0.140395502647E+03   -0.31049E-06   -0.15751E-06 17184   0.469E-03
  22 F= -.14228244E+03 E0= -.14228113E+03  d E =-.129160E-05  mag=     0.0000
 curvature:  -6.22 expect dE=-0.267E-04 dE for cont linesearch -0.157E-06
 trial: gam= 0.67109 g(F)=  0.430E-05 g(S)=  0.000E+00 ort =-0.833E-06 (trialstep = 0.232E+00)
 search vector abs. value=  0.156E-04
 bond charge predicted
       N       E                     dE             d eps       ncg     rms          rms(c)
DAV:   1    -0.140395468575E+03    0.33762E-04   -0.10724E-04 15168   0.427E-02    0.243E-03
DAV:   2    -0.140395468498E+03    0.76546E-07   -0.12994E-06 15168   0.498E-03
  23 F= -.14228244E+03 E0= -.14228113E+03  d E =-.821669E-06  mag=     0.0000
 trial-energy change:   -0.000001  1 .order   -0.000001   -0.000001   -0.000001
 step:   0.7298(harm=  0.7298)  dis= 0.00019  next Energy=  -142.282444 (dE=-0.136E-05)
 bond charge predicted
       N       E                     dE             d eps       ncg     rms          rms(c)
DAV:   1    -0.140395393502E+03    0.75073E-04   -0.46522E-04 14208   0.898E-02    0.487E-03
DAV:   2    -0.140395393179E+03    0.32270E-06   -0.57521E-06 14208   0.103E-02
  24 F= -.14228244E+03 E0= -.14228113E+03  d E =-.737703E-06  mag=     0.0000
 curvature:  -1.52 expect dE=-0.159E-04 dE for cont linesearch -0.299E-06
 ZBRENT: interpolating
 opt :   0.5272  next Energy=  -142.282444 (dE=-0.915E-06)
 bond charge predicted
       N       E                     dE             d eps       ncg     rms          rms(c)
DAV:   1    -0.140395424218E+03   -0.30716E-04   -0.87062E-05 15456   0.379E-02    0.168E-03
DAV:   2    -0.140395424330E+03   -0.11292E-06   -0.14999E-06 15504   0.511E-03
  25 F= -.14228244E+03 E0= -.14228113E+03  d E =-.128912E-05  mag=     0.0000
 curvature:  -0.90 expect dE=-0.431E-05 dE for cont linesearch -0.128E-07
 trial: gam= 1.27496 g(F)=  0.478E-05 g(S)=  0.000E+00 ort =-0.470E-06 (trialstep = 0.157E+00)
 search vector abs. value=  0.289E-04
 bond charge predicted
       N       E                     dE             d eps       ncg     rms          rms(c)
DAV:   1    -0.140395391936E+03    0.32282E-04   -0.79840E-05 16512   0.358E-02    0.179E-03
DAV:   2    -0.140395391888E+03    0.47354E-07   -0.99325E-07 15360   0.427E-03
  26 F= -.14228244E+03 E0= -.14228113E+03  d E =-.558464E-06  mag=    -0.0000
 ZBRENT: can't locate minimum, use default step
 trial-energy change:   -0.000001  1 .order   -0.000001   -0.000001   -0.000001
 step:   0.6267(harm=  1.0140)  dis= 0.00036  next Energy=  -142.282446 (dE=-0.212E-05)
 bond charge predicted
       N       E                     dE             d eps       ncg     rms          rms(c)
DAV:   1    -0.140395293844E+03    0.98091E-04   -0.67982E-04 14208   0.106E-01    0.599E-03
DAV:   2    -0.140395293375E+03    0.46916E-06   -0.81613E-06 15648   0.121E-02
  27 F= -.14228245E+03 E0= -.14228113E+03  d E =-.115776E-05  mag=     0.0000
 curvature:  -2.79 expect dE=-0.128E-04 dE for cont linesearch -0.558E-07
 trial: gam= 0.65983 g(F)=  0.458E-05 g(S)=  0.000E+00 ort = 0.760E-06 (trialstep = 0.251E+00)
 search vector abs. value=  0.182E-04
 bond charge predicted
       N       E                     dE             d eps       ncg     rms          rms(c)
DAV:   1    -0.140395253924E+03    0.39921E-04   -0.11032E-04 17088   0.439E-02    0.301E-03
DAV:   2    -0.140395253858E+03    0.66212E-07   -0.12412E-06 15696   0.500E-03
  28 F= -.14228245E+03 E0= -.14228114E+03  d E =-.102873E-05  mag=     0.0000
 trial-energy change:   -0.000001  1 .order   -0.000001   -0.000001   -0.000001
 step:   0.5878(harm=  0.5878)  dis= 0.00027  next Energy=  -142.282447 (dE=-0.149E-05)
 bond charge predicted
       N       E                     dE             d eps       ncg     rms          rms(c)
DAV:   1    -0.140395199915E+03    0.54009E-04   -0.21213E-04 15936   0.597E-02    0.359E-03
DAV:   2    -0.140395199806E+03    0.10845E-06   -0.25980E-06 15360   0.711E-03
  29 F= -.14228245E+03 E0= -.14228114E+03  d E =-.149684E-05  mag=     0.0000
 curvature:  -1.05 expect dE=-0.307E-05 dE for cont linesearch -0.921E-08
 trial: gam= 0.65718 g(F)=  0.292E-05 g(S)=  0.000E+00 ort = 0.399E-06 (trialstep = 0.318E+00)
 search vector abs. value=  0.113E-04
 bond charge predicted
       N       E                     dE             d eps       ncg     rms          rms(c)
DAV:   1    -0.140395161434E+03    0.38481E-04   -0.11532E-04 17088   0.447E-02    0.284E-03
DAV:   2    -0.140395161394E+03    0.39482E-07   -0.12932E-06 15648   0.512E-03
  30 F= -.14228245E+03 E0= -.14228114E+03  d E =-.654421E-06  mag=     0.0000
 trial-energy change:   -0.000001  1 .order   -0.000001   -0.000001   -0.000000
 step:   0.5660(harm=  0.5660)  dis= 0.00017  next Energy=  -142.282448 (dE=-0.900E-06)
 bond charge predicted
       N       E                     dE             d eps       ncg     rms          rms(c)
DAV:   1    -0.140395131080E+03    0.30354E-04   -0.70170E-05 15552   0.348E-02    0.228E-03
DAV:   2    -0.140395131095E+03   -0.14789E-07   -0.85493E-07 15552   0.438E-03
  31 F= -.14228245E+03 E0= -.14228114E+03  d E =-.869374E-06  mag=     0.0000
 curvature:  -1.00 expect dE=-0.272E-05 dE for cont linesearch -0.625E-12
 trial: gam= 1.00683 g(F)=  0.271E-05 g(S)=  0.000E+00 ort =-0.265E-08 (trialstep = 0.293E+00)
 search vector abs. value=  0.141E-04
 bond charge predicted
       N       E                     dE             d eps       ncg     rms          rms(c)
DAV:   1    -0.140395090648E+03    0.40431E-04   -0.13361E-04 15936   0.480E-02    0.285E-03
DAV:   2    -0.140395090622E+03    0.26474E-07   -0.16589E-06 14880   0.592E-03
  32 F= -.14228245E+03 E0= -.14228114E+03  d E =-.401267E-06  mag=     0.0000
 trial-energy change:   -0.000000  1 .order   -0.000000   -0.000001   -0.000000
 step:   0.3891(harm=  0.3891)  dis= 0.00011  next Energy=  -142.282448 (dE=-0.526E-06)
 bond charge predicted
       N       E                     dE             d eps       ncg     rms          rms(c)
DAV:   1    -0.140395077278E+03    0.13371E-04   -0.13176E-05 14976   0.156E-02    0.130E-03
DAV:   2    -0.140395077377E+03   -0.99052E-07   -0.25630E-07 15504   0.286E-03
  33 F= -.14228245E+03 E0= -.14228114E+03  d E =-.478804E-06  mag=     0.0000
 curvature:  -1.02 expect dE=-0.879E-06 dE for cont linesearch -0.201E-08
 trial: gam= 0.31480 g(F)=  0.863E-06 g(S)=  0.000E+00 ort =-0.167E-06 (trialstep = 0.313E+00)
 search vector abs. value=  0.216E-05
 bond charge predicted
       N       E                     dE             d eps       ncg     rms          rms(c)
DAV:   1    -0.140395059218E+03    0.18059E-04   -0.26892E-05 14208   0.215E-02    0.136E-03
DAV:   2    -0.140395059249E+03   -0.30785E-07   -0.38365E-07 16800   0.304E-03
  34 F= -.14228245E+03 E0= -.14228114E+03  d E =-.270725E-06  mag=     0.0000
 trial-energy change:   -0.000000  1 .order   -0.000000   -0.000000   -0.000000
 step:   1.1408(harm=  1.1408)  dis= 0.00011  next Energy=  -142.282449 (dE=-0.462E-06)
 bond charge predicted
       N       E                     dE             d eps       ncg     rms          rms(c)
DAV:   1    -0.140395010727E+03    0.48491E-04   -0.18786E-04 14208   0.567E-02    0.303E-03
DAV:   2    -0.140395010607E+03    0.11984E-06   -0.23423E-06 14208   0.674E-03
  35 F= -.14228245E+03 E0= -.14228114E+03  d E =-.373653E-06  mag=     0.0000
 curvature:  -1.52 expect dE=-0.411E-05 dE for cont linesearch -0.761E-12
 trial: gam= 3.09201 g(F)=  0.271E-05 g(S)=  0.000E+00 ort = 0.104E-08 (trialstep = 0.442E-01)
 search vector abs. value=  0.234E-04
 bond charge predicted
       N       E                     dE             d eps       ncg     rms          rms(c)
DAV:   1    -0.140395002138E+03    0.85889E-05   -0.50000E-06 14208   0.983E-03    0.920E-04
DAV:   2    -0.140395002216E+03   -0.78388E-07   -0.12791E-07 14304   0.207E-03
  36 F= -.14228245E+03 E0= -.14228114E+03  d E =-.212110E-06  mag=     0.0000
 ZBRENT: can't locate minimum, use default step
 trial-energy change:   -0.000000  1 .order   -0.000000   -0.000000   -0.000000
 step:   0.1769(harm=  0.2846)  dis= 0.00006  next Energy=  -142.282449 (dE=-0.385E-06)
 bond charge predicted
       N       E                     dE             d eps       ncg     rms          rms(c)
DAV:   1    -0.140394976704E+03    0.25434E-04   -0.52993E-05 14880   0.298E-02    0.170E-03
DAV:   2    -0.140394976671E+03    0.33223E-07   -0.64550E-07 16032   0.367E-03
  37 F= -.14228245E+03 E0= -.14228114E+03  d E =-.475421E-06  mag=    -0.0000
 curvature:  -0.98 expect dE=-0.156E-05 dE for cont linesearch -0.137E-06
 ZBRENT: increasing intervall
 opt :   0.4422  next Energy=  -142.282450 (dE=-0.829E-06)
 bond charge predicted
       N       E                     dE             d eps       ncg     rms          rms(c)
DAV:   1    -0.140394925373E+03    0.51331E-04   -0.20813E-04 14304   0.593E-02    0.315E-03
DAV:   2    -0.140394925222E+03    0.15139E-06   -0.24205E-06 14208   0.684E-03
  38 F= -.14228245E+03 E0= -.14228114E+03  d E =-.647153E-06  mag=    -0.0000
 curvature:  -2.52 expect dE=-0.423E-05 dE for cont linesearch -0.534E-07
 ZBRENT: increasing intervall
 opt :   0.9728  next Energy=  -142.282449 (dE=-0.433E-06)
 bond charge predicted
       N       E                     dE             d eps       ncg     rms          rms(c)
DAV:   1    -0.140394821816E+03    0.10356E-03   -0.83258E-04 15360   0.118E-01    0.624E-03
DAV:   2    -0.140394821340E+03    0.47619E-06   -0.92272E-06 14208   0.131E-02
  39 F= -.14228245E+03 E0= -.14228114E+03  d E =-.159497E-07  mag=    -0.0000
 curvature:  10.09 expect dE= 0.819E-04 dE for cont linesearch  0.850E-06
 ZBRENT: bracketing found
 ZBRENT: interpolating
 opt :   0.6194  next Energy=  -142.282449 (dE=-0.709E-06)
 bond charge predicted
       N       E                     dE             d eps       ncg     rms          rms(c)
DAV:   1    -0.140394890838E+03   -0.69022E-04   -0.40170E-04 14400   0.808E-02    0.358E-03
DAV:   2    -0.140394890901E+03   -0.63850E-07   -0.55938E-06 15552   0.100E-02
  40 F= -.14228245E+03 E0= -.14228114E+03  d E =-.808411E-06  mag=    -0.0000
 curvature:  -0.74 expect dE=-0.208E-05 dE for cont linesearch -0.197E-07
 ZBRENT: interpolating
 opt :   0.5257  next Energy=  -142.282449 (dE=-0.677E-06)
 bond charge predicted
       N       E                     dE             d eps       ncg     rms          rms(c)
DAV:   1    -0.140394909092E+03   -0.18254E-04   -0.22779E-05 15360   0.206E-02    0.150E-03
DAV:   2    -0.140394909120E+03   -0.28268E-07   -0.34975E-07 16176   0.320E-03
  41 F= -.14228245E+03 E0= -.14228114E+03  d E =-.793570E-06  mag=    -0.0000
 curvature:  -1.10 expect dE=-0.231E-05 dE for cont linesearch -0.139E-09
 trial: gam= 0.65539 g(F)=  0.210E-05 g(S)=  0.000E+00 ort =-0.543E-07 (trialstep = 0.141E+00)
 search vector abs. value=  0.121E-04
 bond charge predicted
       N       E                     dE             d eps       ncg     rms          rms(c)
DAV:   1    -0.140394890555E+03    0.18537E-04   -0.31922E-05 15552   0.233E-02    0.100E-03
DAV:   2    -0.140394890643E+03   -0.87735E-07   -0.57058E-07 14208   0.384E-03
  42 F= -.14228245E+03 E0= -.14228114E+03  d E =-.331834E-06  mag=     0.0000
 ZBRENT: can't locate minimum, use default step
 trial-energy change:   -0.000000  1 .order   -0.000000   -0.000000   -0.000000
 step:   0.5620(harm=  0.6250)  dis= 0.00012  next Energy=  -142.282450 (dE=-0.645E-06)
 bond charge predicted
       N       E                     dE             d eps       ncg     rms          rms(c)
DAV:   1    -0.140394834550E+03    0.56005E-04   -0.27609E-04 14208   0.687E-02    0.361E-03
DAV:   2    -0.140394834304E+03    0.24584E-06   -0.34910E-06 14208   0.815E-03
  43 F= -.14228245E+03 E0= -.14228114E+03  d E =-.422628E-06  mag=    -0.0000
 curvature:  -1.79 expect dE=-0.304E-05 dE for cont linesearch -0.953E-09
 trial: gam= 1.05157 g(F)=  0.170E-05 g(S)=  0.000E+00 ort =-0.800E-07 (trialstep = 0.182E+00)
 search vector abs. value=  0.149E-04
 bond charge predicted
       N       E                     dE             d eps       ncg     rms          rms(c)
DAV:   1    -0.140394806020E+03    0.28530E-04   -0.57569E-05 15552   0.316E-02    0.200E-03
DAV:   2    -0.140394806005E+03    0.14572E-07   -0.66109E-07 14976   0.396E-03
  44 F= -.14228245E+03 E0= -.14228114E+03  d E =-.263728E-06  mag=    -0.0000
 trial-energy change:   -0.000000  1 .order   -0.000000   -0.000000   -0.000000
 step:   0.6506(harm=  0.6506)  dis= 0.00016  next Energy=  -142.282450 (dE=-0.524E-06)
 bond charge predicted
       N       E                     dE             d eps       ncg     rms          rms(c)
DAV:   1    -0.140394733088E+03    0.72931E-04   -0.40641E-04 14304   0.823E-02    0.436E-03
DAV:   2    -0.140394732829E+03    0.25959E-06   -0.48274E-06 14208   0.968E-03
  45 F= -.14228245E+03 E0= -.14228114E+03  d E =-.403475E-06  mag=    -0.0000
 curvature:  -3.00 expect dE=-0.613E-05 dE for cont linesearch -0.714E-07
 ZBRENT: increasing intervall
 opt :   1.5869  next Energy=  -142.282450 (dE=-0.431E-06)
 bond charge predicted
       N       E                     dE             d eps       ncg     rms          rms(c)
DAV:   1    -0.140394586270E+03    0.14682E-03   -0.16150E-03 16896   0.164E-01    0.879E-03
DAV:   2    -0.140394585474E+03    0.79558E-06   -0.17694E-05 14208   0.180E-02    0.533E-03
DAV:   3    -0.140394585579E+03   -0.10521E-06   -0.28151E-06 17088   0.698E-03
  46 F= -.14228245E+03 E0= -.14228114E+03  d E =0.194691E-06  mag=    -0.0000
 curvature:  -1.15 expect dE=-0.873E-05 dE for cont linesearch -0.359E-06
 ZBRENT: bracketing found
 ZBRENT: interpolating
 opt :   0.8535  next Energy=  -142.282450 (dE=-0.464E-06)
 bond charge predicted
       N       E                     dE             d eps       ncg     rms          rms(c)
DAV:   1    -0.140394701352E+03   -0.11588E-03   -0.99209E-04 14448   0.128E-01    0.617E-03
DAV:   2    -0.140394701136E+03    0.21525E-06   -0.12615E-05 16704   0.154E-02    0.372E-03
DAV:   3    -0.140394701067E+03    0.69430E-07   -0.18582E-06 14736   0.608E-03
  47 F= -.14228245E+03 E0= -.14228114E+03  d E =-.420609E-06  mag=     0.0000
 curvature:  -0.19 expect dE=-0.522E-06 dE for cont linesearch -0.473E-08
 ZBRENT: bisectioning
 opt :   1.2202  next Energy=  -142.282451 (dE=-0.644E-06)
 bond charge predicted
       N       E                     dE             d eps       ncg     rms          rms(c)
DAV:   1    -0.140394643711E+03    0.57425E-04   -0.24861E-04 14592   0.643E-02    0.303E-03
DAV:   2    -0.140394643694E+03    0.17063E-07   -0.34705E-06 14208   0.849E-03
  48 F= -.14228245E+03 E0= -.14228114E+03  d E =-.482044E-06  mag=     0.0000
 curvature:  -9.15 expect dE=-0.423E-04 dE for cont linesearch -0.742E-07
 trial: gam= 2.32034 g(F)=  0.462E-05 g(S)=  0.000E+00 ort =-0.347E-06 (trialstep = 0.698E-01)
 search vector abs. value=  0.831E-04
 bond charge predicted
       N       E                     dE             d eps       ncg     rms          rms(c)
DAV:   1    -0.140394617250E+03    0.26461E-04   -0.47222E-05 15552   0.288E-02    0.194E-03
DAV:   2    -0.140394617298E+03   -0.47982E-07   -0.77745E-07 15456   0.467E-03
  49 F= -.14228245E+03 E0= -.14228114E+03  d E =-.166297E-06  mag=     0.0000
 trial-energy change:   -0.000000  1 .order   -0.000000   -0.000000   -0.000000
 step:   0.2706(harm=  0.2706)  dis= 0.00016  next Energy=  -142.282451 (dE=-0.516E-06)
 bond charge predicted
       N       E                     dE             d eps       ncg     rms          rms(c)
DAV:   1    -0.140394541284E+03    0.75966E-04   -0.41714E-04 14304   0.833E-02    0.459E-03
DAV:   2    -0.140394541043E+03    0.24109E-06   -0.52322E-06 14208   0.102E-02
  50 F= -.14228245E+03 E0= -.14228114E+03  d E =-.310853E-06  mag=    -0.0000
 curvature:  -2.94 expect dE=-0.676E-05 dE for cont linesearch -0.592E-07
 ZBRENT: increasing intervall
 opt :   0.6721  next Energy=  -142.282451 (dE=-0.212E-06)
 bond charge predicted
       N       E                     dE             d eps       ncg     rms          rms(c)
DAV:   1    -0.140394388096E+03    0.15319E-03   -0.16525E-03 15936   0.166E-01    0.898E-03
DAV:   2    -0.140394387385E+03    0.71094E-06   -0.19119E-05 15072   0.188E-02    0.548E-03
DAV:   3    -0.140394387423E+03   -0.37824E-07   -0.30301E-06 17280   0.747E-03
  51 F= -.14228245E+03 E0= -.14228114E+03  d E =0.490057E-06  mag=    -0.0000
 curvature:   4.94 expect dE= 0.386E-04 dE for cont linesearch  0.191E-05
 ZBRENT: bracketing found
 ZBRENT: interpolating
 opt :   0.3452  next Energy=  -142.282451 (dE=-0.359E-06)
 bond charge predicted
       N       E                     dE             d eps       ncg     rms          rms(c)
DAV:   1    -0.140394512980E+03   -0.12560E-03   -0.10995E-03 14592   0.135E-01    0.657E-03
DAV:   2    -0.140394512736E+03    0.24386E-06   -0.14411E-05 16416   0.165E-02    0.395E-03
DAV:   3    -0.140394512636E+03    0.10039E-06   -0.21620E-06 15120   0.661E-03
  52 F= -.14228245E+03 E0= -.14228114E+03  d E =-.303145E-06  mag=     0.0000
 curvature:  -0.12 expect dE=-0.317E-06 dE for cont linesearch -0.283E-08
 ZBRENT: bisectioning
 opt :   0.5087  next Energy=  -142.282451 (dE=-0.542E-06)
 bond charge predicted
       N       E                     dE             d eps       ncg     rms          rms(c)
DAV:   1    -0.140394450466E+03    0.62270E-04   -0.27492E-04 14208   0.676E-02    0.320E-03
DAV:   2    -0.140394450463E+03    0.34370E-08   -0.40229E-06 14592   0.920E-03
  53 F= -.14228245E+03 E0= -.14228114E+03  d E =-.338623E-06  mag=     0.0000
 curvature: -10.52 expect dE=-0.446E-04 dE for cont linesearch -0.168E-06
 ZBRENT: interpolating
 opt :   0.4340  next Energy=  -142.282451 (dE=-0.382E-06)
 bond charge predicted
       N       E                     dE             d eps       ncg     rms          rms(c)
DAV:   1    -0.140394478865E+03   -0.28399E-04   -0.63974E-05 15744   0.320E-02    0.130E-03
DAV:   2    -0.140394479081E+03   -0.21541E-06   -0.11585E-06 15840   0.541E-03
  54 F= -.14228245E+03 E0= -.14228114E+03  d E =-.556158E-06  mag=     0.0000
 curvature:  -2.69 expect dE=-0.852E-05 dE for cont linesearch -0.542E-07
 ZBRENT: bisectioning
 opt :   0.3896  next Energy=  -142.282451 (dE=-0.616E-06)
 bond charge predicted
       N       E                     dE             d eps       ncg     rms          rms(c)
DAV:   1    -0.140394496062E+03   -0.17197E-04   -0.19831E-05 16512   0.186E-02    0.123E-03
DAV:   2    -0.140394496085E+03   -0.22202E-07   -0.34448E-07 17568   0.300E-03
  55 F= -.14228245E+03 E0= -.14228114E+03  d E =-.655212E-06  mag=     0.0000
 curvature:  -2.94 expect dE=-0.815E-05 dE for cont linesearch -0.265E-07
 ZBRENT: bisectioning
 opt :   0.3674  next Energy=  -142.282451 (dE=-0.672E-06)
 bond charge predicted
       N       E                     dE             d eps       ncg     rms          rms(c)
DAV:   1    -0.140394504532E+03   -0.84693E-05   -0.48590E-06 14784   0.933E-03    0.704E-04
DAV:   2    -0.140394504582E+03   -0.50106E-07   -0.14109E-07 17280   0.215E-03
  56 F= -.14228245E+03 E0= -.14228114E+03  d E =-.700615E-06  mag=     0.0000
 curvature:  -1.87 expect dE=-0.487E-05 dE for cont linesearch -0.572E-08
 trial: gam= 0.26193 g(F)=  0.260E-05 g(S)=  0.000E+00 ort =-0.504E-06 (trialstep = 0.129E+00)
 search vector abs. value=  0.804E-05
 bond charge predicted
       N       E                     dE             d eps       ncg     rms          rms(c)
DAV:   1    -0.140394491200E+03    0.13332E-04   -0.15237E-05 14208   0.163E-02    0.716E-04
DAV:   2    -0.140394491229E+03   -0.28947E-07   -0.24290E-07 16320   0.241E-03
  57 F= -.14228245E+03 E0= -.14228114E+03  d E =-.326103E-06  mag=     0.0000
 ZBRENT: can't locate minimum, use default step
 trial-energy change:   -0.000000  1 .order   -0.000000   -0.000000   -0.000000
 step:   0.5173(harm=  0.5933)  dis= 0.00012  next Energy=  -142.282452 (dE=-0.733E-06)
 bond charge predicted
       N       E                     dE             d eps       ncg     rms          rms(c)
DAV:   1    -0.140394450585E+03    0.40615E-04   -0.13355E-04 14208   0.483E-02    0.259E-03
DAV:   2    -0.140394450468E+03    0.11645E-06   -0.17249E-06 15648   0.572E-03
  58 F= -.14228245E+03 E0= -.14228115E+03  d E =-.604475E-06  mag=     0.0000
 curvature:  -0.94 expect dE=-0.122E-05 dE for cont linesearch -0.534E-08
 trial: gam= 0.47156 g(F)=  0.130E-05 g(S)=  0.000E+00 ort = 0.214E-06 (trialstep = 0.207E+00)
 search vector abs. value=  0.329E-05
 bond charge predicted
       N       E                     dE             d eps       ncg     rms          rms(c)
DAV:   1    -0.140394439171E+03    0.11414E-04   -0.11811E-05 15360   0.150E-02    0.108E-03
DAV:   2    -0.140394439185E+03   -0.14207E-07   -0.17197E-07 14880   0.215E-03
  59 F= -.14228245E+03 E0= -.14228115E+03  d E =-.271310E-06  mag=     0.0000
 trial-energy change:   -0.000000  1 .order   -0.000000   -0.000000   -0.000000
 step:   0.5171(harm=  0.5171)  dis= 0.00011  next Energy=  -142.282452 (dE=-0.363E-06)
 bond charge predicted
       N       E                     dE             d eps       ncg     rms          rms(c)
DAV:   1    -0.140394421989E+03    0.17182E-04   -0.28312E-05 14304   0.226E-02    0.134E-03
DAV:   2    -0.140394421991E+03   -0.20809E-08   -0.37605E-07 14208   0.302E-03
  60 F= -.14228245E+03 E0= -.14228115E+03  d E =-.395553E-06  mag=     0.0000
 curvature:  -0.61 expect dE=-0.127E-06 dE for cont linesearch -0.101E-08
 trial: gam= 0.17385 g(F)=  0.210E-06 g(S)=  0.000E+00 ort = 0.740E-07 (trialstep = 0.269E+00)
 search vector abs. value=  0.335E-06
 reached required accuracy - stopping structural energy minimisation
