Lattice                                 
           1
     4.416730    2.550000    0.000000
    -4.416730    2.550000    0.000000
     0.000000    0.000000   15.000000
   B    C 
     2    14
Direct configuration=     1
   0.33833034  0.66916432  0.10000000
   0.67165522  0.33584146  0.10000000
   0.16373946  0.31999962  0.10000000
   0.32250218  0.16126397  0.10000000
   0.16376430  0.84376384  0.10000000
   0.84623863  0.16123684  0.10000000
   0.68749850  0.84373000  0.10000000
   0.84626736  0.68499594  0.10000000
   0.24999933  0.24999967  0.32633333
   0.41666633  0.08333267  0.32633333
   0.24999933  0.74999967  0.32633333
   0.41666633  0.58333267  0.32633333
   0.74999933  0.24999967  0.32633333
   0.91666633  0.08333267  0.32633333
   0.74999933  0.74999967  0.32633333
   0.91666633  0.58333267  0.32633333
Direct configuration=     2
   0.33844422  0.66905118  0.10014772
   0.67179561  0.33569852  0.10008539
   0.16554519  0.32355604  0.09993507
   0.32573962  0.16291676  0.09996606
   0.16536796  0.84215646  0.09994666
   0.84443757  0.16302446  0.09995411
   0.68395903  0.84195204  0.09993525
   0.84459017  0.68176816  0.09996632
   0.24985694  0.24958520  0.32641206
   0.41629950  0.08328361  0.32640383
   0.24982443  0.75018644  0.32627276
   0.41676794  0.58322717  0.32623191
   0.75003171  0.24995857  0.32620923
   0.91687495  0.08311622  0.32638820
   0.75041367  0.75014819  0.32641363
   0.91671014  0.58369632  0.32639846
Direct configuration=     3
   0.33836429  0.66913059  0.10004404
   0.67169707  0.33579885  0.10002546
   0.16427781  0.32105990  0.09998064
   0.32346736  0.16175671  0.09998988
   0.16424240  0.84328463  0.09998410
   0.84570168  0.16176979  0.09998632
   0.68644328  0.84319994  0.09998070
   0.84576734  0.68403364  0.09998996
   0.24995688  0.24987610  0.32635680
   0.41655697  0.08331804  0.32635435
   0.24994719  0.75005535  0.32631528
   0.41669663  0.58330121  0.32630310
   0.75000898  0.24998741  0.32629633
   0.91672853  0.08326814  0.32634969
   0.75012286  0.75004395  0.32635727
   0.91667939  0.58344108  0.32635275
Direct configuration=     4
   0.33836511  0.66913506  0.10014127
   0.67169792  0.33579757  0.10008255
   0.16422076  0.32105685  0.09993835
   0.32346623  0.16179317  0.09996225
   0.16421685  0.84329585  0.09995182
   0.84573080  0.16176088  0.09994991
   0.68643844  0.84326207  0.09993854
   0.84572708  0.68403976  0.09996261
   0.24995181  0.24981718  0.32641204
   0.41652359  0.08329000  0.32639666
   0.24992978  0.75007198  0.32627789
   0.41671931  0.58327826  0.32623849
   0.75001535  0.24997862  0.32622226
   0.91676905  0.08322618  0.32638715
   0.75017996  0.75004781  0.32641334
   0.91670662  0.58347409  0.32639154
Direct configuration=     5
   0.33836533  0.66913622  0.10016667
   0.67169815  0.33579724  0.10009747
   0.16420586  0.32105606  0.09992730
   0.32346594  0.16180270  0.09995503
   0.16421017  0.84329878  0.09994339
   0.84573841  0.16175855  0.09994040
   0.68643718  0.84327829  0.09992753
   0.84571656  0.68404135  0.09995547
   0.24995049  0.24980180  0.32642647
   0.41651487  0.08328268  0.32640771
   0.24992524  0.75007633  0.32626812
   0.41672523  0.58327226  0.32622162
   0.75001701  0.24997633  0.32620291
   0.91677963  0.08321522  0.32639693
   0.75019487  0.75004882  0.32642798
   0.91671372  0.58348271  0.32640167
Direct configuration=     6
   0.33830039  0.66918268  0.10022921
   0.67169583  0.33581441  0.10013724
   0.16435188  0.32110008  0.09989912
   0.32337754  0.16175798  0.09992411
   0.16418325  0.84334476  0.09992877
   0.84563817  0.16183163  0.09989679
   0.68642570  0.84317189  0.09989966
   0.84572707  0.68411614  0.09992491
   0.25000295  0.24986635  0.32646640
   0.41661622  0.08329298  0.32641911
   0.24999841  0.75000131  0.32625166
   0.41671986  0.58327407  0.32619732
   0.75004682  0.24994795  0.32618688
   0.91674355  0.08324985  0.32642676
   0.75013017  0.74999512  0.32646763
   0.91670086  0.58337813  0.32641111
Direct configuration=     7
   0.33833719  0.66915636  0.10019377
   0.67169714  0.33580468  0.10011470
   0.16426915  0.32107514  0.09991509
   0.32342763  0.16178332  0.09994163
   0.16419851  0.84331871  0.09993705
   0.84569497  0.16179022  0.09992150
   0.68643220  0.84323218  0.09991545
   0.84572112  0.68407377  0.09994223
   0.24997322  0.24982977  0.32644377
   0.41655879  0.08328714  0.32641265
   0.24995695  0.75004382  0.32626099
   0.41672291  0.58327305  0.32621109
   0.75002993  0.24996403  0.32619597
   0.91676399  0.08323023  0.32640985
   0.75016683  0.75002554  0.32644516
   0.91670815  0.58343739  0.32640576
Direct configuration=     8
   0.33831765  0.66918553  0.10021767
   0.67165152  0.33584395  0.10012860
   0.16422874  0.32110116  0.09989962
   0.32344624  0.16177688  0.09992126
   0.16415983  0.84333542  0.09993308
   0.84571087  0.16179977  0.09988921
   0.68639422  0.84326412  0.09990031
   0.84573922  0.68406900  0.09992214
   0.25000166  0.24985093  0.32646281
   0.41661497  0.08328184  0.32640958
   0.24999518  0.75000346  0.32625869
   0.41673234  0.58326152  0.32621689
   0.75005046  0.24994282  0.32621158
   0.91675928  0.08323403  0.32642962
   0.75014432  0.74999540  0.32646351
   0.91671218  0.58337952  0.32640208
Direct configuration=     9
   0.33832549  0.66917383  0.10020809
   0.67166983  0.33582820  0.10012303
   0.16424495  0.32109072  0.09990583
   0.32343877  0.16177946  0.09992943
   0.16417534  0.84332872  0.09993467
   0.84570449  0.16179594  0.09990217
   0.68640946  0.84325130  0.09990638
   0.84573196  0.68407091  0.09993020
   0.24999025  0.24984244  0.32645517
   0.41659243  0.08328396  0.32641081
   0.24997984  0.75001965  0.32625961
   0.41672855  0.58326614  0.32621456
   0.75004222  0.24995133  0.32620532
   0.91676117  0.08323250  0.32642169
   0.75015335  0.75000749  0.32645615
   0.91671056  0.58340273  0.32640356
Direct configuration=    10
   0.33830325  0.66919738  0.10022143
   0.67165343  0.33584780  0.10012714
   0.16421736  0.32110053  0.09989120
   0.32342771  0.16181885  0.09991411
   0.16416921  0.84333530  0.09993193
   0.84569652  0.16180962  0.09987461
   0.68640072  0.84328659  0.09989207
   0.84568765  0.68408062  0.09991522
   0.25000364  0.24981360  0.32646816
   0.41660158  0.08326107  0.32640758
   0.24999087  0.75000696  0.32626016
   0.41674980  0.58324353  0.32622853
   0.75005866  0.24993278  0.32622582
   0.91678599  0.08320611  0.32644026
   0.75018023  0.74999230  0.32646841
   0.91673204  0.58339230  0.32640005
Direct configuration=    11
   0.33828859  0.66921290  0.10023022
   0.67164262  0.33586072  0.10012986
   0.16419918  0.32110700  0.09988157
   0.32342042  0.16184481  0.09990401
   0.16416518  0.84333963  0.09993013
   0.84569127  0.16181863  0.09985646
   0.68639496  0.84330985  0.09988263
   0.84565846  0.68408702  0.09990534
   0.25001246  0.24979459  0.32647671
   0.41660761  0.08324598  0.32640545
   0.24999813  0.74999859  0.32626052
   0.41676380  0.58322862  0.32623773
   0.75006950  0.24992056  0.32623933
   0.91680235  0.08318872  0.32645249
   0.75019794  0.74998229  0.32647649
   0.91674620  0.58338543  0.32639774
Direct configuration=    12
   0.33827773  0.66922287  0.10023201
   0.67163645  0.33586942  0.10012333
   0.16420306  0.32113749  0.09986767
   0.32338561  0.16184605  0.09989682
   0.16413393  0.84337115  0.09992698
   0.84565927  0.16185010  0.09983843
   0.68637055  0.84331301  0.09986902
   0.84565387  0.68412342  0.09989842
   0.25002854  0.24976488  0.32648451
   0.41661382  0.08322439  0.32640876
   0.25001111  0.74998441  0.32626286
   0.41678170  0.58320907  0.32625205
   0.75008673  0.24990181  0.32625321
   0.91682414  0.08316493  0.32646774
   0.75022624  0.74996488  0.32648389
   0.91676590  0.58337745  0.32640096
Direct configuration=    13
   0.33826779  0.66923200  0.10023364
   0.67163080  0.33587739  0.10011736
   0.16420661  0.32116539  0.09985496
   0.32335376  0.16184719  0.09989024
   0.16410535  0.84339998  0.09992409
   0.84562999  0.16187890  0.09982194
   0.68634821  0.84331590  0.09985657
   0.84564968  0.68415674  0.09989209
   0.25004325  0.24973768  0.32649165
   0.41661951  0.08320463  0.32641179
   0.25002298  0.74997143  0.32626501
   0.41679808  0.58319118  0.32626516
   0.75010251  0.24988466  0.32626591
   0.91684408  0.08314316  0.32648169
   0.75025213  0.74994896  0.32649065
   0.91678394  0.58337014  0.32640390
Direct configuration=    14
   0.33825470  0.66924771  0.10022833
   0.67161367  0.33589471  0.10010673
   0.16418633  0.32118336  0.09984350
   0.32334074  0.16186105  0.09988711
   0.16408453  0.84341796  0.09992162
   0.84561807  0.16189641  0.09980988
   0.68632960  0.84333599  0.09984536
   0.84563890  0.68417336  0.09988917
   0.25006017  0.24972272  0.32649749
   0.41663735  0.08318821  0.32641857
   0.25004032  0.74995264  0.32626914
   0.41681309  0.58317469  0.32627604
   0.75011841  0.24986744  0.32627424
   0.91685816  0.08312764  0.32649248
   0.75026575  0.74993066  0.32649635
   0.91679888  0.58335077  0.32641065
Direct configuration=    15
   0.33821541  0.66929484  0.10021239
   0.67156229  0.33594668  0.10007484
   0.16412548  0.32123727  0.09980914
   0.32330169  0.16190265  0.09987773
   0.16402208  0.84347189  0.09991418
   0.84558228  0.16194896  0.09977370
   0.68627377  0.84339628  0.09981174
   0.84560656  0.68422320  0.09988041
   0.25011091  0.24967781  0.32651501
   0.41669089  0.08313896  0.32643890
   0.25009236  0.74989628  0.32628154
   0.41685814  0.58312522  0.32630867
   0.75016612  0.24981578  0.32629922
   0.91690038  0.08308107  0.32652485
   0.75030660  0.74987575  0.32651345
   0.91684371  0.58329267  0.32643090
Direct configuration=    16
   0.33813683  0.66938911  0.10018053
   0.67145952  0.33605061  0.10001105
   0.16400377  0.32134507  0.09974041
   0.32322358  0.16198585  0.09985896
   0.16389718  0.84357976  0.09989932
   0.84551072  0.16205405  0.09970134
   0.68616211  0.84351685  0.09974449
   0.84554188  0.68432290  0.09986288
   0.25021240  0.24958801  0.32655005
   0.41679798  0.08304046  0.32647955
   0.25019644  0.74978356  0.32630632
   0.41694822  0.58302629  0.32637393
   0.75026154  0.24971246  0.32634918
   0.91698481  0.08298795  0.32658959
   0.75038830  0.74976595  0.32654765
   0.91693338  0.58317646  0.32647142
Direct configuration=    17
   0.33812708  0.66939922  0.10017670
   0.67145114  0.33606028  0.10000554
   0.16399619  0.32135283  0.09973486
   0.32321505  0.16199726  0.09985704
   0.16389133  0.84358738  0.09989836
   0.84550203  0.16206276  0.09969489
   0.68615572  0.84352651  0.09973907
   0.84552989  0.68433123  0.09986107
   0.25022091  0.24957978  0.32655361
   0.41680736  0.08303151  0.32648333
   0.25020524  0.74977396  0.32630932
   0.41695666  0.58301710  0.32637876
   0.75026990  0.24970331  0.32635334
   0.91699281  0.08297923  0.32659442
   0.75039576  0.74975665  0.32655117
   0.91694159  0.58316632  0.32647518
Direct configuration=    18
   0.33809783  0.66942953  0.10016522
   0.67142600  0.33608930  0.09998899
   0.16397344  0.32137610  0.09971822
   0.32318948  0.16203148  0.09985129
   0.16387378  0.84361025  0.09989549
   0.84547596  0.16208888  0.09967555
   0.68613653  0.84355549  0.09972281
   0.84549390  0.68435622  0.09985564
   0.25024643  0.24955508  0.32656428
   0.41683553  0.08300464  0.32649466
   0.25023165  0.74974516  0.32631830
   0.41698199  0.58298954  0.32639326
   0.75029497  0.24967588  0.32636583
   0.91701679  0.08295309  0.32660892
   0.75041814  0.74972876  0.32656174
   0.91696625  0.58313592  0.32648648
Direct configuration=    19
   0.33803933  0.66949017  0.10014225
   0.67137571  0.33614734  0.09995589
   0.16392795  0.32142265  0.09968493
   0.32313832  0.16209993  0.09983979
   0.16383867  0.84365600  0.09988975
   0.84542382  0.16214112  0.09963687
   0.68609817  0.84361344  0.09969027
   0.84542191  0.68440619  0.09984479
   0.25029748  0.24950569  0.32658563
   0.41689186  0.08295092  0.32651732
   0.25028447  0.74968755  0.32633626
   0.41703265  0.58293443  0.32642225
   0.75034512  0.24962102  0.32639080
   0.91706477  0.08290081  0.32663793
   0.75046288  0.74967297  0.32658287
   0.91701556  0.58307511  0.32650908
Direct configuration=    20
   0.33792233  0.66961143  0.10009633
   0.67127514  0.33626341  0.09988969
   0.16383695  0.32151574  0.09961835
   0.32303602  0.16223682  0.09981679
   0.16376845  0.84374748  0.09987826
   0.84531954  0.16224561  0.09955949
   0.68602144  0.84372935  0.09962521
   0.84527795  0.68450615  0.09982307
   0.25039957  0.24940691  0.32662833
   0.41700451  0.08284346  0.32656263
   0.25039009  0.74957234  0.32637217
   0.41713396  0.58282421  0.32648023
   0.75044543  0.24951130  0.32644075
   0.91716072  0.08279625  0.32669594
   0.75055238  0.74956138  0.32662512
   0.91711418  0.58295348  0.32655428
Direct configuration=    21
   0.33768834  0.66985396  0.10000447
   0.67107400  0.33649556  0.09975730
   0.16365497  0.32170193  0.09948521
   0.32283141  0.16251060  0.09977079
   0.16362801  0.84393044  0.09985528
   0.84511098  0.16245457  0.09940475
   0.68586797  0.84396118  0.09949508
   0.84499002  0.68470606  0.09977964
   0.25060375  0.24920934  0.32671372
   0.41722983  0.08262855  0.32665327
   0.25060135  0.74934192  0.32644401
   0.41733660  0.58260376  0.32659619
   0.75064603  0.24929186  0.32654066
   0.91735261  0.08258712  0.32681197
   0.75073137  0.74933822  0.32670964
   0.91731143  0.58271024  0.32664469
Direct configuration=    22
   0.33779650  0.66974186  0.10004693
   0.67116697  0.33638826  0.09981849
   0.16373908  0.32161587  0.09954675
   0.32292599  0.16238406  0.09979205
   0.16369292  0.84384587  0.09986590
   0.84520738  0.16235799  0.09947628
   0.68593891  0.84385403  0.09955523
   0.84512310  0.68461366  0.09979971
   0.25050937  0.24930066  0.32667425
   0.41712569  0.08272789  0.32661138
   0.25050371  0.74944843  0.32641080
   0.41724294  0.58270565  0.32654260
   0.75055331  0.24939329  0.32649448
   0.91726391  0.08268378  0.32675834
   0.75064864  0.74944137  0.32667058
   0.91722026  0.58282267  0.32660290
Direct configuration=    23
   0.33774726  0.66979553  0.10002018
   0.67111694  0.33644247  0.09979089
   0.16369426  0.32167109  0.09951900
   0.32287692  0.16243280  0.09977763
   0.16364428  0.84389819  0.09986252
   0.84515817  0.16241190  0.09943800
   0.68588823  0.84390388  0.09952814
   0.84507815  0.68466739  0.09978587
   0.25055582  0.24924475  0.32669827
   0.41717081  0.08267423  0.32663298
   0.25054978  0.74939797  0.32643363
   0.41729272  0.58265159  0.32656337
   0.75060124  0.24934077  0.32651749
   0.91731436  0.08262899  0.32677961
   0.75070012  0.74939052  0.32669461
   0.91726961  0.58277326  0.32662446
Direct configuration=    24
   0.33759954  0.66995655  0.09993994
   0.67096685  0.33660511  0.09970811
   0.16355979  0.32183673  0.09943575
   0.32272974  0.16257905  0.09973438
   0.16349834  0.84405515  0.09985237
   0.84501054  0.16257363  0.09932318
   0.68573620  0.84405345  0.09944685
   0.84494329  0.68482858  0.09974435
   0.25069514  0.24907703  0.32677035
   0.41730620  0.08251324  0.32669778
   0.25068799  0.74924661  0.32650210
   0.41744207  0.58248939  0.32662570
   0.75074502  0.24918319  0.32658653
   0.91746571  0.08246462  0.32684342
   0.75085455  0.74923799  0.32676673
   0.91741769  0.58262502  0.32668915
Direct configuration=    25
   0.33730410  0.67027859  0.09977947
   0.67066666  0.33693040  0.09954253
   0.16329084  0.32216801  0.09926924
   0.32243537  0.16287153  0.09964788
   0.16320647  0.84436907  0.09983208
   0.84471528  0.16289709  0.09909353
   0.68543215  0.84435257  0.09928428
   0.84467356  0.68515096  0.09966130
   0.25097380  0.24874158  0.32691449
   0.41757698  0.08219127  0.32682738
   0.25096442  0.74894388  0.32663904
   0.41774077  0.58216499  0.32675035
   0.75103259  0.24886805  0.32672459
   0.91776841  0.08213588  0.32697103
   0.75116342  0.74893292  0.32691096
   0.91771383  0.58232854  0.32681852
Direct configuration=    26
   0.33671323  0.67092267  0.09945853
   0.67006630  0.33758097  0.09921138
   0.16275295  0.32283058  0.09893623
   0.32184663  0.16345650  0.09947487
   0.16262273  0.84499690  0.09979150
   0.84412475  0.16354401  0.09863423
   0.68482405  0.84495083  0.09895914
   0.84413411  0.68579573  0.09949520
   0.25153112  0.24807068  0.32720278
   0.41811853  0.08154733  0.32708658
   0.25151727  0.74833844  0.32691291
   0.41833818  0.58151620  0.32699965
   0.75160772  0.24823776  0.32700073
   0.91837382  0.08147839  0.32722626
   0.75178116  0.74832278  0.32719941
   0.91830612  0.58173557  0.32707727
Direct configuration=    27
   0.33690872  0.67070957  0.09956471
   0.67026493  0.33736573  0.09932094
   0.16293092  0.32261137  0.09904641
   0.32204141  0.16326296  0.09953211
   0.16281586  0.84478918  0.09980493
   0.84432013  0.16332998  0.09878619
   0.68502524  0.84475290  0.09906671
   0.84431259  0.68558241  0.09955015
   0.25134673  0.24829264  0.32710740
   0.41793936  0.08176038  0.32700083
   0.25133436  0.74853875  0.32682230
   0.41814052  0.58173085  0.32691717
   0.75141743  0.24844629  0.32690937
   0.91817352  0.08169592  0.32714182
   0.75157678  0.74852464  0.32710397
   0.91811016  0.58193176  0.32699166
Direct configuration=    28
   0.33686340  0.67077294  0.09952026
   0.67018945  0.33743943  0.09930486
   0.16276713  0.32268692  0.09900279
   0.32196834  0.16336339  0.09949505
   0.16267898  0.84490930  0.09978210
   0.84426186  0.16342179  0.09873031
   0.68493810  0.84489271  0.09902344
   0.84425175  0.68568178  0.09951379
   0.25146321  0.24822230  0.32714830
   0.41804835  0.08167476  0.32704613
   0.25144788  0.74841845  0.32687725
   0.41820648  0.58165511  0.32693986
   0.75151122  0.24834830  0.32693883
   0.91823571  0.08162381  0.32716072
   0.75164104  0.74840182  0.32714576
   0.91818576  0.58181252  0.32703722
Direct configuration=    29
   0.33685060  0.67079083  0.09950771
   0.67016814  0.33746024  0.09930032
   0.16272088  0.32270825  0.09899048
   0.32194771  0.16339175  0.09948459
   0.16264034  0.84494322  0.09977565
   0.84424541  0.16344772  0.09871453
   0.68491349  0.84493219  0.09901122
   0.84423458  0.68570984  0.09950352
   0.25149610  0.24820244  0.32715985
   0.41807912  0.08165058  0.32705892
   0.25147993  0.74838448  0.32689277
   0.41822510  0.58163372  0.32694627
   0.75153770  0.24832063  0.32694714
   0.91825327  0.08160345  0.32716606
   0.75165918  0.74836714  0.32715756
   0.91820711  0.58177885  0.32705008
Direct configuration=    30
   0.33677849  0.67085894  0.09947846
   0.67012467  0.33752100  0.09931309
   0.16265966  0.32277528  0.09895908
   0.32185489  0.16350477  0.09944792
   0.16259366  0.84503212  0.09973690
   0.84414400  0.16352044  0.09868751
   0.68486938  0.84500893  0.09897925
   0.84411889  0.68579218  0.09946700
   0.25157776  0.24814343  0.32718601
   0.41817129  0.08157661  0.32710095
   0.25156158  0.74829603  0.32694440
   0.41829092  0.58156121  0.32695843
   0.75161063  0.24824206  0.32696129
   0.91831693  0.08153347  0.32716869
   0.75171131  0.74827856  0.32718504
   0.91827460  0.58168028  0.32709263
Direct configuration=    31
   0.33673334  0.67090159  0.09946014
   0.67009745  0.33755905  0.09932109
   0.16262133  0.32281725  0.09893942
   0.32179678  0.16357554  0.09942496
   0.16256444  0.84508778  0.09971264
   0.84408051  0.16356598  0.09867060
   0.68484177  0.84505698  0.09895924
   0.84404646  0.68584374  0.09944413
   0.25162889  0.24810648  0.32720240
   0.41822900  0.08153030  0.32712726
   0.25161270  0.74824065  0.32697673
   0.41833213  0.58151581  0.32696604
   0.75165629  0.24819287  0.32697015
   0.91835679  0.08148965  0.32717034
   0.75174395  0.74822311  0.32720225
   0.91831685  0.58161856  0.32711927
Direct configuration=    32
   0.33664326  0.67100303  0.09943632
   0.67000289  0.33765580  0.09934269
   0.16255014  0.32292565  0.09891055
   0.32173656  0.16365118  0.09938650
   0.16249797  0.84516633  0.09965420
   0.84400540  0.16364185  0.09866379
   0.68473422  0.84511368  0.09892917
   0.84399914  0.68591808  0.09940535
   0.25168682  0.24800997  0.32721983
   0.41829563  0.08144275  0.32717068
   0.25167056  0.74817505  0.32702733
   0.41842233  0.58141958  0.32698301
   0.75173065  0.24810940  0.32698204
   0.91845208  0.08138884  0.32717067
   0.75183178  0.74815705  0.32722107
   0.91839925  0.58154709  0.32716346
Direct configuration=    33
   0.33654639  0.67111211  0.09941070
   0.66990120  0.33775984  0.09936591
   0.16247358  0.32304222  0.09887951
   0.32167181  0.16373252  0.09934515
   0.16242649  0.84525080  0.09959135
   0.84392464  0.16372345  0.09865647
   0.68461857  0.84517465  0.09889683
   0.84394825  0.68599803  0.09936365
   0.25174912  0.24790618  0.32723858
   0.41836727  0.08134861  0.32721737
   0.25173278  0.74810451  0.32708174
   0.41851932  0.58131609  0.32700126
   0.75181061  0.24801964  0.32699483
   0.91855455  0.08128042  0.32717102
   0.75192623  0.74808602  0.32724131
   0.91848786  0.58147024  0.32721099
Direct configuration=    34
   0.33648810  0.67117591  0.09939777
   0.66984146  0.33782411  0.09936465
   0.16241294  0.32307853  0.09887154
   0.32161081  0.16378590  0.09932251
   0.16236475  0.84532243  0.09954029
   0.84387557  0.16377370  0.09867640
   0.68458533  0.84523375  0.09888763
   0.84390582  0.68606385  0.09934009
   0.25181893  0.24783573  0.32724139
   0.41840266  0.08129397  0.32723426
   0.25179598  0.74803906  0.32710037
   0.41855768  0.58127061  0.32702581
   0.75187259  0.24795581  0.32701148
   0.91859659  0.08123056  0.32717980
   0.75199465  0.74801405  0.32724428
   0.91853482  0.58142736  0.32722841
Direct configuration=    35
   0.33642175  0.67124853  0.09938305
   0.66977346  0.33789725  0.09936322
   0.16234391  0.32311986  0.09886247
   0.32154139  0.16384666  0.09929675
   0.16229448  0.84540395  0.09948217
   0.84381972  0.16383090  0.09869908
   0.68454751  0.84530101  0.09887715
   0.84385752  0.68613877  0.09931328
   0.25189838  0.24775554  0.32724458
   0.41844293  0.08123178  0.32725349
   0.25186790  0.74796458  0.32712157
   0.41860134  0.58121884  0.32705374
   0.75194313  0.24788316  0.32703043
   0.91864444  0.08117382  0.32718979
   0.75207252  0.74793214  0.32724765
   0.91858826  0.58137854  0.32724824
Direct configuration=    36
   0.33638168  0.67128998  0.09937151
   0.66973741  0.33793945  0.09935222
   0.16230006  0.32317033  0.09886656
   0.32149740  0.16390350  0.09927714
   0.16225575  0.84545153  0.09944176
   0.84376917  0.16387972  0.09872238
   0.68450486  0.84535194  0.09888012
   0.84380165  0.68618399  0.09929256
   0.25193750  0.24771986  0.32724785
   0.41850144  0.08118058  0.32725869
   0.25191029  0.74791657  0.32712903
   0.41865102  0.58116675  0.32707389
   0.75198009  0.24784088  0.32704804
   0.91869053  0.08112543  0.32720060
   0.75210287  0.74788753  0.32725064
   0.91863696  0.58131731  0.32725368
Direct configuration=    37
   0.33626146  0.67141433  0.09933689
   0.66962924  0.33806602  0.09931921
   0.16216849  0.32332174  0.09887883
   0.32136540  0.16407405  0.09921831
   0.16213954  0.84559426  0.09932052
   0.84361752  0.16402617  0.09879228
   0.68437693  0.84550474  0.09888904
   0.84363405  0.68631964  0.09923041
   0.25205485  0.24761281  0.32725765
   0.41867696  0.08102696  0.32727428
   0.25203747  0.74777253  0.32715140
   0.41880006  0.58101049  0.32713432
   0.75209094  0.24771404  0.32710086
   0.91882878  0.08098025  0.32723303
   0.75219391  0.74775372  0.32725962
   0.91878305  0.58113359  0.32727001
Direct configuration=    38
   0.33620881  0.67146880  0.09932173
   0.66958187  0.33812145  0.09930476
   0.16211086  0.32338806  0.09888420
   0.32130759  0.16414875  0.09919254
   0.16208865  0.84565677  0.09926742
   0.84355109  0.16409031  0.09882290
   0.68432089  0.84557167  0.09889294
   0.84356064  0.68637905  0.09920319
   0.25210625  0.24756592  0.32726195
   0.41875384  0.08095968  0.32728111
   0.25209318  0.74770944  0.32716120
   0.41886534  0.58094205  0.32716079
   0.75213950  0.24765848  0.32712399
   0.91888933  0.08091666  0.32724723
   0.75223378  0.74769511  0.32726355
   0.91884703  0.58105312  0.32727717
Direct configuration=    39
   0.33617134  0.67151367  0.09931032
   0.66953720  0.33816651  0.09929183
   0.16206395  0.32343948  0.09889394
   0.32127195  0.16418961  0.09917212
   0.16204238  0.84569763  0.09923421
   0.84351634  0.16413837  0.09884368
   0.68426712  0.84561618  0.09890166
   0.84352951  0.68642387  0.09918166
   0.25214706  0.24751708  0.32726915
   0.41879132  0.08091742  0.32728366
   0.25213638  0.74766307  0.32716583
   0.41890677  0.58089638  0.32717299
   0.75218371  0.24761073  0.32713802
   0.91892905  0.08087281  0.32725741
   0.75227948  0.74765116  0.32727046
   0.91888511  0.58101136  0.32727972
Direct configuration=    40
   0.33605893  0.67164831  0.09927609
   0.66940321  0.33830168  0.09925305
   0.16192319  0.32359374  0.09892318
   0.32116502  0.16431218  0.09911088
   0.16190359  0.84582021  0.09913457
   0.84341208  0.16428253  0.09890601
   0.68410579  0.84574970  0.09892783
   0.84343611  0.68655833  0.09911705
   0.25226949  0.24737056  0.32729074
   0.41890374  0.08079064  0.32729131
   0.25226598  0.74752396  0.32717970
   0.41903105  0.58075938  0.32720959
   0.75231635  0.24746748  0.32718010
   0.91904820  0.08074126  0.32728797
   0.75241658  0.74751931  0.32729120
   0.91899936  0.58088607  0.32728740
Direct configuration=    41
   0.33583413  0.67191758  0.09920764
   0.66913521  0.33857201  0.09917548
   0.16164168  0.32390227  0.09898165
   0.32095115  0.16455732  0.09898840
   0.16162601  0.84606537  0.09893529
   0.84320355  0.16457086  0.09903068
   0.68378313  0.84601676  0.09898018
   0.84324933  0.68682723  0.09898784
   0.25251434  0.24707753  0.32733394
   0.41912859  0.08053707  0.32730661
   0.25252519  0.74724572  0.32720745
   0.41927960  0.58048538  0.32728279
   0.75258162  0.24718098  0.32726425
   0.91928651  0.08047816  0.32734908
   0.75269076  0.74725563  0.32733266
   0.91922787  0.58063548  0.32730274
Direct configuration=    42
   0.33594975  0.67177909  0.09924284
   0.66927305  0.33843297  0.09921537
   0.16178647  0.32374359  0.09895158
   0.32106115  0.16443124  0.09905140
   0.16176877  0.84593928  0.09903778
   0.84331080  0.16442257  0.09896656
   0.68394908  0.84587941  0.09895326
   0.84334540  0.68668893  0.09905430
   0.25238841  0.24722824  0.32731172
   0.41901294  0.08066748  0.32729874
   0.25239187  0.74738882  0.32719318
   0.41915177  0.58062631  0.32724514
   0.75244518  0.24732833  0.32722097
   0.91916394  0.08061348  0.32731765
   0.75254974  0.74739125  0.32731133
   0.91911034  0.58076436  0.32729485
Direct configuration=    43
   0.33585395  0.67187384  0.09922438
   0.66919464  0.33852669  0.09919017
   0.16173553  0.32381691  0.09897468
   0.32096289  0.16451081  0.09901146
   0.16170659  0.84602662  0.09898230
   0.84321992  0.16450285  0.09900211
   0.68389655  0.84595919  0.09897454
   0.84325092  0.68677994  0.09901227
   0.25247126  0.24712890  0.32733234
   0.41907325  0.08058319  0.32730544
   0.25247082  0.74730446  0.32719898
   0.41922475  0.58054506  0.32725307
   0.75252822  0.24723936  0.32723594
   0.91923975  0.08052897  0.32733622
   0.75264359  0.74730285  0.32733163
   0.91918603  0.58069570  0.32730112
Direct configuration=    44
   0.33573691  0.67198960  0.09920182
   0.66909883  0.33864120  0.09915938
   0.16167329  0.32390649  0.09900291
   0.32084284  0.16460803  0.09896266
   0.16163061  0.84613333  0.09891453
   0.84310889  0.16460093  0.09904554
   0.68383237  0.84605666  0.09900054
   0.84313550  0.68689113  0.09896092
   0.25257248  0.24700754  0.32735753
   0.41914694  0.08048021  0.32731363
   0.25256727  0.74720138  0.32720608
   0.41931393  0.58044580  0.32726276
   0.75262967  0.24713066  0.32725424
   0.91933238  0.08042573  0.32735891
   0.75275825  0.74719484  0.32735643
   0.91927850  0.58061182  0.32730879
Direct configuration=    45
   0.33571681  0.67200948  0.09919794
   0.66908238  0.33866086  0.09915409
   0.16166261  0.32392187  0.09900776
   0.32082223  0.16462473  0.09895428
   0.16161757  0.84615165  0.09890289
   0.84308983  0.16461777  0.09905300
   0.68382134  0.84607340  0.09900501
   0.84311567  0.68691022  0.09895210
   0.25258986  0.24698670  0.32736186
   0.41915959  0.08046253  0.32731503
   0.25258384  0.74718368  0.32720730
   0.41932924  0.58042875  0.32726443
   0.75264709  0.24711199  0.32725738
   0.91934829  0.08040800  0.32736281
   0.75277794  0.74717630  0.32736069
   0.91929438  0.58059741  0.32731011
Direct configuration=    46
   0.33567136  0.67206100  0.09919510
   0.66902938  0.33871529  0.09914031
   0.16160561  0.32395784  0.09902060
   0.32078255  0.16467255  0.09893355
   0.16155833  0.84620430  0.09887639
   0.84305416  0.16466716  0.09907048
   0.68378648  0.84613318  0.09901697
   0.84307350  0.68695894  0.09893030
   0.25263380  0.24694629  0.32737838
   0.41921593  0.08040362  0.32732442
   0.25262258  0.74713886  0.32720714
   0.41937808  0.58037754  0.32725380
   0.75268322  0.24707067  0.32724996
   0.91940053  0.08035305  0.32737305
   0.75281239  0.74712639  0.32737736
   0.91935076  0.58053866  0.32731885
Direct configuration=    47
   0.33558426  0.67215971  0.09918967
   0.66892783  0.33881958  0.09911389
   0.16149638  0.32402677  0.09904522
   0.32070652  0.16476419  0.09889382
   0.16144481  0.84630518  0.09882561
   0.84298583  0.16476179  0.09910399
   0.68371969  0.84624774  0.09903988
   0.84299270  0.68705229  0.09888851
   0.25271799  0.24686885  0.32741005
   0.41932388  0.08029074  0.32734242
   0.25269683  0.74705297  0.32720682
   0.41947166  0.58027941  0.32723345
   0.75275245  0.24699149  0.32723574