       N       E                     dE             d eps       ncg     rms          rms(c)
DAV:   1     0.203222443194E+03    0.20322E+03   -0.25707E+04 14208   0.859E+02
DAV:   2    -0.116760203111E+03   -0.31998E+03   -0.31856E+03 20400   0.163E+02
DAV:   3    -0.129474437986E+03   -0.12714E+02   -0.12707E+02 26256   0.426E+01
DAV:   4    -0.129500937600E+03   -0.26500E-01   -0.26499E-01 21120   0.187E+00
DAV:   5    -0.129500990230E+03   -0.52630E-04   -0.52631E-04 25056   0.829E-02    0.245E+01
DAV:   6    -0.920655316636E+02    0.37435E+02   -0.71913E+01 25872   0.255E+01    0.139E+01
DAV:   7    -0.100485927371E+03   -0.84204E+01   -0.99648E+00 22608   0.101E+01    0.811E+00
DAV:   8    -0.110464910468E+03   -0.99790E+01   -0.88055E+00 23712   0.897E+00    0.433E+00
DAV:   9    -0.117182542902E+03   -0.67176E+01   -0.38783E+00 19296   0.608E+00    0.277E+00
DAV:  10    -0.123444989326E+03   -0.62624E+01   -0.79707E+00 24288   0.699E+00    0.160E+00
DAV:  11    -0.125285166454E+03   -0.18402E+01   -0.29623E+00 24576   0.387E+00    0.994E-01
DAV:  12    -0.125435967675E+03   -0.15080E+00   -0.21818E-01 19776   0.134E+00    0.472E-01
DAV:  13    -0.125461928437E+03   -0.25961E-01   -0.22749E-02 17712   0.545E-01    0.190E-01
DAV:  14    -0.125484850238E+03   -0.22922E-01   -0.60906E-03 21024   0.281E-01    0.844E-02
DAV:  15    -0.125492614117E+03   -0.77639E-02   -0.31702E-03 19488   0.157E-01    0.446E-02
DAV:  16    -0.125494619113E+03   -0.20050E-02   -0.63719E-04 15888   0.804E-02    0.225E-02
DAV:  17    -0.125495896095E+03   -0.12770E-02   -0.17696E-04 15408   0.515E-02    0.174E-02
DAV:  18    -0.125496590914E+03   -0.69482E-03   -0.84141E-05 17376   0.373E-02    0.126E-02
DAV:  19    -0.125497035916E+03   -0.44500E-03   -0.41141E-05 19104   0.240E-02    0.736E-03
DAV:  20    -0.125497080499E+03   -0.44584E-04   -0.21284E-05 22896   0.174E-02    0.448E-03
DAV:  21    -0.125497102533E+03   -0.22034E-04   -0.60004E-06 20400   0.938E-03    0.221E-03
DAV:  22    -0.125497124209E+03   -0.21676E-04   -0.21569E-06 21984   0.544E-03    0.138E-03
DAV:  23    -0.125497140278E+03   -0.16068E-04   -0.17153E-06 20784   0.395E-03    0.726E-04
DAV:  24    -0.125497143496E+03   -0.32183E-05   -0.33440E-07 23280   0.210E-03    0.379E-04
DAV:  25    -0.125497144458E+03   -0.96149E-06   -0.11673E-07 23088   0.112E-03
   1 F= -.12708531E+03 E0= -.12708453E+03  d E =-.127085E+03  mag=    -0.0000
       N       E                     dE             d eps       ncg     rms          rms(c)
DAV:   1    -0.125506312405E+03   -0.91689E-02   -0.28944E+00 14208   0.522E+00    0.464E-01
DAV:   2    -0.125498639748E+03    0.76727E-02   -0.58439E-02 26016   0.677E-01    0.205E-01
DAV:   3    -0.125497783697E+03    0.85605E-03   -0.48029E-03 20736   0.191E-01    0.802E-02
DAV:   4    -0.125497748430E+03    0.35267E-04   -0.55558E-04 27024   0.661E-02    0.209E-02
DAV:   5    -0.125497751549E+03   -0.31194E-05   -0.15852E-05 24816   0.123E-02    0.684E-03
DAV:   6    -0.125497751551E+03   -0.16589E-08   -0.35232E-06 22416   0.542E-03
   2 F= -.12708535E+03 E0= -.12708457E+03  d E =-.402317E-04  mag=    -0.0000
       N       E                     dE             d eps       ncg     rms          rms(c)
DAV:   1    -0.125506314824E+03   -0.85633E-02   -0.72307E-01 14208   0.261E+00    0.232E-01
DAV:   2    -0.125504351978E+03    0.19628E-02   -0.14511E-02 25632   0.336E-01    0.102E-01
DAV:   3    -0.125504145462E+03    0.20652E-03   -0.11888E-03 23088   0.956E-02    0.406E-02
DAV:   4    -0.125504137049E+03    0.84126E-05   -0.13425E-04 23424   0.323E-02    0.103E-02
DAV:   5    -0.125504137741E+03   -0.69213E-06   -0.44616E-06 22608   0.649E-03
   3 F= -.12709202E+03 E0= -.12709123E+03  d E =-.670680E-02  mag=    -0.0000
       N       E                     dE             d eps       ncg     rms          rms(c)
DAV:   1    -0.125510437572E+03   -0.63005E-02   -0.30930E-01 14304   0.193E+00    0.116E-01
DAV:   2    -0.125510494695E+03   -0.57123E-04   -0.19161E-03 27840   0.173E-01    0.679E-02
DAV:   3    -0.125510492270E+03    0.24247E-05   -0.19097E-04 22032   0.483E-02    0.153E-02
DAV:   4    -0.125510493254E+03   -0.98399E-06   -0.25400E-05 26784   0.186E-02    0.597E-03
DAV:   5    -0.125510493611E+03   -0.35699E-06   -0.95762E-07 21456   0.416E-03
   4 F= -.12709822E+03 E0= -.12709744E+03  d E =-.620366E-02  mag=    -0.0000
