Lattice                                 
           1
     4.191563    2.420000    0.000000
    -4.191563    2.420000    0.000000
     0.000000    0.000000   15.000000
   B    C 
     4    11
Direct configuration=     1
   0.00415361  0.00267210  0.12034134
   0.35695335  0.00285503  0.09748893
   0.00423858  0.35550699  0.09749256
   0.65142295  0.65006557  0.09747688
   0.32808646  0.32671938  0.10030508
   0.68027775  0.00278085  0.10027562
   0.00416530  0.67883808  0.10026559
   0.11111044  0.38888856  0.33726667
   0.27777744  0.22222156  0.33726667
   0.11111044  0.88888856  0.33726667
   0.27777744  0.72222156  0.33726667
   0.61111044  0.38888856  0.33726667
   0.77777744  0.22222156  0.33726667
   0.61111044  0.88888856  0.33726667
   0.77777744  0.72222156  0.33726667
Direct configuration=     2
   0.00416838  0.00269762  0.11909661
   0.35576771  0.00279129  0.09781163
   0.00418859  0.35455013  0.09786789
   0.65249814  0.65103162  0.09783842
   0.32487947  0.32335062  0.10031193
   0.68375086  0.00279485  0.10032559
   0.00422534  0.68206591  0.10028050
   0.11103966  0.38899179  0.33727935
   0.27791669  0.22234755  0.33735273
   0.11129731  0.88901752  0.33728999
   0.27796823  0.72221839  0.33720494
   0.61107097  0.38883631  0.33720006
   0.77773593  0.22226669  0.33728878
   0.61092677  0.88884034  0.33734196
   0.77741550  0.72207783  0.33728894
Direct configuration=     3
   0.00416100  0.00268487  0.11971863
   0.35636020  0.00282314  0.09765037
   0.00421357  0.35502830  0.09768033
   0.65196084  0.65054886  0.09765775
   0.32648208  0.32503407  0.10030850
   0.68201526  0.00278786  0.10030062
   0.00419534  0.68045288  0.10027305
   0.11107503  0.38894020  0.33727301
   0.27784711  0.22228459  0.33730972
   0.11120393  0.88895307  0.33727834
   0.27787289  0.72221997  0.33723578
   0.61109070  0.38886242  0.33723334
   0.77775668  0.22224413  0.33727773
   0.61101856  0.88886443  0.33730434
   0.77759637  0.72214965  0.33727781
Direct configuration=     4
   0.00417115  0.00272198  0.11858784
   0.35685914  0.00275588  0.09796178
   0.00420888  0.35552594  0.09804578
   0.65152831  0.64998279  0.09800854
   0.32663699  0.32506310  0.10028250
   0.68195151  0.00278312  0.10031670
   0.00424013  0.68034663  0.10025507
   0.11109303  0.38887774  0.33728848
   0.27767614  0.22224809  0.33738382
   0.11097600  0.88885796  0.33730536
   0.27765756  0.72226473  0.33718915
   0.61109047  0.38892438  0.33718534
   0.77773711  0.22222550  0.33729820
   0.61115231  0.88897382  0.33737064
   0.77787081  0.72232677  0.33730014
Direct configuration=     5
   0.00420161  0.00283334  0.11519548
   0.35835596  0.00255409  0.09889603
   0.00419481  0.35701888  0.09914213
   0.65023072  0.64828460  0.09906093
   0.32710171  0.32515021  0.10020448
   0.68176023  0.00276889  0.10036495
   0.00437453  0.68002788  0.10020111
   0.11114701  0.38869035  0.33733489
   0.27716323  0.22213861  0.33760610
   0.11029221  0.88857263  0.33738642
   0.27701158  0.72239902  0.33704924
   0.61108980  0.38911027  0.33704132
   0.77767843  0.22216959  0.33735960
   0.61155359  0.88930197  0.33756954
   0.77869413  0.72285811  0.33736713
Direct configuration=     6
   0.00420775  0.00283765  0.11478809
   0.35848165  0.00253659  0.09898685
   0.00420501  0.35712515  0.09924712
   0.65013606  0.64815280  0.09916200
   0.32719725  0.32521727  0.10022054
   0.68168248  0.00275683  0.10039301
   0.00438560  0.67994531  0.10021972
   0.11109897  0.38877773  0.33734023
   0.27727197  0.22216749  0.33762101
   0.11046320  0.88870589  0.33739523
   0.27715986  0.72239228  0.33704552
   0.61105283  0.38909623  0.33703810
   0.77767552  0.22221770  0.33736518
   0.61140308  0.88922209  0.33758310
   0.77842833  0.72272742  0.33737364
Direct configuration=     7
   0.00422617  0.00285060  0.11356591
   0.35885870  0.00248410  0.09925930
   0.00423561  0.35744394  0.09956211
   0.64985206  0.64775740  0.09946520
   0.32748389  0.32541843  0.10026874
   0.68144923  0.00272066  0.10047719
   0.00441882  0.67969758  0.10027554
   0.11095483  0.38903987  0.33735625
   0.27759821  0.22225414  0.33766575
   0.11097617  0.88910567  0.33742165
   0.27760467  0.72237209  0.33703438
   0.61094192  0.38905409  0.33702842
   0.77766681  0.22236205  0.33738193
   0.61095155  0.88898245  0.33762379
   0.77763093  0.72233537  0.33739318
Direct configuration=     8
   0.00426300  0.00287651  0.11112157
   0.35961280  0.00237913  0.09980422
   0.00429680  0.35808153  0.10019208
   0.64928406  0.64696661  0.10007160
   0.32805716  0.32582077  0.10036513
   0.68098273  0.00264830  0.10064557
   0.00448525  0.67920214  0.10038717
   0.11066656  0.38956414  0.33738829
   0.27825068  0.22242742  0.33775521
   0.11200211  0.88990523  0.33747449
   0.27849429  0.72233170  0.33701209
   0.61072010  0.38896980  0.33700906
   0.77764937  0.22265073  0.33741543
   0.61004850  0.88850317  0.33770517
   0.77603613  0.72155127  0.33743226
Direct configuration=     9
   0.00423827  0.00285911  0.11276293
   0.35910643  0.00244962  0.09943831
   0.00425571  0.35765339  0.09976906
   0.64966547  0.64749762  0.09966441
   0.32767221  0.32555060  0.10030040
   0.68129598  0.00269689  0.10053251
   0.00444064  0.67953483  0.10031221
   0.11086013  0.38921209  0.33736678
   0.27781255  0.22231106  0.33769514
   0.11131319  0.88936833  0.33743901
   0.27789691  0.72235882  0.33702706
   0.61086905  0.38902640  0.33702206
   0.77766108  0.22245688  0.33739294
   0.61065490  0.88882500  0.33765052
   0.77710703  0.72207779  0.33740602
Direct configuration=    10
   0.00425448  0.00284065  0.11222877
   0.35909813  0.00244211  0.09951399
   0.00429008  0.35760246  0.09984989
   0.64971260  0.64752397  0.09974356
   0.32775802  0.32563144  0.10037579
   0.68121696  0.00266277  0.10061533
   0.00444760  0.67944810  0.10038947
   0.11086126  0.38920145  0.33737316
   0.27781846  0.22241733  0.33768880
   0.11128080  0.88931056  0.33744714
   0.27789827  0.72237746  0.33705141
   0.61086559  0.38898794  0.33704846
   0.77760839  0.22245354  0.33739660
   0.61065242  0.88886591  0.33764538
   0.77708650  0.72211276  0.33741157
Direct configuration=    11
   0.00430313  0.00278528  0.11062627
   0.35907323  0.00241958  0.09974103
   0.00439319  0.35744966  0.10009240
   0.64985400  0.64760303  0.09998102
   0.32801546  0.32587396  0.10060197
   0.68097988  0.00256040  0.10086381
   0.00446846  0.67918792  0.10062127
   0.11086464  0.38916954  0.33739232
   0.27783619  0.22273612  0.33766980
   0.11118361  0.88913722  0.33747152
   0.27790232  0.72243337  0.33712448
   0.61085523  0.38887255  0.33712767
   0.77745032  0.22244349  0.33740761
   0.61064499  0.88898865  0.33762994
   0.77702493  0.72221767  0.33742824
Direct configuration=    12
   0.00440042  0.00267453  0.10742127
   0.35902343  0.00237453  0.10019512
   0.00459942  0.35714407  0.10057741
   0.65013680  0.64776114  0.10045595
   0.32853032  0.32635900  0.10105432
   0.68050572  0.00235568  0.10136076
   0.00451019  0.67866756  0.10108487
   0.11087140  0.38910571  0.33743063
   0.27787164  0.22337370  0.33763180
   0.11098923  0.88879056  0.33752028
   0.27791042  0.72254518  0.33727061
   0.61083449  0.38864178  0.33728608
   0.77713417  0.22242341  0.33742961
   0.61063012  0.88923411  0.33759905
   0.77690177  0.72242749  0.33746156
Direct configuration=    13
   0.00444359  0.00262494  0.10647843
   0.35903898  0.00237130  0.10033808
   0.00465029  0.35712507  0.10071272
   0.65015000  0.64776444  0.10059331
   0.32857045  0.32638293  0.10119024
   0.68051342  0.00231333  0.10149800
   0.00453402  0.67858314  0.10122258
   0.11078536  0.38915975  0.33744079
   0.27760605  0.22287345  0.33761230
   0.11082964  0.88902510  0.33753105
   0.27763515  0.72249343  0.33732801
   0.61080998  0.38897265  0.33734330
   0.77730982  0.22242424  0.33743815
   0.61074355  0.88928944  0.33757996
   0.77722925  0.72247523  0.33747242
Direct configuration=    14
   0.00447497  0.00258889  0.10579291
   0.35905029  0.00236896  0.10044203
   0.00468727  0.35711125  0.10081110
   0.65015961  0.64776684  0.10069318
   0.32859963  0.32640033  0.10128907
   0.68051903  0.00228255  0.10159779
   0.00455135  0.67852176  0.10132271
   0.11072280  0.38919904  0.33744818
   0.27741295  0.22250972  0.33759812
   0.11071361  0.88919563  0.33753888
   0.27743500  0.72245580  0.33736975
   0.61079216  0.38921321  0.33738489
   0.77743752  0.22242485  0.33744435
   0.61082602  0.88932967  0.33756607
   0.77746735  0.72250994  0.33748032
Direct configuration=    15
   0.00447662  0.00258700  0.10575698
   0.35905088  0.00236883  0.10044747
   0.00468921  0.35711053  0.10081626
   0.65016011  0.64776697  0.10069842
   0.32860116  0.32640124  0.10129424
   0.68051932  0.00228093  0.10160302
   0.00455226  0.67851855  0.10132795
   0.11071952  0.38920110  0.33744856
   0.27740283  0.22249066  0.33759738
   0.11070753  0.88920457  0.33753929
   0.27742451  0.72245383  0.33737193
   0.61079123  0.38922582  0.33738707
   0.77744422  0.22242488  0.33744468
   0.61083034  0.88933178  0.33756534
   0.77747982  0.72251176  0.33748073
