       N       E                     dE             d eps       ncg     rms          rms(c)
DAV:   1     0.203218647315E+03    0.20322E+03   -0.25734E+04 14208   0.860E+02
DAV:   2    -0.116277982483E+03   -0.31950E+03   -0.31784E+03 20160   0.163E+02
DAV:   3    -0.129355326677E+03   -0.13077E+02   -0.13062E+02 26592   0.431E+01
DAV:   4    -0.129380188309E+03   -0.24862E-01   -0.24861E-01 20448   0.183E+00
DAV:   5    -0.129380249936E+03   -0.61627E-04   -0.61627E-04 25440   0.899E-02    0.244E+01
DAV:   6    -0.921325617746E+02    0.37248E+02   -0.72094E+01 25392   0.255E+01    0.139E+01
DAV:   7    -0.100584645825E+03   -0.84521E+01   -0.98283E+00 22224   0.101E+01    0.812E+00
DAV:   8    -0.110480482779E+03   -0.98958E+01   -0.88783E+00 24480   0.897E+00    0.435E+00
DAV:   9    -0.117344395900E+03   -0.68639E+01   -0.40915E+00 19440   0.624E+00    0.279E+00
DAV:  10    -0.123651792437E+03   -0.63074E+01   -0.83747E+00 24000   0.707E+00    0.161E+00
DAV:  11    -0.125276500276E+03   -0.16247E+01   -0.23658E+00 26256   0.368E+00    0.982E-01
DAV:  12    -0.125431043878E+03   -0.15454E+00   -0.22796E-01 18672   0.140E+00    0.442E-01
DAV:  13    -0.125465605692E+03   -0.34562E-01   -0.24101E-02 18192   0.567E-01    0.181E-01
DAV:  14    -0.125488697767E+03   -0.23092E-01   -0.66709E-03 20256   0.286E-01    0.814E-02
DAV:  15    -0.125495399026E+03   -0.67013E-02   -0.28669E-03 18192   0.151E-01    0.422E-02
DAV:  16    -0.125497399236E+03   -0.20002E-02   -0.59065E-04 16944   0.801E-02    0.220E-02
DAV:  17    -0.125498654432E+03   -0.12552E-02   -0.15161E-04 17712   0.509E-02    0.167E-02
DAV:  18    -0.125499422540E+03   -0.76811E-03   -0.80303E-05 17088   0.387E-02    0.116E-02
DAV:  19    -0.125499842614E+03   -0.42007E-03   -0.39782E-05 20832   0.252E-02    0.687E-03
DAV:  20    -0.125499879780E+03   -0.37166E-04   -0.18169E-05 22128   0.174E-02    0.403E-03
DAV:  21    -0.125499904947E+03   -0.25167E-04   -0.57948E-06 20880   0.987E-03    0.213E-03
DAV:  22    -0.125499928081E+03   -0.23134E-04   -0.26955E-06 22368   0.586E-03    0.131E-03
DAV:  23    -0.125499939291E+03   -0.11210E-04   -0.14051E-06 21360   0.389E-03    0.689E-04
DAV:  24    -0.125499941684E+03   -0.23930E-05   -0.27634E-07 22992   0.205E-03    0.364E-04
DAV:  25    -0.125499942710E+03   -0.10264E-05   -0.11150E-07 21264   0.113E-03    0.183E-04
DAV:  26    -0.125499943213E+03   -0.50312E-06   -0.27769E-08 22800   0.560E-04
   1 F= -.12710372E+03 E0= -.12710295E+03  d E =-.127104E+03  mag=    -0.0000
       N       E                     dE             d eps       ncg     rms          rms(c)
DAV:   1    -0.125507928415E+03   -0.79857E-02   -0.32326E+00 14208   0.574E+00    0.489E-01
DAV:   2    -0.125499367368E+03    0.85610E-02   -0.64395E-02 26160   0.757E-01    0.217E-01
DAV:   3    -0.125498363707E+03    0.10037E-02   -0.56012E-03 21696   0.220E-01    0.845E-02
DAV:   4    -0.125498318432E+03    0.45275E-04   -0.63080E-04 25968   0.759E-02    0.244E-02
DAV:   5    -0.125498321098E+03   -0.26666E-05   -0.18406E-05 24000   0.147E-02    0.941E-03
DAV:   6    -0.125498321252E+03   -0.15381E-06   -0.23158E-06 22560   0.504E-03
   2 F= -.12710154E+03 E0= -.12710077E+03  d E =0.218402E-02  mag=    -0.0000
       N       E                     dE             d eps       ncg     rms          rms(c)
DAV:   1    -0.125509536128E+03   -0.11215E-01   -0.92573E-01 14208   0.308E+00    0.262E-01
DAV:   2    -0.125507026505E+03    0.25096E-02   -0.18421E-02 26448   0.403E-01    0.116E-01
DAV:   3    -0.125506747516E+03    0.27899E-03   -0.15723E-03 24240   0.117E-01    0.457E-02
DAV:   4    -0.125506734871E+03    0.12645E-04   -0.17419E-04 22752   0.399E-02    0.125E-02
DAV:   5    -0.125506735679E+03   -0.80741E-06   -0.59798E-06 22944   0.830E-03
   3 F= -.12711025E+03 E0= -.12710948E+03  d E =-.653006E-02  mag=    -0.0000
       N       E                     dE             d eps       ncg     rms          rms(c)
DAV:   1    -0.125511057365E+03   -0.43225E-02   -0.24501E-01 14208   0.189E+00    0.108E-01
DAV:   2    -0.125511069114E+03   -0.11748E-04   -0.22081E-03 27936   0.200E-01    0.622E-02
DAV:   3    -0.125511056056E+03    0.13058E-04   -0.23276E-04 22944   0.566E-02    0.210E-02
DAV:   4    -0.125511056437E+03   -0.38130E-06   -0.44739E-05 26016   0.238E-02    0.884E-03
DAV:   5    -0.125511057129E+03   -0.69221E-06   -0.20145E-06 22656   0.595E-03
   4 F= -.12711447E+03 E0= -.12711370E+03  d E =-.421637E-02  mag=     0.0000
       N       E                     dE             d eps       ncg     rms          rms(c)
DAV:   1    -0.125513356448E+03   -0.23000E-02   -0.45628E-01 14208   0.258E+00    0.146E-01
DAV:   2    -0.125513391926E+03   -0.35479E-04   -0.41090E-03 25824   0.273E-01    0.847E-02
DAV:   3    -0.125513369462E+03    0.22465E-04   -0.44496E-04 22176   0.783E-02    0.285E-02
DAV:   4    -0.125513369750E+03   -0.28843E-06   -0.86698E-05 25152   0.330E-02    0.123E-02
DAV:   5    -0.125513371048E+03   -0.12985E-05   -0.39941E-06 21888   0.839E-03    0.442E-03
DAV:   6    -0.125513371226E+03   -0.17779E-06   -0.10157E-06 23376   0.383E-03
   5 F= -.12711662E+03 E0= -.12711585E+03  d E =-.636444E-02  mag=    -0.0000
       N       E                     dE             d eps       ncg     rms          rms(c)
DAV:   1    -0.125514613791E+03   -0.12427E-02   -0.14923E-02 14208   0.437E-01    0.258E-02
DAV:   2    -0.125514616362E+03   -0.25705E-05   -0.11443E-04 25632   0.442E-02    0.151E-02
DAV:   3    -0.125514615837E+03    0.52433E-06   -0.12792E-05 20160   0.133E-02    0.400E-03
DAV:   4    -0.125514616075E+03   -0.23810E-06   -0.21996E-06 24864   0.549E-03
   6 F= -.12711784E+03 E0= -.12711707E+03  d E =-.122061E-02  mag=     0.0000
       N       E                     dE             d eps       ncg     rms          rms(c)
DAV:   1    -0.125517787338E+03   -0.31715E-02   -0.13445E-01 14208   0.131E+00    0.775E-02
DAV:   2    -0.125517808474E+03   -0.21136E-04   -0.99229E-04 24672   0.131E-01    0.452E-02
DAV:   3    -0.125517802450E+03    0.60241E-05   -0.11258E-04 20256   0.395E-02    0.118E-02
DAV:   4    -0.125517802617E+03   -0.16674E-06   -0.18948E-05 26496   0.160E-02    0.509E-03
DAV:   5    -0.125517802959E+03   -0.34204E-06   -0.65898E-07 20640   0.345E-03
   7 F= -.12712095E+03 E0= -.12712018E+03  d E =-.433240E-02  mag=     0.0000
       N       E                     dE             d eps       ncg     rms          rms(c)
DAV:   1    -0.125521718495E+03   -0.39159E-02   -0.53995E-01 14208   0.263E+00    0.155E-01
DAV:   2    -0.125521803472E+03   -0.84977E-04   -0.40241E-03 25248   0.262E-01    0.900E-02
DAV:   3    -0.125521776659E+03    0.26813E-04   -0.45005E-04 21936   0.787E-02    0.237E-02
DAV:   4    -0.125521776917E+03   -0.25797E-06   -0.73172E-05 25824   0.314E-02    0.102E-02
DAV:   5    -0.125521777892E+03   -0.97520E-06   -0.26186E-06 23280   0.685E-03
   8 F= -.12712477E+03 E0= -.12712399E+03  d E =-.814723E-02  mag=    -0.0000
       N       E                     dE             d eps       ncg     rms          rms(c)
DAV:   1    -0.125520137020E+03    0.16399E-02   -0.21725E+00 14208   0.525E+00    0.309E-01
DAV:   2    -0.125520516953E+03   -0.37993E-03   -0.16799E-02 26592   0.532E-01    0.179E-01
DAV:   3    -0.125520406890E+03    0.11006E-03   -0.17601E-03 23616   0.155E-01    0.486E-02
DAV:   4    -0.125520410866E+03   -0.39756E-05   -0.27788E-04 25344   0.611E-02    0.201E-02
DAV:   5    -0.125520415268E+03   -0.44027E-05   -0.96543E-06 24000   0.132E-02    0.844E-03
DAV:   6    -0.125520414806E+03    0.46234E-06   -0.43633E-06 24000   0.755E-03
   9 F= -.12712304E+03 E0= -.12712227E+03  d E =-.642352E-02  mag=    -0.0000
       N       E                     dE             d eps       ncg     rms          rms(c)
DAV:   1    -0.125522598545E+03   -0.21833E-02   -0.88260E-01 14208   0.334E+00    0.197E-01
DAV:   2    -0.125522745542E+03   -0.14700E-03   -0.69299E-03 27648   0.341E-01    0.114E-01
DAV:   3    -0.125522697843E+03    0.47699E-04   -0.68898E-04 19536   0.973E-02    0.312E-02
DAV:   4    -0.125522701261E+03   -0.34182E-05   -0.11516E-04 24576   0.393E-02    0.127E-02
DAV:   5    -0.125522703366E+03   -0.21051E-05   -0.35244E-06 17664   0.801E-03    0.547E-03
DAV:   6    -0.125522703591E+03   -0.22513E-06   -0.14319E-06 23904   0.433E-03
  10 F= -.12712557E+03 E0= -.12712479E+03  d E =-.894823E-02  mag=     0.0000
       N       E                     dE             d eps       ncg     rms          rms(c)
DAV:   1    -0.125524447737E+03   -0.17444E-02   -0.64013E-02 14208   0.837E-01    0.492E-02
DAV:   2    -0.125524458402E+03   -0.10665E-04   -0.39519E-04 21600   0.734E-02    0.292E-02
DAV:   3    -0.125524456146E+03    0.22558E-05   -0.45561E-05 17088   0.218E-02    0.559E-03
DAV:   4    -0.125524456468E+03   -0.32229E-06   -0.41257E-06 23568   0.773E-03
  11 F= -.12712721E+03 E0= -.12712643E+03  d E =-.164123E-02  mag=    -0.0000
       N       E                     dE             d eps       ncg     rms          rms(c)
DAV:   1    -0.125528470071E+03   -0.40139E-02   -0.57710E-01 14208   0.251E+00    0.147E-01
DAV:   2    -0.125528578865E+03   -0.10879E-03   -0.34512E-03 27744   0.218E-01    0.871E-02
DAV:   3    -0.125528550046E+03    0.28820E-04   -0.41199E-04 21456   0.644E-02    0.160E-02
DAV:   4    -0.125528549898E+03    0.14727E-06   -0.32042E-05 23136   0.223E-02    0.763E-03
DAV:   5    -0.125528548191E+03    0.17079E-05   -0.33001E-06 21600   0.698E-03    0.291E-03
DAV:   6    -0.125528547166E+03    0.10249E-05   -0.15515E-06 23904   0.426E-03    0.132E-03
DAV:   7    -0.125528547134E+03    0.31486E-07   -0.36261E-07 20544   0.193E-03
  12 F= -.12713096E+03 E0= -.12713019E+03  d E =-.539747E-02  mag=     0.0000
       N       E                     dE             d eps       ncg     rms          rms(c)
DAV:   1    -0.125531816591E+03   -0.32694E-02   -0.23107E+00 14208   0.502E+00    0.289E-01
DAV:   2    -0.125532273228E+03   -0.45664E-03   -0.12967E-02 28032   0.426E-01    0.172E-01
DAV:   3    -0.125532164187E+03    0.10904E-03   -0.16710E-03 22368   0.129E-01    0.292E-02
DAV:   4    -0.125532162339E+03    0.18481E-05   -0.12059E-04 23952   0.438E-02    0.150E-02
DAV:   5    -0.125532157489E+03    0.48500E-05   -0.11619E-05 22224   0.135E-02    0.557E-03
DAV:   6    -0.125532154772E+03    0.27168E-05   -0.52468E-06 24576   0.816E-03    0.190E-03
DAV:   7    -0.125532155586E+03   -0.81396E-06   -0.32667E-06 23184   0.561E-03
  13 F= -.12713391E+03 E0= -.12713313E+03  d E =-.834058E-02  mag=     0.0000
       N       E                     dE             d eps       ncg     rms          rms(c)
DAV:   1    -0.125534271327E+03   -0.21166E-02   -0.20333E-01 14208   0.170E+00    0.890E-02
DAV:   2    -0.125534307179E+03   -0.35851E-04   -0.15421E-03 26064   0.166E-01    0.544E-02
DAV:   3    -0.125534281516E+03    0.25663E-04   -0.21458E-04 20832   0.542E-02    0.113E-02
DAV:   4    -0.125534281958E+03   -0.44169E-06   -0.23341E-05 23520   0.191E-02    0.664E-03
DAV:   5    -0.125534282541E+03   -0.58292E-06   -0.13713E-06 23232   0.478E-03
  14 F= -.12713584E+03 E0= -.12713506E+03  d E =-.193144E-02  mag=     0.0000
       N       E                     dE             d eps       ncg     rms          rms(c)
DAV:   1    -0.125535121114E+03   -0.83916E-03   -0.20370E-01 14208   0.170E+00    0.887E-02
DAV:   2    -0.125535158358E+03   -0.37244E-04   -0.15248E-03 26112   0.165E-01    0.543E-02
DAV:   3    -0.125535133019E+03    0.25339E-04   -0.21712E-04 24192   0.543E-02    0.112E-02
DAV:   4    -0.125535132796E+03    0.22239E-06   -0.22310E-05 24624   0.189E-02    0.668E-03
DAV:   5    -0.125535132981E+03   -0.18496E-06   -0.13289E-06 24000   0.479E-03
  15 F= -.12713649E+03 E0= -.12713571E+03  d E =-.258170E-02  mag=    -0.0000
       N       E                     dE             d eps       ncg     rms          rms(c)
DAV:   1    -0.125535394383E+03   -0.26159E-03   -0.12361E-02 14592   0.428E-01    0.220E-02
DAV:   2    -0.125535396453E+03   -0.20701E-05   -0.10194E-04 25824   0.417E-02    0.132E-02
DAV:   3    -0.125535396477E+03   -0.23992E-07   -0.99420E-06 23088   0.114E-02
  16 F= -.12713668E+03 E0= -.12713590E+03  d E =-.193157E-03  mag=     0.0000
       N       E                     dE             d eps       ncg     rms          rms(c)
DAV:   1    -0.125535667918E+03   -0.27146E-03   -0.42746E-02 14208   0.796E-01    0.417E-02
DAV:   2    -0.125535675579E+03   -0.76612E-05   -0.34887E-04 26784   0.776E-02    0.250E-02
DAV:   3    -0.125535674291E+03    0.12884E-05   -0.34443E-05 21504   0.212E-02    0.692E-03
DAV:   4    -0.125535674662E+03   -0.37134E-06   -0.50956E-06 23904   0.850E-03
  17 F= -.12713683E+03 E0= -.12713605E+03  d E =-.339943E-03  mag=    -0.0000
       N       E                     dE             d eps       ncg     rms          rms(c)
DAV:   1    -0.125535959140E+03   -0.28485E-03   -0.20707E-02 14208   0.572E-01    0.288E-02
DAV:   2    -0.125535964522E+03   -0.53813E-05   -0.19129E-04 27360   0.588E-02    0.174E-02
DAV:   3    -0.125535964267E+03    0.25413E-06   -0.16196E-05 19968   0.150E-02    0.553E-03
DAV:   4    -0.125535964694E+03   -0.42653E-06   -0.29185E-06 21456   0.631E-03
  18 F= -.12713701E+03 E0= -.12713624E+03  d E =-.185448E-03  mag=     0.0000
       N       E                     dE             d eps       ncg     rms          rms(c)
DAV:   1    -0.125536046922E+03   -0.82654E-04   -0.61773E-03 14208   0.312E-01    0.159E-02
DAV:   2    -0.125536048554E+03   -0.16317E-05   -0.58067E-05 25584   0.324E-02    0.966E-03
DAV:   3    -0.125536048803E+03   -0.24932E-06   -0.50040E-06 18672   0.840E-03
  19 F= -.12713704E+03 E0= -.12713626E+03  d E =-.212029E-03  mag=    -0.0000
       N       E                     dE             d eps       ncg     rms          rms(c)
DAV:   1    -0.125536215326E+03   -0.16677E-03   -0.76960E-03 14208   0.342E-01    0.193E-02
DAV:   2    -0.125536215982E+03   -0.65629E-06   -0.87869E-05 27744   0.389E-02    0.114E-02
DAV:   3    -0.125536214970E+03    0.10115E-05   -0.85788E-06 17424   0.113E-02    0.306E-03
DAV:   4    -0.125536215257E+03   -0.28614E-06   -0.10534E-06 23616   0.411E-03
  20 F= -.12713713E+03 E0= -.12713635E+03  d E =-.863069E-04  mag=    -0.0000
       N       E                     dE             d eps       ncg     rms          rms(c)
DAV:   1    -0.125536292690E+03   -0.77719E-04   -0.41006E-03 14208   0.250E-01    0.139E-02
DAV:   2    -0.125536293126E+03   -0.43603E-06   -0.46469E-05 27552   0.283E-02    0.819E-03
DAV:   3    -0.125536292677E+03    0.44831E-06   -0.43356E-06 16848   0.806E-03
  21 F= -.12713715E+03 E0= -.12713637E+03  d E =-.105176E-03  mag=    -0.0000
       N       E                     dE             d eps       ncg     rms          rms(c)
DAV:   1    -0.125536485652E+03   -0.19253E-03   -0.78791E-03 14208   0.346E-01    0.172E-02
DAV:   2    -0.125536487819E+03   -0.21679E-05   -0.77153E-05 26880   0.359E-02    0.103E-02
DAV:   3    -0.125536487942E+03   -0.12209E-06   -0.69717E-06 14832   0.991E-03
  22 F= -.12713723E+03 E0= -.12713645E+03  d E =-.864165E-04  mag=    -0.0000
       N       E                     dE             d eps       ncg     rms          rms(c)
DAV:   1    -0.125536629884E+03   -0.14206E-03   -0.84322E-03 14208   0.358E-01    0.182E-02
DAV:   2    -0.125536632583E+03   -0.26994E-05   -0.82615E-05 27024   0.374E-02    0.109E-02
DAV:   3    -0.125536632809E+03   -0.22622E-06   -0.77302E-06 16992   0.104E-02
  23 F= -.12713726E+03 E0= -.12713649E+03  d E =-.118628E-03  mag=     0.0000
       N       E                     dE             d eps       ncg     rms          rms(c)
DAV:   1    -0.125536833906E+03   -0.20132E-03   -0.78294E-03 14208   0.347E-01    0.186E-02
DAV:   2    -0.125536835188E+03   -0.12823E-05   -0.86331E-05 24384   0.381E-02    0.111E-02
DAV:   3    -0.125536834675E+03    0.51290E-06   -0.76915E-06 18912   0.107E-02
  24 F= -.12713733E+03 E0= -.12713655E+03  d E =-.621574E-04  mag=    -0.0000
       N       E                     dE             d eps       ncg     rms          rms(c)
DAV:   1    -0.125536893085E+03   -0.57896E-04   -0.11250E-03 14208   0.132E-01    0.751E-03
DAV:   2    -0.125536893438E+03   -0.35290E-06   -0.12428E-05 24384   0.147E-02    0.453E-03
DAV:   3    -0.125536893500E+03   -0.62077E-07   -0.11098E-06 15408   0.421E-03
  25 F= -.12713733E+03 E0= -.12713655E+03  d E =-.681130E-04  mag=     0.0000
       N       E                     dE             d eps       ncg     rms          rms(c)
DAV:   1    -0.125537118163E+03   -0.22473E-03   -0.78122E-03 14208   0.341E-01    0.182E-02
DAV:   2    -0.125537118455E+03   -0.29165E-06   -0.82297E-05 20496   0.378E-02    0.108E-02
DAV:   3    -0.125537117890E+03    0.56442E-06   -0.89889E-06 25200   0.114E-02
  26 F= -.12713739E+03 E0= -.12713661E+03  d E =-.559201E-04  mag=    -0.0000
       N       E                     dE             d eps       ncg     rms          rms(c)
DAV:   1    -0.125537219618E+03   -0.10116E-03   -0.23910E-03 14208   0.189E-01    0.107E-02
DAV:   2    -0.125537219930E+03   -0.31231E-06   -0.25798E-05 21360   0.213E-02    0.639E-03
DAV:   3    -0.125537219896E+03    0.33665E-07   -0.28389E-06 22320   0.648E-03
  27 F= -.12713740E+03 E0= -.12713662E+03  d E =-.649395E-04  mag=     0.0000
       N       E                     dE             d eps       ncg     rms          rms(c)
DAV:   1    -0.125537452379E+03   -0.23245E-03   -0.68151E-03 14208   0.315E-01    0.158E-02
DAV:   2    -0.125537453605E+03   -0.12260E-05   -0.59478E-05 19824   0.330E-02    0.964E-03
DAV:   3    -0.125537453634E+03   -0.28443E-07   -0.66468E-06 24624   0.957E-03
  28 F= -.12713746E+03 E0= -.12713668E+03  d E =-.589534E-04  mag=     0.0000
       N       E                     dE             d eps       ncg     rms          rms(c)
DAV:   1    -0.125537815557E+03   -0.36195E-03   -0.22971E-02 14208   0.578E-01    0.289E-02
DAV:   2    -0.125537820587E+03   -0.50295E-05   -0.20031E-04 23088   0.603E-02    0.178E-02
DAV:   3    -0.125537819843E+03    0.74318E-06   -0.22235E-05 26208   0.172E-02    0.449E-03
DAV:   4    -0.125537819880E+03   -0.36081E-07   -0.31664E-06 16272   0.688E-03
  29 F= -.12713750E+03 E0= -.12713672E+03  d E =-.104623E-03  mag=    -0.0000
       N       E                     dE             d eps       ncg     rms          rms(c)
DAV:   1    -0.125538061356E+03   -0.24151E-03   -0.75059E-03 14208   0.329E-01    0.173E-02
DAV:   2    -0.125538062285E+03   -0.92896E-06   -0.71373E-05 22704   0.359E-02    0.106E-02
DAV:   3    -0.125538061603E+03    0.68248E-06   -0.76439E-06 22944   0.105E-02
  30 F= -.12713755E+03 E0= -.12713678E+03  d E =-.521676E-04  mag=    -0.0000
       N       E                     dE             d eps       ncg     rms          rms(c)
DAV:   1    -0.125538243149E+03   -0.18086E-03   -0.58056E-03 14208   0.289E-01    0.155E-02
DAV:   2    -0.125538243996E+03   -0.84789E-06   -0.54492E-05 24576   0.314E-02    0.956E-03
DAV:   3    -0.125538243606E+03    0.39035E-06   -0.58337E-06 21360   0.924E-03
  31 F= -.12713757E+03 E0= -.12713679E+03  d E =-.677373E-04  mag=    -0.0000
       N       E                     dE             d eps       ncg     rms          rms(c)
DAV:   1    -0.125538491224E+03   -0.24723E-03   -0.70576E-03 14208   0.316E-01    0.161E-02
DAV:   2    -0.125538492548E+03   -0.13241E-05   -0.62515E-05 20784   0.337E-02    0.101E-02
DAV:   3    -0.125538492512E+03    0.35597E-07   -0.70513E-06 20256   0.991E-03
  32 F= -.12713762E+03 E0= -.12713684E+03  d E =-.481911E-04  mag=    -0.0000
       N       E                     dE             d eps       ncg     rms          rms(c)
DAV:   1    -0.125538830586E+03   -0.33804E-03   -0.16869E-02 14208   0.489E-01    0.249E-02
DAV:   2    -0.125538833841E+03   -0.32550E-05   -0.14863E-04 23376   0.517E-02    0.155E-02
DAV:   3    -0.125538833438E+03    0.40229E-06   -0.16829E-05 24000   0.150E-02    0.390E-03
DAV:   4    -0.125538833508E+03   -0.69661E-07   -0.27371E-06 17664   0.656E-03
  33 F= -.12713765E+03 E0= -.12713687E+03  d E =-.787799E-04  mag=     0.0000
       N       E                     dE             d eps       ncg     rms          rms(c)
DAV:   1    -0.125539077835E+03   -0.24440E-03   -0.66120E-03 14208   0.309E-01    0.152E-02
DAV:   2    -0.125539078677E+03   -0.84232E-06   -0.58492E-05 19584   0.324E-02    0.929E-03
DAV:   3    -0.125539078667E+03    0.98216E-08   -0.62437E-06 19536   0.939E-03
  34 F= -.12713770E+03 E0= -.12713692E+03  d E =-.481545E-04  mag=     0.0000
       N       E                     dE             d eps       ncg     rms          rms(c)
DAV:   1    -0.125539563834E+03   -0.48516E-03   -0.32835E-02 14208   0.689E-01    0.340E-02
DAV:   2    -0.125539568104E+03   -0.42704E-05   -0.28524E-04 22944   0.708E-02    0.207E-02
DAV:   3    -0.125539566874E+03    0.12299E-05   -0.30414E-05 25488   0.200E-02    0.520E-03
DAV:   4    -0.125539567198E+03   -0.32334E-06   -0.41841E-06 15600   0.805E-03
  35 F= -.12713775E+03 E0= -.12713697E+03  d E =-.978132E-04  mag=    -0.0000
       N       E                     dE             d eps       ncg     rms          rms(c)
DAV:   1    -0.125539819283E+03   -0.25241E-03   -0.79760E-03 14208   0.346E-01    0.168E-02
DAV:   2    -0.125539820414E+03   -0.11310E-05   -0.78173E-05 22560   0.372E-02    0.105E-02
DAV:   3    -0.125539820051E+03    0.36232E-06   -0.87599E-06 17088   0.114E-02
  36 F= -.12713779E+03 E0= -.12713701E+03  d E =-.413974E-04  mag=    -0.0000
       N       E                     dE             d eps       ncg     rms          rms(c)
DAV:   1    -0.125539983463E+03   -0.16305E-03   -0.42244E-03 14208   0.252E-01    0.126E-02
DAV:   2    -0.125539984286E+03   -0.82301E-06   -0.41136E-05 25008   0.271E-02    0.790E-03
DAV:   3    -0.125539984366E+03   -0.79411E-07   -0.45044E-06 14304   0.843E-03
  37 F= -.12713780E+03 E0= -.12713702E+03  d E =-.523131E-04  mag=    -0.0000
       N       E                     dE             d eps       ncg     rms          rms(c)
DAV:   1    -0.125540266402E+03   -0.28212E-03   -0.98033E-03 14208   0.380E-01    0.180E-02
DAV:   2    -0.125540267642E+03   -0.12399E-05   -0.92797E-05 20832   0.398E-02    0.110E-02
DAV:   3    -0.125540267764E+03   -0.12201E-06   -0.91365E-06 15072   0.115E-02
  38 F= -.12713784E+03 E0= -.12713706E+03  d E =-.427695E-04  mag=    -0.0000
       N       E                     dE             d eps       ncg     rms          rms(c)
DAV:   1    -0.125540543748E+03   -0.27611E-03   -0.11389E-02 14208   0.410E-01    0.197E-02
DAV:   2    -0.125540545271E+03   -0.15231E-05   -0.10838E-04 20736   0.430E-02    0.121E-02
DAV:   3    -0.125540545482E+03   -0.21133E-06   -0.10996E-05 15120   0.126E-02    0.349E-03
DAV:   4    -0.125540545854E+03   -0.37187E-06   -0.21847E-06 15600   0.642E-03
  39 F= -.12713786E+03 E0= -.12713708E+03  d E =-.617423E-04  mag=     0.0000
       N       E                     dE             d eps       ncg     rms          rms(c)
DAV:   1    -0.125540802992E+03   -0.25751E-03   -0.91400E-03 14208   0.375E-01    0.184E-02
DAV:   2    -0.125540803149E+03   -0.15648E-06   -0.94928E-05 21792   0.410E-02    0.113E-02
DAV:   3    -0.125540802407E+03    0.74156E-06   -0.11833E-05 18000   0.131E-02    0.263E-03
DAV:   4    -0.125540802615E+03   -0.20758E-06   -0.19116E-06 16128   0.565E-03
  40 F= -.12713789E+03 E0= -.12713711E+03  d E =-.258220E-04  mag=     0.0000
       N       E                     dE             d eps       ncg     rms          rms(c)
DAV:   1    -0.125540816068E+03   -0.13661E-04   -0.30875E-05 19296   0.219E-02    0.145E-03
DAV:   2    -0.125540816100E+03   -0.31981E-07   -0.38467E-07 20064   0.296E-03
  41 F= -.12713789E+03 E0= -.12713711E+03  d E =-.260252E-04  mag=     0.0000
       N       E                     dE             d eps       ncg     rms          rms(c)
DAV:   1    -0.125541019806E+03   -0.20374E-03   -0.47487E-03 14208   0.268E-01    0.129E-02
DAV:   2    -0.125541019323E+03    0.48294E-06   -0.45414E-05 14928   0.286E-02    0.783E-03
DAV:   3    -0.125541019242E+03    0.80500E-07   -0.59695E-06 14880   0.940E-03
  42 F= -.12713791E+03 E0= -.12713713E+03  d E =-.203287E-04  mag=     0.0000
       N       E                     dE             d eps       ncg     rms          rms(c)
DAV:   1    -0.125541160701E+03   -0.14138E-03   -0.26298E-03 14208   0.200E-01    0.995E-03
DAV:   2    -0.125541160583E+03    0.11812E-06   -0.25450E-05 16560   0.217E-02    0.611E-03
DAV:   3    -0.125541160703E+03   -0.12079E-06   -0.33791E-06 14640   0.731E-03
  43 F= -.12713791E+03 E0= -.12713713E+03  d E =-.266567E-04  mag=     0.0000
       N       E                     dE             d eps       ncg     rms          rms(c)
DAV:   1    -0.125541388781E+03   -0.22820E-03   -0.60052E-03 14208   0.304E-01    0.151E-02
DAV:   2    -0.125541388587E+03    0.19387E-06   -0.62356E-05 16176   0.338E-02    0.929E-03
DAV:   3    -0.125541388432E+03    0.15476E-06   -0.87223E-06 16032   0.114E-02
  44 F= -.12713793E+03 E0= -.12713715E+03  d E =-.206558E-04  mag=    -0.0000
       N       E                     dE             d eps       ncg     rms          rms(c)
DAV:   1    -0.125541408728E+03   -0.20141E-04   -0.62957E-05 14880   0.313E-02    0.254E-03
DAV:   2    -0.125541408735E+03   -0.68130E-08   -0.91739E-07 14304   0.479E-03
  45 F= -.12713793E+03 E0= -.12713716E+03  d E =-.211136E-04  mag=    -0.0000
       N       E                     dE             d eps       ncg     rms          rms(c)
DAV:   1    -0.125541586342E+03   -0.17761E-03   -0.32992E-03 14208   0.222E-01    0.115E-02
DAV:   2    -0.125541586028E+03    0.31431E-06   -0.34920E-05 14208   0.253E-02    0.712E-03
DAV:   3    -0.125541585947E+03    0.80669E-07   -0.46378E-06 14208   0.910E-03
  46 F= -.12713795E+03 E0= -.12713717E+03  d E =-.131003E-04  mag=     0.0000
       N       E                     dE             d eps       ncg     rms          rms(c)
DAV:   1    -0.125541626440E+03   -0.40412E-04   -0.20074E-04 14208   0.550E-02    0.325E-03
DAV:   2    -0.125541626386E+03    0.53888E-07   -0.24453E-06 14208   0.743E-03
  47 F= -.12713795E+03 E0= -.12713717E+03  d E =-.138799E-04  mag=    -0.0000
       N       E                     dE             d eps       ncg     rms          rms(c)
DAV:   1    -0.125541795814E+03   -0.16937E-03   -0.28036E-03 14208   0.206E-01    0.104E-02
DAV:   2    -0.125541795563E+03    0.25051E-06   -0.31553E-05 14208   0.244E-02    0.654E-03
DAV:   3    -0.125541795709E+03   -0.14614E-06   -0.49361E-06 14208   0.950E-03
  48 F= -.12713796E+03 E0= -.12713718E+03  d E =-.107759E-04  mag=     0.0000
       N       E                     dE             d eps       ncg     rms          rms(c)
DAV:   1    -0.125541835715E+03   -0.40152E-04   -0.18267E-04 14208   0.529E-02    0.324E-03
DAV:   2    -0.125541835635E+03    0.79907E-07   -0.25233E-06 14208   0.777E-03
  49 F= -.12713796E+03 E0= -.12713718E+03  d E =-.114509E-04  mag=     0.0000
       N       E                     dE             d eps       ncg     rms          rms(c)
DAV:   1    -0.125542019314E+03   -0.18360E-03   -0.31735E-03 14208   0.220E-01    0.109E-02
DAV:   2    -0.125542018886E+03    0.42813E-06   -0.36056E-05 14208   0.258E-02    0.681E-03
DAV:   3    -0.125542019020E+03   -0.13431E-06   -0.53114E-06 14208   0.100E-02
  50 F= -.12713797E+03 E0= -.12713719E+03  d E =-.116040E-04  mag=    -0.0000
       N       E                     dE             d eps       ncg     rms          rms(c)
DAV:   1    -0.125542089111E+03   -0.70225E-04   -0.52171E-04 14208   0.893E-02    0.472E-03
DAV:   2    -0.125542088970E+03    0.14121E-06   -0.64608E-06 14208   0.118E-02
  51 F= -.12713797E+03 E0= -.12713719E+03  d E =-.130789E-04  mag=     0.0000
       N       E                     dE             d eps       ncg     rms          rms(c)
DAV:   1    -0.125542256074E+03   -0.16696E-03   -0.26870E-03 14208   0.204E-01    0.992E-03
DAV:   2    -0.125542255643E+03    0.43073E-06   -0.30225E-05 14208   0.240E-02    0.630E-03
DAV:   3    -0.125542256004E+03   -0.36095E-06   -0.48019E-06 14448   0.101E-02
  52 F= -.12713798E+03 E0= -.12713720E+03  d E =-.986638E-05  mag=    -0.0000
       N       E                     dE             d eps       ncg     rms          rms(c)
DAV:   1    -0.125542315037E+03   -0.59394E-04   -0.38046E-04 14208   0.767E-02    0.397E-03
DAV:   2    -0.125542314861E+03    0.17601E-06   -0.49477E-06 15360   0.106E-02
  53 F= -.12713798E+03 E0= -.12713720E+03  d E =-.107817E-04  mag=    -0.0000
       N       E                     dE             d eps       ncg     rms          rms(c)
DAV:   1    -0.125542430152E+03   -0.11511E-03   -0.14567E-03 14928   0.150E-01    0.759E-03
DAV:   2    -0.125542429684E+03    0.46832E-06   -0.16509E-05 14592   0.181E-02    0.480E-03
DAV:   3    -0.125542430130E+03   -0.44667E-06   -0.31765E-06 15840   0.864E-03
  54 F= -.12713798E+03 E0= -.12713720E+03  d E =-.102059E-04  mag=    -0.0000
       N       E                     dE             d eps       ncg     rms          rms(c)
DAV:   1    -0.125542348333E+03    0.81351E-04   -0.75087E-04 14304   0.108E-01    0.475E-03
DAV:   2    -0.125542348172E+03    0.16026E-06   -0.99165E-06 14208   0.138E-02
  55 F= -.12713798E+03 E0= -.12713720E+03  d E =-.112179E-04  mag=     0.0000
       N       E                     dE             d eps       ncg     rms          rms(c)
DAV:   1    -0.125542514842E+03   -0.16651E-03   -0.27387E-03 15984   0.202E-01    0.857E-03
DAV:   2    -0.125542514311E+03    0.53085E-06   -0.27607E-05 15936   0.222E-02    0.529E-03
DAV:   3    -0.125542514374E+03   -0.63098E-07   -0.40387E-06 15024   0.880E-03
  56 F= -.12713799E+03 E0= -.12713721E+03  d E =-.776372E-05  mag=     0.0000
       N       E                     dE             d eps       ncg     rms          rms(c)
DAV:   1    -0.125542783041E+03   -0.26873E-03   -0.73430E-03 14208   0.331E-01    0.154E-02
DAV:   2    -0.125542781932E+03    0.11097E-05   -0.72413E-05 15504   0.362E-02    0.957E-03
DAV:   3    -0.125542782029E+03   -0.97707E-07   -0.10620E-05 14496   0.134E-02    0.252E-03
DAV:   4    -0.125542782193E+03   -0.16382E-06   -0.31357E-06 14592   0.865E-03
  57 F= -.12713800E+03 E0= -.12713722E+03  d E =-.143475E-04  mag=    -0.0000
       N       E                     dE             d eps       ncg     rms          rms(c)
DAV:   1    -0.125542950891E+03   -0.16886E-03   -0.27864E-03 14352   0.205E-01    0.958E-03
DAV:   2    -0.125542950572E+03    0.31879E-06   -0.30978E-05 19056   0.232E-02    0.607E-03
DAV:   3    -0.125542950596E+03   -0.24052E-07   -0.40638E-06 18432   0.803E-03
  58 F= -.12713801E+03 E0= -.12713723E+03  d E =-.107484E-04  mag=    -0.0000
       N       E                     dE             d eps       ncg     rms          rms(c)
DAV:   1    -0.125543133564E+03   -0.18299E-03   -0.35427E-03 14208   0.231E-01    0.110E-02
DAV:   2    -0.125543132867E+03    0.69668E-06   -0.36298E-05 14208   0.257E-02    0.689E-03
DAV:   3    -0.125543132975E+03   -0.10716E-06   -0.54513E-06 14880   0.959E-03
  59 F= -.12713801E+03 E0= -.12713724E+03  d E =-.159698E-04  mag=     0.0000
       N       E                     dE             d eps       ncg     rms          rms(c)
DAV:   1    -0.125543276619E+03   -0.14375E-03   -0.20213E-03 14208   0.175E-01    0.836E-03
DAV:   2    -0.125543276214E+03    0.40498E-06   -0.21657E-05 14208   0.201E-02    0.525E-03
DAV:   3    -0.125543276520E+03   -0.30545E-06   -0.33880E-06 14208   0.811E-03
  60 F= -.12713802E+03 E0= -.12713724E+03  d E =-.817495E-05  mag=    -0.0000
       N       E                     dE             d eps       ncg     rms          rms(c)
DAV:   1    -0.125543497040E+03   -0.22083E-03   -0.50277E-03 14208   0.276E-01    0.129E-02
DAV:   2    -0.125543496090E+03    0.94947E-06   -0.52368E-05 14208   0.309E-02    0.807E-03
DAV:   3    -0.125543496240E+03   -0.14990E-06   -0.77883E-06 14208   0.116E-02
  61 F= -.12713803E+03 E0= -.12713725E+03  d E =-.134591E-04  mag=    -0.0000
       N       E                     dE             d eps       ncg     rms          rms(c)
DAV:   1    -0.125543627900E+03   -0.13181E-03   -0.16486E-03 14208   0.157E-01    0.773E-03
DAV:   2    -0.125543627521E+03    0.37923E-06   -0.17907E-05 14208   0.187E-02    0.486E-03
DAV:   3    -0.125543628047E+03   -0.52644E-06   -0.31436E-06 14304   0.838E-03
  62 F= -.12713803E+03 E0= -.12713725E+03  d E =-.596941E-05  mag=     0.0000
       N       E                     dE             d eps       ncg     rms          rms(c)
DAV:   1    -0.125543941586E+03   -0.31407E-03   -0.97154E-03 14208   0.382E-01    0.177E-02
DAV:   2    -0.125543940495E+03    0.10910E-05   -0.99956E-05 16752   0.421E-02    0.110E-02
DAV:   3    -0.125543940321E+03    0.17445E-06   -0.13516E-05 15072   0.148E-02    0.279E-03
DAV:   4    -0.125543940605E+03   -0.28404E-06   -0.35407E-06 14352   0.897E-03
  63 F= -.12713804E+03 E0= -.12713726E+03  d E =-.106605E-04  mag=     0.0000
       N       E                     dE             d eps       ncg     rms          rms(c)
DAV:   1    -0.125544117017E+03   -0.17670E-03   -0.28283E-03 14208   0.205E-01    0.982E-03
DAV:   2    -0.125544116774E+03    0.24216E-06   -0.31559E-05 15840   0.236E-02    0.624E-03
DAV:   3    -0.125544116970E+03   -0.19579E-06   -0.43526E-06 17760   0.864E-03
  64 F= -.12713804E+03 E0= -.12713726E+03  d E =-.536947E-05  mag=    -0.0000
       N       E                     dE             d eps       ncg     rms          rms(c)
DAV:   1    -0.125544221602E+03   -0.10483E-03   -0.10410E-03 14208   0.124E-01    0.620E-03
DAV:   2    -0.125544221379E+03    0.22354E-06   -0.11197E-05 14400   0.148E-02    0.394E-03
DAV:   3    -0.125544221753E+03   -0.37387E-06   -0.19238E-06 14352   0.653E-03
  65 F= -.12713805E+03 E0= -.12713727E+03  d E =-.725462E-05  mag=     0.0000
       N       E                     dE             d eps       ncg     rms          rms(c)
DAV:   1    -0.125544314388E+03   -0.93009E-04   -0.81787E-04 14208   0.113E-01    0.553E-03
DAV:   2    -0.125544314202E+03    0.18665E-06   -0.99523E-06 14208   0.139E-02
  66 F= -.12713805E+03 E0= -.12713727E+03  d E =-.598938E-05  mag=     0.0000
       N       E                     dE             d eps       ncg     rms          rms(c)
DAV:   1    -0.125544434188E+03   -0.11980E-03   -0.14597E-03 14208   0.152E-01    0.791E-03
DAV:   2    -0.125544433783E+03    0.40499E-06   -0.16949E-05 14400   0.181E-02    0.497E-03
DAV:   3    -0.125544434141E+03   -0.35827E-06   -0.28352E-06 14496   0.771E-03
  67 F= -.12713805E+03 E0= -.12713727E+03  d E =-.826928E-05  mag=     0.0000
       N       E                     dE             d eps       ncg     rms          rms(c)
DAV:   1    -0.125544399396E+03    0.34387E-04   -0.12813E-04 14208   0.453E-02    0.200E-03
DAV:   2    -0.125544399306E+03    0.89803E-07   -0.23516E-06 14304   0.721E-03
  68 F= -.12713805E+03 E0= -.12713727E+03  d E =-.838277E-05  mag=     0.0000
       N       E                     dE             d eps       ncg     rms          rms(c)
DAV:   1    -0.125544502512E+03   -0.10312E-03   -0.10662E-03 14304   0.129E-01    0.583E-03
DAV:   2    -0.125544502310E+03    0.20226E-06   -0.12683E-05 14208   0.152E-02    0.359E-03
DAV:   3    -0.125544502357E+03   -0.47854E-07   -0.16518E-06 14208   0.572E-03
  69 F= -.12713806E+03 E0= -.12713728E+03  d E =-.418809E-05  mag=     0.0000
       N       E                     dE             d eps       ncg     rms          rms(c)
DAV:   1    -0.125544530946E+03   -0.28636E-04   -0.88663E-05 15648   0.376E-02    0.206E-03
DAV:   2    -0.125544530855E+03    0.91251E-07   -0.12461E-06 14688   0.547E-03
  70 F= -.12713806E+03 E0= -.12713728E+03  d E =-.446534E-05  mag=     0.0000
       N       E                     dE             d eps       ncg     rms          rms(c)
DAV:   1    -0.125544586991E+03   -0.56046E-04   -0.33935E-04 17712   0.734E-02    0.384E-03
DAV:   2    -0.125544586769E+03    0.22261E-06   -0.38860E-06 14256   0.884E-03
  71 F= -.12713806E+03 E0= -.12713728E+03  d E =-.394413E-05  mag=     0.0000
       N       E                     dE             d eps       ncg     rms          rms(c)
DAV:   1    -0.125544544281E+03    0.42710E-04   -0.21250E-04 15552   0.575E-02    0.235E-03
DAV:   2    -0.125544544232E+03    0.49279E-07   -0.32954E-06 14304   0.820E-03
  72 F= -.12713806E+03 E0= -.12713728E+03  d E =-.463805E-05  mag=     0.0000
       N       E                     dE             d eps       ncg     rms          rms(c)
DAV:   1    -0.125544596132E+03   -0.51851E-04   -0.30659E-04 21408   0.691E-02    0.317E-03
DAV:   2    -0.125544595950E+03    0.18210E-06   -0.37648E-06 16368   0.878E-03
  73 F= -.12713806E+03 E0= -.12713728E+03  d E =-.140565E-05  mag=    -0.0000
       N       E                     dE             d eps       ncg     rms          rms(c)
DAV:   1    -0.125544615802E+03   -0.19670E-04   -0.42236E-05 15120   0.266E-02    0.178E-03
DAV:   2    -0.125544615721E+03    0.81088E-07   -0.77641E-07 14448   0.458E-03
  74 F= -.12713806E+03 E0= -.12713728E+03  d E =-.141898E-05  mag=     0.0000
       N       E                     dE             d eps       ncg     rms          rms(c)
DAV:   1    -0.125544664956E+03   -0.49154E-04   -0.23741E-04 17376   0.604E-02    0.299E-03
DAV:   2    -0.125544664775E+03    0.18071E-06   -0.26186E-06 14976   0.746E-03
  75 F= -.12713806E+03 E0= -.12713728E+03  d E =-.148601E-05  mag=     0.0000
       N       E                     dE             d eps       ncg     rms          rms(c)
DAV:   1    -0.125544809784E+03   -0.14483E-03   -0.21319E-03 14208   0.181E-01    0.853E-03
DAV:   2    -0.125544809125E+03    0.65958E-06   -0.22112E-05 15216   0.202E-02    0.527E-03
DAV:   3    -0.125544809315E+03   -0.18997E-06   -0.33035E-06 14640   0.783E-03
  76 F= -.12713806E+03 E0= -.12713728E+03  d E =-.334517E-05  mag=    -0.0000
       N       E                     dE             d eps       ncg     rms          rms(c)
DAV:   1    -0.125544868163E+03   -0.59038E-04   -0.38637E-04 14448   0.771E-02    0.389E-03
DAV:   2    -0.125544867958E+03    0.20511E-06   -0.49980E-06 14208   0.104E-02
  77 F= -.12713807E+03 E0= -.12713729E+03  d E =-.155856E-05  mag=     0.0000
       N       E                     dE             d eps       ncg     rms          rms(c)
DAV:   1    -0.125544917619E+03   -0.49455E-04   -0.26889E-04 15072   0.650E-02    0.361E-03
DAV:   2    -0.125544917341E+03    0.27766E-06   -0.36799E-06 14640   0.937E-03
  78 F= -.12713807E+03 E0= -.12713729E+03  d E =-.165194E-05  mag=    -0.0000
       N       E                     dE             d eps       ncg     rms          rms(c)
DAV:   1    -0.125544901442E+03    0.16176E-04   -0.35345E-05 15984   0.236E-02    0.982E-04
DAV:   2    -0.125544901296E+03    0.14604E-06   -0.15106E-06 14208   0.636E-03
  79 F= -.12713807E+03 E0= -.12713729E+03  d E =-.189028E-05  mag=     0.0000
       N       E                     dE             d eps       ncg     rms          rms(c)
DAV:   1    -0.125544957966E+03   -0.56524E-04   -0.32288E-04 20400   0.696E-02    0.303E-03
DAV:   2    -0.125544957811E+03    0.15457E-06   -0.29603E-06 16032   0.717E-03
  80 F= -.12713807E+03 E0= -.12713729E+03  d E =-.145850E-05  mag=    -0.0000
       N       E                     dE             d eps       ncg     rms          rms(c)
DAV:   1    -0.125545126298E+03   -0.16833E-03   -0.28424E-03 14208   0.208E-01    0.973E-03
DAV:   2    -0.125545125205E+03    0.10930E-05   -0.28241E-05 14832   0.222E-02    0.594E-03
DAV:   3    -0.125545125239E+03   -0.34747E-07   -0.43700E-06 21024   0.784E-03
  81 F= -.12713807E+03 E0= -.12713729E+03  d E =-.374658E-05  mag=     0.0000
       N       E                     dE             d eps       ncg     rms          rms(c)
DAV:   1    -0.125545211921E+03   -0.86716E-04   -0.78614E-04 15792   0.109E-01    0.569E-03
DAV:   2    -0.125545211597E+03    0.32407E-06   -0.87650E-06 14208   0.126E-02
  82 F= -.12713807E+03 E0= -.12713729E+03  d E =-.212158E-05  mag=    -0.0000
       N       E                     dE             d eps       ncg     rms          rms(c)
DAV:   1    -0.125545230173E+03   -0.18252E-04   -0.30851E-05 14208   0.228E-02    0.172E-03
DAV:   2    -0.125545230114E+03    0.59157E-07   -0.46192E-07 14208   0.360E-03
  83 F= -.12713807E+03 E0= -.12713729E+03  d E =-.208636E-05  mag=     0.0000
       N       E                     dE             d eps       ncg     rms          rms(c)
DAV:   1    -0.125545220691E+03    0.94821E-05   -0.10569E-05 16512   0.130E-02    0.547E-04
DAV:   2    -0.125545220659E+03    0.32014E-07   -0.37589E-07 14208   0.317E-03
  84 F= -.12713807E+03 E0= -.12713729E+03  d E =-.221684E-05  mag=     0.0000
       N       E                     dE             d eps       ncg     rms          rms(c)
DAV:   1    -0.125545307183E+03   -0.86492E-04   -0.68246E-04 14208   0.100E-01    0.478E-03
DAV:   2    -0.125545306938E+03    0.24455E-06   -0.75542E-06 14304   0.114E-02
  85 F= -.12713807E+03 E0= -.12713729E+03  d E =-.143736E-05  mag=    -0.0000
       N       E                     dE             d eps       ncg     rms          rms(c)
DAV:   1    -0.125545404174E+03   -0.96991E-04   -0.85657E-04 14208   0.114E-01    0.597E-03
DAV:   2    -0.125545403841E+03    0.33331E-06   -0.92992E-06 15360   0.126E-02
  86 F= -.12713807E+03 E0= -.12713729E+03  d E =-.135424E-05  mag=     0.0000
       N       E                     dE             d eps       ncg     rms          rms(c)
DAV:   1    -0.125545474106E+03   -0.69932E-04   -0.43561E-04 14880   0.814E-02    0.431E-03
DAV:   2    -0.125545473974E+03    0.13225E-06   -0.44612E-06 16032   0.891E-03
  87 F= -.12713807E+03 E0= -.12713729E+03  d E =-.138180E-05  mag=     0.0000
       N       E                     dE             d eps       ncg     rms          rms(c)
DAV:   1    -0.125545585884E+03   -0.11178E-03   -0.11665E-03 14208   0.132E-01    0.651E-03
DAV:   2    -0.125545585580E+03    0.30339E-06   -0.12072E-05 14496   0.146E-02    0.412E-03
DAV:   3    -0.125545585676E+03   -0.95381E-07   -0.18229E-06 18624   0.532E-03
  88 F= -.12713808E+03 E0= -.12713730E+03  d E =-.220075E-05  mag=    -0.0000
       N       E                     dE             d eps       ncg     rms          rms(c)
DAV:   1    -0.125545670939E+03   -0.85359E-04   -0.74460E-04 14544   0.105E-01    0.532E-03
DAV:   2    -0.125545670573E+03    0.36615E-06   -0.84576E-06 14304   0.122E-02
  89 F= -.12713808E+03 E0= -.12713730E+03  d E =-.245133E-05  mag=    -0.0000
       N       E                     dE             d eps       ncg     rms          rms(c)
DAV:   1    -0.125545821144E+03   -0.15021E-03   -0.23651E-03 14208   0.189E-01    0.973E-03
DAV:   2    -0.125545820029E+03    0.11151E-05   -0.26295E-05 14688   0.214E-02    0.595E-03
DAV:   3    -0.125545820075E+03   -0.45980E-07   -0.40020E-06 17376   0.785E-03
  90 F= -.12713808E+03 E0= -.12713730E+03  d E =-.195666E-05  mag=     0.0000
       N       E                     dE             d eps       ncg     rms          rms(c)
DAV:   1    -0.125545735356E+03    0.84673E-04   -0.78530E-04 15408   0.109E-01    0.489E-03
DAV:   2    -0.125545735112E+03    0.24393E-06   -0.10006E-05 20208   0.130E-02    0.298E-03
DAV:   3    -0.125545735056E+03    0.55292E-07   -0.13054E-06 18048   0.483E-03
  91 F= -.12713808E+03 E0= -.12713730E+03  d E =-.322588E-05  mag=     0.0000
       N       E                     dE             d eps       ncg     rms          rms(c)
DAV:   1    -0.125545774744E+03   -0.39632E-04   -0.17058E-04 14544   0.514E-02    0.222E-03
DAV:   2    -0.125545774665E+03    0.79398E-07   -0.22666E-06 17424   0.672E-03
  92 F= -.12713808E+03 E0= -.12713730E+03  d E =-.105378E-05  mag=     0.0000
       N       E                     dE             d eps       ncg     rms          rms(c)
DAV:   1    -0.125545822292E+03   -0.47548E-04   -0.24937E-04 15072   0.626E-02    0.325E-03
DAV:   2    -0.125545822115E+03    0.17716E-06   -0.27971E-06 14208   0.742E-03
  93 F= -.12713808E+03 E0= -.12713730E+03  d E =-.138701E-05  mag=     0.0000
       N       E                     dE             d eps       ncg     rms          rms(c)
DAV:   1    -0.125545850981E+03   -0.28689E-04   -0.85807E-05 14832   0.369E-02    0.203E-03
DAV:   2    -0.125545850892E+03    0.89682E-07   -0.10842E-06 14256   0.502E-03
  94 F= -.12713808E+03 E0= -.12713730E+03  d E =-.761514E-06  mag=     0.0000
       N       E                     dE             d eps       ncg     rms          rms(c)
DAV:   1    -0.125545926324E+03   -0.75342E-04   -0.63142E-04 14928   0.985E-02    0.486E-03
DAV:   2    -0.125545925968E+03    0.35600E-06   -0.66838E-06 14928   0.112E-02
  95 F= -.12713808E+03 E0= -.12713730E+03  d E =-.156360E-05  mag=    -0.0000
       N       E                     dE             d eps       ncg     rms          rms(c)
DAV:   1    -0.125545944720E+03   -0.18396E-04   -0.34997E-05 14928   0.243E-02    0.174E-03
DAV:   2    -0.125545944636E+03    0.84316E-07   -0.59753E-07 14208   0.403E-03
  96 F= -.12713808E+03 E0= -.12713730E+03  d E =-.156057E-05  mag=    -0.0000
       N       E                     dE             d eps       ncg     rms          rms(c)
DAV:   1    -0.125545935964E+03    0.87558E-05   -0.95898E-06 15312   0.123E-02    0.504E-04
DAV:   2    -0.125545935945E+03    0.19256E-07   -0.35981E-07 14208   0.307E-03
  97 F= -.12713808E+03 E0= -.12713730E+03  d E =-.164604E-05  mag=     0.0000
       N       E                     dE             d eps       ncg     rms          rms(c)
DAV:   1    -0.125545930977E+03    0.49868E-05   -0.28084E-06 17424   0.679E-03    0.372E-04
DAV:   2    -0.125545930977E+03    0.95497E-10   -0.45318E-08 20160   0.969E-04
  98 F= -.12713808E+03 E0= -.12713730E+03  d E =-.162578E-05  mag=    -0.0000
       N       E                     dE             d eps       ncg     rms          rms(c)
DAV:   1    -0.125545944700E+03   -0.13723E-04   -0.23858E-05 20448   0.196E-02    0.904E-04
DAV:   2    -0.125545944685E+03    0.15182E-07   -0.27437E-07 15360   0.226E-03
  99 F= -.12713808E+03 E0= -.12713730E+03  d E =-.389861E-06  mag=    -0.0000
       N       E                     dE             d eps       ncg     rms          rms(c)
DAV:   1    -0.125545971941E+03   -0.27240E-04   -0.94280E-05 14208   0.393E-02    0.193E-03
DAV:   2    -0.125545971894E+03    0.46631E-07   -0.11215E-06 14880   0.450E-03
 100 F= -.12713808E+03 E0= -.12713730E+03  d E =-.623129E-06  mag=     0.0000
       N       E                     dE             d eps       ncg     rms          rms(c)
DAV:   1    -0.125545986008E+03   -0.14068E-04   -0.21243E-05 14208   0.187E-02    0.112E-03
DAV:   2    -0.125545985995E+03    0.13239E-07   -0.24200E-07 15168   0.216E-03
 101 F= -.12713808E+03 E0= -.12713730E+03  d E =-.312080E-06  mag=    -0.0000
       N       E                     dE             d eps       ncg     rms          rms(c)
DAV:   1    -0.125546017610E+03   -0.31602E-04   -0.11430E-04 15264   0.426E-02    0.211E-03
DAV:   2    -0.125546017546E+03    0.64382E-07   -0.12066E-06 14208   0.460E-03
 102 F= -.12713808E+03 E0= -.12713730E+03  d E =-.598773E-06  mag=     0.0000
       N       E                     dE             d eps       ncg     rms          rms(c)
DAV:   1    -0.125546026807E+03   -0.91973E-05   -0.12046E-05 14208   0.144E-02    0.939E-04
DAV:   2    -0.125546026803E+03    0.44038E-08   -0.19412E-07 14208   0.207E-03
 103 F= -.12713808E+03 E0= -.12713730E+03  d E =-.262987E-06  mag=    -0.0000
       N       E                     dE             d eps       ncg     rms          rms(c)
DAV:   1    -0.125546035501E+03   -0.86934E-05   -0.11363E-05 17184   0.138E-02    0.835E-04
DAV:   2    -0.125546035492E+03    0.88266E-08   -0.16099E-07 14208   0.195E-03
 104 F= -.12713808E+03 E0= -.12713730E+03  d E =-.341464E-06  mag=    -0.0000
       N       E                     dE             d eps       ncg     rms          rms(c)
DAV:   1    -0.125546045641E+03   -0.10140E-04   -0.12383E-05 14640   0.140E-02    0.792E-04
DAV:   2    -0.125546045628E+03    0.12402E-07   -0.17468E-07 14208   0.197E-03
 105 F= -.12713808E+03 E0= -.12713730E+03  d E =-.201459E-06  mag=    -0.0000
       N       E                     dE             d eps       ncg     rms          rms(c)
DAV:   1    -0.125546074809E+03   -0.29168E-04   -0.10604E-04 14208   0.408E-02    0.215E-03
DAV:   2    -0.125546074738E+03    0.70904E-07   -0.12530E-06 14208   0.475E-03
 106 F= -.12713808E+03 E0= -.12713730E+03  d E =-.410028E-06  mag=     0.0000
       N       E                     dE             d eps       ncg     rms          rms(c)
DAV:   1    -0.125546088779E+03   -0.13970E-04   -0.23653E-05 14208   0.194E-02    0.120E-03
DAV:   2    -0.125546088756E+03    0.23169E-07   -0.34277E-07 14208   0.265E-03
 107 F= -.12713808E+03 E0= -.12713730E+03  d E =-.213736E-06  mag=    -0.0000
       N       E                     dE             d eps       ncg     rms          rms(c)
DAV:   1    -0.125546106765E+03   -0.17986E-04   -0.40707E-05 14208   0.253E-02    0.139E-03
DAV:   2    -0.125546106736E+03    0.28945E-07   -0.52886E-07 14208   0.331E-03
 108 F= -.12713808E+03 E0= -.12713730E+03  d E =-.300934E-06  mag=    -0.0000
       N       E                     dE             d eps       ncg     rms          rms(c)
DAV:   1    -0.125546119008E+03   -0.12243E-04   -0.17365E-05 14208   0.165E-02    0.965E-04
DAV:   2    -0.125546118992E+03    0.16434E-07   -0.26176E-07 14208   0.250E-03
 109 F= -.12713808E+03 E0= -.12713730E+03  d E =-.171017E-06  mag=    -0.0000
       N       E                     dE             d eps       ncg     rms          rms(c)
DAV:   1    -0.125546144253E+03   -0.25245E-04   -0.77448E-05 14496   0.345E-02    0.182E-03
DAV:   2    -0.125546144201E+03    0.51788E-07   -0.97046E-07 14352   0.437E-03
 110 F= -.12713808E+03 E0= -.12713730E+03  d E =-.300062E-06  mag=    -0.0000
       N       E                     dE             d eps       ncg     rms          rms(c)
DAV:   1    -0.125546159964E+03   -0.15711E-04   -0.25929E-05 14352   0.201E-02    0.114E-03
DAV:   2    -0.125546159945E+03    0.18341E-07   -0.36069E-07 14208   0.291E-03
 111 F= -.12713808E+03 E0= -.12713730E+03  d E =-.259521E-06  mag=    -0.0000
       N       E                     dE             d eps       ncg     rms          rms(c)
DAV:   1    -0.125546206909E+03   -0.46945E-04   -0.24264E-04 14208   0.607E-02    0.298E-03
DAV:   2    -0.125546206799E+03    0.11027E-06   -0.26441E-06 14352   0.705E-03
 112 F= -.12713808E+03 E0= -.12713730E+03  d E =-.659917E-06  mag=    -0.0000
       N       E                     dE             d eps       ncg     rms          rms(c)
DAV:   1    -0.125546299359E+03   -0.92450E-04   -0.96091E-04 14208   0.121E-01    0.593E-03
DAV:   2    -0.125546299018E+03    0.34026E-06   -0.99750E-06 15360   0.134E-02
 113 F= -.12713808E+03 E0= -.12713730E+03  d E =0.224947E-07  mag=    -0.0000
       N       E                     dE             d eps       ncg     rms          rms(c)
DAV:   1    -0.125546238572E+03    0.60786E-04   -0.45620E-04 14208   0.819E-02    0.335E-03
DAV:   2    -0.125546238487E+03    0.84998E-07   -0.59045E-06 15456   0.103E-02
 114 F= -.12713808E+03 E0= -.12713730E+03  d E =-.780016E-06  mag=    -0.0000
       N       E                     dE             d eps       ncg     rms          rms(c)
DAV:   1    -0.125546222016E+03    0.16557E-04   -0.26794E-05 21024   0.212E-02    0.149E-03
DAV:   2    -0.125546221970E+03    0.45431E-07   -0.36380E-07 14496   0.305E-03
 115 F= -.12713808E+03 E0= -.12713730E+03  d E =-.721946E-06  mag=    -0.0000
       N       E                     dE             d eps       ncg     rms          rms(c)
DAV:   1    -0.125546233813E+03   -0.11797E-04   -0.16371E-05 14496   0.158E-02    0.631E-04
DAV:   2    -0.125546233814E+03   -0.11833E-08   -0.40372E-07 14784   0.322E-03
 116 F= -.12713809E+03 E0= -.12713731E+03  d E =-.209204E-06  mag=    -0.0000
       N       E                     dE             d eps       ncg     rms          rms(c)
DAV:   1    -0.125546269145E+03   -0.35333E-04   -0.13777E-04 17664   0.457E-02    0.227E-03
DAV:   2    -0.125546269055E+03    0.90117E-07   -0.14536E-06 19248   0.504E-03
 117 F= -.12713809E+03 E0= -.12713731E+03  d E =-.548568E-06  mag=     0.0000
       N       E                     dE             d eps       ncg     rms          rms(c)
DAV:   1    -0.125546339075E+03   -0.69929E-04   -0.54220E-04 14208   0.907E-02    0.442E-03
DAV:   2    -0.125546338862E+03    0.21270E-06   -0.54735E-06 14496   0.989E-03
 118 F= -.12713809E+03 E0= -.12713731E+03  d E =-.554366E-06  mag=     0.0000
       N       E                     dE             d eps       ncg     rms          rms(c)
DAV:   1    -0.125546358857E+03   -0.19782E-04   -0.37992E-05 14784   0.247E-02    0.160E-03
DAV:   2    -0.125546358826E+03    0.30520E-07   -0.37456E-07 14208   0.297E-03
 119 F= -.12713809E+03 E0= -.12713731E+03  d E =-.158991E-06  mag=     0.0000
       N       E                     dE             d eps       ncg     rms          rms(c)
DAV:   1    -0.125546396798E+03   -0.37941E-04   -0.15486E-04 17088   0.481E-02    0.234E-03
DAV:   2    -0.125546396712E+03    0.86649E-07   -0.15370E-06 14832   0.559E-03
 120 F= -.12713809E+03 E0= -.12713731E+03  d E =-.367969E-06  mag=     0.0000
       N       E                     dE             d eps       ncg     rms          rms(c)
DAV:   1    -0.125546472405E+03   -0.75606E-04   -0.61639E-04 14352   0.960E-02    0.465E-03
DAV:   2    -0.125546472167E+03    0.23768E-06   -0.62167E-06 14352   0.108E-02
 121 F= -.12713809E+03 E0= -.12713731E+03  d E =-.477465E-06  mag=     0.0000
       N       E                     dE             d eps       ncg     rms          rms(c)
DAV:   1    -0.125546499516E+03   -0.27111E-04   -0.78064E-05 14208   0.357E-02    0.214E-03
DAV:   2    -0.125546499429E+03    0.86881E-07   -0.11343E-06 14208   0.535E-03
 122 F= -.12713809E+03 E0= -.12713731E+03  d E =-.706988E-06  mag=     0.0000
       N       E                     dE             d eps       ncg     rms          rms(c)
DAV:   1    -0.125546540631E+03   -0.41115E-04   -0.19767E-04 14928   0.554E-02    0.293E-03
DAV:   2    -0.125546540491E+03    0.13982E-06   -0.25537E-06 14640   0.751E-03
 123 F= -.12713809E+03 E0= -.12713731E+03  d E =-.113198E-05  mag=    -0.0000
       N       E                     dE             d eps       ncg     rms          rms(c)
DAV:   1    -0.125546549476E+03   -0.88453E-05   -0.86243E-06 14640   0.125E-02    0.115E-03
DAV:   2    -0.125546549400E+03    0.76698E-07   -0.51255E-07 14256   0.375E-03
 124 F= -.12713809E+03 E0= -.12713731E+03  d E =-.116880E-05  mag=     0.0000
       N       E                     dE             d eps       ncg     rms          rms(c)
DAV:   1    -0.125546572300E+03   -0.22824E-04   -0.58690E-05 14208   0.299E-02    0.171E-03
DAV:   2    -0.125546572252E+03    0.47492E-07   -0.80559E-07 17088   0.415E-03
 125 F= -.12713809E+03 E0= -.12713731E+03  d E =-.268129E-06  mag=    -0.0000
       N       E                     dE             d eps       ncg     rms          rms(c)
DAV:   1    -0.125546620569E+03   -0.48269E-04   -0.26131E-04 15072   0.630E-02    0.329E-03
DAV:   2    -0.125546620438E+03    0.13182E-06   -0.29435E-06 14304   0.752E-03
 126 F= -.12713809E+03 E0= -.12713731E+03  d E =-.413574E-06  mag=    -0.0000
       N       E                     dE             d eps       ncg     rms          rms(c)
DAV:   1    -0.125546648627E+03   -0.28058E-04   -0.87372E-05 14304   0.374E-02    0.213E-03
DAV:   2    -0.125546648561E+03    0.66486E-07   -0.12066E-06 14208   0.525E-03
 127 F= -.12713809E+03 E0= -.12713731E+03  d E =-.338373E-06  mag=    -0.0000
       N       E                     dE             d eps       ncg     rms          rms(c)
DAV:   1    -0.125546662287E+03   -0.13659E-04   -0.20926E-05 14544   0.185E-02    0.124E-03
DAV:   2    -0.125546662241E+03    0.45744E-07   -0.48129E-07 14352   0.363E-03
 128 F= -.12713809E+03 E0= -.12713731E+03  d E =-.427148E-06  mag=     0.0000
