Lattice                                 
           1
     4.278165    2.470000    0.000000
    -4.278165    2.470000    0.000000
     0.000000    0.000000   15.000000
   B    C 
     8     8
Direct configuration=     1
   0.66888689  0.00000000  0.10000000
   0.33111211  0.00000000  0.10000000
   0.00000000  0.33111211  0.10000000
   0.00000000  0.66888689  0.10000000
   0.33111211  0.33111211  0.10000000
   0.66888689  0.66888689  0.10000000
   0.66666600  0.33333300  0.09922189
   0.33333300  0.66666600  0.10077811
   0.27777711  0.22222189  0.46960000
   0.44444411  0.05555489  0.46960000
   0.27777711  0.72222189  0.46960000
   0.44444411  0.55555489  0.46960000
   0.77777711  0.22222189  0.46960000
   0.94444411  0.05555489  0.46960000
   0.77777711  0.72222189  0.46960000
   0.94444411  0.55555489  0.46960000
Direct configuration=     2
   0.67161662 -0.00000004  0.10002647
   0.32838253 -0.00000008  0.10002650
   0.00000004  0.32838238  0.10002647
   0.00000008  0.67161647  0.10002650
   0.32838220  0.32838215  0.10002652
   0.67161685  0.67161680  0.10002652
   0.66666617  0.33333283  0.09923279
   0.33333258  0.66666642  0.10082487
   0.27777219  0.22221731  0.46957323
   0.44444175  0.05555718  0.46957261
   0.27777722  0.72222178  0.46957212
   0.44444487  0.55555413  0.46957282
   0.77778062  0.22221838  0.46957304
   0.94444465  0.05555435  0.46957369
   0.77778169  0.72222681  0.46957323
   0.94444182  0.55555725  0.46957261
Direct configuration=     3
   0.67019161 -0.00000002  0.10001265
   0.32980746 -0.00000004  0.10001267
   0.00000002  0.32980739  0.10001265
   0.00000004  0.67019154  0.10001267
   0.32980730  0.32980728  0.10001268
   0.67019172  0.67019170  0.10001268
   0.66666608  0.33333292  0.09922710
   0.33333280  0.66666620  0.10080046
   0.27777476  0.22221970  0.46958720
   0.44444298  0.05555598  0.46958691
   0.27777716  0.72222184  0.46958667
   0.44444447  0.55555453  0.46958701
   0.77777879  0.22222021  0.46958711
   0.94444437  0.05555463  0.46958742
   0.77777930  0.72222424  0.46958720
   0.94444302  0.55555602  0.46958691
Direct configuration=     4
   0.67019957 -0.00000002  0.10001273
   0.32979950 -0.00000004  0.10001274
   0.00000002  0.32979943  0.10001273
   0.00000004  0.67019950  0.10001274
   0.32979934  0.32979932  0.10001275
   0.67019968  0.67019966  0.10001275
   0.66666608  0.33333292  0.09922713
   0.33333280  0.66666620  0.10080060
   0.27777474  0.22221969  0.46958713
   0.44444298  0.05555599  0.46958683
   0.27777716  0.72222184  0.46958659
   0.44444447  0.55555453  0.46958693
   0.77777880  0.22222020  0.46958703
   0.94444437  0.05555463  0.46958735
   0.77777931  0.72222426  0.46958713
   0.94444301  0.55555602  0.46958683
Direct configuration=     5
   0.67019609 -0.00000002  0.10001270
   0.32980299 -0.00000004  0.10001271
   0.00000002  0.32980291  0.10001270
   0.00000004  0.67019601  0.10001271
   0.32980283  0.32980280  0.10001272
   0.67019620  0.67019617  0.10001272
   0.66666608  0.33333292  0.09922712
   0.33333280  0.66666620  0.10080054
   0.27777475  0.22221969  0.46958716
   0.44444298  0.05555599  0.46958686
   0.27777716  0.72222184  0.46958663
   0.44444447  0.55555453  0.46958697
   0.77777879  0.22222021  0.46958707
   0.94444437  0.05555463  0.46958738
   0.77777931  0.72222425  0.46958716
   0.94444301  0.55555602  0.46958686
Direct configuration=     6
   0.67019385 -0.00000002  0.10001267
   0.32980522 -0.00000004  0.10001269
   0.00000002  0.32980515  0.10001267
   0.00000004  0.67019378  0.10001269
   0.32980507  0.32980504  0.10001270
   0.67019396  0.67019393  0.10001270
   0.66666608  0.33333292  0.09922711
   0.33333280  0.66666620  0.10080050
   0.27777475  0.22221970  0.46958718
   0.44444298  0.05555598  0.46958689
   0.27777716  0.72222184  0.46958665
   0.44444447  0.55555453  0.46958699
   0.77777879  0.22222021  0.46958709
   0.94444437  0.05555463  0.46958740
   0.77777930  0.72222425  0.46958718
   0.94444302  0.55555602  0.46958689
Direct configuration=     7
   0.67019273 -0.00000002  0.10001266
   0.32980634 -0.00000004  0.10001268
   0.00000002  0.32980627  0.10001266
   0.00000004  0.67019266  0.10001268
   0.32980619  0.32980616  0.10001269
   0.67019284  0.67019281  0.10001269
   0.66666608  0.33333292  0.09922710
   0.33333280  0.66666620  0.10080048
   0.27777476  0.22221970  0.46958719
   0.44444298  0.05555598  0.46958690
   0.27777716  0.72222184  0.46958666
   0.44444447  0.55555453  0.46958700
   0.77777879  0.22222021  0.46958710
   0.94444437  0.05555463  0.46958741
   0.77777930  0.72222424  0.46958719
   0.94444302  0.55555602  0.46958690
Direct configuration=     8
   0.67019217 -0.00000002  0.10001266
   0.32980690 -0.00000004  0.10001267
   0.00000002  0.32980683  0.10001266
   0.00000004  0.67019210  0.10001267
   0.32980675  0.32980672  0.10001268
   0.67019228  0.67019225  0.10001268
   0.66666608  0.33333292  0.09922710
   0.33333280  0.66666620  0.10080047
   0.27777476  0.22221970  0.46958720
   0.44444298  0.05555598  0.46958690
   0.27777716  0.72222184  0.46958667
   0.44444447  0.55555453  0.46958701
   0.77777879  0.22222021  0.46958711
   0.94444437  0.05555463  0.46958742
   0.77777930  0.72222424  0.46958720
   0.94444302  0.55555602  0.46958690
Direct configuration=     9
   0.67019218 -0.00000005  0.10003655
   0.32980700 -0.00000000  0.10003659
   0.00000005  0.32980682  0.10003655
   0.00000000  0.67019200  0.10003659
   0.32980688  0.32980685  0.10003662
   0.67019215  0.67019212  0.10003662
   0.66666607  0.33333293  0.09924126
   0.33333279  0.66666621  0.10083725
   0.27777778  0.22222337  0.46956311
   0.44444511  0.05555405  0.46956237
   0.27777670  0.72222230  0.46956181
   0.44444434  0.55555466  0.46956263
   0.77777588  0.22222312  0.46956290
   0.94444439  0.05555461  0.46956364
   0.77777563  0.72222122  0.46956311
   0.94444495  0.55555389  0.46956237
Direct configuration=    10
   0.67019222 -0.00000013  0.10010824
   0.32980728  0.00000011  0.10010836
   0.00000013  0.32980678  0.10010824
  -0.00000011  0.67019172  0.10010836
   0.32980729  0.32980725  0.10010843
   0.67019175  0.67019171  0.10010843
   0.66666604  0.33333296  0.09928372
   0.33333276  0.66666624  0.10094756
   0.27778683  0.22223439  0.46949086
   0.44445150  0.05554827  0.46948879
   0.27777531  0.72222369  0.46948725
   0.44444395  0.55555505  0.46948952
   0.77776715  0.22223185  0.46949026
   0.94444444  0.05555456  0.46949232
   0.77776461  0.72221217  0.46949086
   0.94445073  0.55554750  0.46948879
Direct configuration=    11
   0.67019229 -0.00000029  0.10025160
   0.32980784  0.00000034  0.10025188
   0.00000029  0.32980671  0.10025160
  -0.00000034  0.67019116  0.10025188
   0.32980811  0.32980804  0.10025206
   0.67019096  0.67019089  0.10025206
   0.66666599  0.33333301  0.09936866
   0.33333270  0.66666630  0.10116820
   0.27780494  0.22225642  0.46934636
   0.44446427  0.05553669  0.46934163
   0.27777254  0.72222646  0.46933811
   0.44444318  0.55555582  0.46934328
   0.77774969  0.22224931  0.46934500
   0.94444455  0.05555445  0.46934967
   0.77774258  0.72219406  0.46934636
   0.94446231  0.55553473  0.46934163
Direct configuration=    12
   0.67019243 -0.00000062  0.10053833
   0.32980897  0.00000081  0.10053894
   0.00000062  0.32980657  0.10053833
  -0.00000081  0.67019003  0.10053894
   0.32980974  0.32980963  0.10053931
   0.67018937  0.67018926  0.10053931
   0.66666587  0.33333313  0.09953852
   0.33333257  0.66666643  0.10160947
   0.27784116  0.22230048  0.46905736
   0.44448982  0.05551354  0.46904731
   0.27776700  0.72223200  0.46903985
   0.44444162  0.55555738  0.46905081
   0.77771476  0.22228424  0.46905447
   0.94444478  0.05555422  0.46906438
   0.77769852  0.72215784  0.46905736
   0.94448546  0.55550918  0.46904731
Direct configuration=    13
   0.67019271 -0.00000127  0.10111180
   0.32981122  0.00000173  0.10111304
   0.00000127  0.32980629  0.10111180
  -0.00000173  0.67018778  0.10111304
   0.32981302  0.32981280  0.10111382
   0.67018620  0.67018598  0.10111382
   0.66666564  0.33333336  0.09987826
   0.33333232  0.66666668  0.10249201
   0.27791360  0.22238860  0.46847935
   0.44454091  0.05546723  0.46845866
   0.27775592  0.72224308  0.46844331
   0.44443851  0.55556049  0.46846587
   0.77764491  0.22235409  0.46847341
   0.94444523  0.05555377  0.46849379
   0.77761040  0.72208540  0.46847935
   0.94453177  0.55545809  0.46845866
Direct configuration=    14
   0.67019327 -0.00000258  0.10225873
   0.32981572  0.00000358  0.10226126
   0.00000258  0.32980573  0.10225873
  -0.00000358  0.67018328  0.10226126
   0.32981956  0.32981915  0.10226283
   0.67017985  0.67017944  0.10226283
   0.66666518  0.33333382  0.10055772
   0.33333181  0.66666719  0.10425710
   0.27805848  0.22256483  0.46732334
   0.44464310  0.05537463  0.46728136
   0.27773375  0.72226525  0.46725025
   0.44443230  0.55556670  0.46729599
   0.77750521  0.22249379  0.46731129
   0.94444613  0.05555287  0.46735262
   0.77743417  0.72194052  0.46732334
   0.94462437  0.55535590  0.46728136
Direct configuration=    15
   0.67019439 -0.00000520  0.10455259
   0.32982472  0.00000728  0.10455768
   0.00000520  0.32980461  0.10455259
  -0.00000728  0.67017428  0.10455768
   0.32983265  0.32983185  0.10456085
   0.67016715  0.67016635  0.10456085
   0.66666425  0.33333475  0.10191666
   0.33333080  0.66666820  0.10778727
   0.27834824  0.22291731  0.46501131
   0.44484747  0.05518941  0.46492677
   0.27768941  0.72230959  0.46486412
   0.44441986  0.55557914  0.46495622
   0.77722581  0.22277319  0.46498705
   0.94444793  0.05555107  0.46507027
   0.77708169  0.72165076  0.46501131
   0.94480959  0.55515153  0.46492677
Direct configuration=    16
   0.67019663 -0.00001044  0.10914031
   0.32984272  0.00001468  0.10915053
   0.00001044  0.32980237  0.10914031
  -0.00001468  0.67015628  0.10915053
   0.32985883  0.32985724  0.10915688
   0.67014176  0.67014017  0.10915688
   0.66666240  0.33333660  0.10463452
   0.33332879  0.66667021  0.11484762
   0.27892776  0.22362227  0.46038726
   0.44525622  0.05481898  0.46021759
   0.27760073  0.72239827  0.46009187
   0.44439500  0.55560400  0.46027669
   0.77666701  0.22333199  0.46033858
   0.94445153  0.05554747  0.46050556
   0.77637673  0.72107124  0.46038726
   0.94518002  0.55474278  0.46021759
Direct configuration=    17
   0.67020112 -0.00002091  0.11831576
   0.32987872  0.00002947  0.11833623
   0.00002091  0.32979788  0.11831576
  -0.00002947  0.67012028  0.11833623
   0.32991119  0.32990803  0.11834896
   0.67009097  0.67008781  0.11834896
   0.66665870  0.33334030  0.11007025
   0.33332475  0.66667425  0.12896831
   0.28008681  0.22503217  0.45113916
   0.44607372  0.05407812  0.45079923
   0.27742337  0.72257563  0.45054736
   0.44434527  0.55565373  0.45091763
   0.77554941  0.22444959  0.45104162
   0.94445873  0.05554027  0.45137616
   0.77496683  0.71991219  0.45113916
   0.94592088  0.55392528  0.45079923
Direct configuration=    18
   0.67019768 -0.00001289  0.11128995
   0.32985115  0.00001814  0.11130257
   0.00001289  0.32980132  0.11128995
  -0.00001814  0.67014785  0.11130257
   0.32987110  0.32986914  0.11131042
   0.67012986  0.67012790  0.11131042
   0.66666153  0.33333747  0.10590801
   0.33332784  0.66667116  0.11815584
   0.27919931  0.22395258  0.45822060
   0.44544775  0.05464541  0.45801104
   0.27755917  0.72243983  0.45785576
   0.44438335  0.55561565  0.45808404
   0.77640518  0.22359382  0.45816047
   0.94445321  0.05554579  0.45836671
   0.77604642  0.72079969  0.45822060
   0.94535359  0.55455125  0.45801104
Direct configuration=    19
   0.67019768 -0.00001289  0.11129083
   0.32985116  0.00001814  0.11130345
   0.00001289  0.32980132  0.11129083
  -0.00001814  0.67014784  0.11130345
   0.32987110  0.32986915  0.11131130
   0.67012985  0.67012790  0.11131130
   0.66666153  0.33333747  0.10590853
   0.33332784  0.66667116  0.11815719
   0.27919936  0.22395263  0.45821971
   0.44544777  0.05464539  0.45801014
   0.27755917  0.72243983  0.45785485
   0.44438334  0.55561566  0.45808314
   0.77640515  0.22359385  0.45815958
   0.94445321  0.05554579  0.45836583
   0.77604637  0.72079964  0.45821971
   0.94535361  0.55455123  0.45801014
Direct configuration=    20
   0.67019767 -0.00001290  0.11129347
   0.32985117  0.00001814  0.11130610
   0.00001290  0.32980133  0.11129347
  -0.00001814  0.67014783  0.11130610
   0.32987112  0.32986917  0.11131394
   0.67012983  0.67012788  0.11131394
   0.66666153  0.33333747  0.10591009
   0.33332784  0.66667116  0.11816125
   0.27919950  0.22395276  0.45821705
   0.44544783  0.05464532  0.45800743
   0.27755917  0.72243983  0.45785211
   0.44438331  0.55561569  0.45808045
   0.77640504  0.22359396  0.45815690
   0.94445319  0.05554581  0.45836320
   0.77604624  0.72079950  0.45821705
   0.94535368  0.55455117  0.45800743
Direct configuration=    21
   0.67019764 -0.00001292  0.11129875
   0.32985121  0.00001813  0.11131138
   0.00001292  0.32980136  0.11129875
  -0.00001813  0.67014779  0.11131138
   0.32987116  0.32986922  0.11131923
   0.67012978  0.67012784  0.11131923
   0.66666153  0.33333747  0.10591321
   0.33332784  0.66667116  0.11816937
   0.27919979  0.22395302  0.45821173
   0.44544796  0.05464519  0.45800202
   0.27755917  0.72243983  0.45784663
   0.44438325  0.55561575  0.45807506
   0.77640483  0.22359417  0.45815155
   0.94445315  0.05554585  0.45835794
   0.77604598  0.72079921  0.45821173
   0.94535381  0.55455104  0.45800202
Direct configuration=    22
   0.67019758 -0.00001295  0.11130931
   0.32985127  0.00001812  0.11132195
   0.00001295  0.32980142  0.11130931
  -0.00001812  0.67014773  0.11132195
   0.32987125  0.32986933  0.11132981
   0.67012967  0.67012775  0.11132981
   0.66666153  0.33333747  0.10591945
   0.33332783  0.66667117  0.11818562
   0.27920038  0.22395356  0.45820108
   0.44544822  0.05464493  0.45799119
   0.27755917  0.72243983  0.45783567
   0.44438314  0.55561586  0.45806430
   0.77640442  0.22359458  0.45814086
   0.94445308  0.05554592  0.45834742
   0.77604544  0.72079862  0.45820108
   0.94535407  0.55455078  0.45799119
Direct configuration=    23
   0.67019748 -0.00001302  0.11133043
   0.32985141  0.00001809  0.11134309
   0.00001302  0.32980152  0.11133043
  -0.00001809  0.67014759  0.11134309
   0.32987141  0.32986953  0.11135096
   0.67012947  0.67012759  0.11135096
   0.66666153  0.33333747  0.10593193
   0.33332782  0.66667118  0.11821810
   0.27920155  0.22395462  0.45817979
   0.44544873  0.05464440  0.45796953
   0.27755917  0.72243983  0.45781374
   0.44438291  0.55561609  0.45804277
   0.77640359  0.22359541  0.45811946
   0.94445293  0.05554607  0.45832638
   0.77604438  0.72079745  0.45817979
   0.94535460  0.55455027  0.45796953
Direct configuration=    24
   0.67019726 -0.00001315  0.11137266
   0.32985168  0.00001804  0.11138537
   0.00001315  0.32980174  0.11137266
  -0.00001804  0.67014732  0.11138537
   0.32987174  0.32986993  0.11139327
   0.67012907  0.67012726  0.11139327
   0.66666153  0.33333747  0.10595689
   0.33332780  0.66667120  0.11828308
   0.27920388  0.22395676  0.45813720
   0.44544977  0.05464335  0.45792622
   0.27755916  0.72243984  0.45776990
   0.44438245  0.55561655  0.45799971
   0.77640193  0.22359707  0.45807667
   0.94445262  0.05554638  0.45828430
   0.77604224  0.72079512  0.45813720
   0.94535565  0.55454923  0.45792622
Direct configuration=    25
   0.67019683 -0.00001342  0.11145712
   0.32985221  0.00001794  0.11146993
   0.00001342  0.32980217  0.11145712
  -0.00001794  0.67014679  0.11146993
   0.32987240  0.32987074  0.11147789
   0.67012826  0.67012660  0.11147789
   0.66666153  0.33333747  0.10600681
   0.33332775  0.66667125  0.11841302
   0.27920855  0.22396102  0.45805203
   0.44545183  0.05464125  0.45783960
   0.27755915  0.72243985  0.45768221
   0.44438154  0.55561746  0.45791358
   0.77639860  0.22360040  0.45799109
   0.94445202  0.05554698  0.45820013
   0.77603798  0.72079045  0.45805203
   0.94535775  0.55454717  0.45783960
Direct configuration=    26
   0.67019596 -0.00001396  0.11162605
   0.32985328  0.00001774  0.11163905
   0.00001396  0.32980304  0.11162605
  -0.00001774  0.67014572  0.11163905
   0.32987372  0.32987236  0.11164712
   0.67012664  0.67012528  0.11164712
   0.66666154  0.33333746  0.10610664
   0.33332766  0.66667134  0.11867291
   0.27921790  0.22396955  0.45788169
   0.44545596  0.05463704  0.45766636
   0.27755913  0.72243987  0.45750683
   0.44437971  0.55561929  0.45774134
   0.77639196  0.22360704  0.45781992
   0.94445081  0.05554819  0.45803180
   0.77602945  0.72078110  0.45788169
   0.94536196  0.55454304  0.45766636
Direct configuration=    27
   0.67019423 -0.00001503  0.11196391
   0.32985542  0.00001733  0.11197728
   0.00001503  0.32980477  0.11196391
  -0.00001733  0.67014358  0.11197728
   0.32987635  0.32987561  0.11198558
   0.67012339  0.67012265  0.11198558
   0.66666154  0.33333746  0.10630631
   0.33332748  0.66667152  0.11919270
   0.27923659  0.22398661  0.45754102
   0.44546421  0.05462862  0.45731988
   0.27755910  0.72243990  0.45715608
   0.44437605  0.55562295  0.45739684
   0.77637867  0.22362033  0.45747759
   0.94444840  0.05555060  0.45769513
   0.77601239  0.72076241  0.45754102
   0.94537038  0.55453479  0.45731988
Direct configuration=    28
   0.67019076 -0.00001718  0.11263964
   0.32985970  0.00001651  0.11265375
   0.00001718  0.32980824  0.11263964
  -0.00001651  0.67013930  0.11265375
   0.32988162  0.32988209  0.11266251
   0.67011691  0.67011738  0.11266251
   0.66666155  0.33333745  0.10670565
   0.33332713  0.66667187  0.12023227
   0.27927397  0.22402072  0.45685966
   0.44548072  0.05461179  0.45662691
   0.27755902  0.72243998  0.45645457
   0.44436873  0.55563027  0.45670785
   0.77635208  0.22364692  0.45679292
   0.94444357  0.05555543  0.45702180
   0.77597828  0.72072503  0.45685966
   0.94538721  0.55451828  0.45662691
Direct configuration=    29
   0.67018382 -0.00002148  0.11399108
   0.32986825  0.00001488  0.11400669
   0.00002148  0.32981518  0.11399108
  -0.00001488  0.67013075  0.11400669
   0.32989215  0.32989506  0.11401637
   0.67010394  0.67010685  0.11401637
   0.66666157  0.33333743  0.10750433
   0.33332641  0.66667259  0.12231141
   0.27934873  0.22408896  0.45549694
   0.44551374  0.05457814  0.45524097
   0.27755886  0.72244014  0.45505154
   0.44435409  0.55564491  0.45532987
   0.77629892  0.22370008  0.45542359
   0.94443391  0.05556509  0.45567514
   0.77591004  0.72065027  0.45549694
   0.94542086  0.55448526  0.45524097
Direct configuration=    30
   0.67016996 -0.00003007  0.11669397
   0.32988536  0.00001162  0.11671258
   0.00003007  0.32982904  0.11669397
  -0.00001162  0.67011364  0.11671258
   0.32991322  0.32992100  0.11672408
   0.67007800  0.67008578  0.11672408
   0.66666161  0.33333739  0.10910169
   0.33332498  0.66667402  0.12646969
   0.27949826  0.22422542  0.45277150
   0.44557977  0.05451082  0.45246909
   0.27755854  0.72244046  0.45224549
   0.44432481  0.55567419  0.45257392
   0.77619259  0.22380641  0.45268494
   0.94441459  0.05558441  0.45298182
   0.77577358  0.72050074  0.45277150
   0.94548818  0.55441923  0.45246909
Direct configuration=    31
   0.67014222 -0.00004725  0.12209975
   0.32991959  0.00000510  0.12212435
   0.00004725  0.32985678  0.12209975
  -0.00000510  0.67007941  0.12212435
   0.32995536  0.32997287  0.12213950
   0.67002613  0.67004364  0.12213950
   0.66666169  0.33333731  0.11229641
   0.33332212  0.66667688  0.13478626
   0.27979731  0.22449836  0.44732063
   0.44571184  0.05437618  0.44692534
   0.27755791  0.72244109  0.44663340
   0.44426625  0.55573275  0.44706201
   0.77597993  0.22401907  0.44720762
   0.94437594  0.05562306  0.44759518
   0.77550064  0.72020169  0.44732063
   0.94562282  0.55428716  0.44692534
Direct configuration=    32
   0.67008675 -0.00008160  0.13291131
   0.32998804 -0.00000795  0.13294789
   0.00008160  0.32991225  0.13291131
   0.00000795  0.67001096  0.13294789
   0.33003963  0.33007663  0.13297034
   0.66992237  0.66995937  0.13297034
   0.66666184  0.33333716  0.11868585
   0.33331640  0.66668260  0.15141939
   0.28039540  0.22504422  0.43641888
   0.44597598  0.05410691  0.43583783
   0.27755666  0.72244234  0.43540920
   0.44414913  0.55584987  0.43603819
   0.77555460  0.22444440  0.43625299
   0.94429866  0.05570034  0.43682190
   0.77495478  0.71960360  0.43641888
   0.94589209  0.55402302  0.43583783
Direct configuration=    33
   0.66997582 -0.00015032  0.15453442
   0.33012493 -0.00003405  0.15459496
   0.00015032  0.33002318  0.15453442
   0.00003405  0.66987407  0.15459496
   0.33020818  0.33028413  0.15463203
   0.66971487  0.66979082  0.15463203
   0.66666215  0.33333685  0.13146473
   0.33330495  0.66669405  0.18468565
   0.28159160  0.22613595  0.41461539
   0.44650425  0.05356836  0.41366281
   0.27755414  0.72244486  0.41296081
   0.44391489  0.55608411  0.41399054
   0.77470396  0.22529504  0.41434373
   0.94414409  0.05585491  0.41527533
   0.77386305  0.71840740  0.41461539
   0.94643064  0.55349475  0.41366281
Direct configuration=    34
   0.67006398 -0.00009571  0.13735039
   0.33001614 -0.00001331  0.13739189
   0.00009571  0.32993502  0.13735039
   0.00001331  0.66998286  0.13739189
   0.33007423  0.33011922  0.13741734
   0.66987978  0.66992477  0.13741734
   0.66666190  0.33333710  0.12130927
   0.33331405  0.66668495  0.15824873
   0.28064097  0.22526835  0.43194277
   0.44608443  0.05399635  0.43128544
   0.27755614  0.72244286  0.43080070
   0.44410104  0.55589796  0.43151195
   0.77537997  0.22461903  0.43175516
   0.94426693  0.05573207  0.43239853
   0.77473065  0.71935803  0.43194277
   0.94600265  0.55391457  0.43128544
Direct configuration=    35
   0.67004312 -0.00010863  0.14141674
   0.33004188 -0.00001822  0.14146275
   0.00010863  0.32995588  0.14141674
   0.00001822  0.66995712  0.14146275
   0.33010593  0.33015825  0.14149096
   0.66984075  0.66989307  0.14149096
   0.66666196  0.33333704  0.12371241
   0.33331189  0.66668711  0.16450465
   0.28086593  0.22547365  0.42784249
   0.44618377  0.05389507  0.42711529
   0.27755567  0.72244333  0.42657914
   0.44405699  0.55594201  0.42736576
   0.77522000  0.22477900  0.42763499
   0.94423786  0.05576114  0.42834657
   0.77452535  0.71913307  0.42784249
   0.94610393  0.55381523  0.42711529
Direct configuration=    36
   0.66991407 -0.00015513  0.14470498
   0.33013335 -0.00006142  0.14475451
   0.00015513  0.33008493  0.14470498
   0.00006142  0.66986565  0.14475451
   0.33020024  0.33029342  0.14478469
   0.66970558  0.66979876  0.14478469
   0.66666348  0.33333552  0.12566748
   0.33330999  0.66668901  0.16952200
   0.28076525  0.22529875  0.42452643
   0.44606319  0.05399065  0.42375148
   0.27759580  0.72240320  0.42318015
   0.44403368  0.55596532  0.42401777
   0.77535894  0.22464006  0.42430574
   0.94421315  0.05578585  0.42506268
   0.77470025  0.71923375  0.42452643
   0.94600835  0.55393581  0.42375148
Direct configuration=    37
   0.66972676 -0.00022262  0.14947745
   0.33026611 -0.00012412  0.14953210
   0.00022262  0.33027224  0.14947745
   0.00012412  0.66973289  0.14953210
   0.33033713  0.33048960  0.14956513
   0.66950940  0.66966187  0.14956513
   0.66666568  0.33333332  0.12850502
   0.33330724  0.66669176  0.17680407
   0.28061912  0.22504490  0.41971357
   0.44588818  0.05412936  0.41886932
   0.27765405  0.72234495  0.41824693
   0.44399985  0.55599915  0.41915859
   0.77556060  0.22443840  0.41947373
   0.94417729  0.05582171  0.42029652
   0.77495410  0.71937988  0.41971357
   0.94586964  0.55411082  0.41886932
Direct configuration=    38
   0.66958461 -0.00027023  0.14918700
   0.33035354 -0.00017509  0.14924105
   0.00027023  0.33041439  0.14918700
   0.00017509  0.66964546  0.14924105
   0.33042057  0.33061860  0.14927337
   0.66938040  0.66957843  0.14927337
   0.66666701  0.33333199  0.12837028
   0.33330708  0.66669192  0.17627031
   0.28029032  0.22468276  0.42000698
   0.44568573  0.05431915  0.41918027
   0.27768273  0.72231627  0.41857008
   0.44403398  0.55596502  0.41946318
   0.77584463  0.22415437  0.41977235
   0.94418988  0.05580912  0.42057644
   0.77531624  0.71970868  0.42000698
   0.94567985  0.55431327  0.41918027
Direct configuration=    39
   0.66915817 -0.00041307  0.14831566
   0.33061584 -0.00032798  0.14836789
   0.00041307  0.33084083  0.14831566
   0.00032798  0.66938316  0.14836789
   0.33067088  0.33100560  0.14839809
   0.66899340  0.66932812  0.14839809
   0.66667100  0.33332800  0.12796603
   0.33330661  0.66669239  0.17466905
   0.27930393  0.22359633  0.42088720
   0.44507839  0.05488851  0.42011313
   0.27776876  0.72223024  0.41953955
   0.44413635  0.55586265  0.42037697
   0.77669673  0.22330227  0.42066823
   0.94422764  0.05577136  0.42141622
   0.77640267  0.72069507  0.42088720
   0.94511049  0.55492061  0.42011313
Direct configuration=    40
   0.66830528 -0.00069874  0.14657297
   0.33114043 -0.00063376  0.14662158
   0.00069874  0.33169372  0.14657297
   0.00063376  0.66885857  0.14662158
   0.33117150  0.33177961  0.14664754
   0.66821939  0.66882750  0.14664754
   0.66667898  0.33332002  0.12715754
   0.33330566  0.66669334  0.17146653
   0.27733115  0.22142348  0.42264763
   0.44386372  0.05602723  0.42197884
   0.27794082  0.72205818  0.42147848
   0.44434110  0.55565790  0.42220455
   0.77840092  0.22159808  0.42245997
   0.94430315  0.05569585  0.42309578
   0.77857552  0.72266785  0.42264763
   0.94397177  0.55613528  0.42197884
Direct configuration=    41
   0.66850669 -0.00063128  0.14698450
   0.33101655 -0.00056155  0.14703397
   0.00063128  0.33149231  0.14698450
   0.00056155  0.66898245  0.14703397
   0.33105328  0.33159683  0.14706093
   0.66840217  0.66894572  0.14706093
   0.66667710  0.33332190  0.12734847
   0.33330588  0.66669312  0.17222280
   0.27779702  0.22193659  0.42223191
   0.44415056  0.05575833  0.42153826
   0.27790019  0.72209881  0.42102061
   0.44429275  0.55570625  0.42177297
   0.77799848  0.22200052  0.42203685
   0.94428532  0.05571368  0.42269915
   0.77806241  0.72220198  0.42223191
   0.94424067  0.55584844  0.42153826
Direct configuration=    42
   0.66836041 -0.00064884  0.14694621
   0.33113540 -0.00058452  0.14699500
   0.00064884  0.33163859  0.14694621
   0.00058452  0.66886360  0.14699500
   0.33116603  0.33172515  0.14702083
   0.66827385  0.66883297  0.14702083
   0.66667864  0.33332036  0.12740427
   0.33330777  0.66669123  0.17198407
   0.27770244  0.22197690  0.42226939
   0.44421683  0.05572720  0.42160586
   0.27784348  0.72215552  0.42111065
   0.44436369  0.55563531  0.42183031
   0.77795880  0.22204020  0.42208170
   0.94434728  0.05565172  0.42271444
   0.77802210  0.72229656  0.42226939
   0.94427180  0.55578217  0.42160586
Direct configuration=    43
   0.66792159 -0.00070150  0.14683131
   0.33149197 -0.00065345  0.14687810
   0.00070150  0.33207741  0.14683131
   0.00065345  0.66850703  0.14687810
   0.33150429  0.33211013  0.14690053
   0.66788887  0.66849471  0.14690053
   0.66668328  0.33331572  0.12757169
   0.33331343  0.66668557  0.17126786
   0.27741873  0.22209783  0.42238182
   0.44441562  0.05563380  0.42180866
   0.27767336  0.72232564  0.42138078
   0.44457649  0.55542251  0.42200230
   0.77783975  0.22215925  0.42221622
   0.94453319  0.05546581  0.42276030
   0.77790117  0.72258027  0.42238182
   0.94436520  0.55558338  0.42180866
Direct configuration=    44
   0.66704394 -0.00080683  0.14660152
   0.33220512 -0.00079130  0.14664429
   0.00080683  0.33295506  0.14660152
   0.00079130  0.66779388  0.14664429
   0.33218081  0.33288009  0.14665992
   0.66711891  0.66781819  0.14665992
   0.66669254  0.33330646  0.12790652
   0.33332476  0.66667424  0.16983546
   0.27685130  0.22233968  0.42260670
   0.44481321  0.05544702  0.42221427
   0.27733310  0.72266590  0.42192103
   0.44500210  0.55499690  0.42234630
   0.77760166  0.22239734  0.42248527
   0.94490500  0.05509400  0.42285202
   0.77765932  0.72314770  0.42260670
   0.94455198  0.55518579  0.42221427
Direct configuration=    45
   0.66745144 -0.00075793  0.14670821
   0.33187400 -0.00072729  0.14675285
   0.00075793  0.33254756  0.14670821
   0.00072729  0.66812500  0.14675285
   0.33186670  0.33252259  0.14677164
   0.66747641  0.66813230  0.14677164
   0.66668824  0.33331076  0.12775105
   0.33331950  0.66667950  0.17050054
   0.27711477  0.22222739  0.42250229
   0.44462860  0.05553375  0.42202594
   0.27749109  0.72250791  0.42167019
   0.44480449  0.55519451  0.42218658
   0.77771221  0.22228679  0.42236035
   0.94473236  0.05526664  0.42280944
   0.77777161  0.72288423  0.42250229
   0.94446525  0.55537040  0.42202594
Direct configuration=    46
   0.66738769 -0.00071636  0.14667273
   0.33196575 -0.00069405  0.14671552
   0.00071636  0.33261131  0.14667273
   0.00069405  0.66803325  0.14671552
   0.33194918  0.33256280  0.14673134
   0.66743620  0.66804982  0.14673134
   0.66668810  0.33331090  0.12794128
   0.33332741  0.66667159  0.16997302
   0.27732637  0.22226161  0.42253488
   0.44459765  0.05555243  0.42213536
   0.27756878  0.72243022  0.42183582
   0.44469799  0.55530101  0.42226983
   0.77770634  0.22229266  0.42241282
   0.94463606  0.05536294  0.42278756
   0.77773739  0.72267263  0.42253488
   0.94444657  0.55540135  0.42213536
Direct configuration=    47
   0.66719642 -0.00059165  0.14656629
   0.33224101 -0.00059434  0.14660352
   0.00059165  0.33280258  0.14656629
   0.00059434  0.66775799  0.14660352
   0.33219661  0.33268344  0.14661047
   0.66731556  0.66780239  0.14661047
   0.66668767  0.33331133  0.12851194
   0.33335115  0.66664785  0.16839045
   0.27796118  0.22236428  0.42263267
   0.44450479  0.05560850  0.42246362
   0.27780186  0.72219714  0.42233271
   0.44437851  0.55562049  0.42251957
   0.77768875  0.22231025  0.42257024