  15  15   0   4
  0.2020342E+02  0.4830000E-09  0.4830000E-09  0.1500000E-08  0.5000000E-15
  1.000000000000000E-004
  CAR 
 Lattice                                 
     10.37306515    -21.71507903  301     -0.25410693      1.00000000
    -21.715  0.0000E+00  0.0000E+00  0.0000E+00  0.0000E+00
    -21.608  0.0000E+00  0.0000E+00  0.0000E+00  0.0000E+00
    -21.501  0.0000E+00  0.0000E+00  0.0000E+00  0.0000E+00
    -21.394  0.0000E+00  0.0000E+00  0.0000E+00  0.0000E+00
    -21.287  0.0000E+00  0.0000E+00  0.0000E+00  0.0000E+00
    -21.180  0.0000E+00  0.0000E+00  0.0000E+00  0.0000E+00
    -21.073  0.0000E+00  0.0000E+00  0.0000E+00  0.0000E+00
    -20.966  0.0000E+00  0.0000E+00  0.0000E+00  0.0000E+00
    -20.859  0.0000E+00  0.0000E+00  0.0000E+00  0.0000E+00
    -20.752  0.6308E-15  0.6308E-15  0.6747E-16  0.6747E-16
    -20.645  0.1119E-10  0.1119E-10  0.1197E-11  0.1197E-11
    -20.539  0.2365E-07  0.2365E-07  0.2530E-08  0.2530E-08
    -20.432  0.6559E-05  0.6559E-05  0.7041E-06  0.7041E-06
    -20.325  0.2673E-03  0.2673E-03  0.2929E-04  0.2929E-04
    -20.218  0.1959E-02  0.1959E-02  0.2389E-03  0.2389E-03
    -20.111  0.4127E-02  0.4127E-02  0.6803E-03  0.6803E-03
    -20.004  0.4486E-02  0.4486E-02  0.1160E-02  0.1160E-02
    -19.897  0.4915E-02  0.4915E-02  0.1686E-02  0.1686E-02
    -19.790  0.4117E-02  0.4117E-02  0.2126E-02  0.2126E-02
    -19.683  0.5343E-02  0.5343E-02  0.2698E-02  0.2698E-02
    -19.576  0.4229E-02  0.4229E-02  0.3150E-02  0.3150E-02
    -19.469  0.4160E-02  0.4160E-02  0.3595E-02  0.3595E-02
    -19.362  0.5989E-02  0.5989E-02  0.4235E-02  0.4235E-02
    -19.255  0.3873E-02  0.3873E-02  0.4650E-02  0.4650E-02
    -19.148  0.3745E-02  0.3745E-02  0.5050E-02  0.5050E-02
    -19.041  0.6053E-02  0.6053E-02  0.5698E-02  0.5698E-02
    -18.934  0.5266E-02  0.5266E-02  0.6261E-02  0.6261E-02
    -18.827  0.3027E-02  0.3027E-02  0.6585E-02  0.6585E-02
    -18.720  0.4101E-02  0.4101E-02  0.7023E-02  0.7023E-02
    -18.613  0.6912E-02  0.6912E-02  0.7763E-02  0.7763E-02
    -18.506  0.4674E-02  0.4674E-02  0.8263E-02  0.8263E-02
    -18.399  0.3821E-02  0.3821E-02  0.8671E-02  0.8671E-02
    -18.292  0.2875E-02  0.2875E-02  0.8979E-02  0.8979E-02
    -18.185  0.6293E-02  0.6293E-02  0.9652E-02  0.9652E-02
    -18.078  0.6795E-02  0.6795E-02  0.1038E-01  0.1038E-01
    -17.971  0.3734E-02  0.3734E-02  0.1078E-01  0.1078E-01
    -17.865  0.3128E-02  0.3128E-02  0.1111E-01  0.1111E-01
    -17.758  0.4022E-02  0.4022E-02  0.1154E-01  0.1154E-01
    -17.651  0.5885E-02  0.5885E-02  0.1217E-01  0.1217E-01
    -17.544  0.6964E-02  0.6964E-02  0.1292E-01  0.1292E-01
    -17.437  0.6315E-02  0.6314E-02  0.1359E-01  0.1359E-01
    -17.330  0.7702E-02  0.7702E-02  0.1442E-01  0.1442E-01
    -17.223  0.1007E-01  0.1007E-01  0.1549E-01  0.1549E-01
    -17.116  0.1446E-01  0.1446E-01  0.1704E-01  0.1704E-01
    -17.009  0.1610E-01  0.1610E-01  0.1876E-01  0.1876E-01
    -16.902  0.1818E-01  0.1818E-01  0.2071E-01  0.2071E-01
    -16.795  0.2114E-01  0.2114E-01  0.2297E-01  0.2297E-01
    -16.688  0.1415E-01  0.1415E-01  0.2448E-01  0.2448E-01
    -16.581  0.3618E-02  0.3618E-02  0.2487E-01  0.2487E-01
    -16.474  0.6129E-02  0.6129E-02  0.2552E-01  0.2552E-01
    -16.367  0.8672E-02  0.8672E-02  0.2645E-01  0.2645E-01
    -16.260  0.4772E-02  0.4772E-02  0.2696E-01  0.2696E-01
    -16.153  0.4220E-02  0.4220E-02  0.2741E-01  0.2741E-01
    -16.046  0.3747E-02  0.3747E-02  0.2781E-01  0.2781E-01
    -15.939  0.4000E-02  0.4000E-02  0.2824E-01  0.2824E-01
    -15.832  0.3234E-02  0.3234E-02  0.2859E-01  0.2859E-01
    -15.725  0.7185E-02  0.7185E-02  0.2936E-01  0.2936E-01
    -15.618  0.8676E-02  0.8676E-02  0.3028E-01  0.3028E-01
    -15.511  0.4390E-02  0.4390E-02  0.3075E-01  0.3075E-01
    -15.404  0.3817E-02  0.3817E-02  0.3116E-01  0.3116E-01
    -15.297  0.3290E-02  0.3290E-02  0.3151E-01  0.3151E-01
    -15.190  0.4250E-02  0.4250E-02  0.3197E-01  0.3197E-01
    -15.084  0.6000E-02  0.6000E-02  0.3261E-01  0.3261E-01
    -14.977  0.1115E-01  0.1115E-01  0.3380E-01  0.3380E-01
    -14.870  0.1778E-01  0.1778E-01  0.3570E-01  0.3570E-01
    -14.763  0.1911E-01  0.1911E-01  0.3775E-01  0.3775E-01
    -14.656  0.1641E-01  0.1641E-01  0.3950E-01  0.3950E-01
    -14.549  0.1175E-01  0.1175E-01  0.4076E-01  0.4076E-01
    -14.442  0.7788E-02  0.7788E-02  0.4159E-01  0.4159E-01
    -14.335  0.1249E-01  0.1249E-01  0.4293E-01  0.4293E-01
    -14.228  0.1606E-01  0.1606E-01  0.4465E-01  0.4465E-01
    -14.121  0.1335E-01  0.1335E-01  0.4608E-01  0.4608E-01
    -14.014  0.1075E-01  0.1075E-01  0.4723E-01  0.4723E-01
    -13.907  0.1281E-01  0.1281E-01  0.4860E-01  0.4860E-01
    -13.800  0.1907E-01  0.1907E-01  0.5064E-01  0.5064E-01
    -13.693  0.1859E-01  0.1859E-01  0.5263E-01  0.5263E-01
    -13.586  0.1766E-01  0.1766E-01  0.5451E-01  0.5451E-01
    -13.479  0.1125E-01  0.1125E-01  0.5572E-01  0.5572E-01
    -13.372  0.6486E-02  0.6486E-02  0.5641E-01  0.5641E-01
    -13.265  0.3363E-02  0.3363E-02  0.5677E-01  0.5677E-01
    -13.158  0.3532E-02  0.3532E-02  0.5715E-01  0.5715E-01
    -13.051  0.6146E-02  0.6146E-02  0.5781E-01  0.5781E-01
    -12.944  0.7309E-02  0.7309E-02  0.5859E-01  0.5859E-01
    -12.837  0.4916E-02  0.4916E-02  0.5911E-01  0.5911E-01
    -12.730  0.6008E-02  0.6008E-02  0.5976E-01  0.5976E-01
    -12.623  0.7068E-02  0.7068E-02  0.6051E-01  0.6051E-01
    -12.516  0.5903E-02  0.5903E-02  0.6114E-01  0.6114E-01
    -12.410  0.5507E-02  0.5507E-02  0.6173E-01  0.6173E-01
    -12.303  0.3773E-02  0.3773E-02  0.6214E-01  0.6214E-01
    -12.196  0.5006E-02  0.5006E-02  0.6267E-01  0.6267E-01
    -12.089  0.8344E-02  0.8344E-02  0.6356E-01  0.6356E-01
    -11.982  0.4444E-02  0.4444E-02  0.6404E-01  0.6404E-01
    -11.875  0.3092E-02  0.3092E-02  0.6437E-01  0.6437E-01
    -11.768  0.3451E-02  0.3451E-02  0.6474E-01  0.6474E-01
    -11.661  0.4706E-02  0.4706E-02  0.6524E-01  0.6524E-01
    -11.554  0.7048E-02  0.7048E-02  0.6600E-01  0.6600E-01
    -11.447  0.5010E-02  0.5010E-02  0.6653E-01  0.6653E-01
    -11.340  0.1872E-02  0.1872E-02  0.6673E-01  0.6673E-01
    -11.233  0.3811E-02  0.3811E-02  0.6714E-01  0.6714E-01
    -11.126  0.5810E-02  0.5810E-02  0.6776E-01  0.6776E-01
    -11.019  0.5558E-02  0.5558E-02  0.6836E-01  0.6836E-01
    -10.912  0.7054E-02  0.7054E-02  0.6911E-01  0.6911E-01
    -10.805  0.7082E-02  0.7082E-02  0.6987E-01  0.6987E-01
    -10.698  0.3110E-02  0.3110E-02  0.7020E-01  0.7020E-01
    -10.591  0.7598E-02  0.7598E-02  0.7101E-01  0.7101E-01
    -10.484  0.1295E-01  0.1295E-01  0.7240E-01  0.7240E-01
    -10.377  0.1504E-01  0.1504E-01  0.7401E-01  0.7401E-01
    -10.270  0.1587E-01  0.1587E-01  0.7571E-01  0.7571E-01
    -10.163  0.1545E-01  0.1545E-01  0.7736E-01  0.7736E-01
    -10.056  0.1684E-01  0.1684E-01  0.7916E-01  0.7916E-01
     -9.949  0.1676E-01  0.1676E-01  0.8095E-01  0.8095E-01
     -9.842  0.1031E-01  0.1031E-01  0.8206E-01  0.8206E-01
     -9.736  0.9078E-02  0.9078E-02  0.8303E-01  0.8303E-01
     -9.629  0.1349E-01  0.1349E-01  0.8447E-01  0.8447E-01
     -9.522  0.1227E-01  0.1227E-01  0.8578E-01  0.8578E-01
     -9.415  0.1589E-01  0.1589E-01  0.8748E-01  0.8748E-01
     -9.308  0.1868E-01  0.1868E-01  0.8948E-01  0.8948E-01
     -9.201  0.1421E-01  0.1421E-01  0.9100E-01  0.9100E-01
     -9.094  0.9724E-02  0.9724E-02  0.9204E-01  0.9204E-01
     -8.987  0.6230E-02  0.6230E-02  0.9270E-01  0.9270E-01
     -8.880  0.1522E-01  0.1522E-01  0.9433E-01  0.9433E-01
     -8.773  0.2225E-01  0.2225E-01  0.9671E-01  0.9671E-01
     -8.666  0.1449E-01  0.1449E-01  0.9826E-01  0.9826E-01
     -8.559  0.7972E-02  0.7972E-02  0.9911E-01  0.9911E-01
     -8.452  0.1074E-01  0.1074E-01  0.1003E+00  0.1003E+00
     -8.345  0.1930E-01  0.1930E-01  0.1023E+00  0.1023E+00
     -8.238  0.1929E-01  0.1929E-01  0.1044E+00  0.1044E+00
     -8.131  0.1236E-01  0.1236E-01  0.1057E+00  0.1057E+00
     -8.024  0.1590E-01  0.1590E-01  0.1074E+00  0.1074E+00
     -7.917  0.2340E-01  0.2340E-01  0.1099E+00  0.1099E+00
     -7.810  0.2390E-01  0.2390E-01  0.1125E+00  0.1125E+00
     -7.703  0.2127E-01  0.2127E-01  0.1147E+00  0.1147E+00
     -7.596  0.1163E-01  0.1163E-01  0.1160E+00  0.1160E+00
     -7.489  0.6986E-02  0.6986E-02  0.1167E+00  0.1167E+00
     -7.382  0.1656E-01  0.1656E-01  0.1185E+00  0.1185E+00
     -7.275  0.1850E-01  0.1850E-01  0.1205E+00  0.1205E+00
     -7.168  0.1243E-01  0.1243E-01  0.1218E+00  0.1218E+00
     -7.061  0.1180E-01  0.1180E-01  0.1231E+00  0.1231E+00
     -6.955  0.1617E-01  0.1617E-01  0.1248E+00  0.1248E+00
     -6.848  0.1767E-01  0.1767E-01  0.1267E+00  0.1267E+00
     -6.741  0.1833E-01  0.1833E-01  0.1287E+00  0.1287E+00
     -6.634  0.2227E-01  0.2227E-01  0.1310E+00  0.1310E+00
     -6.527  0.2071E-01  0.2071E-01  0.1333E+00  0.1333E+00
     -6.420  0.2132E-01  0.2132E-01  0.1355E+00  0.1355E+00
     -6.313  0.1697E-01  0.1697E-01  0.1374E+00  0.1374E+00
     -6.206  0.1734E-01  0.1734E-01  0.1392E+00  0.1392E+00
     -6.099  0.2474E-01  0.2474E-01  0.1419E+00  0.1419E+00
     -5.992  0.2557E-01  0.2557E-01  0.1446E+00  0.1446E+00
     -5.885  0.3052E-01  0.3052E-01  0.1479E+00  0.1479E+00
     -5.778  0.2599E-01  0.2599E-01  0.1506E+00  0.1506E+00
     -5.671  0.1852E-01  0.1852E-01  0.1526E+00  0.1526E+00
     -5.564  0.2127E-01  0.2127E-01  0.1549E+00  0.1549E+00
     -5.457  0.3161E-01  0.3161E-01  0.1583E+00  0.1583E+00
     -5.350  0.3311E-01  0.3311E-01  0.1618E+00  0.1618E+00
     -5.243  0.2309E-01  0.2309E-01  0.1643E+00  0.1643E+00
     -5.136  0.1699E-01  0.1699E-01  0.1661E+00  0.1661E+00
     -5.029  0.1037E-01  0.1037E-01  0.1672E+00  0.1672E+00
     -4.922  0.8973E-02  0.8973E-02  0.1682E+00  0.1682E+00
     -4.815  0.1375E-01  0.1375E-01  0.1696E+00  0.1696E+00
     -4.708  0.1265E-01  0.1265E-01  0.1710E+00  0.1710E+00
     -4.601  0.8683E-02  0.8683E-02  0.1719E+00  0.1719E+00
     -4.494  0.8449E-02  0.8449E-02  0.1728E+00  0.1728E+00
     -4.387  0.1368E-01  0.1368E-01  0.1743E+00  0.1743E+00
     -4.281  0.2339E-01  0.2339E-01  0.1768E+00  0.1768E+00
     -4.174  0.2129E-01  0.2129E-01  0.1791E+00  0.1791E+00
     -4.067  0.1801E-01  0.1801E-01  0.1810E+00  0.1810E+00
     -3.960  0.2013E-01  0.2013E-01  0.1831E+00  0.1831E+00
     -3.853  0.2508E-01  0.2508E-01  0.1858E+00  0.1858E+00
     -3.746  0.1924E-01  0.1924E-01  0.1879E+00  0.1879E+00
     -3.639  0.1872E-01  0.1872E-01  0.1899E+00  0.1899E+00
     -3.532  0.1953E-01  0.1953E-01  0.1920E+00  0.1920E+00
     -3.425  0.1648E-01  0.1648E-01  0.1937E+00  0.1937E+00
     -3.318  0.1258E-01  0.1258E-01  0.1951E+00  0.1951E+00
     -3.211  0.1332E-01  0.1332E-01  0.1965E+00  0.1965E+00
     -3.104  0.1820E-01  0.1820E-01  0.1985E+00  0.1985E+00
     -2.997  0.1758E-01  0.1758E-01  0.2003E+00  0.2003E+00
     -2.890  0.1210E-01  0.1210E-01  0.2016E+00  0.2016E+00
     -2.783  0.1241E-01  0.1241E-01  0.2030E+00  0.2030E+00
     -2.676  0.8038E-02  0.8038E-02  0.2038E+00  0.2038E+00
     -2.569  0.9642E-02  0.9641E-02  0.2049E+00  0.2049E+00
     -2.462  0.1736E-01  0.1736E-01  0.2067E+00  0.2067E+00
     -2.355  0.1660E-01  0.1660E-01  0.2085E+00  0.2085E+00
     -2.248  0.4647E-02  0.4647E-02  0.2090E+00  0.2090E+00
     -2.141  0.5143E-02  0.5142E-02  0.2095E+00  0.2095E+00
     -2.034  0.1033E-01  0.1033E-01  0.2106E+00  0.2106E+00
     -1.927  0.9341E-02  0.9341E-02  0.2116E+00  0.2116E+00
     -1.820  0.1065E-01  0.1065E-01  0.2128E+00  0.2128E+00
     -1.713  0.1095E-01  0.1095E-01  0.2139E+00  0.2139E+00
     -1.607  0.1021E-01  0.1021E-01  0.2150E+00  0.2150E+00
     -1.500  0.8056E-02  0.8056E-02  0.2159E+00  0.2159E+00
     -1.393  0.3804E-02  0.3804E-02  0.2163E+00  0.2163E+00
     -1.286  0.4090E-02  0.4090E-02  0.2167E+00  0.2167E+00
     -1.179  0.4389E-02  0.4389E-02  0.2172E+00  0.2172E+00
     -1.072  0.3181E-02  0.3181E-02  0.2176E+00  0.2176E+00
     -0.965  0.5145E-02  0.5145E-02  0.2181E+00  0.2181E+00
     -0.858  0.4055E-02  0.4055E-02  0.2185E+00  0.2185E+00
     -0.751  0.8996E-03  0.8997E-03  0.2186E+00  0.2186E+00
     -0.644  0.9099E-04  0.9100E-04  0.2186E+00  0.2186E+00
     -0.537  0.2528E-05  0.2528E-05  0.2186E+00  0.2186E+00
     -0.430  0.1322E-04  0.1322E-04  0.2186E+00  0.2186E+00
     -0.323  0.3226E-03  0.3226E-03  0.2187E+00  0.2187E+00
     -0.216  0.1094E-02  0.1094E-02  0.2188E+00  0.2188E+00
     -0.109  0.5583E-03  0.5582E-03  0.2189E+00  0.2189E+00
     -0.002  0.4088E-04  0.4088E-04  0.2189E+00  0.2189E+00
      0.105  0.3892E-06  0.3892E-06  0.2189E+00  0.2189E+00
      0.212  0.4358E-05  0.4359E-05  0.2189E+00  0.2189E+00
      0.319  0.2804E-03  0.2804E-03  0.2189E+00  0.2189E+00
      0.426  0.2357E-02  0.2357E-02  0.2191E+00  0.2191E+00
      0.533  0.2915E-02  0.2915E-02  0.2195E+00  0.2195E+00
      0.640  0.1047E-02  0.1047E-02  0.2196E+00  0.2196E+00
      0.747  0.3459E-02  0.3459E-02  0.2199E+00  0.2199E+00
      0.854  0.6116E-02  0.6116E-02  0.2206E+00  0.2206E+00
      0.961  0.9202E-02  0.9201E-02  0.2216E+00  0.2216E+00
      1.068  0.2137E-01  0.2137E-01  0.2239E+00  0.2239E+00
      1.174  0.2174E-01  0.2174E-01  0.2262E+00  0.2262E+00
      1.281  0.6987E-02  0.6988E-02  0.2269E+00  0.2269E+00
      1.388  0.2585E-02  0.2585E-02  0.2272E+00  0.2272E+00
      1.495  0.5816E-02  0.5816E-02  0.2278E+00  0.2278E+00
      1.602  0.1282E-01  0.1282E-01  0.2292E+00  0.2292E+00
      1.709  0.1906E-01  0.1906E-01  0.2312E+00  0.2312E+00
      1.816  0.1533E-01  0.1533E-01  0.2329E+00  0.2329E+00
      1.923  0.8737E-02  0.8737E-02  0.2338E+00  0.2338E+00
      2.030  0.6881E-02  0.6881E-02  0.2346E+00  0.2346E+00
      2.137  0.1031E-01  0.1031E-01  0.2357E+00  0.2357E+00
      2.244  0.7607E-02  0.7607E-02  0.2365E+00  0.2365E+00
      2.351  0.8006E-02  0.8006E-02  0.2373E+00  0.2373E+00
      2.458  0.7675E-02  0.7675E-02  0.2381E+00  0.2381E+00
      2.565  0.6569E-02  0.6569E-02  0.2388E+00  0.2388E+00
      2.672  0.1240E-01  0.1240E-01  0.2402E+00  0.2402E+00
      2.779  0.9764E-02  0.9764E-02  0.2412E+00  0.2412E+00
      2.886  0.5345E-02  0.5344E-02  0.2418E+00  0.2418E+00
      2.993  0.7290E-02  0.7289E-02  0.2426E+00  0.2426E+00
      3.100  0.1076E-01  0.1076E-01  0.2437E+00  0.2437E+00
      3.207  0.1117E-01  0.1117E-01  0.2449E+00  0.2449E+00
      3.314  0.9735E-02  0.9735E-02  0.2460E+00  0.2460E+00
      3.421  0.1010E-01  0.1010E-01  0.2470E+00  0.2470E+00
      3.528  0.8465E-02  0.8465E-02  0.2479E+00  0.2479E+00
      3.635  0.1592E-01  0.1592E-01  0.2496E+00  0.2496E+00
      3.742  0.2213E-01  0.2213E-01  0.2520E+00  0.2520E+00
      3.848  0.2226E-01  0.2226E-01  0.2544E+00  0.2544E+00
      3.955  0.2086E-01  0.2086E-01  0.2566E+00  0.2566E+00
      4.062  0.2185E-01  0.2185E-01  0.2590E+00  0.2590E+00
      4.169  0.2538E-01  0.2539E-01  0.2617E+00  0.2617E+00
      4.276  0.2513E-01  0.2513E-01  0.2644E+00  0.2644E+00
      4.383  0.2461E-01  0.2461E-01  0.2670E+00  0.2670E+00
      4.490  0.2497E-01  0.2497E-01  0.2697E+00  0.2697E+00
      4.597  0.2331E-01  0.2331E-01  0.2722E+00  0.2722E+00
      4.704  0.2037E-01  0.2037E-01  0.2743E+00  0.2743E+00
      4.811  0.2426E-01  0.2427E-01  0.2769E+00  0.2769E+00
      4.918  0.2813E-01  0.2813E-01  0.2799E+00  0.2799E+00
      5.025  0.2340E-01  0.2340E-01  0.2824E+00  0.2824E+00
      5.132  0.2363E-01  0.2362E-01  0.2850E+00  0.2850E+00
      5.239  0.2550E-01  0.2550E-01  0.2877E+00  0.2877E+00
      5.346  0.1927E-01  0.1927E-01  0.2898E+00  0.2898E+00
      5.453  0.2233E-01  0.2233E-01  0.2922E+00  0.2922E+00
      5.560  0.2450E-01  0.2450E-01  0.2948E+00  0.2948E+00
      5.667  0.3017E-01  0.3017E-01  0.2980E+00  0.2980E+00
      5.774  0.2129E-01  0.2129E-01  0.3003E+00  0.3003E+00
      5.881  0.1964E-01  0.1964E-01  0.3024E+00  0.3024E+00
      5.988  0.2091E-01  0.2091E-01  0.3046E+00  0.3046E+00
      6.095  0.2242E-01  0.2242E-01  0.3070E+00  0.3070E+00
      6.202  0.1600E-01  0.1600E-01  0.3087E+00  0.3087E+00
      6.309  0.1601E-01  0.1601E-01  0.3104E+00  0.3104E+00
      6.416  0.2092E-01  0.2092E-01  0.3127E+00  0.3127E+00
      6.522  0.2563E-01  0.2563E-01  0.3154E+00  0.3154E+00
      6.629  0.2543E-01  0.2543E-01  0.3181E+00  0.3181E+00
      6.736  0.2229E-01  0.2230E-01  0.3205E+00  0.3205E+00
      6.843  0.3123E-01  0.3124E-01  0.3239E+00  0.3239E+00
      6.950  0.3001E-01  0.3001E-01  0.3271E+00  0.3271E+00
      7.057  0.2607E-01  0.2607E-01  0.3299E+00  0.3299E+00
      7.164  0.2733E-01  0.2733E-01  0.3328E+00  0.3328E+00
      7.271  0.2328E-01  0.2327E-01  0.3353E+00  0.3353E+00
      7.378  0.1680E-01  0.1680E-01  0.3371E+00  0.3371E+00
      7.485  0.2091E-01  0.2089E-01  0.3393E+00  0.3393E+00
      7.592  0.2509E-01  0.2508E-01  0.3420E+00  0.3420E+00
      7.699  0.2081E-01  0.2081E-01  0.3442E+00  0.3442E+00
      7.806  0.2450E-01  0.2449E-01  0.3468E+00  0.3468E+00
      7.913  0.2888E-01  0.2889E-01  0.3499E+00  0.3499E+00
      8.020  0.3172E-01  0.3173E-01  0.3533E+00  0.3533E+00
      8.127  0.3281E-01  0.3281E-01  0.3568E+00  0.3568E+00
      8.234  0.3228E-01  0.3229E-01  0.3603E+00  0.3603E+00
      8.341  0.2796E-01  0.2796E-01  0.3633E+00  0.3633E+00
      8.448  0.3261E-01  0.3261E-01  0.3668E+00  0.3668E+00
      8.555  0.3562E-01  0.3562E-01  0.3706E+00  0.3706E+00
      8.662  0.2148E-01  0.2149E-01  0.3729E+00  0.3729E+00
      8.769  0.1134E-01  0.1134E-01  0.3741E+00  0.3741E+00
      8.876  0.4986E-02  0.4985E-02  0.3746E+00  0.3746E+00
      8.983  0.3012E-02  0.3012E-02  0.3749E+00  0.3749E+00
      9.090  0.6265E-03  0.6268E-03  0.3750E+00  0.3750E+00
      9.196  0.2175E-04  0.2177E-04  0.3750E+00  0.3750E+00
      9.303  0.1013E-06  0.1013E-06  0.3750E+00  0.3750E+00
      9.410  0.5542E-10  0.5549E-10  0.3750E+00  0.3750E+00
      9.517  0.3336E-14  0.3341E-14  0.3750E+00  0.3750E+00
      9.624  0.0000E+00  0.0000E+00  0.3750E+00  0.3750E+00
      9.731  0.0000E+00  0.0000E+00  0.3750E+00  0.3750E+00
      9.838  0.0000E+00  0.0000E+00  0.3750E+00  0.3750E+00
      9.945  0.0000E+00  0.0000E+00  0.3750E+00  0.3750E+00
     10.052  0.0000E+00  0.0000E+00  0.3750E+00  0.3750E+00
     10.159  0.0000E+00  0.0000E+00  0.3750E+00  0.3750E+00
     10.266  0.0000E+00  0.0000E+00  0.3750E+00  0.3750E+00
     10.373  0.0000E+00  0.0000E+00  0.3750E+00  0.3750E+00
