Lattice                                 
           1
     4.182903    2.415000    0.000000
    -4.182903    2.415000    0.000000
     0.000000    0.000000   15.000000
   B    C 
     4    11
Direct configuration=     1
   0.00415361  0.00267210  0.12034134
   0.35695335  0.00285503  0.09748893
   0.00423858  0.35550699  0.09749256
   0.65142295  0.65006557  0.09747688
   0.32808646  0.32671938  0.10030508
   0.68027775  0.00278085  0.10027562
   0.00416530  0.67883808  0.10026559
   0.08333267  0.41666633  0.33646667
   0.24999967  0.24999933  0.33646667
   0.08333267  0.91666633  0.33646667
   0.24999967  0.74999933  0.33646667
   0.58333267  0.41666633  0.33646667
   0.74999967  0.24999933  0.33646667
   0.58333267  0.91666633  0.33646667
   0.74999967  0.74999933  0.33646667
Direct configuration=     2
   0.00414422  0.00267455  0.11922816
   0.35580282  0.00282771  0.09778612
   0.00413811  0.35456009  0.09784674
   0.65249240  0.65097546  0.09781768
   0.32509637  0.32349687  0.10029836
   0.68364214  0.00285600  0.10032257
   0.00417368  0.68187360  0.10027420
   0.08331780  0.41677994  0.33646228
   0.25018094  0.25026764  0.33655783
   0.08349850  0.91679217  0.33644953
   0.25029705  0.74995574  0.33643530
   0.58328324  0.41664473  0.33642075
   0.74993253  0.25000079  0.33646066
   0.58309223  0.91661824  0.33653546
   0.74953531  0.74977714  0.33648368
Direct configuration=     3
   0.00414913  0.00267327  0.11981033
   0.35640452  0.00284200  0.09763070
   0.00419065  0.35505530  0.09766151
   0.65193311  0.65049961  0.09763945
   0.32666012  0.32518217  0.10030187
   0.68188264  0.00281670  0.10029802
   0.00416930  0.68028610  0.10026970
   0.08332558  0.41672053  0.33646457
   0.25008614  0.25012732  0.33651015
   0.08341178  0.91672636  0.33645849
   0.25014153  0.74997854  0.33645171
   0.58330909  0.41665603  0.33644477
   0.74996764  0.25000003  0.33646380
   0.58321797  0.91664339  0.33649948
   0.74977816  0.74989334  0.33647478
Direct configuration=     4
   0.00415035  0.00269954  0.11882928
   0.35685947  0.00280498  0.09791064
   0.00415781  0.35547948  0.09799893
   0.65157754  0.64997314  0.09796254
   0.32678421  0.32513646  0.10026619
   0.68189291  0.00285201  0.10031371
   0.00418278  0.68021249  0.10024870
   0.08328335  0.41665688  0.33646620
   0.24988893  0.24998758  0.33658370
   0.08321705  0.91664335  0.33645357
   0.24983930  0.75005990  0.33642549
   0.58331948  0.41667798  0.33641386
   0.74996951  0.25002924  0.33645758
   0.58339995  0.91675368  0.33656018
   0.75010471  0.75013394  0.33648875
Direct configuration=     5
   0.00415329  0.00276249  0.11647885
   0.35794945  0.00271630  0.09858134
   0.00407912  0.35649576  0.09880733
   0.65072567  0.64871181  0.09873659
   0.32708150  0.32502696  0.10018072
   0.68191750  0.00293663  0.10035132
   0.00421507  0.68003614  0.10019840
   0.08318217  0.41650440  0.33647010
   0.24941647  0.24965278  0.33675992
   0.08275051  0.91644446  0.33644179
   0.24911522  0.75025482  0.33636267
   0.58334438  0.41673058  0.33633980
   0.74997400  0.25009923  0.33644267
   0.58383593  0.91701793  0.33670560
   0.75088707  0.75071038  0.33652221
Direct configuration=     6
   0.00415696  0.00276680  0.11620604
   0.35805512  0.00270570  0.09864823
   0.00408123  0.35658515  0.09888723
   0.65064763  0.64859650  0.09881321
   0.32714872  0.32506291  0.10018414
   0.68187115  0.00293399  0.10036704
   0.00422173  0.67997927  0.10020546
   0.08318269  0.41655021  0.33647161
   0.24946955  0.24970357  0.33677325
   0.08280678  0.91650655  0.33644326
   0.24921126  0.75024358  0.33635893
   0.58331845  0.41674776  0.33633638
   0.74996186  0.25010367  0.33644193
   0.58374304  0.91698571  0.33671737
   0.75075117  0.75062927  0.33652525
Direct configuration=     7
   0.00416797  0.00277974  0.11538761
   0.35837212  0.00267389  0.09884892
   0.00408753  0.35685334  0.09912695
   0.65041351  0.64825059  0.09904305
   0.32735035  0.32517077  0.10019440
   0.68173212  0.00292607  0.10041418
   0.00424170  0.67980867  0.10022663
   0.08318428  0.41668766  0.33647613
   0.24962879  0.24985594  0.33681325
   0.08297561  0.91669285  0.33644764
   0.24949938  0.75020986  0.33634770
   0.58324069  0.41679931  0.33632612
   0.74992544  0.25011700  0.33643970
   0.58346436  0.91688906  0.33675267
   0.75034348  0.75038595  0.33653439
Direct configuration=     8
   0.00418998  0.00280560  0.11375074
   0.35900613  0.00261026  0.09925029
   0.00410014  0.35738971  0.09960639
   0.64994528  0.64755876  0.09950273
   0.32775363  0.32538648  0.10021491
   0.68145406  0.00291023  0.10050847
   0.00428166  0.67946746  0.10026897
   0.08318745  0.41696255  0.33648516
   0.24994728  0.25016068  0.33689325
   0.08331328  0.91706543  0.33645642
   0.25007562  0.75014242  0.33632525
   0.58308515  0.41690240  0.33630559
   0.74985259  0.25014366  0.33643524
   0.58290699  0.91669575  0.33682327
   0.74952811  0.74989929  0.33655267
Direct configuration=     9
   0.00420711  0.00279268  0.11339163
   0.35898306  0.00259620  0.09929832
   0.00413753  0.35734005  0.09965833
   0.64998821  0.64759476  0.09955349
   0.32780704  0.32545217  0.10027088
   0.68138930  0.00286573  0.10057143
   0.00430151  0.67941016  0.10032711
   0.08318171  0.41694197  0.33649041
   0.24994736  0.25025803  0.33688379
   0.08329624  0.91700539  0.33646751
   0.25005657  0.75016061  0.33633502
   0.58309109  0.41685190  0.33632015
   0.74980939  0.25015670  0.33643904
   0.58293149  0.91672422  0.33681793
   0.74949972  0.74995010  0.33655431
Direct configuration=    10
   0.00425850  0.00275394  0.11231428
   0.35891383  0.00255402  0.09944240
   0.00424971  0.35719106  0.09981412
   0.65011700  0.64770277  0.09970576
   0.32796725  0.32564923  0.10043880
   0.68119504  0.00273223  0.10076033
   0.00436107  0.67923828  0.10050155
   0.08316449  0.41688022  0.33650616
   0.24994762  0.25055010  0.33685543
   0.08324513  0.91682527  0.33650078
   0.24999943  0.75021518  0.33636433
   0.58310893  0.41670039  0.33636381
   0.74967979  0.25019583  0.33645043
   0.58300498  0.91680962  0.33680192
   0.74941456  0.75010252  0.33655923
Direct configuration=    11
   0.00436128  0.00267645  0.11015957
   0.35877538  0.00246966  0.09973056
   0.00447407  0.35689308  0.10012572
   0.65037458  0.64791878  0.10001031
   0.32828767  0.32604336  0.10077464
   0.68080653  0.00246524  0.10113812
   0.00448020  0.67889451  0.10085041
   0.08313005  0.41675672  0.33653767
   0.24994813  0.25113422  0.33679871
   0.08314292  0.91646505  0.33656733
   0.24988513  0.75032432  0.33642296
   0.58314459  0.41639738  0.33645115
   0.74942058  0.25027410  0.33647321
   0.58315198  0.91698042  0.33676990
   0.74924423  0.75040737  0.33656907
Direct configuration=    12
   0.00438188  0.00265570  0.10978146
   0.35876186  0.00245608  0.09978054
   0.00451266  0.35685971  0.10017473
   0.65040149  0.64794754  0.10005955
   0.32833185  0.32609974  0.10083820
   0.68075904  0.00242144  0.10120515
   0.00450197  0.67883638  0.10091534
   0.08309249  0.41679072  0.33654263
   0.24990652  0.25102948  0.33678536
   0.08310759  0.91653263  0.33657935
   0.24985041  0.75031397  0.33643752
   0.58312579  0.41647659  0.33646859
   0.74945020  0.25026688  0.33647968
   0.58313986  0.91701372  0.33675948
   0.74930374  0.75040011  0.33657176
Direct configuration=    13
   0.00444366  0.00259343  0.10864711
   0.35872130  0.00241533  0.09993048
   0.00462842  0.35675962  0.10032178
   0.65048220  0.64803379  0.10020725
   0.32846441  0.32626890  0.10102887
   0.68061658  0.00229001  0.10140627
   0.00456726  0.67866197  0.10111010
   0.08297982  0.41689272  0.33655750
   0.24978169  0.25071525  0.33674528
   0.08300159  0.91673536  0.33661540
   0.24974623  0.75028292  0.33648121
   0.58306938  0.41671422  0.33652091
   0.74953905  0.25024519  0.33649910
   0.58310349  0.91711360  0.33672822
   0.74948225  0.75037834  0.33657985
Direct configuration=    14
   0.00456722  0.00246889  0.10637841
   0.35864018  0.00233383  0.10023037
   0.00485994  0.35655943  0.10061588
   0.65064363  0.64820629  0.10050266
   0.32872951  0.32660722  0.10141021
   0.68033165  0.00202716  0.10180851
   0.00469784  0.67831317  0.10149963
   0.08275449  0.41709673  0.33658723
   0.24953203  0.25008680  0.33666513
   0.08278960  0.91714084  0.33668751
   0.24953788  0.75022081  0.33656858
   0.58295656  0.41718949  0.33662555
   0.74971676  0.25020183  0.33653794
   0.58303076  0.91731337  0.33666571
   0.74983928  0.75033480  0.33659601
Direct configuration=    15
   0.00449430  0.00254239  0.10771728
   0.35868805  0.00238193  0.10005339
   0.00472331  0.35667757  0.10044232
   0.65054836  0.64810449  0.10032833
   0.32857306  0.32640756  0.10118516
   0.68049980  0.00218228  0.10157113
   0.00462078  0.67851902  0.10126975
   0.08288747  0.41697634  0.33656968
   0.24967937  0.25045768  0.33671243
   0.08291471  0.91690155  0.33664495
   0.24966084  0.75025746  0.33651702
   0.58302314  0.41690901  0.33656380
   0.74961189  0.25022742  0.33651502
   0.58307368  0.91719547  0.33670260
   0.74962858  0.75036050  0.33658647
Direct configuration=    16
   0.00449787  0.00252857  0.10767451
   0.35877914  0.00238376  0.10007725
   0.00470950  0.35677364  0.10045587
   0.65045267  0.64801482  0.10034498
   0.32854622  0.32635574  0.10118208
   0.68056399  0.00220673  0.10155968
   0.00461934  0.67853246  0.10126510
   0.08292042  0.41698829  0.33656789
   0.24966221  0.25039267  0.33671299
   0.08295760  0.91697036  0.33664282
   0.24967803  0.75029516  0.33652405
   0.58299706  0.41695363  0.33656352
   0.74962574  0.25027341  0.33652057
   0.58300934  0.91709939  0.33669738
   0.74960821  0.75033203  0.33659064
Direct configuration=    17
   0.00450857  0.00248713  0.10754619
   0.35905239  0.00238924  0.10014885
   0.00466807  0.35706184  0.10049653
   0.65016559  0.64774583  0.10039492
   0.32846570  0.32620027  0.10117284
   0.68075655  0.00228009  0.10152533
   0.00461504  0.67857279  0.10125117
   0.08301926  0.41702415  0.33656250
   0.24961072  0.25019765  0.33671465
   0.08308628  0.91717681  0.33663643
   0.24972961  0.75040827  0.33654516
   0.58291883  0.41708749  0.33656269
   0.74966731  0.25041137  0.33653723
   0.58281630  0.91681112  0.33668172
   0.74954711  0.75024662  0.33660313
Direct configuration=    18
   0.00451273  0.00246717  0.10750775
   0.35919454  0.00239242  0.10018869
   0.00464260  0.35717902  0.10051583
   0.65002986  0.64761457  0.10042023
   0.32842234  0.32611454  0.10116073
   0.68085306  0.00232485  0.10149491
   0.00460962  0.67861418  0.10123569
   0.08301437  0.41702047  0.33656080
   0.24962623  0.25027640  0.33671639
   0.08304205  0.91710901  0.33663271
   0.24969804  0.75039324  0.33655407
   0.58291934  0.41704430  0.33656161
   0.74963333  0.25038050  0.33654486
   0.58286438  0.91688248  0.33667643
   0.74956485  0.75028753  0.33660863
Direct configuration=    19
   0.00452026  0.00243102  0.10743813
   0.35945203  0.00239816  0.10026086
   0.00459645  0.35739128  0.10055078
   0.64978401  0.64737681  0.10046607
   0.32834379  0.32595925  0.10113879
   0.68102786  0.00240593  0.10143982
   0.00459982  0.67868913  0.10120765
   0.08300551  0.41701380  0.33655772
   0.24965432  0.25041903  0.33671954
   0.08296193  0.91698619  0.33662598
   0.24964086  0.75036602  0.33657021
   0.58292028  0.41696608  0.33655966
   0.74957178  0.25032457  0.33655867
   0.58295146  0.91701175  0.33666685
   0.74959698  0.75036163  0.33661860
Direct configuration=    20
   0.00452626  0.00241795  0.10740439
   0.35950671  0.00239981  0.10029515
   0.00458397  0.35738981  0.10056372
   0.64975284  0.64734029  0.10048510
   0.32833592  0.32592513  0.10113168
   0.68106056  0.00242981  0.10141161
   0.00459606  0.67871346  0.10119686
   0.08294952  0.41702291  0.33656031
   0.24963757  0.25038351  0.33671948
   0.08296823  0.91703382  0.33662611
   0.24966400  0.75035176  0.33657362
   0.58294151  0.41699682  0.33656152
   0.74959923  0.25032656  0.33656183
   0.58293530  0.91703533  0.33666812
   0.74956965  0.75033369  0.33661982
Direct configuration=    21
   0.00453083  0.00240799  0.10737867
   0.35954840  0.00240107  0.10032130
   0.00457446  0.35738870  0.10057358
   0.64972907  0.64731244  0.10049961
   0.32832991  0.32589911  0.10112626
   0.68108549  0.00244802  0.10139011
   0.00459319  0.67873200  0.10118864
   0.08290684  0.41702985  0.33656228
   0.24962480  0.25035644  0.33671943
   0.08297304  0.91707012  0.33662621
   0.24968164  0.75034088  0.33657622
   0.58295769  0.41702026  0.33656295
   0.74962016  0.25032808  0.33656425
   0.58292298  0.91705331  0.33666909
   0.74954882  0.75031239  0.33662075
Direct configuration=    22
   0.00454156  0.00239355  0.10732997
   0.35955607  0.00240257  0.10035994
   0.00456952  0.35733901  0.10058476
   0.64975077  0.64732260  0.10051855
   0.32834844  0.32589523  0.10112422
   0.68109038  0.00245873  0.10135910
   0.00459208  0.67872440  0.10118160
   0.08291602  0.41702907  0.33656788
   0.24961188  0.25035754  0.33671884
   0.08298112  0.91708307  0.33662858
   0.24967653  0.75036965  0.33657797
   0.58294512  0.41702658  0.33656697
   0.74961295  0.25035722  0.33656630
   0.58290100  0.91701941  0.33667422
   0.74953392  0.75032203  0.33662043
Direct configuration=    23
   0.00456572  0.00236102  0.10722026
   0.35957335  0.00240595  0.10044698
   0.00455839  0.35722710  0.10060992
   0.64979964  0.64734549  0.10056121
   0.32839015  0.32588650  0.10111963
   0.68110138  0.00248285  0.10128927
   0.00458956  0.67870728  0.10116575
   0.08293669  0.41702732  0.33658049
   0.24958278  0.25036002  0.33671751
   0.08299931  0.91711222  0.33663392
   0.24966500  0.75043445  0.33658194
   0.58291680  0.41704082  0.33657605
   0.74959671  0.25042286  0.33657092
   0.58285149  0.91694305  0.33668579
   0.74950037  0.75034374  0.33661971
Direct configuration=    24
   0.00457764  0.00234802  0.10716806
   0.35956282  0.00240544  0.10047552
   0.00456174  0.35719818  0.10061576
   0.64982772  0.64736163  0.10057341
   0.32841490  0.32589636  0.10112480
   0.68109996  0.00247781  0.10126848
   0.00459394  0.67867251  0.10116645
   0.08293854  0.41704582  0.33658516
   0.24958707  0.25038282  0.33671834
   0.08297015  0.91710059  0.33663613
   0.24964192  0.75042581  0.33658388
   0.58289919  0.41704216  0.33657931
   0.74957626  0.25040426  0.33657333
   0.58286087  0.91698209  0.33669055
   0.74951460  0.75035719  0.33662017
Direct configuration=    25
   0.00461029  0.00231245  0.10702521
   0.35953403  0.00240405  0.10055364
   0.00457091  0.35711904  0.10063174
   0.64990459  0.64740578  0.10060678
   0.32848262  0.32592334  0.10113892
   0.68109608  0.00246399  0.10121159
   0.00460593  0.67857738  0.10116836
   0.08294360  0.41709643  0.33659794
   0.24959881  0.25044520  0.33672061
   0.08289038  0.91706878  0.33664219
   0.24957876  0.75040218  0.33658922
   0.58285099  0.41704580  0.33658821
   0.74952030  0.25035334  0.33657993
   0.58288653  0.91708891  0.33670357
   0.74955352  0.75039399  0.33662144
Direct configuration=    26
   0.00462974  0.00229607  0.10693267
   0.35952834  0.00239543  0.10058038
   0.00458949  0.35711295  0.10063347
   0.64993138  0.64740888  0.10061538
   0.32851128  0.32593555  0.10115884
   0.68109662  0.00243501  0.10119758
   0.00462292  0.67852409  0.10118265
   0.08289840  0.41709935  0.33660284
   0.24957547  0.25044649  0.33672544
   0.08288827  0.91709634  0.33664487
   0.24958276  0.75041231  0.33659410
   0.58285948  0.41706175  0.33659148
   0.74952473  0.25037625  0.33658567
   0.58286913  0.91710380  0.33670909
   0.74951933  0.75039639  0.33662488
Direct configuration=    27
   0.00468811  0.00224694  0.10665505
   0.35951126  0.00236957  0.10066061
   0.00464522  0.35709467  0.10063865
   0.65001178  0.64741817  0.10064118
   0.32859723  0.32597218  0.10121859
   0.68109826  0.00234805  0.10115557
   0.00467391  0.67836424  0.10122553
   0.08276283  0.41710810  0.33661755
   0.24950544  0.25045035  0.33673995
   0.08288195  0.91717904  0.33665288
   0.24959475  0.75044270  0.33660874
   0.58288493  0.41710960  0.33660130
   0.74953802  0.25044498  0.33660289
   0.58281690  0.91714847  0.33672566
   0.74941674  0.75040360  0.33663520
Direct configuration=    28
   0.00470526  0.00223585  0.10655568
   0.35954315  0.00235114  0.10067590
   0.00466946  0.35709175  0.10064020
   0.65001468  0.64738836  0.10064631
   0.32860668  0.32596224  0.10124158
   0.68110534  0.00231747  0.10115303
   0.00469507  0.67836090  0.10124462
   0.08277876  0.41712096  0.33662137
   0.24949502  0.25047156  0.33674642
   0.08287079  0.91718317  0.33665587
   0.24957226  0.75047111  0.33661458
   0.58285430  0.41711808  0.33660431
   0.74951086  0.25046540  0.33660927
   0.58279743  0.91713608  0.33672993
   0.74940828  0.75042658  0.33664026
Direct configuration=    29
   0.00475671  0.00220261  0.10625756
   0.35963881  0.00229585  0.10072179
   0.00474218  0.35708301  0.10064483
   0.65002340  0.64729895  0.10066172
   0.32863502  0.32593242  0.10131055
   0.68112657  0.00222575  0.10114542
   0.00475855  0.67835089  0.10130188
   0.08282652  0.41715952  0.33663283
   0.24946376  0.25053518  0.33676582
   0.08283732  0.91719556  0.33666484
   0.24950480  0.75055635  0.33663209
   0.58276243  0.41714350  0.33661337
   0.74942937  0.25052666  0.33662843
   0.58273901  0.91709890  0.33674275
   0.74938288  0.75049551  0.33665544
Direct configuration=    30
   0.00485961  0.00213611  0.10566132
   0.35983014  0.00218528  0.10081358
   0.00488763  0.35706552  0.10065411
   0.65004085  0.64712012  0.10069253
   0.32869170  0.32587277  0.10144851
   0.68116904  0.00204230  0.10113020
   0.00488552  0.67833087  0.10141641
   0.08292206  0.41723663  0.33665575
   0.24940125  0.25066244  0.33680463
   0.08277038  0.91722034  0.33668278
   0.24936986  0.75072683  0.33666712
   0.58257868  0.41719435  0.33663148
   0.74926639  0.25064919  0.33666673
   0.58262216  0.91702454  0.33676838
   0.74933208  0.75063338  0.33668580
Direct configuration=    31
   0.00479555  0.00217751  0.10603249
   0.35971103  0.00225411  0.10075644
   0.00479709  0.35707641  0.10064834
   0.65002999  0.64723144  0.10067335
   0.32865642  0.32590990  0.10136263
   0.68114260  0.00215650  0.10113968
   0.00480648  0.67834333  0.10134511
   0.08286258  0.41718863  0.33664149
   0.24944017  0.25058322  0.33678047
   0.08281205  0.91720491  0.33667161
   0.24945386  0.75062071  0.33664532
   0.58269306  0.41716270  0.33662021
   0.74936785  0.25057292  0.33664289
   0.58269490  0.91707083  0.33675242
   0.74936370  0.75054756  0.33666690
Direct configuration=    32
   0.00481014  0.00216778  0.10593996
   0.35974821  0.00223453  0.10076802
   0.00481809  0.35707646  0.10065352
   0.65002671  0.64719590  0.10068004
   0.32866374  0.32589295  0.10138048
   0.68115462  0.00213346  0.10113971
   0.00482594  0.67834707  0.10136041
   0.08284724  0.41720915  0.33664531
   0.24942858  0.25058823  0.33678617
   0.08279203  0.91722174  0.33667535
   0.24943796  0.75062373  0.33665043
   0.58267655  0.41718243  0.33662380
   0.74935544  0.25057542  0.33664822
   0.58268323  0.91709638  0.33675638
   0.74935886  0.75055544  0.33667155
Direct configuration=    33
   0.00485389  0.00213862  0.10566239
   0.35985973  0.00217577  0.10080277
   0.00488111  0.35707663  0.10066905
   0.65001686  0.64708927  0.10070012
   0.32868568  0.32584208  0.10143401
   0.68119068  0.00206435  0.10113983
   0.00488433  0.67835829  0.10140629
   0.08280122  0.41727072  0.33665679
   0.24939381  0.25060327  0.33680326
   0.08273195  0.91727223  0.33668656
   0.24939027  0.75063282  0.33666575
   0.58262702  0.41724161  0.33663457
   0.74931821  0.25058292  0.33666420
   0.58264822  0.91717301  0.33676824
   0.74934434  0.75057907  0.33668549
Direct configuration=    34
   0.00494139  0.00208029  0.10510725
   0.36008278  0.00205827  0.10087226
   0.00500716  0.35707697  0.10070013
   0.64999717  0.64687601  0.10074028
   0.32872958  0.32574036  0.10154109
   0.68126280  0.00192611  0.10114005
   0.00500111  0.67838072  0.10149807
   0.08270916  0.41739386  0.33667974
   0.24932427  0.25063335  0.33683744
   0.08261181  0.91737321  0.33670897
   0.24929489  0.75065100  0.33669641
   0.58252796  0.41735997  0.33665612
   0.74924375  0.25059792  0.33669617
   0.58257821  0.91732629  0.33679197
   0.74931529  0.75062634  0.33671339
Direct configuration=    35
   0.00490268  0.00210610  0.10535284
   0.35998410  0.00211025  0.10084152
   0.00495140  0.35707682  0.10068638
   0.65000588  0.64697035  0.10072251
   0.32871016  0.32578536  0.10149372
   0.68123090  0.00198727  0.10113995
   0.00494945  0.67837079  0.10145747
   0.08274989  0.41733939  0.33666958
   0.24935503  0.25062004  0.33682232
   0.08266496  0.91732854  0.33669906
   0.24933708  0.75064296  0.33668285
   0.58257179  0.41730761  0.33664659
   0.74927669  0.25059129  0.33668203
   0.58260918  0.91725848  0.33678147
   0.74932814  0.75060543  0.33670105
Direct configuration=    36
   0.00491765  0.00209105  0.10525155
   0.36001138  0.00208822  0.10085402
   0.00496554  0.35708557  0.10070789
   0.65000791  0.64693573  0.10074119
   0.32873319  0.32575929  0.10149669
   0.68125971  0.00198134  0.10114075
   0.00496709  0.67834595  0.10146063
   0.08267659  0.41733243  0.33667567
   0.24932370  0.25063605  0.33682650
   0.08265598  0.91734758  0.33670649
   0.24933884  0.75065057  0.33668692
   0.58259664  0.41731434  0.33665376
   0.74928361  0.25061796  0.33668533
   0.58260371  0.91729692  0.33678672
   0.74928578  0.75061767  0.33670523
Direct configuration=    37
   0.00495940  0.00204911  0.10496911
   0.36008744  0.00202677  0.10088887
   0.00500498  0.35710997  0.10076786
   0.65001356  0.64683920  0.10079328
   0.32879742  0.32568659  0.10150498
   0.68134005  0.00196480  0.10114298
   0.00501629  0.67827667  0.10146944
   0.08247222  0.41731304  0.33669264
   0.24923634  0.25068069  0.33683816
   0.08263094  0.91740068  0.33672720
   0.24934375  0.75067178  0.33669830
   0.58266593  0.41733312  0.33667377
   0.74930289  0.25069236  0.33669453
   0.58258846  0.91740411  0.33680133
   0.74916767  0.75065180  0.33671689
Direct configuration=    38
   0.00497909  0.00202530  0.10484055
   0.36010646  0.00199954  0.10090541
   0.00501745  0.35710696  0.10081062
   0.65003295  0.64680857  0.10082840
   0.32884029  0.32565163  0.10149159
   0.68138101  0.00197065  0.10114554
   0.00503463  0.67822827  0.10145947
   0.08246957  0.41733263  0.33670128
   0.24922231  0.25071895  0.33684233
   0.08261208  0.91740951  0.33673862
   0.24932080  0.75070056  0.33670294
   0.58263475  0.41734377  0.33668496
   0.74926888  0.25071391  0.33669726
   0.58256477  0.91741169  0.33680811
   0.74914229  0.75067873  0.33672226
Direct configuration=    39
   0.00503816  0.00195385  0.10445486
   0.36016354  0.00191785  0.10095501
   0.00505488  0.35709793  0.10093890
   0.65009113  0.64671669  0.10093375
   0.32896889  0.32554677  0.10145140
   0.68150390  0.00198818  0.10115323
   0.00508964  0.67808307  0.10142955
   0.08246163  0.41739142  0.33672720
   0.24918023  0.25083373  0.33685483
   0.08255548  0.91743599  0.33677288
   0.24925198  0.75078690  0.33671686
   0.58254121  0.41737574  0.33671854
   0.74916684  0.25077858  0.33670548
   0.58249370  0.91743444  0.33682845
   0.74906614  0.75075953  0.33673837
Direct configuration=    40
   0.00515629  0.00181097  0.10368349
   0.36027769  0.00175447  0.10105422
   0.00512972  0.35707986  0.10119547
   0.65020749  0.64653293  0.10114447
   0.32922610  0.32533703  0.10137103
   0.68174967  0.00202325  0.10116861
   0.00519966  0.67779266  0.10136972
   0.08244573  0.41750900  0.33677904
   0.24909605  0.25106329  0.33687984
   0.08244230  0.91748897  0.33684140
   0.24911432  0.75095957  0.33674471
   0.58235413  0.41743967  0.33678570
   0.74896277  0.25090791  0.33672191
   0.58235156  0.91747995  0.33686912
   0.74891386  0.75092112  0.33677060
Direct configuration=    41
   0.00510951  0.00186755  0.10398892
   0.36023249  0.00181916  0.10101494
   0.00510008  0.35708702  0.10109388
   0.65016142  0.64660569  0.10106103
   0.32912426  0.32542008  0.10140286
   0.68165236  0.00200937  0.10116252
   0.00515610  0.67790765  0.10139341
   0.08245202  0.41746244  0.33675851
   0.24912938  0.25097240  0.33686994
   0.08248711  0.91746800  0.33681427
   0.24916883  0.75089120  0.33673368
   0.58242821  0.41741435  0.33675911
   0.74904357  0.25085670  0.33671540
   0.58240784  0.91746193  0.33685302
   0.74897416  0.75085714  0.33675784
Direct configuration=    42
   0.00513567  0.00183955  0.10383368
   0.36026322  0.00178805  0.10103299
   0.00512290  0.35704165  0.10114484
   0.65019813  0.64657683  0.10110257
   0.32916776  0.32538400  0.10138466
   0.68168223  0.00200192  0.10117153
   0.00517950  0.67788421  0.10138057
   0.08243655  0.41751220  0.33676642
   0.24910297  0.25095736  0.33687758
   0.08244964  0.91751810  0.33682535
   0.24913291  0.75090280  0.33674171
   0.58238379  0.41746970  0.33677002
   0.74902220  0.25086429  0.33672127
   0.58237304  0.91749384  0.33685928
   0.74897682  0.75086615  0.33676688
Direct configuration=    43
   0.00519702  0.00177387  0.10346942
   0.36033531  0.00171507  0.10107535
   0.00517645  0.35693521  0.10126440
   0.65028427  0.64650912  0.10120003
   0.32926984  0.32529935  0.10134198
   0.68175234  0.00198444  0.10119267
   0.00523440  0.67782923  0.10135043
   0.08240026  0.41762896  0.33678497
   0.24904099  0.25092208  0.33689551
   0.08236170  0.91763566  0.33685135
   0.24904864  0.75093001  0.33676053
   0.58227959  0.41759955  0.33679561
   0.74897205  0.25088209  0.33673504
   0.58229141  0.91756872  0.33687396
   0.74898308  0.75088731  0.33678809
Direct configuration=    44
   0.00521595  0.00176037  0.10338930
   0.36036195  0.00170375  0.10108081
   0.00520331  0.35687377  0.10128232
   0.65031480  0.64650246  0.10121468
   0.32927575  0.32529593  0.10133648
   0.68174137  0.00194823  0.10120864
   0.00525179  0.67785323  0.10134860
   0.08235690  0.41762532  0.33678490
   0.24900837  0.25092328  0.33690365
   0.08234891  0.91765201  0.33685190
   0.24903299  0.75094727  0.33676834
   0.58228813  0.41761115  0.33679632
   0.74897395  0.25091101  0.33674244
   0.58228540  0.91758641  0.33687454
   0.74896776  0.75090649  0.33679641
Direct configuration=    45
   0.00526923  0.00172237  0.10316366
   0.36043698  0.00167185  0.10109619
   0.00527897  0.35670078  0.10133279
   0.65040075  0.64648371  0.10125593
   0.32929241  0.32528629  0.10132101
   0.68171050  0.00184625  0.10125360
   0.00530078  0.67792079  0.10134347
   0.08223481  0.41761507  0.33678471
   0.24891651  0.25092667  0.33692658
   0.08231290  0.91769803  0.33685346
   0.24898891  0.75099588  0.33679032
   0.58231219  0.41764381  0.33679833
   0.74897928  0.25099246  0.33676330
   0.58226847  0.91763622  0.33687616
   0.74892463  0.75096049  0.33681983
Direct configuration=    46
   0.00529961  0.00170175  0.10307168
   0.36045760  0.00166820  0.10109958
   0.00531889  0.35667591  0.10133992
   0.65042823  0.64647633  0.10126283
   0.32929710  0.32530241  0.10132154
   0.68170056  0.00177622  0.10128480
   0.00532956  0.67789752  0.10134867
   0.08224764  0.41764098  0.33678387
   0.24892652  0.25099173  0.33693680
   0.08229661  0.91769149  0.33685178
   0.24897974  0.75101241  0.33679969
   0.58227472  0.41764083  0.33679704
   0.74893437  0.25099374  0.33677353
   0.58224766  0.91765154  0.33687799
   0.74888853  0.75097959  0.33682962
Direct configuration=    47
   0.00534689  0.00166967  0.10292855
   0.36048968  0.00166253  0.10110486
   0.00538101  0.35663722  0.10135103
   0.65047100  0.64646484  0.10127357
   0.32930440  0.32532750  0.10132236
   0.68168508  0.00166725  0.10133334
   0.00537435  0.67786131  0.10135676
   0.08226761  0.41768131  0.33678256
   0.24894211  0.25109296  0.33695270
   0.08227124  0.91768131  0.33684919
   0.24896546  0.75103813  0.33681426
   0.58221640  0.41763621  0.33679502
   0.74886448  0.25099573  0.33678946
   0.58221527  0.91767539  0.33688084
   0.74883236  0.75100931  0.33684486
Direct configuration=    48
   0.00539013  0.00163477  0.10281149
   0.36050971  0.00165809  0.10111217
   0.00542546  0.35666655  0.10134988
   0.65048710  0.64644317  0.10127638
   0.32931778  0.32534178  0.10132706
   0.68170139  0.00158493  0.10137848
   0.00541722  0.67777614  0.10136714
   0.08224306  0.41772274  0.33678675
   0.24891220  0.25107320  0.33696047
   0.08224411  0.91773501  0.33685071
   0.24894012  0.75105063  0.33682119
   0.58218412  0.41768946  0.33679734
   0.74885198  0.25101096  0.33679876
   0.58217941  0.91769966  0.33688964
   0.74882354  0.75101358  0.33685186
Direct configuration=    49
   0.00541236  0.00161683  0.10275131
   0.36052001  0.00165580  0.10111593
   0.00544831  0.35668163  0.10134929
   0.65049538  0.64643202  0.10127783
   0.32932466  0.32534913  0.10132948
   0.68170978  0.00154261  0.10140169
   0.00543927  0.67773234  0.10137247
   0.08223044  0.41774405  0.33678891
   0.24889681  0.25106304  0.33696447
   0.08223016  0.91776262  0.33685150
   0.24892709  0.75105706  0.33682476
   0.58216751  0.41771684  0.33679853
   0.74884555  0.25101878  0.33680354
   0.58216098  0.91771214  0.33689417
   0.74881900  0.75101577  0.33685546
Direct configuration=    50
   0.00543076  0.00159372  0.10269136
   0.36054842  0.00163907  0.10112835
   0.00545840  0.35668987  0.10134539
   0.65049207  0.64640396  0.10127969
   0.32933725  0.32532428  0.10133064
   0.68174362  0.00153406  0.10142095
   0.00546130  0.67771039  0.10137578
   0.08218531  0.41772551  0.33679792
   0.24884793  0.25105503  0.33696141
   0.08221660  0.91777392  0.33685792
   0.24889703  0.75109105  0.33682260
   0.58218133  0.41772604  0.33680583