   2   2   1  16
  0.3953030E+02  0.2467000E-09  0.2467000E-09  0.1500000E-08  0.5000000E-15
  1.000000000000000E-004
  CAR 
 PDoS                                    
     43.76390232    -24.87722521 4000     -2.25306217      1.00000000
    -24.877  0.0000E+00  0.0000E+00
    -24.860  0.0000E+00  0.0000E+00
    -24.843  0.0000E+00  0.0000E+00
    -24.826  0.0000E+00  0.0000E+00
    -24.809  0.0000E+00  0.0000E+00
    -24.791  0.0000E+00  0.0000E+00
    -24.774  0.0000E+00  0.0000E+00
    -24.757  0.0000E+00  0.0000E+00
    -24.740  0.0000E+00  0.0000E+00
    -24.723  0.0000E+00  0.0000E+00
    -24.706  0.0000E+00  0.0000E+00
    -24.688  0.0000E+00  0.0000E+00
    -24.671  0.0000E+00  0.0000E+00
    -24.654  0.0000E+00  0.0000E+00
    -24.637  0.0000E+00  0.0000E+00
    -24.620  0.0000E+00  0.0000E+00
    -24.603  0.0000E+00  0.0000E+00
    -24.585  0.0000E+00  0.0000E+00
    -24.568  0.0000E+00  0.0000E+00
    -24.551  0.0000E+00  0.0000E+00
    -24.534  0.0000E+00  0.0000E+00
    -24.517  0.0000E+00  0.0000E+00
    -24.500  0.0000E+00  0.0000E+00
    -24.482  0.0000E+00  0.0000E+00
    -24.465  0.0000E+00  0.0000E+00
    -24.448  0.0000E+00  0.0000E+00
    -24.431  0.0000E+00  0.0000E+00
    -24.414  0.0000E+00  0.0000E+00
    -24.397  0.0000E+00  0.0000E+00
    -24.379  0.0000E+00  0.0000E+00
    -24.362  0.0000E+00  0.0000E+00
    -24.345  0.0000E+00  0.0000E+00
    -24.328  0.0000E+00  0.0000E+00
    -24.311  0.0000E+00  0.0000E+00
    -24.294  0.0000E+00  0.0000E+00
    -24.276  0.0000E+00  0.0000E+00
    -24.259  0.0000E+00  0.0000E+00
    -24.242  0.0000E+00  0.0000E+00
    -24.225  0.0000E+00  0.0000E+00
    -24.208  0.0000E+00  0.0000E+00
    -24.191  0.0000E+00  0.0000E+00
    -24.173  0.0000E+00  0.0000E+00
    -24.156  0.0000E+00  0.0000E+00
    -24.139  0.0000E+00  0.0000E+00
    -24.122  0.0000E+00  0.0000E+00
    -24.105  0.0000E+00  0.0000E+00
    -24.088  0.0000E+00  0.0000E+00
    -24.070  0.0000E+00  0.0000E+00
    -24.053  0.0000E+00  0.0000E+00
    -24.036  0.0000E+00  0.0000E+00
    -24.019  0.0000E+00  0.0000E+00
    -24.002  0.0000E+00  0.0000E+00
    -23.985  0.0000E+00  0.0000E+00
    -23.968  0.0000E+00  0.0000E+00
    -23.950  0.0000E+00  0.0000E+00
    -23.933  0.0000E+00  0.0000E+00
    -23.916  0.0000E+00  0.0000E+00
    -23.899  0.0000E+00  0.0000E+00
    -23.882  0.0000E+00  0.0000E+00
    -23.865  0.0000E+00  0.0000E+00
    -23.847  0.0000E+00  0.0000E+00
    -23.830  0.0000E+00  0.0000E+00
    -23.813  0.0000E+00  0.0000E+00
    -23.796  0.0000E+00  0.0000E+00
    -23.779  0.0000E+00  0.0000E+00
    -23.762  0.0000E+00  0.0000E+00
    -23.744  0.0000E+00  0.0000E+00
    -23.727  0.0000E+00  0.0000E+00
    -23.710  0.0000E+00  0.0000E+00
    -23.693  0.0000E+00  0.0000E+00
    -23.676  0.0000E+00  0.0000E+00
    -23.659  0.0000E+00  0.0000E+00
    -23.641  0.0000E+00  0.0000E+00
    -23.624  0.0000E+00  0.0000E+00
    -23.607  0.0000E+00  0.0000E+00
    -23.590  0.0000E+00  0.0000E+00
    -23.573  0.0000E+00  0.0000E+00
    -23.556  0.0000E+00  0.0000E+00
    -23.538  0.0000E+00  0.0000E+00
    -23.521  0.0000E+00  0.0000E+00
    -23.504  0.0000E+00  0.0000E+00
    -23.487  0.0000E+00  0.0000E+00
    -23.470  0.0000E+00  0.0000E+00
    -23.453  0.0000E+00  0.0000E+00
    -23.435  0.0000E+00  0.0000E+00
    -23.418  0.0000E+00  0.0000E+00
    -23.401  0.0000E+00  0.0000E+00
    -23.384  0.0000E+00  0.0000E+00
    -23.367  0.0000E+00  0.0000E+00
    -23.350  0.0000E+00  0.0000E+00
    -23.332  0.0000E+00  0.0000E+00
    -23.315  0.0000E+00  0.0000E+00
    -23.298  0.0000E+00  0.0000E+00
    -23.281  0.0000E+00  0.0000E+00
    -23.264  0.0000E+00  0.0000E+00
    -23.247  0.0000E+00  0.0000E+00
    -23.229  0.0000E+00  0.0000E+00
    -23.212  0.0000E+00  0.0000E+00
    -23.195  0.0000E+00  0.0000E+00
    -23.178  0.0000E+00  0.0000E+00
    -23.161  0.0000E+00  0.0000E+00
    -23.144  0.0000E+00  0.0000E+00
    -23.126  0.0000E+00  0.0000E+00
    -23.109  0.0000E+00  0.0000E+00
    -23.092  0.0000E+00  0.0000E+00
    -23.075  0.0000E+00  0.0000E+00
    -23.058  0.0000E+00  0.0000E+00
    -23.041  0.0000E+00  0.0000E+00
    -23.023  0.0000E+00  0.0000E+00
    -23.006  0.0000E+00  0.0000E+00
    -22.989  0.0000E+00  0.0000E+00
    -22.972  0.0000E+00  0.0000E+00
    -22.955  0.0000E+00  0.0000E+00
    -22.938  0.0000E+00  0.0000E+00
    -22.920  0.0000E+00  0.0000E+00
    -22.903  0.0000E+00  0.0000E+00
    -22.886  0.0000E+00  0.0000E+00
    -22.869  0.0000E+00  0.0000E+00
    -22.852  0.0000E+00  0.0000E+00
    -22.835  0.0000E+00  0.0000E+00
    -22.817  0.0000E+00  0.0000E+00
    -22.800  0.0000E+00  0.0000E+00
    -22.783  0.0000E+00  0.0000E+00
    -22.766  0.0000E+00  0.0000E+00
    -22.749  0.0000E+00  0.0000E+00
    -22.732  0.0000E+00  0.0000E+00
    -22.714  0.0000E+00  0.0000E+00
    -22.697  0.0000E+00  0.0000E+00
    -22.680  0.0000E+00  0.0000E+00
    -22.663  0.0000E+00  0.0000E+00
    -22.646  0.0000E+00  0.0000E+00
    -22.629  0.0000E+00  0.0000E+00
    -22.612  0.0000E+00  0.0000E+00
    -22.594  0.0000E+00  0.0000E+00
    -22.577  0.0000E+00  0.0000E+00
    -22.560  0.0000E+00  0.0000E+00
    -22.543  0.0000E+00  0.0000E+00
    -22.526  0.0000E+00  0.0000E+00
    -22.509  0.0000E+00  0.0000E+00
    -22.491  0.0000E+00  0.0000E+00
    -22.474  0.0000E+00  0.0000E+00
    -22.457  0.0000E+00  0.0000E+00
    -22.440  0.0000E+00  0.0000E+00
    -22.423  0.0000E+00  0.0000E+00
    -22.406  0.0000E+00  0.0000E+00
    -22.388  0.0000E+00  0.0000E+00
    -22.371  0.0000E+00  0.0000E+00
    -22.354  0.0000E+00  0.0000E+00
    -22.337  0.1188E-16  0.2039E-18
    -22.320  0.1188E-15  0.2243E-17
    -22.303  0.8850E-15  0.1743E-16
    -22.285  0.5666E-14  0.1147E-15
    -22.268  0.3560E-13  0.7258E-15
    -22.251  0.2103E-12  0.4335E-14
    -22.234  0.1172E-11  0.2445E-13
    -22.217  0.6171E-11  0.1304E-12
    -22.200  0.3069E-10  0.6571E-12
    -22.182  0.1442E-09  0.3131E-11
    -22.165  0.6396E-09  0.1411E-10
    -22.148  0.2681E-08  0.6013E-10
    -22.131  0.1062E-07  0.2424E-09
    -22.114  0.3972E-07  0.9242E-09
    -22.097  0.1404E-06  0.3335E-08
    -22.079  0.4692E-06  0.1139E-07
    -22.062  0.1482E-05  0.3682E-07
    -22.045  0.4423E-05  0.1127E-06
    -22.028  0.1248E-04  0.3270E-06
    -22.011  0.3332E-04  0.8989E-06
    -21.994  0.8412E-04  0.2343E-05
    -21.976  0.2010E-03  0.5792E-05
    -21.959  0.4545E-03  0.1359E-04
    -21.942  0.9733E-03  0.3030E-04
    -21.925  0.1975E-02  0.6420E-04
    -21.908  0.3799E-02  0.1294E-03
    -21.891  0.6932E-02  0.2484E-03
    -21.873  0.1201E-01  0.4545E-03
    -21.856  0.1977E-01  0.7939E-03
    -21.839  0.3097E-01  0.1325E-02
    -21.822  0.4620E-01  0.2118E-02
    -21.805  0.6574E-01  0.3247E-02
    -21.788  0.8940E-01  0.4781E-02
    -21.770  0.1164E+00  0.6779E-02
    -21.753  0.1455E+00  0.9276E-02
    -21.736  0.1750E+00  0.1228E-01
    -21.719  0.2034E+00  0.1577E-01
    -21.702  0.2290E+00  0.1970E-01
    -21.685  0.2510E+00  0.2401E-01
    -21.667  0.2687E+00  0.2862E-01
    -21.650  0.2821E+00  0.3346E-01
    -21.633  0.2917E+00  0.3847E-01
    -21.616  0.2980E+00  0.4358E-01
    -21.599  0.3018E+00  0.4876E-01
    -21.582  0.3041E+00  0.5398E-01
    -21.564  0.3055E+00  0.5923E-01
    -21.547  0.3068E+00  0.6449E-01
    -21.530  0.3080E+00  0.6978E-01
    -21.513  0.3091E+00  0.7509E-01
    -21.496  0.3096E+00  0.8040E-01
    -21.479  0.3092E+00  0.8571E-01
    -21.461  0.3077E+00  0.9099E-01
    -21.444  0.3058E+00  0.9624E-01
    -21.427  0.3042E+00  0.1015E+00
    -21.410  0.3040E+00  0.1067E+00
    -21.393  0.3058E+00  0.1119E+00
    -21.376  0.3091E+00  0.1172E+00
    -21.358  0.3130E+00  0.1226E+00
    -21.341  0.3158E+00  0.1280E+00
    -21.324  0.3161E+00  0.1335E+00
    -21.307  0.3134E+00  0.1388E+00
    -21.290  0.3082E+00  0.1441E+00
    -21.273  0.3020E+00  0.1493E+00
    -21.256  0.2972E+00  0.1544E+00
    -21.238  0.2957E+00  0.1595E+00
    -21.221  0.2984E+00  0.1646E+00
    -21.204  0.3049E+00  0.1698E+00
    -21.187  0.3137E+00  0.1752E+00
    -21.170  0.3220E+00  0.1807E+00
    -21.153  0.3275E+00  0.1864E+00
    -21.135  0.3280E+00  0.1920E+00
    -21.118  0.3232E+00  0.1975E+00
    -21.101  0.3139E+00  0.2029E+00
    -21.084  0.3022E+00  0.2081E+00
    -21.067  0.2913E+00  0.2131E+00
    -21.050  0.2841E+00  0.2180E+00
    -21.032  0.2829E+00  0.2229E+00
    -21.015  0.2884E+00  0.2278E+00
    -20.998  0.2997E+00  0.2329E+00
    -20.981  0.3143E+00  0.2383E+00
    -20.964  0.3286E+00  0.2440E+00
    -20.947  0.3392E+00  0.2498E+00
    -20.929  0.3436E+00  0.2557E+00
    -20.912  0.3408E+00  0.2616E+00
    -20.895  0.3315E+00  0.2672E+00
    -20.878  0.3174E+00  0.2727E+00
    -20.861  0.3015E+00  0.2779E+00
    -20.844  0.2865E+00  0.2828E+00
    -20.826  0.2752E+00  0.2875E+00
    -20.809  0.2698E+00  0.2921E+00
    -20.792  0.2716E+00  0.2968E+00
    -20.775  0.2808E+00  0.3016E+00
    -20.758  0.2963E+00  0.3067E+00
    -20.741  0.3156E+00  0.3121E+00
    -20.723  0.3352E+00  0.3179E+00
    -20.706  0.3513E+00  0.3239E+00
    -20.689  0.3605E+00  0.3301E+00
    -20.672  0.3608E+00  0.3363E+00
    -20.655  0.3519E+00  0.3423E+00
    -20.638  0.3357E+00  0.3481E+00
    -20.620  0.3152E+00  0.3535E+00
    -20.603  0.2942E+00  0.3585E+00
    -20.586  0.2762E+00  0.3633E+00
    -20.569  0.2637E+00  0.3678E+00
    -20.552  0.2584E+00  0.3723E+00
    -20.535  0.2605E+00  0.3767E+00
    -20.517  0.2695E+00  0.3813E+00
    -20.500  0.2841E+00  0.3862E+00
    -20.483  0.3027E+00  0.3914E+00
    -20.466  0.3230E+00  0.3970E+00
    -20.449  0.3428E+00  0.4029E+00
    -20.432  0.3592E+00  0.4090E+00
    -20.414  0.3701E+00  0.4154E+00
    -20.397  0.3735E+00  0.4218E+00
    -20.380  0.3687E+00  0.4281E+00
    -20.363  0.3559E+00  0.4342E+00
    -20.346  0.3366E+00  0.4400E+00
    -20.329  0.3131E+00  0.4454E+00
    -20.311  0.2887E+00  0.4503E+00
    -20.294  0.2665E+00  0.4549E+00
    -20.277  0.2498E+00  0.4592E+00
    -20.260  0.2412E+00  0.4633E+00
    -20.243  0.2423E+00  0.4675E+00
    -20.226  0.2531E+00  0.4718E+00
    -20.208  0.2720E+00  0.4765E+00
    -20.191  0.2963E+00  0.4816E+00
    -20.174  0.3222E+00  0.4871E+00
    -20.157  0.3460E+00  0.4931E+00
    -20.140  0.3648E+00  0.4993E+00
    -20.123  0.3766E+00  0.5058E+00
    -20.105  0.3809E+00  0.5123E+00
    -20.088  0.3781E+00  0.5188E+00
    -20.071  0.3694E+00  0.5252E+00
    -20.054  0.3564E+00  0.5313E+00
    -20.037  0.3404E+00  0.5371E+00
    -20.020  0.3226E+00  0.5426E+00
    -20.002  0.3039E+00  0.5479E+00
    -19.985  0.2851E+00  0.5528E+00
    -19.968  0.2670E+00  0.5573E+00
    -19.951  0.2510E+00  0.5616E+00
    -19.934  0.2392E+00  0.5658E+00
    -19.917  0.2338E+00  0.5698E+00
    -19.899  0.2372E+00  0.5738E+00
    -19.882  0.2507E+00  0.5781E+00
    -19.865  0.2741E+00  0.5828E+00
    -19.848  0.3049E+00  0.5881E+00
    -19.831  0.3388E+00  0.5939E+00
    -19.814  0.3704E+00  0.6003E+00
    -19.797  0.3945E+00  0.6070E+00
    -19.779  0.4074E+00  0.6140E+00
    -19.762  0.4080E+00  0.6210E+00
    -19.745  0.3972E+00  0.6278E+00
    -19.728  0.3783E+00  0.6343E+00
    -19.711  0.3550E+00  0.6404E+00
    -19.694  0.3310E+00  0.6461E+00
    -19.676  0.3090E+00  0.6514E+00
    -19.659  0.2906E+00  0.6564E+00
    -19.642  0.2761E+00  0.6611E+00
    -19.625  0.2653E+00  0.6657E+00
    -19.608  0.2576E+00  0.6701E+00
    -19.591  0.2523E+00  0.6744E+00
    -19.573  0.2493E+00  0.6787E+00
    -19.556  0.2488E+00  0.6830E+00
    -19.539  0.2517E+00  0.6873E+00
    -19.522  0.2594E+00  0.6918E+00
    -19.505  0.2731E+00  0.6965E+00
    -19.488  0.2935E+00  0.7015E+00
    -19.470  0.3197E+00  0.7070E+00
    -19.453  0.3496E+00  0.7130E+00
    -19.436  0.3793E+00  0.7195E+00
    -19.419  0.4043E+00  0.7264E+00
    -19.402  0.4205E+00  0.7336E+00
    -19.385  0.4250E+00  0.7409E+00
    -19.367  0.4170E+00  0.7481E+00
    -19.350  0.3980E+00  0.7549E+00
    -19.333  0.3713E+00  0.7613E+00
    -19.316  0.3407E+00  0.7672E+00
    -19.299  0.3105E+00  0.7725E+00
    -19.282  0.2835E+00  0.7773E+00
    -19.264  0.2616E+00  0.7818E+00
    -19.247  0.2456E+00  0.7861E+00
    -19.230  0.2356E+00  0.7901E+00
    -19.213  0.2313E+00  0.7941E+00
    -19.196  0.2327E+00  0.7981E+00
    -19.179  0.2395E+00  0.8022E+00
    -19.161  0.2514E+00  0.8065E+00
    -19.144  0.2676E+00  0.8111E+00
    -19.127  0.2869E+00  0.8160E+00
    -19.110  0.3080E+00  0.8213E+00
    -19.093  0.3292E+00  0.8269E+00
    -19.076  0.3490E+00  0.8329E+00
    -19.058  0.3662E+00  0.8392E+00
    -19.041  0.3803E+00  0.8457E+00
    -19.024  0.3908E+00  0.8525E+00
    -19.007  0.3979E+00  0.8593E+00
    -18.990  0.4016E+00  0.8662E+00
    -18.973  0.4014E+00  0.8731E+00
    -18.955  0.3968E+00  0.8799E+00
    -18.938  0.3871E+00  0.8865E+00
    -18.921  0.3719E+00  0.8929E+00
    -18.904  0.3515E+00  0.8989E+00
    -18.887  0.3272E+00  0.9046E+00
    -18.870  0.3011E+00  0.9097E+00
    -18.852  0.2757E+00  0.9145E+00
    -18.835  0.2530E+00  0.9188E+00
    -18.818  0.2346E+00  0.9228E+00
    -18.801  0.2215E+00  0.9266E+00
    -18.784  0.2144E+00  0.9303E+00
    -18.767  0.2140E+00  0.9340E+00
    -18.749  0.2211E+00  0.9378E+00
    -18.732  0.2366E+00  0.9418E+00
    -18.715  0.2606E+00  0.9463E+00
    -18.698  0.2921E+00  0.9513E+00
    -18.681  0.3284E+00  0.9570E+00
    -18.664  0.3654E+00  0.9632E+00
    -18.646  0.3983E+00  0.9701E+00
    -18.629  0.4224E+00  0.9773E+00
    -18.612  0.4347E+00  0.9848E+00
    -18.595  0.4343E+00  0.9922E+00
    -18.578  0.4228E+00  0.9995E+00
    -18.561  0.4036E+00  0.1006E+01
    -18.543  0.3814E+00  0.1013E+01
    -18.526  0.3606E+00  0.1019E+01
    -18.509  0.3442E+00  0.1025E+01
    -18.492  0.3331E+00  0.1031E+01
    -18.475  0.3265E+00  0.1036E+01
    -18.458  0.3217E+00  0.1042E+01
    -18.441  0.3159E+00  0.1047E+01
    -18.423  0.3068E+00  0.1053E+01
    -18.406  0.2935E+00  0.1058E+01
    -18.389  0.2771E+00  0.1062E+01
    -18.372  0.2594E+00  0.1067E+01
    -18.355  0.2430E+00  0.1071E+01
    -18.338  0.2304E+00  0.1075E+01
    -18.320  0.2232E+00  0.1079E+01
    -18.303  0.2228E+00  0.1083E+01
    -18.286  0.2299E+00  0.1087E+01
    -18.269  0.2452E+00  0.1091E+01
    -18.252  0.2690E+00  0.1095E+01
    -18.235  0.3008E+00  0.1101E+01
    -18.217  0.3387E+00  0.1106E+01
    -18.200  0.3794E+00  0.1113E+01
    -18.183  0.4182E+00  0.1120E+01
    -18.166  0.4500E+00  0.1128E+01
    -18.149  0.4703E+00  0.1136E+01
    -18.132  0.4763E+00  0.1144E+01
    -18.114  0.4673E+00  0.1152E+01
    -18.097  0.4449E+00  0.1160E+01
    -18.080  0.4128E+00  0.1167E+01
    -18.063  0.3759E+00  0.1173E+01
    -18.046  0.3393E+00  0.1179E+01
    -18.029  0.3078E+00  0.1184E+01
    -18.011  0.2845E+00  0.1189E+01
    -17.994  0.2709E+00  0.1194E+01
    -17.977  0.2662E+00  0.1198E+01
    -17.960  0.2681E+00  0.1203E+01
    -17.943  0.2730E+00  0.1208E+01
    -17.926  0.2770E+00  0.1212E+01
    -17.908  0.2778E+00  0.1217E+01
    -17.891  0.2743E+00  0.1222E+01
    -17.874  0.2677E+00  0.1227E+01
    -17.857  0.2604E+00  0.1231E+01
    -17.840  0.2556E+00  0.1235E+01
    -17.823  0.2563E+00  0.1240E+01
    -17.805  0.2641E+00  0.1244E+01
    -17.788  0.2793E+00  0.1249E+01
    -17.771  0.3010E+00  0.1254E+01
    -17.754  0.3271E+00  0.1260E+01
    -17.737  0.3554E+00  0.1266E+01
    -17.720  0.3835E+00  0.1273E+01
    -17.702  0.4092E+00  0.1280E+01
    -17.685  0.4310E+00  0.1287E+01
    -17.668  0.4475E+00  0.1295E+01
    -17.651  0.4576E+00  0.1303E+01
    -17.634  0.4607E+00  0.1310E+01
    -17.617  0.4562E+00  0.1318E+01
    -17.599  0.4439E+00  0.1326E+01
    -17.582  0.4239E+00  0.1333E+01
    -17.565  0.3973E+00  0.1340E+01
    -17.548  0.3655E+00  0.1346E+01
    -17.531  0.3312E+00  0.1352E+01
    -17.514  0.2976E+00  0.1357E+01
    -17.496  0.2684E+00  0.1362E+01
    -17.479  0.2465E+00  0.1366E+01
    -17.462  0.2338E+00  0.1370E+01
    -17.445  0.2305E+00  0.1374E+01
    -17.428  0.2352E+00  0.1378E+01
    -17.411  0.2450E+00  0.1382E+01
    -17.393  0.2567E+00  0.1387E+01
    -17.376  0.2679E+00  0.1391E+01
    -17.359  0.2774E+00  0.1396E+01
    -17.342  0.2859E+00  0.1401E+01
    -17.325  0.2952E+00  0.1406E+01
    -17.308  0.3079E+00  0.1411E+01
    -17.290  0.3257E+00  0.1417E+01
    -17.273  0.3487E+00  0.1423E+01
    -17.256  0.3752E+00  0.1429E+01
    -17.239  0.4018E+00  0.1436E+01
    -17.222  0.4250E+00  0.1443E+01
    -17.205  0.4415E+00  0.1451E+01
    -17.187  0.4499E+00  0.1459E+01
    -17.170  0.4507E+00  0.1466E+01
    -17.153  0.4459E+00  0.1474E+01
    -17.136  0.4381E+00  0.1482E+01
    -17.119  0.4298E+00  0.1489E+01
    -17.102  0.4222E+00  0.1496E+01
    -17.085  0.4152E+00  0.1503E+01
    -17.067  0.4075E+00  0.1510E+01
    -17.050  0.3974E+00  0.1517E+01
    -17.033  0.3830E+00  0.1524E+01
    -17.016  0.3634E+00  0.1530E+01
    -16.999  0.3390E+00  0.1536E+01
    -16.982  0.3116E+00  0.1541E+01
    -16.964  0.2846E+00  0.1546E+01
    -16.947  0.2616E+00  0.1550E+01
    -16.930  0.2460E+00  0.1555E+01
    -16.913  0.2397E+00  0.1559E+01
    -16.896  0.2429E+00  0.1563E+01
    -16.879  0.2543E+00  0.1567E+01
    -16.861  0.2712E+00  0.1572E+01
    -16.844  0.2910E+00  0.1577E+01
    -16.827  0.3118E+00  0.1582E+01
    -16.810  0.3332E+00  0.1588E+01
    -16.793  0.3560E+00  0.1594E+01
    -16.776  0.3812E+00  0.1601E+01
    -16.758  0.4095E+00  0.1608E+01
    -16.741  0.4404E+00  0.1615E+01
    -16.724  0.4717E+00  0.1623E+01
    -16.707  0.5005E+00  0.1632E+01
    -16.690  0.5240E+00  0.1641E+01
    -16.673  0.5402E+00  0.1650E+01
    -16.655  0.5486E+00  0.1660E+01
    -16.638  0.5502E+00  0.1669E+01
    -16.621  0.5465E+00  0.1679E+01
    -16.604  0.5391E+00  0.1688E+01
    -16.587  0.5292E+00  0.1697E+01
    -16.570  0.5169E+00  0.1706E+01
    -16.552  0.5022E+00  0.1714E+01
    -16.535  0.4849E+00  0.1723E+01
    -16.518  0.4654E+00  0.1731E+01
    -16.501  0.4443E+00  0.1738E+01
    -16.484  0.4225E+00  0.1746E+01
    -16.467  0.4007E+00  0.1752E+01
    -16.449  0.3791E+00  0.1759E+01
    -16.432  0.3572E+00  0.1765E+01
    -16.415  0.3340E+00  0.1771E+01
    -16.398  0.3087E+00  0.1776E+01
    -16.381  0.2809E+00  0.1781E+01
    -16.364  0.2518E+00  0.1785E+01
    -16.346  0.2236E+00  0.1789E+01
    -16.329  0.2001E+00  0.1792E+01
    -16.312  0.1857E+00  0.1796E+01
    -16.295  0.1844E+00  0.1799E+01
    -16.278  0.1989E+00  0.1802E+01
    -16.261  0.2298E+00  0.1806E+01
    -16.243  0.2750E+00  0.1811E+01
    -16.226  0.3295E+00  0.1817E+01
    -16.209  0.3867E+00  0.1823E+01
    -16.192  0.4387E+00  0.1831E+01
    -16.175  0.4778E+00  0.1839E+01
    -16.158  0.4984E+00  0.1848E+01
    -16.140  0.4971E+00  0.1856E+01
    -16.123  0.4738E+00  0.1864E+01
    -16.106  0.4316E+00  0.1872E+01
    -16.089  0.3754E+00  0.1878E+01
    -16.072  0.3119E+00  0.1883E+01
    -16.055  0.2474E+00  0.1888E+01
    -16.037  0.1874E+00  0.1891E+01
    -16.020  0.1359E+00  0.1893E+01
    -16.003  0.9504E-01  0.1895E+01
    -15.986  0.6538E-01  0.1896E+01
    -15.969  0.4627E-01  0.1897E+01
    -15.952  0.3639E-01  0.1897E+01
    -15.934  0.3415E-01  0.1898E+01
    -15.917  0.3799E-01  0.1899E+01
    -15.900  0.4658E-01  0.1899E+01
    -15.883  0.5891E-01  0.1900E+01
    -15.866  0.7441E-01  0.1902E+01
    -15.849  0.9300E-01  0.1903E+01
    -15.831  0.1150E+00  0.1905E+01
    -15.814  0.1410E+00  0.1908E+01
    -15.797  0.1712E+00  0.1911E+01
    -15.780  0.2050E+00  0.1914E+01
    -15.763  0.2401E+00  0.1918E+01
    -15.746  0.2732E+00  0.1923E+01
    -15.729  0.2996E+00  0.1928E+01
    -15.711  0.3148E+00  0.1933E+01
    -15.694  0.3155E+00  0.1939E+01
    -15.677  0.3008E+00  0.1944E+01
    -15.660  0.2724E+00  0.1949E+01
    -15.643  0.2341E+00  0.1953E+01
    -15.626  0.1915E+00  0.1956E+01
    -15.608  0.1500E+00  0.1959E+01
    -15.591  0.1144E+00  0.1961E+01
    -15.574  0.8789E-01  0.1962E+01
    -15.557  0.7189E-01  0.1963E+01
    -15.540  0.6662E-01  0.1964E+01
    -15.523  0.7130E-01  0.1966E+01
    -15.505  0.8467E-01  0.1967E+01
    -15.488  0.1053E+00  0.1969E+01
    -15.471  0.1317E+00  0.1971E+01
    -15.454  0.1625E+00  0.1974E+01
    -15.437  0.1959E+00  0.1977E+01
    -15.420  0.2303E+00  0.1981E+01
    -15.402  0.2635E+00  0.1986E+01
    -15.385  0.2934E+00  0.1991E+01
    -15.368  0.3179E+00  0.1996E+01
    -15.351  0.3356E+00  0.2002E+01
    -15.334  0.3460E+00  0.2008E+01
    -15.317  0.3496E+00  0.2014E+01
    -15.299  0.3483E+00  0.2020E+01
    -15.282  0.3447E+00  0.2026E+01
    -15.265  0.3415E+00  0.2032E+01
    -15.248  0.3412E+00  0.2038E+01
    -15.231  0.3451E+00  0.2044E+01
    -15.214  0.3532E+00  0.2050E+01
    -15.196  0.3641E+00  0.2056E+01
    -15.179  0.3752E+00  0.2062E+01
    -15.162  0.3834E+00  0.2069E+01
    -15.145  0.3856E+00  0.2076E+01
    -15.128  0.3802E+00  0.2082E+01
    -15.111  0.3668E+00  0.2088E+01
    -15.093  0.3469E+00  0.2094E+01
    -15.076  0.3233E+00  0.2100E+01
    -15.059  0.2992E+00  0.2105E+01
    -15.042  0.2776E+00  0.2110E+01
    -15.025  0.2609E+00  0.2114E+01
    -15.008  0.2504E+00  0.2119E+01
    -14.990  0.2472E+00  0.2123E+01
    -14.973  0.2516E+00  0.2127E+01
    -14.956  0.2637E+00  0.2132E+01
    -14.939  0.2833E+00  0.2136E+01
    -14.922  0.3094E+00  0.2142E+01
    -14.905  0.3404E+00  0.2148E+01
    -14.887  0.3734E+00  0.2154E+01
    -14.870  0.4048E+00  0.2161E+01
    -14.853  0.4305E+00  0.2168E+01
    -14.836  0.4468E+00  0.2176E+01
    -14.819  0.4509E+00  0.2184E+01
    -14.802  0.4420E+00  0.2191E+01
    -14.784  0.4216E+00  0.2199E+01
    -14.767  0.3936E+00  0.2205E+01
    -14.750  0.3641E+00  0.2212E+01
    -14.733  0.3394E+00  0.2217E+01
    -14.716  0.3254E+00  0.2223E+01
    -14.699  0.3258E+00  0.2229E+01
    -14.681  0.3413E+00  0.2234E+01
    -14.664  0.3695E+00  0.2241E+01
    -14.647  0.4057E+00  0.2248E+01
    -14.630  0.4440E+00  0.2255E+01
    -14.613  0.4790E+00  0.2264E+01
    -14.596  0.5063E+00  0.2272E+01
    -14.578  0.5236E+00  0.2281E+01
    -14.561  0.5302E+00  0.2290E+01
    -14.544  0.5267E+00  0.2299E+01
    -14.527  0.5153E+00  0.2308E+01
    -14.510  0.4985E+00  0.2317E+01
    -14.493  0.4795E+00  0.2325E+01
    -14.475  0.4614E+00  0.2333E+01
    -14.458  0.4465E+00  0.2341E+01
    -14.441  0.4358E+00  0.2348E+01
    -14.424  0.4287E+00  0.2355E+01
    -14.407  0.4231E+00  0.2363E+01
    -14.390  0.4161E+00  0.2370E+01
    -14.373  0.4050E+00  0.2377E+01
    -14.355  0.3885E+00  0.2384E+01
    -14.338  0.3670E+00  0.2390E+01
    -14.321  0.3432E+00  0.2396E+01
    -14.304  0.3213E+00  0.2401E+01
    -14.287  0.3059E+00  0.2406E+01
    -14.270  0.3011E+00  0.2412E+01
    -14.252  0.3090E+00  0.2417E+01
    -14.235  0.3291E+00  0.2423E+01
    -14.218  0.3583E+00  0.2429E+01
    -14.201  0.3914E+00  0.2435E+01
    -14.184  0.4219E+00  0.2443E+01
    -14.167  0.4440E+00  0.2450E+01
    -14.149  0.4531E+00  0.2458E+01
    -14.132  0.4476E+00  0.2466E+01
    -14.115  0.4287E+00  0.2473E+01
    -14.098  0.4005E+00  0.2480E+01
    -14.081  0.3685E+00  0.2486E+01
    -14.064  0.3387E+00  0.2492E+01
    -14.046  0.3160E+00  0.2498E+01
    -14.029  0.3030E+00  0.2503E+01
    -14.012  0.2995E+00  0.2508E+01
    -13.995  0.3029E+00  0.2513E+01
    -13.978  0.3096E+00  0.2518E+01
    -13.961  0.3157E+00  0.2524E+01
    -13.943  0.3188E+00  0.2529E+01
    -13.926  0.3184E+00  0.2535E+01
    -13.909  0.3159E+00  0.2540E+01
    -13.892  0.3138E+00  0.2546E+01
    -13.875  0.3147E+00  0.2551E+01
    -13.858  0.3203E+00  0.2556E+01
    -13.840  0.3307E+00  0.2562E+01
    -13.823  0.3446E+00  0.2568E+01
    -13.806  0.3595E+00  0.2574E+01
    -13.789  0.3723E+00  0.2581E+01
    -13.772  0.3800E+00  0.2587E+01
    -13.755  0.3808E+00  0.2594E+01
    -13.737  0.3740E+00  0.2600E+01
    -13.720  0.3603E+00  0.2606E+01
    -13.703  0.3418E+00  0.2612E+01
    -13.686  0.3212E+00  0.2618E+01
    -13.669  0.3017E+00  0.2623E+01
    -13.652  0.2856E+00  0.2628E+01
    -13.634  0.2745E+00  0.2632E+01
    -13.617  0.2688E+00  0.2637E+01
    -13.600  0.2674E+00  0.2642E+01
    -13.583  0.2689E+00  0.2646E+01
    -13.566  0.2713E+00  0.2651E+01
    -13.549  0.2732E+00  0.2656E+01
    -13.531  0.2744E+00  0.2660E+01
    -13.514  0.2756E+00  0.2665E+01
    -13.497  0.2784E+00  0.2670E+01
    -13.480  0.2847E+00  0.2675E+01
    -13.463  0.2959E+00  0.2680E+01
    -13.446  0.3120E+00  0.2685E+01
    -13.428  0.3317E+00  0.2691E+01
    -13.411  0.3519E+00  0.2697E+01
    -13.394  0.3692E+00  0.2703E+01
    -13.377  0.3802E+00  0.2710E+01
    -13.360  0.3826E+00  0.2716E+01
    -13.343  0.3756E+00  0.2723E+01
    -13.325  0.3598E+00  0.2729E+01
    -13.308  0.3371E+00  0.2735E+01
    -13.291  0.3095E+00  0.2740E+01
    -13.274  0.2795E+00  0.2745E+01
    -13.257  0.2491E+00  0.2749E+01
    -13.240  0.2205E+00  0.2753E+01
    -13.222  0.1959E+00  0.2756E+01
    -13.205  0.1776E+00  0.2759E+01
    -13.188  0.1681E+00  0.2762E+01
    -13.171  0.1697E+00  0.2765E+01
    -13.154  0.1836E+00  0.2768E+01
    -13.137  0.2096E+00  0.2772E+01
    -13.119  0.2453E+00  0.2776E+01
    -13.102  0.2868E+00  0.2781E+01
    -13.085  0.3288E+00  0.2787E+01
    -13.068  0.3657E+00  0.2793E+01
    -13.051  0.3927E+00  0.2800E+01
    -13.034  0.4063E+00  0.2807E+01
    -13.017  0.4053E+00  0.2814E+01
    -12.999  0.3908E+00  0.2820E+01
    -12.982  0.3654E+00  0.2827E+01
    -12.965  0.3330E+00  0.2832E+01
    -12.948  0.2979E+00  0.2837E+01
    -12.931  0.2643E+00  0.2842E+01
    -12.914  0.2357E+00  0.2846E+01
    -12.896  0.2143E+00  0.2850E+01
    -12.879  0.2015E+00  0.2853E+01
    -12.862  0.1972E+00  0.2857E+01
    -12.845  0.2004E+00  0.2860E+01
    -12.828  0.2094E+00  0.2864E+01
    -12.811  0.2226E+00  0.2867E+01
    -12.793  0.2390E+00  0.2871E+01
    -12.776  0.2580E+00  0.2876E+01
    -12.759  0.2799E+00  0.2881E+01
    -12.742  0.3047E+00  0.2886E+01
    -12.725  0.3321E+00  0.2892E+01
    -12.708  0.3608E+00  0.2898E+01
    -12.690  0.3886E+00  0.2905E+01
    -12.673  0.4126E+00  0.2912E+01
    -12.656  0.4303E+00  0.2919E+01
    -12.639  0.4395E+00  0.2927E+01
    -12.622  0.4400E+00  0.2934E+01
    -12.605  0.4325E+00  0.2941E+01
    -12.587  0.4192E+00  0.2949E+01
    -12.570  0.4026E+00  0.2956E+01
    -12.553  0.3851E+00  0.2962E+01
    -12.536  0.3682E+00  0.2969E+01
    -12.519  0.3528E+00  0.2975E+01
    -12.502  0.3390E+00  0.2980E+01
    -12.484  0.3266E+00  0.2986E+01
    -12.467  0.3152E+00  0.2991E+01
    -12.450  0.3048E+00  0.2997E+01
    -12.433  0.2957E+00  0.3002E+01
    -12.416  0.2887E+00  0.3007E+01
    -12.399  0.2848E+00  0.3012E+01
    -12.381  0.2853E+00  0.3016E+01
    -12.364  0.2914E+00  0.3021E+01
    -12.347  0.3037E+00  0.3027E+01
    -12.330  0.3218E+00  0.3032E+01
    -12.313  0.3441E+00  0.3038E+01
    -12.296  0.3682E+00  0.3044E+01
    -12.278  0.3915E+00  0.3051E+01
    -12.261  0.4117E+00  0.3058E+01
    -12.244  0.4277E+00  0.3066E+01
    -12.227  0.4401E+00  0.3073E+01
    -12.210  0.4501E+00  0.3081E+01
    -12.193  0.4593E+00  0.3089E+01
    -12.175  0.4681E+00  0.3097E+01
    -12.158  0.4756E+00  0.3105E+01
    -12.141  0.4788E+00  0.3113E+01
    -12.124  0.4741E+00  0.3121E+01
    -12.107  0.4577E+00  0.3129E+01
    -12.090  0.4279E+00  0.3136E+01
    -12.072  0.3851E+00  0.3143E+01
    -12.055  0.3327E+00  0.3149E+01
    -12.038  0.2764E+00  0.3154E+01
    -12.021  0.2229E+00  0.3157E+01
    -12.004  0.1785E+00  0.3160E+01
    -11.987  0.1486E+00  0.3163E+01
    -11.969  0.1368E+00  0.3165E+01
    -11.952  0.1448E+00  0.3168E+01
    -11.935  0.1724E+00  0.3171E+01
    -11.918  0.2179E+00  0.3175E+01
    -11.901  0.2778E+00  0.3179E+01
    -11.884  0.3473E+00  0.3185E+01
    -11.866  0.4206E+00  0.3192E+01
    -11.849  0.4911E+00  0.3201E+01
    -11.832  0.5523E+00  0.3210E+01
    -11.815  0.5982E+00  0.3221E+01
    -11.798  0.6244E+00  0.3231E+01
    -11.781  0.6283E+00  0.3242E+01
    -11.763  0.6099E+00  0.3253E+01
    -11.746  0.5720E+00  0.3262E+01
    -11.729  0.5200E+00  0.3271E+01
    -11.712  0.4610E+00  0.3279E+01
    -11.695  0.4024E+00  0.3286E+01
    -11.678  0.3508E+00  0.3292E+01
    -11.661  0.3100E+00  0.3298E+01
    -11.643  0.2813E+00  0.3302E+01
    -11.626  0.2632E+00  0.3307E+01
    -11.609  0.2530E+00  0.3311E+01
    -11.592  0.2477E+00  0.3315E+01
    -11.575  0.2456E+00  0.3320E+01
    -11.558  0.2465E+00  0.3324E+01
    -11.540  0.2517E+00  0.3328E+01
    -11.523  0.2629E+00  0.3333E+01
    -11.506  0.2814E+00  0.3338E+01
    -11.489  0.3072E+00  0.3343E+01
    -11.472  0.3387E+00  0.3349E+01
    -11.455  0.3729E+00  0.3355E+01
    -11.437  0.4062E+00  0.3362E+01
    -11.420  0.4352E+00  0.3370E+01
    -11.403  0.4569E+00  0.3377E+01
    -11.386  0.4698E+00  0.3385E+01
    -11.369  0.4735E+00  0.3394E+01
    -11.352  0.4684E+00  0.3402E+01
    -11.334  0.4560E+00  0.3409E+01
    -11.317  0.4382E+00  0.3417E+01
    -11.300  0.4170E+00  0.3424E+01
    -11.283  0.3947E+00  0.3431E+01
    -11.266  0.3735E+00  0.3437E+01
    -11.249  0.3557E+00  0.3443E+01
    -11.231  0.3432E+00  0.3449E+01
    -11.214  0.3378E+00  0.3455E+01
    -11.197  0.3406E+00  0.3461E+01
    -11.180  0.3524E+00  0.3467E+01
    -11.163  0.3730E+00  0.3473E+01
    -11.146  0.4014E+00  0.3480E+01
    -11.128  0.4356E+00  0.3488E+01
    -11.111  0.4725E+00  0.3496E+01
    -11.094  0.5077E+00  0.3505E+01
    -11.077  0.5361E+00  0.3514E+01
    -11.060  0.5524E+00  0.3523E+01
    -11.043  0.5525E+00  0.3533E+01
    -11.025  0.5339E+00  0.3542E+01
    -11.008  0.4972E+00  0.3550E+01
    -10.991  0.4455E+00  0.3558E+01
    -10.974  0.3844E+00  0.3565E+01
    -10.957  0.3208E+00  0.3570E+01
    -10.940  0.2615E+00  0.3575E+01
    -10.922  0.2125E+00  0.3578E+01
    -10.905  0.1780E+00  0.3581E+01
    -10.888  0.1601E+00  0.3584E+01
    -10.871  0.1592E+00  0.3587E+01
    -10.854  0.1742E+00  0.3590E+01
    -10.837  0.2032E+00  0.3593E+01
    -10.819  0.2442E+00  0.3598E+01
    -10.802  0.2949E+00  0.3603E+01
    -10.785  0.3530E+00  0.3609E+01
    -10.768  0.4160E+00  0.3616E+01
    -10.751  0.4804E+00  0.3624E+01
    -10.734  0.5419E+00  0.3633E+01
    -10.716  0.5952E+00  0.3644E+01