Lattice                                 
           1
     4.395079    2.537500    0.000000
    -4.395079    2.537500    0.000000
     0.000000    0.000000   15.000000
   B    C 
     2    14
Direct configuration=     1
   0.33833034  0.66916432  0.10000000
   0.67165522  0.33584146  0.10000000
   0.16373946  0.31999962  0.10000000
   0.32250218  0.16126397  0.10000000
   0.16376430  0.84376384  0.10000000
   0.84623863  0.16123684  0.10000000
   0.68749850  0.84373000  0.10000000
   0.84626736  0.68499594  0.10000000
   0.33333267  0.16666633  0.32553333
   0.49999967  0.99999933  0.32553333
   0.33333267  0.66666633  0.32553333
   0.49999967  0.49999933  0.32553333
   0.83333267  0.16666633  0.32553333
   0.99999967  0.99999933  0.32553333
   0.83333267  0.66666633  0.32553333
   0.99999967  0.49999933  0.32553333
Direct configuration=     2
   0.33834390  0.66917067  0.10017831
   0.67169184  0.33582211  0.09997918
   0.16611337  0.32474969  0.09993803
   0.32697384  0.16349605  0.10001271
   0.16614287  0.84138113  0.09993803
   0.84397643  0.16348380  0.10001231
   0.68274710  0.84137338  0.09993764
   0.84400026  0.68051593  0.10001230
   0.33337560  0.16668677  0.32554485
   0.50012718  0.00027248  0.32559026
   0.33332907  0.66666355  0.32532353
   0.50012718  0.49985575  0.32559025
   0.83332039  0.16669107  0.32554129
   0.00000491  0.00000297  0.32553499
   0.83332043  0.66662732  0.32554131
   0.99973094  0.49986599  0.32559167
Direct configuration=     3
   0.33833421  0.66916613  0.10005082
   0.67166565  0.33583595  0.09999407
   0.16441610  0.32135353  0.09998234
   0.32377674  0.16190018  0.10000362
   0.16444226  0.84308470  0.09998234
   0.84559384  0.16187729  0.10000351
   0.68614421  0.84305830  0.09998223
   0.84562116  0.68371901  0.10000351
   0.33334491  0.16667216  0.32553662
   0.50003601  0.00007719  0.32554956
   0.33333164  0.66666554  0.32547353
   0.50003601  0.49995841  0.32554956
   0.83332917  0.16667338  0.32553560
   0.00000116  0.00000037  0.32553381
   0.83332918  0.66665521  0.32553561
   0.99992307  0.49996133  0.32554996
Direct configuration=     4
   0.33833864  0.66916659  0.10016546
   0.67166839  0.33583255  0.09997997
   0.16441152  0.32135099  0.09995220
   0.32376638  0.16188894  0.10000188
   0.16442919  0.84307811  0.09995220
   0.84561009  0.16187538  0.10000156
   0.68613873  0.84306536  0.09995175
   0.84562612  0.68373453  0.10000156
   0.33335962  0.16667966  0.32555193
   0.50004726  0.00009933  0.32557789
   0.33333083  0.66666525  0.32534364
   0.50004727  0.49994730  0.32557789
   0.83332253  0.16668159  0.32554859
   0.00000313  0.00000125  0.32553245
   0.83332252  0.66664062  0.32554860
   0.99990311  0.49995124  0.32557910
Direct configuration=     5
   0.33833991  0.66916672  0.10019844
   0.67166918  0.33583157  0.09997591
   0.16441020  0.32135026  0.09994353
   0.32376339  0.16188571  0.10000138
   0.16442543  0.84307621  0.09994353
   0.84561476  0.16187482  0.10000100
   0.68613716  0.84306739  0.09994298
   0.84562754  0.68373900  0.10000100
   0.33336385  0.16668182  0.32555633
   0.50005050  0.00010570  0.32558604
   0.33333060  0.66666517  0.32530626
   0.50005051  0.49994410  0.32558604
   0.83332062  0.16668395  0.32555233
   0.00000370  0.00000150  0.32553206
   0.83332061  0.66663642  0.32555234
   0.99989736  0.49994833  0.32558749
Direct configuration=     6
   0.33831728  0.66916349  0.10025620
   0.67167333  0.33583839  0.09998013
   0.16444127  0.32133595  0.09995577
   0.32376205  0.16188989  0.09997168
   0.16443848  0.84309287  0.09995578
   0.84558558  0.16187856  0.09997098
   0.68617665  0.84307450  0.09995484
   0.84558619  0.68371453  0.09997099
   0.33333730  0.16666814  0.32558339
   0.50002838  0.00005971  0.32556823
   0.33333519  0.66666708  0.32527011
   0.50002835  0.49996878  0.32556824
   0.83333654  0.16666877  0.32557853
   0.00000108  0.00000060  0.32553380
   0.83333656  0.66666679  0.32557851
   0.99994111  0.49997060  0.32556950
Direct configuration=     7
   0.33832223  0.66916420  0.10024358
   0.67167242  0.33583690  0.09997921
   0.16443448  0.32133907  0.09995309
   0.32376235  0.16188898  0.09997817
   0.16443563  0.84308923  0.09995310
   0.84559196  0.16187775  0.09997754
   0.68616802  0.84307295  0.09995225
   0.84559522  0.68371988  0.09997755
   0.33334310  0.16667113  0.32557747
   0.50003321  0.00006976  0.32557212
   0.33333419  0.66666667  0.32527801
   0.50003319  0.49996339  0.32557213
   0.83333306  0.16667209  0.32557280
   0.00000165  0.00000080  0.32553342
   0.83333307  0.66666015  0.32557279
   0.99993155  0.49996573  0.32557343
Direct configuration=     8
   0.33834985  0.66916953  0.10028963
   0.67164673  0.33582946  0.09997895
   0.16437584  0.32134284  0.09996692
   0.32379678  0.16188072  0.09995374
   0.16438023  0.84305784  0.09996697
   0.84565536  0.16189609  0.09995268
   0.68610886  0.84307125  0.09996567
   0.84565982  0.68373646  0.09995268
   0.33335296  0.16667652  0.32559525
   0.50004589  0.00009199  0.32555103
   0.33333247  0.66666635  0.32526189
   0.50004596  0.49995303  0.32555102
   0.83332755  0.16667811  0.32559015
   0.00000533  0.00000222  0.32554807
   0.83332758  0.66664957  0.32559016
   0.99991414  0.49995667  0.32555184
Direct configuration=     9
   0.33833167  0.66916602  0.10025932
   0.67166364  0.33583436  0.09997912
   0.16441443  0.32134036  0.09995782
   0.32377412  0.16188616  0.09996982
   0.16441669  0.84307850  0.09995784
   0.84561363  0.16188402  0.09996904
   0.68614779  0.84307237  0.09995684
   0.84561730  0.68372555  0.09996905
   0.33334647  0.16667297  0.32558355
   0.50003755  0.00007736  0.32556491
   0.33333360  0.66666656  0.32527250
   0.50003756  0.49995985  0.32556491
   0.83333118  0.16667415  0.32557873
   0.00000291  0.00000128  0.32553843
   0.83333119  0.66665653  0.32557873
   0.99992560  0.49996263  0.32556605
Direct configuration=    10
   0.33833226  0.66916614  0.10026032
   0.67166308  0.33583420  0.09997912
   0.16441317  0.32134044  0.09995812
   0.32377486  0.16188598  0.09996929
   0.16441549  0.84307782  0.09995814
   0.84561500  0.16188441  0.09996851
   0.68614652  0.84307233  0.09995712
   0.84561870  0.68372591  0.09996851
   0.33334669  0.16667309  0.32558394
   0.50003782  0.00007784  0.32556446
   0.33333356  0.66666655  0.32527215
   0.50003783  0.49995962  0.32556446
   0.83333106  0.16667428  0.32557911
   0.00000299  0.00000131  0.32553875
   0.83333107  0.66665630  0.32557910
   0.99992522  0.49996244  0.32556558
Direct configuration=    11
   0.33833173  0.66916545  0.10027772
   0.67167175  0.33583136  0.09997333
   0.16442711  0.32135206  0.09996241
   0.32375433  0.16187946  0.09996463
   0.16442916  0.84307335  0.09996243
   0.84560857  0.16187510  0.09996352
   0.68614117  0.84307032  0.09996112
   0.84560861  0.68373667  0.09996352
   0.33336372  0.16668183  0.32558370
   0.50005265  0.00010680  0.32555642
   0.33333246  0.66666618  0.32527162
   0.50005265  0.49994515  0.32555641
   0.83332322  0.16668391  0.32557895
   0.00000567  0.00000249  0.32555479
   0.83332321  0.66663922  0.32557895
   0.99989932  0.49994931  0.32555715
Direct configuration=    12
   0.33833194  0.66916572  0.10027076
   0.67166828  0.33583249  0.09997564
   0.16442154  0.32134742  0.09996069
   0.32376254  0.16188206  0.09996649
   0.16442370  0.84307514  0.09996071
   0.84561114  0.16187882  0.09996551
   0.68614331  0.84307113  0.09995952
   0.84561264  0.68373237  0.09996551
   0.33335691  0.16667834  0.32558380
   0.50004672  0.00009523  0.32555963
   0.33333290  0.66666633  0.32527183
   0.50004673  0.49995094  0.32555963
   0.83332636  0.16668006  0.32557901
   0.00000460  0.00000202  0.32554838
   0.83332635  0.66664605  0.32557901
   0.99990967  0.49995456  0.32556052
Direct configuration=    13
   0.33833001  0.66916447  0.10027957
   0.67166794  0.33583294  0.09996926
   0.16442068  0.32134302  0.09996171
   0.32376418  0.16188250  0.09996793
   0.16442042  0.84307646  0.09996173
   0.84560877  0.16188115  0.09996665
   0.68614801  0.84307319  0.09996031
   0.84560855  0.68372802  0.09996668
   0.33335559  0.16667752  0.32557974
   0.50004359  0.00008853  0.32555650
   0.33333469  0.66666707  0.32527257
   0.50004360  0.49995487  0.32555650
   0.83332923  0.16667907  0.32557508
   0.00000443  0.00000212  0.32556023
   0.83332922  0.66664960  0.32557508
   0.99991644  0.49995813  0.32555713
Direct configuration=    14
   0.33832991  0.66916441  0.10028003
   0.67166792  0.33583297  0.09996892
   0.16442063  0.32134279  0.09996176
   0.32376427  0.16188253  0.09996801
   0.16442025  0.84307653  0.09996178
   0.84560864  0.16188127  0.09996671
   0.68614825  0.84307330  0.09996035
   0.84560833  0.68372779  0.09996675
   0.33335552  0.16667748  0.32557953
   0.50004342  0.00008818  0.32555634
   0.33333479  0.66666711  0.32527260
   0.50004343  0.49995508  0.32555634
   0.83332938  0.16667901  0.32557487
   0.00000442  0.00000213  0.32556086
   0.83332937  0.66664978  0.32557487
   0.99991679  0.49995831  0.32555695
Direct configuration=    15
   0.33833162  0.66916540  0.10028087
   0.67166265  0.33583218  0.09996707
   0.16441560  0.32134375  0.09996302
   0.32376769  0.16188173  0.09996966
   0.16441613  0.84307336  0.09996304
   0.84561418  0.16188155  0.09996816
   0.68614086  0.84307181  0.09996142
   0.84561437  0.68372918  0.09996820
   0.33335333  0.16667664  0.32557826
   0.50004535  0.00008924  0.32555553
   0.33333438  0.66666717  0.32527197
   0.50004535  0.49995545  0.32555553
   0.83332972  0.16667810  0.32557360
   0.00000620  0.00000276  0.32556060
   0.83332973  0.66665159  0.32557360
   0.99991817  0.49995875  0.32555614
Direct configuration=    16
   0.33833074  0.66916489  0.10028044
   0.67166535  0.33583258  0.09996802
   0.16441818  0.32134326  0.09996238
   0.32376594  0.16188214  0.09996881
   0.16441824  0.84307498  0.09996239
   0.84561135  0.16188141  0.09996742
   0.68614464  0.84307257  0.09996087
   0.84561128  0.68372847  0.09996745
   0.33335445  0.16667707  0.32557891
   0.50004437  0.00008870  0.32555594
   0.33333459  0.66666714  0.32527230
   0.50004437  0.49995526  0.32555594
   0.83332954  0.16667857  0.32557425
   0.00000529  0.00000244  0.32556073
   0.83332954  0.66665066  0.32557425
   0.99991746  0.49995853  0.32555656
