Lattice                                 
           1
     4.363036    2.519000    0.000000
    -4.363036    2.519000    0.000000
     0.000000    0.000000   15.000000
   B    C 
     2    14
Direct configuration=     1
   0.33833034  0.66916432  0.10000000
   0.67165522  0.33584146  0.10000000
   0.16373946  0.31999962  0.10000000
   0.32250218  0.16126397  0.10000000
   0.16376430  0.84376384  0.10000000
   0.84623863  0.16123684  0.10000000
   0.68749850  0.84373000  0.10000000
   0.84626736  0.68499594  0.10000000
   0.33333267  0.16666633  0.32553333
   0.49999967  0.99999933  0.32553333
   0.33333267  0.66666633  0.32553333
   0.49999967  0.49999933  0.32553333
   0.83333267  0.16666633  0.32553333
   0.99999967  0.99999933  0.32553333
   0.83333267  0.66666633  0.32553333
   0.99999967  0.49999933  0.32553333
Direct configuration=     2
   0.33834435  0.66917095  0.10017151
   0.67169324  0.33582089  0.09997918
   0.16713813  0.32680211  0.09994378
   0.32903262  0.16452538  0.10001585
   0.16716869  0.84035421  0.09994378
   0.84294597  0.16451185  0.10001539
   0.68069435  0.84034744  0.09994349
   0.84297094  0.67845924  0.10001537
   0.33337712  0.16668747  0.32554301
   0.50012650  0.00027058  0.32558564
   0.33332896  0.66666344  0.32532652
   0.50012650  0.49985709  0.32558563
   0.83331969  0.16669151  0.32553952
   0.00000494  0.00000305  0.32553148
   0.83331972  0.66662606  0.32553954
   0.99973363  0.49986740  0.32558701
Direct configuration=     3
   0.33833410  0.66916610  0.10004604
   0.67166542  0.33583594  0.09999441
   0.16465186  0.32182580  0.09998491
   0.32425533  0.16213952  0.10000425
   0.16467823  0.84284850  0.09998491
   0.84535469  0.16211604  0.10000413
   0.68567188  0.84282193  0.09998483
   0.84538241  0.68324112  0.10000413
   0.33334460  0.16667201  0.32553593
   0.50003372  0.00007215  0.32554737
   0.33333167  0.66666556  0.32547781
   0.50003372  0.49996115  0.32554737
   0.83332918  0.16667309  0.32553499
   0.00000108  0.00000033  0.32553284
   0.83332919  0.66665552  0.32553500
   0.99992825  0.49996391  0.32554774
Direct configuration=     4
   0.33833410  0.66916610  0.10004602
   0.67166542  0.33583594  0.09999441
   0.16465137  0.32182481  0.09998491
   0.32425438  0.16213904  0.10000425
   0.16467774  0.84284900  0.09998491
   0.84535517  0.16211556  0.10000413
   0.68567287  0.84282242  0.09998484
   0.84538289  0.68324207  0.10000412
   0.33334459  0.16667200  0.32553593
   0.50003370  0.00007211  0.32554737
   0.33333167  0.66666556  0.32547784
   0.50003370  0.49996117  0.32554736
   0.83332918  0.16667309  0.32553499
   0.00000108  0.00000033  0.32553284
   0.83332919  0.66665553  0.32553500
   0.99992828  0.49996393  0.32554774
Direct configuration=     5
   0.33833840  0.66916638  0.10015568
   0.67166872  0.33583240  0.09997799
   0.16464926  0.32182733  0.09995804
   0.32424419  0.16212820  0.10000672
   0.16466756  0.84283989  0.09995805
   0.84537044  0.16211346  0.10000637
   0.68566279  0.84282739  0.09995765
   0.84538675  0.68325692  0.10000637
   0.33335693  0.16667832  0.32554860
   0.50004462  0.00009313  0.32557415
   0.33333091  0.66666530  0.32534828
   0.50004462  0.49995083  0.32557415
   0.83332361  0.16668007  0.32554537
   0.00000326  0.00000130  0.32552852
   0.83332359  0.66664323  0.32554538
   0.99990970  0.49995452  0.32557535
Direct configuration=     6
   0.33833966  0.66916646  0.10018782
   0.67166968  0.33583136  0.09997318
   0.16464864  0.32182806  0.09995017
   0.32424120  0.16212503  0.10000745
   0.16466457  0.84283722  0.09995017
   0.84537492  0.16211284  0.10000702
   0.68565983  0.84282884  0.09994967
   0.84538788  0.68326127  0.10000703
   0.33336054  0.16668018  0.32555231
   0.50004782  0.00009929  0.32558201
   0.33333069  0.66666523  0.32531030
   0.50004783  0.49994780  0.32558200
   0.83332197  0.16668212  0.32554842
   0.00000390  0.00000159  0.32552725
   0.83332195  0.66663962  0.32554842
   0.99990425  0.49995176  0.32558344
Direct configuration=     7
   0.33831636  0.66916341  0.10024925
   0.67167197  0.33583867  0.09997767
   0.16467727  0.32180783  0.09996429
   0.32424750  0.16213246  0.09998132
   0.16467356  0.84285645  0.09996430
   0.84534396  0.16212125  0.09998054
   0.68570353  0.84283701  0.09996341
   0.84534445  0.68322998  0.09998055
   0.33333723  0.16666805  0.32557753
   0.50002458  0.00005193  0.32556274
   0.33333600  0.66666744  0.32526842
   0.50002455  0.49997289  0.32556275
   0.83333749  0.16666844  0.32557270
   0.00000065  0.00000044  0.32552446
   0.83333752  0.66666797  0.32557268
   0.99994872  0.49997446  0.32556405
Direct configuration=     8
   0.33832145  0.66916407  0.10023586
   0.67167147  0.33583708  0.09997669
   0.16467102  0.32181224  0.09996121
   0.32424612  0.16213084  0.09998702
   0.16467160  0.84285226  0.09996122
   0.84535071  0.16211942  0.09998632
   0.68569400  0.84283523  0.09996041
   0.84535392  0.68323681  0.09998632
   0.33334232  0.16667069  0.32557203
   0.50002965  0.00006226  0.32556694
   0.33333484  0.66666695  0.32527755
   0.50002963  0.49996742  0.32556695
   0.83333411  0.16667142  0.32556740
   0.00000136  0.00000069  0.32552507
   0.83333412  0.66666179  0.32556739
   0.99993902  0.49996951  0.32556828
Direct configuration=     9
   0.33834918  0.66916923  0.10029104
   0.67164583  0.33582930  0.09997966
   0.16461293  0.32181846  0.09997946
   0.32427529  0.16211871  0.09996350
   0.16461694  0.84281983  0.09997951
   0.84541596  0.16213430  0.09996231
   0.68563288  0.84283451  0.09997819
   0.84542035  0.68325787  0.09996231
   0.33335247  0.16667635  0.32558918
   0.50004498  0.00008801  0.32554144
   0.33333236  0.66666637  0.32525373
   0.50004504  0.49995592  0.32554144
   0.83332747  0.16667782  0.32558402
   0.00000638  0.00000267  0.32553453
   0.83332749  0.66664992  0.32558403
   0.99991979  0.49995941  0.32554231
Direct configuration=    10
   0.33833129  0.66916590  0.10025544
   0.67166237  0.33583431  0.09997775
   0.16465040  0.32181445  0.09996769
   0.32425648  0.16212654  0.09997867
   0.16465220  0.84284075  0.09996771
   0.84537387  0.16212470  0.09997780
   0.68567230  0.84283497  0.09996672
   0.84537750  0.68324428  0.09997780
   0.33334592  0.16667270  0.32557812
   0.50003509  0.00007140  0.32555789
   0.33333396  0.66666675  0.32526910
   0.50003510  0.49996334  0.32555789
   0.83333175  0.16667369  0.32557330
   0.00000314  0.00000139  0.32552843
   0.83333177  0.66665758  0.32557330
   0.99993219  0.49996592  0.32555906
Direct configuration=    11
   0.33833194  0.66916602  0.10025674
   0.67166177  0.33583413  0.09997782
   0.16464904  0.32181459  0.09996812
   0.32425716  0.16212625  0.09997812
   0.16465092  0.84283999  0.09996814
   0.84537540  0.16212505  0.09997723
   0.68567087  0.84283496  0.09996714
   0.84537905  0.68324478  0.09997724
   0.33334616  0.16667283  0.32557852
   0.50003545  0.00007200  0.32555729
   0.33333390  0.66666673  0.32526854
   0.50003546  0.49996307  0.32555730
   0.83333160  0.16667384  0.32557369
   0.00000326  0.00000144  0.32552865
   0.83333161  0.66665730  0.32557369
   0.99993174  0.49996569  0.32555845
Direct configuration=    12
   0.33833055  0.66916503  0.10028051
   0.67167341  0.33583060  0.09997501
   0.16466791  0.32183080  0.09997576
   0.32422785  0.16211712  0.09997406
   0.16466974  0.84283352  0.09997577
   0.84536790  0.16211165  0.09997279
   0.68566358  0.84283160  0.09997442
   0.84536697  0.68326117  0.09997280
   0.33336321  0.16668162  0.32557655
   0.50005243  0.00010471  0.32554574
   0.33333264  0.66666630  0.32526444
   0.50005243  0.49994695  0.32554573
   0.83332366  0.16668364  0.32557177
   0.00000659  0.00000292  0.32554307
   0.83332364  0.66664000  0.32557177
   0.99990283  0.49995103  0.32554647
Direct configuration=    13
   0.33833121  0.66916550  0.10026928
   0.67166791  0.33583227  0.09997633
   0.16465900  0.32182315  0.09997215
   0.32424169  0.16212144  0.09997598
   0.16466085  0.84283657  0.09997216
   0.84537144  0.16211798  0.09997489
   0.68566703  0.84283319  0.09997098
   0.84537268  0.68325343  0.09997490
   0.33335516  0.16667747  0.32557748
   0.50004441  0.00008926  0.32555120
   0.33333324  0.66666650  0.32526637
   0.50004441  0.49995456  0.32555119
   0.83332741  0.16667901  0.32557268
   0.00000502  0.00000222  0.32553626
   0.83332740  0.66664817  0.32557268
   0.99991649  0.49995795  0.32555213
Direct configuration=    14
   0.33832945  0.66916406  0.10028033
   0.67166753  0.33583270  0.09997255
   0.16465825  0.32181864  0.09997477
   0.32424397  0.16212258  0.09997948
   0.16465783  0.84283811  0.09997476
   0.84536794  0.16212032  0.09997808
   0.68567225  0.84283534  0.09997337
   0.84536722  0.68324793  0.09997812
   0.33335433  0.16667686  0.32557065
   0.50004090  0.00008227  0.32554650
   0.33333545  0.66666741  0.32526570
   0.50004090  0.49995852  0.32554650
   0.83333077  0.16667820  0.32556599
   0.00000457  0.00000223  0.32554671
   0.83333076  0.66665193  0.32556599
   0.99992321  0.49996155  0.32554716
Direct configuration=    15
   0.33832860  0.66916337  0.10028562
   0.67166735  0.33583290  0.09997074
   0.16465789  0.32181648  0.09997603
   0.32424506  0.16212313  0.09998115
   0.16465639  0.84283884  0.09997600
   0.84536626  0.16212145  0.09997960
   0.68567474  0.84283637  0.09997452
   0.84536460  0.68324530  0.09997966
   0.33335394  0.16667657  0.32556739
   0.50003922  0.00007893  0.32554425
   0.33333651  0.66666784  0.32526538
   0.50003922  0.49996042  0.32554426
   0.83333239  0.16667781  0.32556280
   0.00000436  0.00000224  0.32555171
   0.83333236  0.66665373  0.32556280
   0.99992643  0.49996328  0.32554478
Direct configuration=    16
   0.33833124  0.66916506  0.10029368
   0.67165939  0.33583109  0.09996950
   0.16464947  0.32181838  0.09998141
   0.32424732  0.16211969  0.09998640
   0.16464933  0.84283289  0.09998137
   0.84537648  0.16212203  0.09998440
   0.68566110  0.84283340  0.09997952
   0.84537648  0.68325008  0.09998447
   0.33335259  0.16667647  0.32556133
   0.50004562  0.00008528  0.32553829
   0.33333483  0.66666762  0.32526292
   0.50004561  0.49995936  0.32553830
   0.83333064  0.16667770  0.32555680
   0.00000872  0.00000386  0.32555279
   0.83333065  0.66665331  0.32555680
   0.99992586  0.49996244  0.32553870
Direct configuration=    17
   0.33833063  0.66916467  0.10029182
   0.67166123  0.33583151  0.09996979
   0.16465141  0.32181795  0.09998017
   0.32424680  0.16212048  0.09998519
   0.16465096  0.84283427  0.09998013
   0.84537412  0.16212190  0.09998330
   0.68566424  0.84283408  0.09997837
   0.84537374  0.68324898  0.09998336
   0.33335290  0.16667649  0.32556272
   0.50004415  0.00008382  0.32553967
   0.33333522  0.66666767  0.32526348
   0.50004414  0.49995961  0.32553967
   0.83333104  0.16667772  0.32555818
   0.00000771  0.00000349  0.32555254
   0.83333105  0.66665341  0.32555818
   0.99992599  0.49996263  0.32554010
Direct configuration=    18
   0.33832907  0.66916461  0.10029521
   0.67166054  0.33583100  0.09997018
   0.16465336  0.32181931  0.09998367
   0.32424331  0.16211896  0.09998819
   0.16465281  0.84283355  0.09998363
   0.84537269  0.16212004  0.09998605
   0.68566262  0.84283280  0.09998164
   0.84537242  0.68325029  0.09998611
   0.33335405  0.16667716  0.32555991
   0.50004653  0.00008688  0.32553633
   0.33333556  0.66666794  0.32526147
   0.50004652  0.49995879  0.32553634
   0.83333106  0.16667843  0.32555537
   0.00000903  0.00000408  0.32555043
   0.83333107  0.66665291  0.32555537
   0.99992470  0.49996191  0.32553675
Direct configuration=    19
   0.33832437  0.66916442  0.10030539
   0.67165847  0.33582947  0.09997135
   0.16465921  0.32182340  0.09999418
   0.32423285  0.16211440  0.09999722
   0.16465835  0.84283139  0.09999414
   0.84536838  0.16211447  0.09999431
   0.68565775  0.84282896  0.09999146
   0.84536846  0.68325422  0.09999435
   0.33335751  0.16667916  0.32555145
   0.50005369  0.00009608  0.32552634
   0.33333657  0.66666874  0.32525541
   0.50005366  0.49995636  0.32552634
   0.83333112  0.16668055  0.32554694
   0.00001300  0.00000585  0.32554412
   0.83333115  0.66665143  0.32554695
   0.99992081  0.49995976  0.32552671
Direct configuration=    20
   0.33831497  0.66916406  0.10032574
   0.67165434  0.33582642  0.09997369
   0.16467090  0.32183157  0.10001521
   0.32421193  0.16210526  0.10001526
   0.16466944  0.84282707  0.10001517
   0.84535976  0.16210332  0.10001084
   0.68564800  0.84282127  0.10001110
   0.84536053  0.68326208  0.10001084
   0.33336442  0.16668316  0.32553455
   0.50006801  0.00011449  0.32550634
   0.33333860  0.66667035  0.32524331
   0.50006794  0.49995149  0.32550635
   0.83333123  0.16668479  0.32553008
   0.00002092  0.00000940  0.32553149
   0.83333130  0.66664848  0.32553009
   0.99991303  0.49995546  0.32550661
Direct configuration=    21
   0.33832169  0.66916432  0.10031117
   0.67165730  0.33582860  0.09997202
   0.16466253  0.32182572  0.10000016
   0.32422690  0.16211180  0.10000235
   0.16466150  0.84283016  0.10000012
   0.84536593  0.16211130  0.09999901
   0.68565498  0.84282677  0.09999705
   0.84536620  0.68325646  0.09999904
   0.33335947  0.16668030  0.32554665
   0.50005777  0.00010132  0.32552065
   0.33333715  0.66666920  0.32525197
   0.50005772  0.49995497  0.32552066
   0.83333115  0.16668175  0.32554214
   0.00001525  0.00000686  0.32554053
   0.83333119  0.66665059  0.32554215
   0.99991860  0.49995854  0.32552099
Direct configuration=    22
   0.33831941  0.66916423  0.10031611
   0.67165630  0.33582786  0.09997258
   0.16466537  0.32182770  0.10000526
   0.32422183  0.16210958  0.10000672
   0.16466419  0.84282911  0.10000522
   0.84536384  0.16210860  0.10000302
   0.68565261  0.84282491  0.10000181
   0.84536428  0.68325836  0.10000304
   0.33336115  0.16668127  0.32554255
   0.50006124  0.00010578  0.32551580
   0.33333764  0.66666959  0.32524903
   0.50006118  0.49995379  0.32551581
   0.83333118  0.16668278  0.32553806
   0.00001717  0.00000772  0.32553747
   0.83333123  0.66664988  0.32553807
   0.99991671  0.49995750  0.32551612
Direct configuration=    23
   0.33831903  0.66916398  0.10031763
   0.67165597  0.33582769  0.09997306
   0.16466492  0.32182740  0.10000694
   0.32422154  0.16210941  0.10000816
   0.16466369  0.84282895  0.10000691
   0.84536343  0.16210848  0.10000434
   0.68565239  0.84282480  0.10000338
   0.84536384  0.68325808  0.10000435
   0.33336178  0.16668155  0.32554122
   0.50006143  0.00010587  0.32551429
   0.33333818  0.66666983  0.32524786
   0.50006137  0.49995396  0.32551430
   0.83333169  0.16668307  0.32553673
   0.00001738  0.00000787  0.32553616
   0.83333174  0.66665004  0.32553674
   0.99991697  0.49995767  0.32551461
Direct configuration=    24
   0.33831788  0.66916321  0.10032220
   0.67165498  0.33582717  0.09997447
   0.16466356  0.32182650  0.10001200
   0.32422068  0.16210890  0.10001246
   0.16466217  0.84282847  0.10001196
   0.84536219  0.16210814  0.10000828
   0.68565172  0.84282447  0.10000809
   0.84536252  0.68325722  0.10000829
   0.33336366  0.16668242  0.32553724
   0.50006199  0.00010616  0.32550976
   0.33333981  0.66667057  0.32524434
   0.50006194  0.49995448  0.32550976
   0.83333323  0.16668395  0.32553274
   0.00001801  0.00000830  0.32553225
   0.83333327  0.66665054  0.32553276
   0.99991774  0.49995817  0.32551007
Direct configuration=    25
   0.33831559  0.66916168  0.10033133
   0.67165300  0.33582613  0.09997731
   0.16466084  0.32182469  0.10002210
   0.32421894  0.16210788  0.10002108
   0.16465912  0.84282751  0.10002206
   0.84535971  0.16210745  0.10001617
   0.68565039  0.84282382  0.10001751
   0.84535987  0.68325550  0.10001616
   0.33336743  0.16668414  0.32552928
   0.50006311  0.00010673  0.32550068
   0.33334307  0.66667203  0.32523731
   0.50006306  0.49995552  0.32550069
   0.83333630  0.16668569  0.32552478
   0.00001928  0.00000917  0.32552442
   0.83333633  0.66665153  0.32552479
   0.99991928  0.49995919  0.32550099
Direct configuration=    26
   0.33831101  0.66915861  0.10034959
   0.67164904  0.33582405  0.09998299
   0.16465540  0.32182108  0.10004231
   0.32421548  0.16210583  0.10003831
   0.16465304  0.84282560  0.10004227
   0.84535477  0.16210608  0.10003195
   0.68564772  0.84282251  0.10003636
   0.84535459  0.68325206  0.10003191
   0.33337497  0.16668760  0.32551337
   0.50006536  0.00010786  0.32548254
   0.33334958  0.66667496  0.32522324
   0.50006531  0.49995760  0.32548254
   0.83334245  0.16668919  0.32550884
   0.00002180  0.00001091  0.32550877
   0.83334246  0.66665352  0.32550886
   0.99992236  0.49996121  0.32548282
Direct configuration=    27
   0.33831272  0.66915782  0.10034969
   0.67164852  0.33582418  0.09998564
   0.16464891  0.32181694  0.10004246
   0.32422145  0.16210826  0.10003878
   0.16464685  0.84282597  0.10004242
   0.84535634  0.16210936  0.10003239
   0.68564905  0.84282438  0.10003646
   0.84535572  0.68324814  0.10003234
   0.33337327  0.16668673  0.32551281
   0.50006263  0.00010201  0.32548291
   0.33335005  0.66667516  0.32522119
   0.50006259  0.49996078  0.32548291
   0.83334376  0.16668820  0.32550826
   0.00002154  0.00001082  0.32550688
   0.83334376  0.66665575  0.32550829
   0.99992818  0.49996416  0.32548323
Direct configuration=    28
   0.33831723  0.66915574  0.10034997
   0.67164715  0.33582451  0.09999262
   0.16463186  0.32180608  0.10004287
   0.32423715  0.16211467  0.10004001
   0.16463057  0.84282694  0.10004283
   0.84536048  0.16211799  0.10003353
   0.68565254  0.84282929  0.10003672
   0.84535868  0.68323782  0.10003349
   0.33336883  0.16668446  0.32551135
   0.50005544  0.00008664  0.32548389
   0.33335126  0.66667568  0.32521580
   0.50005543  0.49996914  0.32548389
   0.83334721  0.16668560  0.32550674
   0.00002086  0.00001058  0.32550192
   0.83334717  0.66666162  0.32550676
   0.99994348  0.49997191  0.32548429
Direct configuration=    29
   0.33831561  0.66915485  0.10034974
   0.67164925  0.33582477  0.09999837
   0.16463367  0.32180490  0.10004277
   0.32423574  0.16211568  0.10004091
   0.16463225  0.84282857  0.10004273
   0.84535626  0.16211750  0.10003439
   0.68565636  0.84282991  0.10003653
   0.84535390  0.68323545  0.10003435
   0.33336760  0.16668387  0.32551051
   0.50005443  0.00008381  0.32548464
   0.33335163  0.66667588  0.32521210
   0.50005443  0.49997096  0.32548464
   0.83334815  0.16668494  0.32550587
   0.00002108  0.00001070  0.32549813
   0.83334811  0.66666328  0.32550588
   0.99994685  0.49997359  0.32548510
Direct configuration=    30
   0.33831226  0.66915302  0.10034927
   0.67165360  0.33582531  0.10001026
   0.16463741  0.32180245  0.10004256
   0.32423280  0.16211777  0.10004278
   0.16463573  0.84283195  0.10004254
   0.84534752  0.16211651  0.10003616
   0.68566428  0.84283119  0.10003612
   0.84534402  0.68323056  0.10003615
   0.33336505  0.16668266  0.32550878
   0.50005235  0.00007795  0.32548619
   0.33335241  0.66667630  0.32520445
   0.50005234  0.49997471  0.32548619
   0.83335011  0.16668358  0.32550406
   0.00002155  0.00001094  0.32549029
   0.83335006  0.66666670  0.32550407
   0.99995383  0.49997707  0.32548678
Direct configuration=    31
   0.33831194  0.66915429  0.10034892
   0.67165094  0.33582409  0.10001818
   0.16463983  0.32180731  0.10004240
   0.32422787  0.16211448  0.10004447
   0.16463884  0.84282965  0.10004240
   0.84534941  0.16211253  0.10003779
   0.68565733  0.84282780  0.10003584
   0.84534754  0.68323651  0.10003779
   0.33336826  0.16668430  0.32550776
   0.50005696  0.00008675  0.32548605
   0.33335259  0.66667645  0.32520086
   0.50005696  0.49997048  0.32548606
   0.83334901  0.16668545  0.32550302
   0.00002260  0.00001144  0.32548540
   0.83334899  0.66666386  0.32550302
   0.99994625  0.49997326  0.32548671
Direct configuration=    32
   0.33831159  0.66915569  0.10034853
   0.67164801  0.33582275  0.10002689
   0.16464248  0.32181266  0.10004222
   0.32422245  0.16211085  0.10004632
   0.16464226  0.84282712  0.10004223
   0.84535148  0.16210817  0.10003958
   0.68564969  0.84282406  0.10003552
   0.84535142  0.68324305  0.10003960
   0.33337179  0.16668611  0.32550664
   0.50006203  0.00009643  0.32548590
   0.33335279  0.66667661  0.32519692
   0.50006204  0.49996583  0.32548591
   0.83334780  0.16668751  0.32550186
   0.00002376  0.00001199  0.32548002
   0.83334782  0.66666075  0.32550186
   0.99993790  0.49996907  0.32548664
Direct configuration=    33
   0.33831199  0.66915570  0.10034863
   0.67164602  0.33582252  0.10003070
   0.16463836  0.32181085  0.10004259
   0.32422522  0.16211107  0.10004795
   0.16463842  0.84282660  0.10004261
   0.84535379  0.16210993  0.10004115
   0.68564829  0.84282407  0.10003581
   0.84535418  0.68324201  0.10004117
   0.33337330  0.16668681  0.32550575
   0.50006200  0.00009626  0.32548415
   0.33335337  0.66667686  0.32519691
   0.50006201  0.49996609  0.32548415
   0.83334806  0.16668828  0.32550098
   0.00002389  0.00001212  0.32547827
   0.83334807  0.66666013  0.32550098
   0.99993835  0.49996936  0.32548488
Direct configuration=    34
   0.33831245  0.66915572  0.10034875
   0.67164374  0.33582224  0.10003506
   0.16463363  0.32180876  0.10004301
   0.32422840  0.16211133  0.10004981
   0.16463400  0.84282600  0.10004304
   0.84535643  0.16211195  0.10004295
   0.68564667  0.84282409  0.10003615
   0.84535735  0.68324082  0.10004298
   0.33337503  0.16668762  0.32550472
   0.50006197  0.00009606  0.32548213
   0.33335405  0.66667714  0.32519690
   0.50006199  0.49996639  0.32548213
   0.83334836  0.16668917  0.32549997
   0.00002403  0.00001226  0.32547626
   0.83334836  0.66665943  0.32549996
   0.99993887  0.49996968  0.32548285
Direct configuration=    35
   0.33831157  0.66915532  0.10034892
   0.67164405  0.33582232  0.10003720
   0.16463388  0.32180803  0.10004346
   0.32422808  0.16211157  0.10005093
   0.16463413  0.84282653  0.10004350
   0.84535502  0.16211200  0.10004402
   0.68564797  0.84282429  0.10003654
   0.84535577  0.68323970  0.10004406
   0.33337512  0.16668767  0.32550393
   0.50006178  0.00009523  0.32548086
   0.33335436  0.66667729  0.32519699
   0.50006179  0.49996705  0.32548086
   0.83334876  0.16668920  0.32549919
   0.00002424  0.00001238  0.32547545
   0.83334876  0.66665979  0.32549919
   0.99994008  0.49997029  0.32548157
Direct configuration=    36
   0.33830892  0.66915413  0.10034946
   0.67164497  0.33582256  0.10004360
   0.16463464  0.32180585  0.10004481
   0.32422709  0.16211231  0.10005428
   0.16463453  0.84282811  0.10004486
   0.84535078  0.16211214  0.10004723
   0.68565185  0.84282488  0.10003773
   0.84535103  0.68323633  0.10004729
   0.33337540  0.16668782  0.32550156
   0.50006120  0.00009273  0.32547704
   0.33335527  0.66667775  0.32519726
   0.50006121  0.49996903  0.32547704
   0.83334995  0.16668930  0.32549687
   0.00002486  0.00001272  0.32547303
   0.83334994  0.66666088  0.32549687
   0.99994371  0.49997213  0.32547772
Direct configuration=    37
   0.33830363  0.66915175  0.10035053
   0.67164682  0.33582304  0.10005641
   0.16463617  0.32180148  0.10004750
   0.32422513  0.16211379  0.10006098
   0.16463532  0.84283127  0.10004759
   0.84534229  0.16211242  0.10005366
   0.68565960  0.84282607  0.10004011
   0.84534154  0.68322961  0.10005377
   0.33337596  0.16668812  0.32549683
   0.50006004  0.00008772  0.32546940
   0.33335710  0.66667865  0.32519781
   0.50006004  0.49997298  0.32546940
   0.83335235  0.16668950  0.32549222
   0.00002609  0.00001341  0.32546819
   0.83335230  0.66666305  0.32549222
   0.99995097  0.49997581  0.32547003
Direct configuration=    38
   0.33830605  0.66915284  0.10035004
   0.67164597  0.33582282  0.10005054
   0.16463547  0.32180348  0.10004627
   0.32422603  0.16211312  0.10005791
   0.16463495  0.84282982  0.10004634
   0.84534618  0.16211229  0.10005072
   0.68565605  0.84282552  0.10003902
   0.84534589  0.68323269  0.10005080
   0.33337570  0.16668799  0.32549900
   0.50006057  0.00009001  0.32547290
   0.33335626  0.66667824  0.32519756
   0.50006057  0.49997117  0.32547290
   0.83335125  0.16668941  0.32549435
   0.00002552  0.00001309  0.32547041
   0.83335122  0.66666206  0.32549435
   0.99994764  0.49997413  0.32547356
Direct configuration=    39
   0.33830606  0.66915265  0.10035082
   0.67164532  0.33582212  0.10005400
   0.16463532  0.32180466  0.10004789
   0.32422419  0.16211235  0.10006015
   0.16463512  0.84282876  0.10004798
   0.84534567  0.16211062  0.10005284
   0.68565382  0.84282470  0.10004054
   0.84534558  0.68323386  0.10005294
   0.33337533  0.16668787  0.32549667
   0.50006184  0.00009109  0.32547069
   0.33335675  0.66667855  0.32519676
   0.50006184  0.49997127  0.32547069
   0.83335204  0.16668924  0.32549204
   0.00002651  0.00001354  0.32546929
   0.83335202  0.66666317  0.32549204
   0.99994794  0.49997423  0.32547133
Direct configuration=    40
   0.33830608  0.66915210  0.10035318
   0.67164337  0.33582002  0.10006439
   0.16463487  0.32180820  0.10005277
   0.32421866  0.16211004  0.10006687
   0.16463560  0.84282558  0.10005289
   0.84534412  0.16210560  0.10005923
   0.68564714  0.84282222  0.10004509
   0.84534466  0.68323735  0.10005935
   0.33337423  0.16668751  0.32548966
   0.50006564  0.00009431  0.32546406
   0.33335820  0.66667950  0.32519437
   0.50006564  0.49997159  0.32546405
   0.83335440  0.16668871  0.32548511
   0.00002948  0.00001487  0.32546592
   0.83335440  0.66666649  0.32548511
   0.99994885  0.49997456  0.32546464
Direct configuration=    41
   0.33830612  0.66915099  0.10035788
   0.67163947  0.33581581  0.10008516
   0.16463396  0.32181528  0.10006252
   0.32420760  0.16210544  0.10008030
   0.16463658  0.84281921  0.10006272
   0.84534102  0.16209557  0.10007199
   0.68563377  0.84281728  0.10005420
   0.84534282  0.68324435  0.10007217
   0.33337201  0.16668680  0.32547566
   0.50007326  0.00010076  0.32545079
   0.33336112  0.66668140  0.32518958
   0.50007325  0.49997223  0.32545077
   0.83335911  0.16668766  0.32547123
   0.00003541  0.00001753  0.32545920
   0.83335918  0.66667314  0.32547124
   0.99995065  0.49997520  0.32545127
Direct configuration=    42
   0.33830610  0.66915162  0.10035520
   0.67164169  0.33581821  0.10007332
   0.16463448  0.32181124  0.10005696
   0.32421391  0.16210806  0.10007264
   0.16463602  0.84282284  0.10005712
   0.84534279  0.16210129  0.10006471
   0.68564139  0.84282010  0.10004901
   0.84534387  0.68324036  0.10006486
   0.33337327  0.16668721  0.32548364
   0.50006892  0.00009709  0.32545835
   0.33335946  0.66668032  0.32519231
   0.50006891  0.49997187  0.32545834
   0.83335642  0.16668826  0.32547914
   0.00003203  0.00001601  0.32546303
   0.83335646  0.66666935  0.32547914
   0.99994962  0.49997483  0.32545889
Direct configuration=    43
   0.33830533  0.66915134  0.10035784
   0.67163891  0.33581753  0.10007680
   0.16462975  0.32180831  0.10006079
   0.32421472  0.16210752  0.10007618
   0.16463152  0.84282200  0.10006096
   0.84534413  0.16210318  0.10006805
   0.68563883  0.84281878  0.10005267
   0.84534539  0.68323905  0.10006821
   0.33337790  0.16668935  0.32547933
   0.50006991  0.00009856  0.32545560
   0.33336163  0.66668124  0.32518821
   0.50006990  0.49997182  0.32545559
   0.83335773  0.16669053  0.32547482
   0.00003270  0.00001657  0.32546064
   0.83335775  0.66666802  0.32547483
   0.99994923  0.49997485  0.32545614
Direct configuration=    44
   0.33830303  0.66915050  0.10036578
   0.67163058  0.33581549  0.10008727
   0.16461556  0.32179952  0.10007228
   0.32421718  0.16210590  0.10008681
   0.16461802  0.84281946  0.10007249
   0.84534814  0.16210887  0.10007805
   0.68563113  0.84281484  0.10006366
   0.84534995  0.68323514  0.10007824
   0.33339180  0.16669578  0.32546639
   0.50007287  0.00010298  0.32544734
   0.33336815  0.66668398  0.32517593
   0.50007288  0.49997167  0.32544733
   0.83336164  0.16669735  0.32546187
   0.00003473  0.00001823  0.32545349
   0.83336162  0.66666403  0.32546187
   0.99994806  0.49997491  0.32544787
Direct configuration=    45
   0.33830366  0.66915073  0.10036362
   0.67163285  0.33581605  0.10008442
   0.16461943  0.32180192  0.10006915
   0.32421651  0.16210634  0.10008391
   0.16462170  0.84282015  0.10006935
   0.84534705  0.16210732  0.10007532
   0.68563323  0.84281592  0.10006066
   0.84534871  0.68323620  0.10007551
   0.33338801  0.16669403  0.32546991
   0.50007206  0.00010177  0.32544959
   0.33336638  0.66668323  0.32517928
   0.50007207  0.49997171  0.32544958
   0.83336057  0.16669549  0.32546540
   0.00003417  0.00001777  0.32545544
   0.83336056  0.66666512  0.32546540
   0.99994838  0.49997490  0.32545012
Direct configuration=    46
   0.33830084  0.66914967  0.10036643
   0.67163229  0.33581597  0.10008610
   0.16461987  0.32180067  0.10007240
   0.32421496  0.16210582  0.10008666
   0.16462179  0.84282089  0.10007261
   0.84534367  0.16210655  0.10007791
   0.68563483  0.84281608  0.10006379
   0.84534524  0.68323402  0.10007810
   0.33339002  0.16669506  0.32546686
   0.50007314  0.00010209  0.32544747
   0.33336750  0.66668381  0.32517531
   0.50007314  0.49997250  0.32544746
   0.83336140  0.16669656  0.32546233
   0.00003538  0.00001840  0.32545288
   0.83336138  0.66666491  0.32546234
   0.99994990  0.49997567  0.32544801
Direct configuration=    47
   0.33829241  0.66914647  0.10037488
   0.67163061  0.33581573  0.10009116
   0.16462118  0.32179693  0.10008215
   0.32421029  0.16210423  0.10009492
   0.16462207  0.84282311  0.10008240
   0.84533353  0.16210423  0.10008567
   0.68563962  0.84281656  0.10007316
   0.84533483  0.68322747  0.10008589
   0.33339606  0.16669815  0.32545771
   0.50007636  0.00010306  0.32544110
   0.33337087  0.66668555  0.32516342
   0.50007635  0.49997486  0.32544109
   0.83336388  0.16669976  0.32545313