       N       E                     dE             d eps       ncg     rms          rms(c)
DAV:   1    -0.887901568976E+01   -0.88790E+01   -0.35807E+03 42336   0.110E+02
DAV:   2    -0.184455717290E+02   -0.95666E+01   -0.95376E+01 62592   0.167E+01
DAV:   3    -0.184534683018E+02   -0.78966E-02   -0.78966E-02 42384   0.628E-01
DAV:   4    -0.184534773269E+02   -0.90251E-05   -0.90254E-05 82224   0.204E-02
DAV:   5    -0.184534773273E+02   -0.34879E-09   -0.57399E-10 42336   0.408E-05
DAV:   6    -0.184534773272E+02    0.80490E-10   -0.97672E-13 82896   0.144E-06
   1 F= -.18453477E+02 E0= -.18453476E+02  d E =-.322117E-05
