  15  15   0  16
  0.1953970E+02  0.4750000E-09  0.4750000E-09  0.1500000E-08  0.5000000E-15
  1.000000000000000E-004
  CAR 
 Lattice                                 
     10.79785638    -22.05576204  301     -0.15307125      1.00000000
    -22.056  0.0000E+00  0.0000E+00  0.0000E+00  0.0000E+00
    -21.946  0.0000E+00  0.0000E+00  0.0000E+00  0.0000E+00
    -21.837  0.0000E+00  0.0000E+00  0.0000E+00  0.0000E+00
    -21.727  0.0000E+00  0.0000E+00  0.0000E+00  0.0000E+00
    -21.618  0.0000E+00  0.0000E+00  0.0000E+00  0.0000E+00
    -21.508  0.0000E+00  0.0000E+00  0.0000E+00  0.0000E+00
    -21.399  0.0000E+00  0.0000E+00  0.0000E+00  0.0000E+00
    -21.289  0.0000E+00  0.0000E+00  0.0000E+00  0.0000E+00
    -21.180  0.0000E+00  0.0000E+00  0.0000E+00  0.0000E+00
    -21.070  0.1813E-15  0.1813E-15  0.1985E-16  0.1985E-16
    -20.961  0.5023E-11  0.5023E-11  0.5501E-12  0.5501E-12
    -20.851  0.1483E-07  0.1483E-07  0.1624E-08  0.1624E-08
    -20.742  0.5188E-05  0.5188E-05  0.5698E-06  0.5698E-06
    -20.632  0.2437E-03  0.2437E-03  0.2726E-04  0.2726E-04
    -20.523  0.1897E-02  0.1897E-02  0.2350E-03  0.2350E-03
    -20.413  0.4037E-02  0.4037E-02  0.6771E-03  0.6771E-03
    -20.304  0.4343E-02  0.4343E-02  0.1153E-02  0.1153E-02
    -20.194  0.4813E-02  0.4813E-02  0.1680E-02  0.1680E-02
    -20.085  0.3953E-02  0.3953E-02  0.2113E-02  0.2113E-02
    -19.975  0.5221E-02  0.5221E-02  0.2685E-02  0.2685E-02
    -19.866  0.4145E-02  0.4145E-02  0.3138E-02  0.3138E-02
    -19.756  0.3936E-02  0.3936E-02  0.3569E-02  0.3569E-02
    -19.646  0.5885E-02  0.5885E-02  0.4214E-02  0.4214E-02
    -19.537  0.3850E-02  0.3850E-02  0.4636E-02  0.4636E-02
    -19.427  0.3481E-02  0.3481E-02  0.5017E-02  0.5017E-02
    -19.318  0.5884E-02  0.5884E-02  0.5661E-02  0.5661E-02
    -19.208  0.5231E-02  0.5231E-02  0.6234E-02  0.6234E-02
    -19.099  0.3040E-02  0.3040E-02  0.6567E-02  0.6567E-02
    -18.989  0.3662E-02  0.3662E-02  0.6968E-02  0.6968E-02
    -18.880  0.6795E-02  0.6795E-02  0.7712E-02  0.7712E-02
    -18.770  0.4704E-02  0.4704E-02  0.8227E-02  0.8227E-02
    -18.661  0.3774E-02  0.3774E-02  0.8640E-02  0.8640E-02
    -18.551  0.2698E-02  0.2698E-02  0.8936E-02  0.8936E-02
    -18.442  0.5722E-02  0.5722E-02  0.9562E-02  0.9562E-02
    -18.332  0.6896E-02  0.6896E-02  0.1032E-01  0.1032E-01
    -18.223  0.3923E-02  0.3923E-02  0.1075E-01  0.1075E-01
    -18.113  0.2845E-02  0.2845E-02  0.1106E-01  0.1106E-01
    -18.004  0.3867E-02  0.3867E-02  0.1148E-01  0.1148E-01
    -17.894  0.5316E-02  0.5316E-02  0.1206E-01  0.1206E-01
    -17.785  0.6890E-02  0.6890E-02  0.1282E-01  0.1282E-01
    -17.675  0.4997E-02  0.4997E-02  0.1337E-01  0.1337E-01
    -17.566  0.3114E-02  0.3114E-02  0.1371E-01  0.1371E-01
    -17.456  0.3915E-02  0.3915E-02  0.1414E-01  0.1414E-01
    -17.347  0.1107E-01  0.1107E-01  0.1535E-01  0.1535E-01
    -17.237  0.1383E-01  0.1383E-01  0.1686E-01  0.1686E-01
    -17.128  0.1342E-01  0.1342E-01  0.1833E-01  0.1833E-01
    -17.018  0.1364E-01  0.1364E-01  0.1983E-01  0.1983E-01
    -16.909  0.1682E-01  0.1682E-01  0.2167E-01  0.2167E-01
    -16.799  0.1818E-01  0.1818E-01  0.2366E-01  0.2366E-01
    -16.690  0.1357E-01  0.1357E-01  0.2514E-01  0.2514E-01
    -16.580  0.1033E-01  0.1033E-01  0.2628E-01  0.2628E-01
    -16.471  0.5232E-02  0.5232E-02  0.2685E-01  0.2685E-01
    -16.361  0.4159E-02  0.4159E-02  0.2730E-01  0.2730E-01
    -16.252  0.3547E-02  0.3547E-02  0.2769E-01  0.2769E-01
    -16.142  0.4030E-02  0.4030E-02  0.2813E-01  0.2813E-01
    -16.033  0.3001E-02  0.3001E-02  0.2846E-01  0.2846E-01
    -15.923  0.5501E-02  0.5501E-02  0.2906E-01  0.2906E-01
    -15.814  0.8740E-02  0.8740E-02  0.3002E-01  0.3002E-01
    -15.704  0.5558E-02  0.5558E-02  0.3063E-01  0.3063E-01
    -15.595  0.3431E-02  0.3431E-02  0.3101E-01  0.3101E-01
    -15.485  0.3291E-02  0.3291E-02  0.3137E-01  0.3137E-01
    -15.376  0.3335E-02  0.3335E-02  0.3173E-01  0.3173E-01
    -15.266  0.5139E-02  0.5139E-02  0.3229E-01  0.3229E-01
    -15.157  0.6516E-02  0.6516E-02  0.3301E-01  0.3301E-01
    -15.047  0.6989E-02  0.6989E-02  0.3377E-01  0.3377E-01
    -14.937  0.9654E-02  0.9654E-02  0.3483E-01  0.3483E-01
    -14.828  0.1208E-01  0.1208E-01  0.3615E-01  0.3615E-01
    -14.718  0.1663E-01  0.1663E-01  0.3798E-01  0.3798E-01
    -14.609  0.1488E-01  0.1488E-01  0.3960E-01  0.3960E-01
    -14.499  0.1015E-01  0.1015E-01  0.4072E-01  0.4072E-01
    -14.390  0.1216E-01  0.1216E-01  0.4205E-01  0.4205E-01
    -14.280  0.1567E-01  0.1567E-01  0.4376E-01  0.4376E-01
    -14.171  0.9267E-02  0.9267E-02  0.4478E-01  0.4478E-01
    -14.061  0.8235E-02  0.8235E-02  0.4568E-01  0.4568E-01
    -13.952  0.1219E-01  0.1219E-01  0.4702E-01  0.4702E-01
    -13.842  0.1269E-01  0.1269E-01  0.4840E-01  0.4840E-01
    -13.733  0.1981E-01  0.1981E-01  0.5057E-01  0.5057E-01
    -13.623  0.2299E-01  0.2299E-01  0.5309E-01  0.5309E-01
    -13.514  0.1762E-01  0.1762E-01  0.5502E-01  0.5502E-01
    -13.404  0.1143E-01  0.1143E-01  0.5627E-01  0.5627E-01
    -13.295  0.7741E-02  0.7741E-02  0.5712E-01  0.5712E-01
    -13.185  0.6369E-02  0.6369E-02  0.5782E-01  0.5782E-01
    -13.076  0.6513E-02  0.6513E-02  0.5853E-01  0.5853E-01
    -12.966  0.5073E-02  0.5073E-02  0.5909E-01  0.5909E-01
    -12.857  0.5605E-02  0.5605E-02  0.5970E-01  0.5970E-01
    -12.747  0.5244E-02  0.5244E-02  0.6027E-01  0.6027E-01
    -12.638  0.6473E-02  0.6473E-02  0.6098E-01  0.6098E-01
    -12.528  0.5529E-02  0.5529E-02  0.6159E-01  0.6159E-01
    -12.419  0.4192E-02  0.4192E-02  0.6205E-01  0.6205E-01
    -12.309  0.4513E-02  0.4513E-02  0.6254E-01  0.6254E-01
    -12.200  0.7714E-02  0.7714E-02  0.6339E-01  0.6339E-01
    -12.090  0.4430E-02  0.4430E-02  0.6387E-01  0.6387E-01
    -11.981  0.3567E-02  0.3567E-02  0.6426E-01  0.6426E-01
    -11.871  0.3803E-02  0.3803E-02  0.6468E-01  0.6468E-01
    -11.762  0.3594E-02  0.3594E-02  0.6507E-01  0.6507E-01
    -11.652  0.5741E-02  0.5741E-02  0.6570E-01  0.6570E-01
    -11.543  0.6942E-02  0.6942E-02  0.6646E-01  0.6646E-01
    -11.433  0.2836E-02  0.2836E-02  0.6677E-01  0.6677E-01
    -11.324  0.2149E-02  0.2149E-02  0.6701E-01  0.6701E-01
    -11.214  0.6711E-02  0.6711E-02  0.6774E-01  0.6774E-01
    -11.105  0.8697E-02  0.8697E-02  0.6870E-01  0.6870E-01
    -10.995  0.4214E-02  0.4214E-02  0.6916E-01  0.6916E-01
    -10.886  0.5386E-02  0.5386E-02  0.6975E-01  0.6975E-01
    -10.776  0.4837E-02  0.4837E-02  0.7028E-01  0.7028E-01
    -10.667  0.2961E-02  0.2961E-02  0.7060E-01  0.7060E-01
    -10.557  0.6199E-02  0.6199E-02  0.7128E-01  0.7128E-01
    -10.447  0.1150E-01  0.1150E-01  0.7254E-01  0.7254E-01
    -10.338  0.1756E-01  0.1756E-01  0.7446E-01  0.7446E-01
    -10.228  0.1341E-01  0.1341E-01  0.7593E-01  0.7593E-01
    -10.119  0.1299E-01  0.1299E-01  0.7735E-01  0.7735E-01
    -10.009  0.1697E-01  0.1697E-01  0.7921E-01  0.7921E-01
     -9.900  0.1656E-01  0.1656E-01  0.8102E-01  0.8102E-01
     -9.790  0.9412E-02  0.9412E-02  0.8206E-01  0.8206E-01
     -9.681  0.4754E-02  0.4754E-02  0.8258E-01  0.8258E-01
     -9.571  0.1483E-01  0.1483E-01  0.8420E-01  0.8420E-01
     -9.462  0.2253E-01  0.2253E-01  0.8667E-01  0.8667E-01
     -9.352  0.1356E-01  0.1356E-01  0.8815E-01  0.8815E-01
     -9.243  0.8569E-02  0.8569E-02  0.8909E-01  0.8909E-01
     -9.133  0.1212E-01  0.1212E-01  0.9042E-01  0.9042E-01
     -9.024  0.1053E-01  0.1053E-01  0.9157E-01  0.9157E-01
     -8.914  0.1133E-01  0.1133E-01  0.9281E-01  0.9281E-01
     -8.805  0.1706E-01  0.1706E-01  0.9468E-01  0.9468E-01
     -8.695  0.1572E-01  0.1572E-01  0.9640E-01  0.9640E-01
     -8.586  0.1892E-01  0.1892E-01  0.9847E-01  0.9847E-01
     -8.476  0.1405E-01  0.1405E-01  0.1000E+00  0.1000E+00
     -8.367  0.1087E-01  0.1087E-01  0.1012E+00  0.1012E+00
     -8.257  0.1994E-01  0.1994E-01  0.1034E+00  0.1034E+00
     -8.148  0.1966E-01  0.1966E-01  0.1055E+00  0.1055E+00
     -8.038  0.1370E-01  0.1370E-01  0.1070E+00  0.1070E+00
     -7.929  0.1725E-01  0.1725E-01  0.1089E+00  0.1089E+00
     -7.819  0.1655E-01  0.1655E-01  0.1107E+00  0.1107E+00
     -7.710  0.2200E-01  0.2200E-01  0.1132E+00  0.1132E+00
     -7.600  0.2051E-01  0.2051E-01  0.1154E+00  0.1154E+00
     -7.491  0.1917E-01  0.1917E-01  0.1175E+00  0.1175E+00
     -7.381  0.1721E-01  0.1721E-01  0.1194E+00  0.1194E+00
     -7.272  0.1526E-01  0.1526E-01  0.1211E+00  0.1211E+00
     -7.162  0.1488E-01  0.1488E-01  0.1227E+00  0.1227E+00
     -7.053  0.1452E-01  0.1452E-01  0.1243E+00  0.1243E+00
     -6.943  0.1530E-01  0.1530E-01  0.1259E+00  0.1259E+00
     -6.834  0.1375E-01  0.1375E-01  0.1275E+00  0.1275E+00
     -6.724  0.1758E-01  0.1758E-01  0.1294E+00  0.1294E+00
     -6.615  0.2601E-01  0.2601E-01  0.1322E+00  0.1322E+00
     -6.505  0.1711E-01  0.1711E-01  0.1341E+00  0.1341E+00
     -6.396  0.1642E-01  0.1642E-01  0.1359E+00  0.1359E+00
     -6.286  0.1703E-01  0.1703E-01  0.1378E+00  0.1378E+00
     -6.177  0.1364E-01  0.1364E-01  0.1393E+00  0.1393E+00
     -6.067  0.2401E-01  0.2401E-01  0.1419E+00  0.1419E+00
     -5.957  0.2277E-01  0.2277E-01  0.1444E+00  0.1444E+00
     -5.848  0.1970E-01  0.1970E-01  0.1465E+00  0.1465E+00
     -5.738  0.2061E-01  0.2061E-01  0.1488E+00  0.1488E+00
     -5.629  0.2544E-01  0.2544E-01  0.1516E+00  0.1516E+00
     -5.519  0.2286E-01  0.2286E-01  0.1541E+00  0.1541E+00
     -5.410  0.2257E-01  0.2257E-01  0.1566E+00  0.1566E+00
     -5.300  0.2237E-01  0.2237E-01  0.1590E+00  0.1590E+00
     -5.191  0.3025E-01  0.3025E-01  0.1623E+00  0.1623E+00
     -5.081  0.3042E-01  0.3042E-01  0.1657E+00  0.1657E+00
     -4.972  0.1376E-01  0.1376E-01  0.1672E+00  0.1672E+00
     -4.862  0.8880E-02  0.8880E-02  0.1681E+00  0.1681E+00
     -4.753  0.1342E-01  0.1342E-01  0.1696E+00  0.1696E+00
     -4.643  0.1334E-01  0.1334E-01  0.1711E+00  0.1711E+00
     -4.534  0.1297E-01  0.1297E-01  0.1725E+00  0.1725E+00
     -4.424  0.8894E-02  0.8894E-02  0.1735E+00  0.1735E+00
     -4.315  0.7249E-02  0.7249E-02  0.1742E+00  0.1742E+00
     -4.205  0.1191E-01  0.1191E-01  0.1756E+00  0.1756E+00
     -4.096  0.1661E-01  0.1661E-01  0.1774E+00  0.1774E+00
     -3.986  0.1989E-01  0.1989E-01  0.1796E+00  0.1796E+00
     -3.877  0.2460E-01  0.2460E-01  0.1822E+00  0.1822E+00
     -3.767  0.2759E-01  0.2759E-01  0.1853E+00  0.1853E+00
     -3.658  0.2328E-01  0.2328E-01  0.1878E+00  0.1878E+00
     -3.548  0.1692E-01  0.1692E-01  0.1897E+00  0.1897E+00
     -3.439  0.1502E-01  0.1502E-01  0.1913E+00  0.1913E+00
     -3.329  0.1577E-01  0.1577E-01  0.1930E+00  0.1930E+00
     -3.220  0.1954E-01  0.1954E-01  0.1952E+00  0.1952E+00
     -3.110  0.1625E-01  0.1625E-01  0.1970E+00  0.1970E+00
     -3.001  0.1716E-01  0.1716E-01  0.1988E+00  0.1988E+00
     -2.891  0.1576E-01  0.1576E-01  0.2006E+00  0.2006E+00
     -2.782  0.1140E-01  0.1140E-01  0.2018E+00  0.2018E+00
     -2.672  0.1188E-01  0.1188E-01  0.2031E+00  0.2031E+00
     -2.563  0.8729E-02  0.8729E-02  0.2041E+00  0.2041E+00
     -2.453  0.1611E-01  0.1611E-01  0.2058E+00  0.2058E+00
     -2.344  0.1826E-01  0.1826E-01  0.2078E+00  0.2078E+00
     -2.234  0.7859E-02  0.7859E-02  0.2087E+00  0.2087E+00
     -2.125  0.3447E-02  0.3447E-02  0.2091E+00  0.2091E+00
     -2.015  0.6117E-02  0.6117E-02  0.2097E+00  0.2097E+00
     -1.906  0.1089E-01  0.1089E-01  0.2109E+00  0.2109E+00
     -1.796  0.1068E-01  0.1068E-01  0.2121E+00  0.2121E+00
     -1.687  0.1119E-01  0.1119E-01  0.2133E+00  0.2133E+00
     -1.577  0.1081E-01  0.1081E-01  0.2145E+00  0.2145E+00
     -1.467  0.7183E-02  0.7183E-02  0.2153E+00  0.2153E+00
     -1.358  0.6620E-02  0.6620E-02  0.2160E+00  0.2160E+00
     -1.248  0.4120E-02  0.4120E-02  0.2165E+00  0.2165E+00
     -1.139  0.3630E-02  0.3630E-02  0.2169E+00  0.2169E+00
     -1.029  0.3888E-02  0.3888E-02  0.2173E+00  0.2173E+00
     -0.920  0.4773E-02  0.4773E-02  0.2178E+00  0.2178E+00
     -0.810  0.5354E-02  0.5354E-02  0.2184E+00  0.2184E+00
     -0.701  0.1786E-02  0.1786E-02  0.2186E+00  0.2186E+00
     -0.591  0.3166E-03  0.3166E-03  0.2186E+00  0.2186E+00
     -0.482  0.1825E-04  0.1825E-04  0.2186E+00  0.2186E+00
     -0.372  0.2266E-05  0.2266E-05  0.2186E+00  0.2186E+00
     -0.263  0.1214E-03  0.1214E-03  0.2187E+00  0.2187E+00
     -0.153  0.8643E-03  0.8643E-03  0.2187E+00  0.2187E+00
     -0.044  0.8685E-03  0.8685E-03  0.2188E+00  0.2188E+00
      0.066  0.1232E-03  0.1232E-03  0.2189E+00  0.2189E+00
      0.175  0.2186E-05  0.2186E-05  0.2189E+00  0.2189E+00
      0.285  0.2042E-06  0.2042E-06  0.2189E+00  0.2189E+00
      0.394  0.4382E-04  0.4382E-04  0.2189E+00  0.2189E+00
      0.504  0.1069E-02  0.1069E-02  0.2190E+00  0.2190E+00
      0.613  0.3320E-02  0.3320E-02  0.2193E+00  0.2193E+00
      0.723  0.1522E-02  0.1522E-02  0.2195E+00  0.2195E+00
      0.832  0.1362E-02  0.1362E-02  0.2197E+00  0.2197E+00
      0.942  0.4098E-02  0.4098E-02  0.2201E+00  0.2201E+00
      1.051  0.5640E-02  0.5640E-02  0.2207E+00  0.2207E+00
      1.161  0.1179E-01  0.1179E-01  0.2220E+00  0.2220E+00
      1.270  0.2700E-01  0.2700E-01  0.2250E+00  0.2250E+00
      1.380  0.1590E-01  0.1590E-01  0.2267E+00  0.2267E+00
      1.489  0.3583E-02  0.3583E-02  0.2271E+00  0.2271E+00
      1.599  0.4607E-02  0.4607E-02  0.2276E+00  0.2276E+00
      1.708  0.8463E-02  0.8463E-02  0.2285E+00  0.2285E+00
      1.818  0.1459E-01  0.1459E-01  0.2301E+00  0.2301E+00
      1.927  0.1898E-01  0.1898E-01  0.2322E+00  0.2322E+00
      2.037  0.1118E-01  0.1118E-01  0.2334E+00  0.2334E+00
      2.146  0.6967E-02  0.6967E-02  0.2342E+00  0.2342E+00
      2.256  0.1042E-01  0.1042E-01  0.2353E+00  0.2353E+00
      2.365  0.1050E-01  0.1050E-01  0.2365E+00  0.2365E+00
      2.475  0.6626E-02  0.6626E-02  0.2372E+00  0.2372E+00
      2.584  0.8732E-02  0.8732E-02  0.2382E+00  0.2382E+00
      2.694  0.7530E-02  0.7530E-02  0.2390E+00  0.2390E+00
      2.803  0.8427E-02  0.8427E-02  0.2399E+00  0.2399E+00
      2.913  0.1006E-01  0.1006E-01  0.2410E+00  0.2410E+00
      3.023  0.9307E-02  0.9307E-02  0.2420E+00  0.2420E+00
      3.132  0.9121E-02  0.9121E-02  0.2430E+00  0.2430E+00
      3.242  0.1046E-01  0.1046E-01  0.2442E+00  0.2442E+00
      3.351  0.8925E-02  0.8925E-02  0.2452E+00  0.2452E+00
      3.461  0.9671E-02  0.9671E-02  0.2462E+00  0.2462E+00
      3.570  0.9967E-02  0.9967E-02  0.2473E+00  0.2473E+00
      3.680  0.9894E-02  0.9894E-02  0.2484E+00  0.2484E+00
      3.789  0.1096E-01  0.1096E-01  0.2496E+00  0.2496E+00
      3.899  0.1932E-01  0.1932E-01  0.2517E+00  0.2517E+00
      4.008  0.1792E-01  0.1792E-01  0.2537E+00  0.2537E+00
      4.118  0.1275E-01  0.1275E-01  0.2551E+00  0.2551E+00
      4.227  0.1324E-01  0.1324E-01  0.2565E+00  0.2565E+00
      4.337  0.1320E-01  0.1320E-01  0.2580E+00  0.2580E+00
      4.446  0.2187E-01  0.2187E-01  0.2604E+00  0.2604E+00
      4.556  0.2290E-01  0.2290E-01  0.2629E+00  0.2629E+00
      4.665  0.1902E-01  0.1902E-01  0.2650E+00  0.2650E+00
      4.775  0.1883E-01  0.1883E-01  0.2670E+00  0.2670E+00
      4.884  0.2524E-01  0.2524E-01  0.2698E+00  0.2698E+00
      4.994  0.2772E-01  0.2772E-01  0.2728E+00  0.2728E+00
      5.103  0.2619E-01  0.2619E-01  0.2757E+00  0.2757E+00
      5.213  0.3175E-01  0.3175E-01  0.2792E+00  0.2792E+00
      5.322  0.2469E-01  0.2469E-01  0.2819E+00  0.2819E+00
      5.432  0.2761E-01  0.2761E-01  0.2849E+00  0.2849E+00
      5.541  0.2413E-01  0.2413E-01  0.2875E+00  0.2875E+00
      5.651  0.1590E-01  0.1590E-01  0.2893E+00  0.2893E+00
      5.760  0.1860E-01  0.1860E-01  0.2913E+00  0.2913E+00
      5.870  0.2497E-01  0.2497E-01  0.2940E+00  0.2940E+00
      5.979  0.2250E-01  0.2250E-01  0.2965E+00  0.2965E+00
      6.089  0.1986E-01  0.1986E-01  0.2987E+00  0.2987E+00
      6.198  0.1802E-01  0.1802E-01  0.3007E+00  0.3007E+00
      6.308  0.2055E-01  0.2055E-01  0.3029E+00  0.3029E+00
      6.417  0.2435E-01  0.2435E-01  0.3056E+00  0.3056E+00
      6.527  0.2100E-01  0.2100E-01  0.3079E+00  0.3079E+00
      6.636  0.1773E-01  0.1773E-01  0.3098E+00  0.3098E+00
      6.746  0.1806E-01  0.1806E-01  0.3118E+00  0.3118E+00
      6.855  0.2561E-01  0.2561E-01  0.3146E+00  0.3146E+00
      6.965  0.2742E-01  0.2742E-01  0.3176E+00  0.3176E+00
      7.074  0.2255E-01  0.2255E-01  0.3201E+00  0.3201E+00
      7.184  0.2829E-01  0.2829E-01  0.3232E+00  0.3232E+00
      7.293  0.3162E-01  0.3162E-01  0.3266E+00  0.3266E+00
      7.403  0.1779E-01  0.1779E-01  0.3286E+00  0.3286E+00
      7.512  0.1586E-01  0.1586E-01  0.3303E+00  0.3303E+00
      7.622  0.2312E-01  0.2312E-01  0.3328E+00  0.3328E+00
      7.732  0.2517E-01  0.2517E-01  0.3356E+00  0.3356E+00
      7.841  0.2507E-01  0.2507E-01  0.3384E+00  0.3384E+00
      7.951  0.2306E-01  0.2306E-01  0.3409E+00  0.3409E+00
      8.060  0.1943E-01  0.1943E-01  0.3430E+00  0.3430E+00
      8.170  0.2036E-01  0.2036E-01  0.3452E+00  0.3452E+00
      8.279  0.2951E-01  0.2951E-01  0.3485E+00  0.3485E+00
      8.389  0.2720E-01  0.2720E-01  0.3514E+00  0.3514E+00
      8.498  0.3301E-01  0.3301E-01  0.3551E+00  0.3551E+00
      8.608  0.3164E-01  0.3164E-01  0.3585E+00  0.3585E+00
      8.717  0.3435E-01  0.3435E-01  0.3623E+00  0.3623E+00
      8.827  0.3387E-01  0.3387E-01  0.3660E+00  0.3660E+00
      8.936  0.2387E-01  0.2387E-01  0.3686E+00  0.3686E+00
      9.046  0.1793E-01  0.1793E-01  0.3706E+00  0.3706E+00
      9.155  0.1897E-01  0.1897E-01  0.3727E+00  0.3727E+00
      9.265  0.1453E-01  0.1453E-01  0.3742E+00  0.3742E+00
      9.374  0.5882E-02  0.5882E-02  0.3749E+00  0.3749E+00
      9.484  0.1010E-02  0.1010E-02  0.3750E+00  0.3750E+00
      9.593  0.3182E-04  0.3182E-04  0.3750E+00  0.3750E+00
      9.703  0.1195E-06  0.1195E-06  0.3750E+00  0.3750E+00
      9.812  0.4617E-10  0.4617E-10  0.3750E+00  0.3750E+00
      9.922  0.1737E-14  0.1737E-14  0.3750E+00  0.3750E+00
     10.031  0.0000E+00  0.0000E+00  0.3750E+00  0.3750E+00
     10.141  0.0000E+00  0.0000E+00  0.3750E+00  0.3750E+00
     10.250  0.0000E+00  0.0000E+00  0.3750E+00  0.3750E+00
     10.360  0.0000E+00  0.0000E+00  0.3750E+00  0.3750E+00
     10.469  0.0000E+00  0.0000E+00  0.3750E+00  0.3750E+00
     10.579  0.0000E+00  0.0000E+00  0.3750E+00  0.3750E+00
     10.688  0.0000E+00  0.0000E+00  0.3750E+00  0.3750E+00
     10.798  0.0000E+00  0.0000E+00  0.3750E+00  0.3750E+00
