<?xml version="1.0" encoding="ISO-8859-1"?>
<modeling>
 <generator>
  <i name="program" type="string">vasp </i>
  <i name="version" type="string">6.3.2  </i>
  <i name="subversion" type="string">27Jun22 (build Dec 22 2022 13:13:19) complex                          parallel </i>
  <i name="platform" type="string">LinuxIFC </i>
  <i name="date" type="string">2023 08 23 </i>
  <i name="time" type="string">04:28:38 </i>
 </generator>
 <incar>
  <i type="string" name="SYSTEM">Lattice</i>
  <i type="int" name="ISTART">     0</i>
  <i type="string" name="PREC">Accurate</i>
  <i type="string" name="ALGO">Normal</i>
  <i type="int" name="ISPIN">     2</i>
  <i type="int" name="ICHARG">     2</i>
  <i type="int" name="NELM">    64</i>
  <i type="int" name="IBRION">     2</i>
  <i name="EDIFF">      0.00000100</i>
  <i name="EDIFFG">     -0.00100000</i>
  <i type="int" name="NSW">   128</i>
  <i type="int" name="ISIF">     2</i>
  <i name="ENCUT">    450.00000000</i>
  <i name="POTIM">      0.50000000</i>
  <i type="int" name="ISMEAR">     0</i>
  <i name="SIGMA">      0.10000000</i>
  <i type="logical" name="LWAVE"> F  </i>
  <i type="logical" name="LCHARG"> F  </i>
  <i type="string" name="GGA">PE</i>
  <i type="int" name="IVDW">    12</i>
 </incar>
 <primitive_cell>
  <structure name="primitive_cell" >
   <crystal>
    <varray name="basis" >
     <v>       4.18809885       2.41800000       0.00000000 </v>
     <v>      -4.18809885       2.41800000       0.00000000 </v>
     <v>       0.00000000       0.00000000      15.00000000 </v>
    </varray>
    <i name="volume">    303.80469077 </i>
    <varray name="rec_basis" >
     <v>       0.11938591       0.20678246       0.00000000 </v>
     <v>      -0.11938591       0.20678246       0.00000000 </v>
     <v>       0.00000000       0.00000000       0.06666667 </v>
    </varray>
   </crystal>
   <varray name="positions" >
    <v>       0.00415361       0.00267210       0.12034134 </v>
    <v>       0.35695335       0.00285503       0.09748893 </v>
    <v>       0.00423858       0.35550699       0.09749256 </v>
    <v>       0.65142295       0.65006557       0.09747688 </v>
    <v>       0.32808646       0.32671938       0.10030508 </v>
    <v>       0.68027775       0.00278085       0.10027562 </v>
    <v>       0.00416530       0.67883808       0.10026559 </v>
    <v>       0.99999933       0.49999967       0.33373333 </v>
    <v>       0.16666633       0.33333267       0.33373333 </v>
    <v>       0.99999933       0.99999967       0.33373333 </v>
    <v>       0.16666633       0.83333267       0.33373333 </v>
    <v>       0.49999933       0.49999967       0.33373333 </v>
    <v>       0.66666633       0.33333267       0.33373333 </v>
    <v>       0.49999933       0.99999967       0.33373333 </v>
    <v>       0.66666633       0.83333267       0.33373333 </v>
   </varray>
  </structure>
  <varray name="primitive_index" >
   <v type="int" >        1 </v>
   <v type="int" >        2 </v>
   <v type="int" >        3 </v>
   <v type="int" >        4 </v>
   <v type="int" >        5 </v>
   <v type="int" >        6 </v>
   <v type="int" >        7 </v>
   <v type="int" >        8 </v>
   <v type="int" >        9 </v>
   <v type="int" >       10 </v>
   <v type="int" >       11 </v>
   <v type="int" >       12 </v>
   <v type="int" >       13 </v>
   <v type="int" >       14 </v>
   <v type="int" >       15 </v>
  </varray>
 </primitive_cell>
 <kpoints>
  <generation param="Gamma">
   <v type="int" name="divisions">      12       12        1 </v>
   <v name="usershift">      0.00000000       0.00000000       0.00000000 </v>
   <v name="genvec1">      0.08333333       0.00000000       0.00000000 </v>
   <v name="genvec2">      0.00000000       0.08333333       0.00000000 </v>
   <v name="genvec3">      0.00000000       0.00000000       1.00000000 </v>
   <v name="shift">      0.00000000       0.00000000       0.00000000 </v>
  </generation>
  <varray name="kpointlist" >
   <v>       0.00000000       0.00000000       0.00000000 </v>
   <v>       0.08333333      -0.00000000       0.00000000 </v>
   <v>      -0.00000000       0.08333333       0.00000000 </v>
   <v>      -0.08333333       0.08333333       0.00000000 </v>
   <v>       0.16666667       0.00000000       0.00000000 </v>
   <v>       0.00000000       0.16666667       0.00000000 </v>
   <v>      -0.16666667       0.16666667       0.00000000 </v>
   <v>       0.25000000      -0.00000000       0.00000000 </v>
   <v>      -0.00000000       0.25000000       0.00000000 </v>
   <v>      -0.25000000       0.25000000       0.00000000 </v>
   <v>       0.33333333       0.00000000       0.00000000 </v>
   <v>       0.00000000       0.33333333       0.00000000 </v>
   <v>      -0.33333333       0.33333333       0.00000000 </v>
   <v>       0.41666667      -0.00000000       0.00000000 </v>
   <v>      -0.00000000       0.41666667       0.00000000 </v>
   <v>      -0.41666667       0.41666667       0.00000000 </v>
   <v>       0.50000000      -0.00000000       0.00000000 </v>
   <v>      -0.00000000       0.50000000       0.00000000 </v>
   <v>       0.50000000       0.50000000       0.00000000 </v>
   <v>       0.08333333       0.08333333       0.00000000 </v>
   <v>      -0.08333333       0.16666667       0.00000000 </v>
   <v>      -0.16666667       0.08333333       0.00000000 </v>
   <v>       0.16666667       0.08333333       0.00000000 </v>
   <v>      -0.08333333       0.25000000       0.00000000 </v>
   <v>      -0.25000000       0.16666667       0.00000000 </v>
   <v>      -0.16666667       0.25000000       0.00000000 </v>
   <v>       0.08333333       0.16666667       0.00000000 </v>
   <v>       0.25000000      -0.08333333       0.00000000 </v>
   <v>       0.25000000       0.08333333       0.00000000 </v>
   <v>      -0.08333333       0.33333333       0.00000000 </v>
   <v>      -0.33333333       0.25000000       0.00000000 </v>
   <v>      -0.25000000       0.33333333       0.00000000 </v>
   <v>       0.08333333       0.25000000       0.00000000 </v>
   <v>       0.33333333      -0.08333333       0.00000000 </v>
   <v>       0.33333333       0.08333333       0.00000000 </v>
   <v>      -0.08333333       0.41666667       0.00000000 </v>
   <v>      -0.41666667       0.33333333       0.00000000 </v>
   <v>      -0.33333333       0.41666667       0.00000000 </v>
   <v>       0.08333333       0.33333333       0.00000000 </v>
   <v>       0.41666667      -0.08333333       0.00000000 </v>
   <v>       0.41666667       0.08333333       0.00000000 </v>
   <v>      -0.08333333       0.50000000       0.00000000 </v>
   <v>       0.50000000       0.41666667       0.00000000 </v>
   <v>      -0.41666667       0.50000000       0.00000000 </v>
   <v>       0.08333333       0.41666667       0.00000000 </v>
   <v>       0.50000000      -0.08333333       0.00000000 </v>
   <v>       0.16666667       0.16666667       0.00000000 </v>
   <v>      -0.16666667       0.33333333       0.00000000 </v>
   <v>      -0.33333333       0.16666667       0.00000000 </v>
   <v>       0.25000000       0.16666667       0.00000000 </v>
   <v>      -0.16666667       0.41666667       0.00000000 </v>
   <v>      -0.41666667       0.25000000       0.00000000 </v>
   <v>      -0.25000000       0.41666667       0.00000000 </v>
   <v>       0.16666667       0.25000000       0.00000000 </v>
   <v>       0.41666667      -0.16666667       0.00000000 </v>
   <v>       0.33333333       0.16666667       0.00000000 </v>
   <v>      -0.16666667       0.50000000       0.00000000 </v>
   <v>       0.50000000       0.33333333       0.00000000 </v>
   <v>      -0.33333333       0.50000000       0.00000000 </v>
   <v>       0.16666667       0.33333333       0.00000000 </v>
   <v>       0.50000000      -0.16666667       0.00000000 </v>
   <v>       0.41666667       0.16666667       0.00000000 </v>
   <v>      -0.16666667      -0.41666667       0.00000000 </v>
   <v>       0.41666667       0.41666667       0.00000000 </v>
   <v>       0.25000000       0.25000000       0.00000000 </v>
   <v>      -0.25000000       0.50000000       0.00000000 </v>
   <v>       0.50000000       0.25000000       0.00000000 </v>
   <v>       0.33333333       0.25000000       0.00000000 </v>
   <v>      -0.25000000      -0.41666667       0.00000000 </v>
   <v>       0.41666667       0.33333333       0.00000000 </v>
   <v>      -0.33333333      -0.41666667       0.00000000 </v>
   <v>       0.25000000       0.33333333       0.00000000 </v>
   <v>      -0.41666667      -0.25000000       0.00000000 </v>
   <v>       0.33333333       0.33333333       0.00000000 </v>
  </varray>
  <varray name="weights" >
   <v>       0.00694444 </v>
   <v>       0.01388889 </v>
   <v>       0.01388889 </v>
   <v>       0.01388889 </v>
   <v>       0.01388889 </v>
   <v>       0.01388889 </v>
   <v>       0.01388889 </v>
   <v>       0.01388889 </v>
   <v>       0.01388889 </v>
   <v>       0.01388889 </v>
   <v>       0.01388889 </v>
   <v>       0.01388889 </v>
   <v>       0.01388889 </v>
   <v>       0.01388889 </v>
   <v>       0.01388889 </v>
   <v>       0.01388889 </v>
   <v>       0.00694444 </v>
   <v>       0.00694444 </v>
   <v>       0.00694444 </v>
   <v>       0.01388889 </v>
   <v>       0.01388889 </v>
   <v>       0.01388889 </v>
   <v>       0.01388889 </v>
   <v>       0.01388889 </v>
   <v>       0.01388889 </v>
   <v>       0.01388889 </v>
   <v>       0.01388889 </v>
   <v>       0.01388889 </v>
   <v>       0.01388889 </v>
   <v>       0.01388889 </v>
   <v>       0.01388889 </v>
   <v>       0.01388889 </v>
   <v>       0.01388889 </v>
   <v>       0.01388889 </v>
   <v>       0.01388889 </v>
   <v>       0.01388889 </v>
   <v>       0.01388889 </v>
   <v>       0.01388889 </v>
   <v>       0.01388889 </v>
   <v>       0.01388889 </v>
   <v>       0.01388889 </v>
   <v>       0.01388889 </v>
   <v>       0.01388889 </v>
   <v>       0.01388889 </v>
   <v>       0.01388889 </v>
   <v>       0.01388889 </v>
   <v>       0.01388889 </v>
   <v>       0.01388889 </v>
   <v>       0.01388889 </v>
   <v>       0.01388889 </v>
   <v>       0.01388889 </v>
   <v>       0.01388889 </v>
   <v>       0.01388889 </v>
   <v>       0.01388889 </v>
   <v>       0.01388889 </v>
   <v>       0.01388889 </v>
   <v>       0.01388889 </v>
   <v>       0.01388889 </v>
   <v>       0.01388889 </v>
   <v>       0.01388889 </v>
   <v>       0.01388889 </v>
   <v>       0.01388889 </v>
   <v>       0.01388889 </v>
   <v>       0.01388889 </v>
   <v>       0.01388889 </v>
   <v>       0.01388889 </v>
   <v>       0.01388889 </v>
   <v>       0.01388889 </v>
   <v>       0.01388889 </v>
   <v>       0.01388889 </v>
   <v>       0.01388889 </v>
   <v>       0.01388889 </v>
   <v>       0.01388889 </v>
   <v>       0.01388889 </v>
  </varray>
 </kpoints>
 <parameters>
  <separator name="general" >
   <i type="string" name="SYSTEM">Lattice</i>
   <i type="logical" name="LCOMPAT"> F  </i>
  </separator>
  <separator name="electronic" >
   <i type="string" name="PREC">accura</i>
   <i name="ENMAX">    450.00000000</i>
   <i name="ENAUG">    644.87300000</i>
   <i name="EDIFF">      0.00000100</i>
   <i type="int" name="IALGO">    38</i>
   <i type="int" name="IWAVPR">    11</i>
   <i type="int" name="NBANDS">    48</i>
   <i type="int" name="NBANDSLOW">    -1</i>
   <i type="int" name="NBANDSHIGH">    -1</i>
   <i name="NELECT">     56.00000000</i>
   <i type="int" name="TURBO">     0</i>
   <i type="int" name="IRESTART">     0</i>
   <i type="int" name="NREBOOT">     0</i>
   <i type="int" name="NMIN">     0</i>
   <i name="EREF">      0.00000000</i>
   <separator name="electronic smearing" >
    <i type="int" name="ISMEAR">     0</i>
    <i name="SIGMA">      0.10000000</i>
    <i name="KSPACING">      0.50000000</i>
    <i type="logical" name="KGAMMA"> T  </i>
    <i type="logical" name="KBLOWUP"> T  </i>
   </separator>
   <separator name="electronic projectors" >
    <i type="logical" name="LREAL"> F  </i>
    <v name="ROPT">      0.00000000      0.00000000</v>
    <i type="int" name="LMAXPAW">  -100</i>
    <i type="int" name="LMAXMIX">     2</i>
    <i type="logical" name="NLSPLINE"> F  </i>
   </separator>
   <separator name="electronic startup" >
    <i type="int" name="ISTART">     0</i>
    <i type="int" name="ICHARG">     2</i>
    <i type="int" name="INIWAV">     1</i>
   </separator>
   <separator name="electronic spin" >
    <i type="int" name="ISPIN">     2</i>
    <i type="logical" name="LNONCOLLINEAR"> F  </i>
    <v name="MAGMOM">      1.00000000      1.00000000      1.00000000      1.00000000      1.00000000      1.00000000      1.00000000      1.00000000      1.00000000      1.00000000      1.00000000      1.00000000      1.00000000      1.00000000      1.00000000</v>
    <i name="NUPDOWN">     -1.00000000</i>
    <i type="logical" name="LSORBIT"> F  </i>
    <v name="SAXIS">      0.00000000      0.00000000      1.00000000</v>
    <i type="logical" name="LSPIRAL"> F  </i>
    <v name="QSPIRAL">      0.00000000      0.00000000      0.00000000</v>
    <i type="logical" name="LZEROZ"> F  </i>
   </separator>
   <separator name="electronic exchange-correlation" >
    <i type="logical" name="LASPH"> F  </i>
    <i type="logical" name="LMETAGGA"> F  </i>
   </separator>
   <separator name="electronic convergence" >
    <i type="int" name="NELM">    64</i>
    <i type="int" name="NELMDL">    -5</i>
    <i type="int" name="NELMIN">     2</i>
    <i name="ENINI">    450.00000000</i>
    <separator name="electronic convergence detail" >
     <i type="logical" name="LDIAG"> T  </i>
     <i type="logical" name="LSUBROT"> F  </i>
     <i name="WEIMIN">      0.00100000</i>
     <i name="EBREAK">      0.00000001</i>
     <i name="DEPER">      0.30000000</i>
     <i type="int" name="NRMM">     4</i>
     <i name="TIME">      0.40000000</i>
    </separator>
   </separator>
   <separator name="electronic mixer" >
    <i name="AMIX">      0.40000000</i>
    <i name="BMIX">      1.00000000</i>
    <i name="AMIN">      0.10000000</i>
    <i name="AMIX_MAG">      1.60000000</i>
    <i name="BMIX_MAG">      1.00000000</i>
    <separator name="electronic mixer details" >
     <i type="int" name="IMIX">     4</i>
     <i type="logical" name="MIXFIRST"> F  </i>
     <i type="int" name="MAXMIX">   -45</i>
     <i name="WC">    100.00000000</i>
     <i type="int" name="INIMIX">     1</i>
     <i type="int" name="MIXPRE">     1</i>
     <i type="int" name="MREMOVE">     5</i>
    </separator>
   </separator>
   <separator name="electronic dipolcorrection" >
    <i type="logical" name="LDIPOL"> F  </i>
    <i type="logical" name="LMONO"> F  </i>
    <i type="int" name="IDIPOL">     0</i>
    <i name="EPSILON">      1.00000000</i>
    <v name="DIPOL">   -100.00000000   -100.00000000   -100.00000000</v>
    <i name="EFIELD">      0.00000000</i>
   </separator>
  </separator>
  <separator name="grids" >
   <i type="int" name="NGX">    36</i>
   <i type="int" name="NGY">    36</i>
   <i type="int" name="NGZ">   108</i>
   <i type="int" name="NGXF">    72</i>
   <i type="int" name="NGYF">    72</i>
   <i type="int" name="NGZF">   216</i>
   <i type="logical" name="ADDGRID"> F  </i>
  </separator>
  <separator name="ionic" >
   <i type="int" name="NSW">   128</i>
   <i type="int" name="IBRION">     2</i>
   <i type="int" name="MDALGO">     0</i>
   <i type="int" name="ISIF">     2</i>
   <i name="PSTRESS">      0.00000000</i>
   <i name="EDIFFG">     -0.00100000</i>
   <i type="int" name="NFREE">     1</i>
   <i name="POTIM">      0.50000000</i>
   <i name="SMASS">     -3.00000000</i>
   <i name="SCALEE">      1.00000000</i>
  </separator>
  <separator name="ionic md" >
   <i name="TEBEG">      0.00010000</i>
   <i name="TEEND">      0.00010000</i>
   <i type="int" name="NBLOCK">     1</i>
   <i type="int" name="KBLOCK">   128</i>
   <i type="int" name="NPACO">   256</i>
   <i name="APACO">     10.00000000</i>
  </separator>
  <separator name="symmetry" >
   <i type="int" name="ISYM">     2</i>
   <i name="SYMPREC">      0.00001000</i>
  </separator>
  <separator name="dos" >
   <i type="int" name="LORBIT">     0</i>
   <v name="RWIGS">     -1.00000000     -1.00000000</v>
   <i type="int" name="NEDOS">   301</i>
   <i name="EMIN">     10.00000000</i>
   <i name="EMAX">    -10.00000000</i>
   <i name="EFERMI">      0.00000000</i>
  </separator>
  <separator name="writing" >
   <i type="int" name="NWRITE">     2</i>
   <i type="logical" name="LWAVE"> F  </i>
   <i type="logical" name="LDOWNSAMPLE"> F  </i>
   <i type="logical" name="LCHARG"> F  </i>
   <i type="logical" name="LPARD"> F  </i>
   <i type="logical" name="LVTOT"> F  </i>
   <i type="logical" name="LVHAR"> F  </i>
   <i type="logical" name="LELF"> F  </i>
   <i type="logical" name="LOPTICS"> F  </i>
   <v name="STM">      0.00000000      0.00000000      0.00000000      0.00000000      0.00000000      0.00000000      0.00000000</v>
  </separator>
  <separator name="performance" >
   <i type="int" name="NPAR">    48</i>
   <i type="int" name="NSIM">     4</i>
   <i type="int" name="NBLK">    -1</i>
   <i type="logical" name="LPLANE"> T  </i>
   <i type="logical" name="LSCALAPACK"> T  </i>
   <i type="logical" name="LSCAAWARE"> F  </i>
   <i type="logical" name="LSCALU"> F  </i>
   <i type="logical" name="LASYNC"> F  </i>
   <i type="logical" name="LORBITALREAL"> F  </i>
  </separator>
  <separator name="miscellaneous" >
   <i type="int" name="IDIOT">     3</i>
   <i type="int" name="PHON_NSTRUCT">    -1</i>
   <i type="logical" name="LMUSIC"> F  </i>
   <v name="POMASS">     10.81100000     12.01100000</v>
   <v name="DARWINR">      0.00000000      0.00000000</v>
   <v name="DARWINV">      1.00000000      1.00000000</v>
   <i type="logical" name="LCORR"> T  </i>
  </separator>
  <i type="logical" name="GGA_COMPAT"> T  </i>
  <i type="logical" name="LBERRY"> F  </i>
  <i type="int" name="ICORELEVEL">     0</i>
  <i type="logical" name="LDAU"> F  </i>
  <i type="int" name="I_CONSTRAINED_M">     0</i>
  <separator name="electronic exchange-correlation" >
   <i type="string" name="GGA">PE</i>
   <i type="int" name="VOSKOWN">     0</i>
   <i type="logical" name="LHFCALC"> F  </i>
   <i type="string" name="PRECFOCK"></i>
   <i type="logical" name="LSYMGRAD"> F  </i>
   <i type="logical" name="LHFONE"> F  </i>
   <i type="logical" name="LRHFCALC"> F  </i>
   <i type="logical" name="LTHOMAS"> F  </i>
   <i type="logical" name="LMODELHF"> F  </i>
   <i type="logical" name="LFOCKACE"> F  </i>
   <i name="ENCUT4O">     -1.00000000</i>
   <i type="int" name="EXXOEP">     0</i>
   <i type="int" name="FOURORBIT">     0</i>
   <i name="AEXX">      0.00000000</i>
   <i name="HFALPHA">      0.00000000</i>
   <i name="MCALPHA">      0.00000000</i>
   <i name="ALDAX">      1.00000000</i>
   <i name="AGGAX">      1.00000000</i>
   <i name="ALDAC">      1.00000000</i>
   <i name="AGGAC">      1.00000000</i>
   <i type="int" name="NKREDX">     1</i>
   <i type="int" name="NKREDY">     1</i>
   <i type="int" name="NKREDZ">     1</i>
   <i type="logical" name="SHIFTRED"> F  </i>
   <i type="logical" name="ODDONLY"> F  </i>
   <i type="logical" name="EVENONLY"> F  </i>
   <i type="int" name="LMAXFOCK">     0</i>
   <i type="int" name="NMAXFOCKAE">     0</i>
   <i type="logical" name="LFOCKAEDFT"> F  </i>
   <i name="HFSCREEN">      0.00000000</i>
   <i name="HFSCREENC">      0.00000000</i>
   <i type="int" name="NBANDSGWLOW">     0</i>
  </separator>
  <separator name="vdW DFT" >
   <i type="logical" name="LUSE_VDW"> F  </i>
   <i name="Zab_VDW">     -0.84910000</i>
   <i name="PARAM1">      0.12340000</i>
   <i name="PARAM2">      1.00000000</i>
   <i name="PARAM3">      0.00000000</i>
  </separator>
  <separator name="model GW" >
   <i type="int" name="MODEL_GW">     0</i>
   <i name="MODEL_EPS0">     12.15218763</i>
   <i name="MODEL_ALPHA">      1.00000000</i>
  </separator>
  <separator name="linear response parameters" >
   <i type="logical" name="LEPSILON"> F  </i>
   <i type="logical" name="LRPA"> F  </i>
   <i type="logical" name="LNABLA"> F  </i>
   <i type="logical" name="LVEL"> F  </i>
   <i name="CSHIFT">      0.10000000</i>
   <i name="OMEGAMAX">     -1.00000000</i>
   <i name="DEG_THRESHOLD">      0.00200000</i>
   <i name="RTIME">     -0.10000000</i>
   <i name="WPLASMAI">      0.00000000</i>
   <v name="DFIELD">      0.00000000      0.00000000      0.00000000</v>
   <v name="WPLASMA">      0.00000000      0.00000000      0.00000000      0.00000000      0.00000000      0.00000000      0.00000000      0.00000000      0.00000000</v>
  </separator>
  <separator name="orbital magnetization" >
   <i type="logical" name="NUCIND"> F  </i>
   <v name="MAGPOS">      0.00000000      0.00000000      0.00000000</v>
   <i type="logical" name="LNICSALL"> T  </i>
   <i type="logical" name="ORBITALMAG"> F  </i>
   <i type="logical" name="LMAGBLOCH"> F  </i>
   <i type="logical" name="LCHIMAG"> F  </i>
   <i type="logical" name="LGAUGE"> T  </i>
   <i type="int" name="MAGATOM">     0</i>
   <v name="MAGDIPOL">      0.00000000      0.00000000      0.00000000</v>
   <v name="AVECCONST">      0.00000000      0.00000000      0.00000000</v>
  </separator>
  <separator name="response functions" >
   <i type="logical" name="LFINITE_TEMPERATURE"> F  </i>
   <i type="logical" name="LADDER"> F  </i>
   <i type="logical" name="LRPAFORCE"> F  </i>
   <i type="logical" name="LFXC"> F  </i>
   <i type="logical" name="LHARTREE"> T  </i>
   <i type="int" name="IBSE">     0</i>
   <v type="int" name="KPOINT">    -1     0     0     0</v>
   <i type="logical" name="LTCTC"> F  </i>
   <i type="logical" name="LTCTE"> F  </i>
   <i type="logical" name="LTETE"> F  </i>
   <i type="logical" name="LTRIPLET"> F  </i>
   <i type="logical" name="LFXCEPS"> F  </i>
   <i type="logical" name="LFXHEG"> F  </i>
   <i type="int" name="NATURALO">     2</i>
   <i type="logical" name="LHOLEGF"> F  </i>
   <i type="logical" name="L2ORDER"> F  </i>
   <i type="logical" name="LDMP1"> F  </i>
   <i type="logical" name="LMP2LT"> F  </i>
   <i type="logical" name="LSMP2LT"> F  </i>
   <i type="logical" name="LGWLF"> F  </i>
   <i name="ENCUTGW">     -2.00000000</i>
   <i name="ENCUTGWSOFT">     -2.00000000</i>
   <i name="ENCUTLF">     -1.00000000</i>
   <i type="logical" name="LESF_SPLINES"> F  </i>
   <i type="int" name="LMAXMP2">    -1</i>
   <i name="SCISSOR">      0.00000000</i>
   <i type="int" name="NOMEGA">     0</i>
   <i type="int" name="NOMEGAR">     0</i>
   <i type="int" name="NBANDSGW">    -1</i>
   <i type="int" name="NBANDSO">    -1</i>
   <i type="int" name="NBANDSV">    -1</i>
   <i type="int" name="NELMGW">     1</i>
   <i type="int" name="NELMHF">     1</i>
   <i type="int" name="DIM">     3</i>
   <i type="int" name="IESPILON">     4</i>
   <i type="int" name="ANTIRES">     0</i>
   <i name="OMEGAMAX">    -30.00000000</i>
   <i name="OMEGAMIN">    -30.00000000</i>
   <i name="OMEGATL">   -200.00000000</i>
   <i type="int" name="OMEGAGRID">     0</i>
   <i name="CSHIFT">     -0.10000000</i>
   <i type="logical" name="LSELFENERGY"> F  </i>
   <i type="logical" name="LSPECTRAL"> F  </i>
   <i type="logical" name="LSPECTRALGW"> F  </i>
   <i type="logical" name="LSINGLES"> F  </i>
   <i type="logical" name="LFERMIGW"> F  </i>
   <i type="logical" name="ODDONLYGW"> F  </i>
   <i type="logical" name="EVENONLYGW"> F  </i>
   <i type="int" name="NKREDLFX">     1</i>
   <i type="int" name="NKREDLFY">     1</i>
   <i type="int" name="NKREDLFZ">     1</i>
   <i type="int" name="MAXMEM">  2800</i>
   <i type="int" name="TELESCOPE">     0</i>
   <i type="int" name="NTAUPAR">    -1</i>
   <i type="int" name="NOMEGAPAR">    -1</i>
   <i name="DAMP_NEWTON">      0.80000001</i>
   <i name="LAMBDA">      1.00000000</i>
  </separator>
  <separator name="External order field" >
   <i name="OFIELD_KAPPA">      0.00000000</i>
   <v name="OFIELD_K">      0.00000000      0.00000000      0.00000000</v>
   <i name="OFIELD_Q6_NEAR">      0.00000000</i>
   <i name="OFIELD_Q6_FAR">      0.00000000</i>
   <i name="OFIELD_A">      0.00000000</i>
  </separator>
  <separator name="optional k-points parameters" >
   <i type="int" name="KPOINTS_OPT_MODE">     1</i>
   <i type="logical" name="LKPOINTS_OPT"> F  </i>
  </separator>
  <separator name="solvation model" >
   <i type="logical" name="LSOL"> F  </i>
  </separator>
 </parameters>
 <atominfo>
  <atoms>      15 </atoms>
  <types>       2 </types>
  <array name="atoms" >
   <dimension dim="1">ion</dimension>
   <field type="string">element</field>
   <field type="int">atomtype</field>
   <set>
    <rc><c>B </c><c>   1</c></rc>
    <rc><c>B </c><c>   1</c></rc>
    <rc><c>B </c><c>   1</c></rc>
    <rc><c>B </c><c>   1</c></rc>
    <rc><c>C </c><c>   2</c></rc>
    <rc><c>C </c><c>   2</c></rc>
    <rc><c>C </c><c>   2</c></rc>
    <rc><c>C </c><c>   2</c></rc>
    <rc><c>C </c><c>   2</c></rc>
    <rc><c>C </c><c>   2</c></rc>
    <rc><c>C </c><c>   2</c></rc>
    <rc><c>C </c><c>   2</c></rc>
    <rc><c>C </c><c>   2</c></rc>
    <rc><c>C </c><c>   2</c></rc>
    <rc><c>C </c><c>   2</c></rc>
   </set>
  </array>
  <array name="atomtypes" >
   <dimension dim="1">type</dimension>
   <field type="int">atomspertype</field>
   <field type="string">element</field>
   <field>mass</field>
   <field>valence</field>
   <field type="string">pseudopotential</field>
   <set>
    <rc><c>   4</c><c>B </c><c>     10.81100000</c><c>      3.00000000</c><c>  PAW_PBE B 06Sep2000                   </c></rc>
    <rc><c>  11</c><c>C </c><c>     12.01100000</c><c>      4.00000000</c><c>  PAW_PBE C 08Apr2002                   </c></rc>
   </set>
  </array>
 </atominfo>
 <structure name="initialpos" >
  <crystal>
   <varray name="basis" >
    <v>       4.18809885       2.41800000       0.00000000 </v>
    <v>      -4.18809885       2.41800000       0.00000000 </v>
    <v>       0.00000000       0.00000000      15.00000000 </v>
   </varray>
   <i name="volume">    303.80469077 </i>
   <varray name="rec_basis" >
    <v>       0.11938591       0.20678246       0.00000000 </v>
    <v>      -0.11938591       0.20678246       0.00000000 </v>
    <v>       0.00000000       0.00000000       0.06666667 </v>
   </varray>
  </crystal>
  <varray name="positions" >
   <v>       0.00415361       0.00267210       0.12034134 </v>
   <v>       0.35695335       0.00285503       0.09748893 </v>
   <v>       0.00423858       0.35550699       0.09749256 </v>
   <v>       0.65142295       0.65006557       0.09747688 </v>
   <v>       0.32808646       0.32671938       0.10030508 </v>
   <v>       0.68027775       0.00278085       0.10027562 </v>
   <v>       0.00416530       0.67883808       0.10026559 </v>
   <v>       0.99999933       0.49999967       0.33373333 </v>
   <v>       0.16666633       0.33333267       0.33373333 </v>
   <v>       0.99999933       0.99999967       0.33373333 </v>
   <v>       0.16666633       0.83333267       0.33373333 </v>
   <v>       0.49999933       0.49999967       0.33373333 </v>
   <v>       0.66666633       0.33333267       0.33373333 </v>
   <v>       0.49999933       0.99999967       0.33373333 </v>
   <v>       0.66666633       0.83333267       0.33373333 </v>
  </varray>
 </structure>
 <calculation>
  <scstep>
   <time name="dav">    5.47    5.53</time>
   <time name="total">    5.52    5.58</time>
   <energy>
    <i name="alphaZ">     58.54845360 </i>
    <i name="ewald">   4809.42644242 </i>
    <i name="hartreedc">  -6364.04197461 </i>
    <i name="XCdc">    175.33021011 </i>
    <i name="pawpsdc">   1365.87943566 </i>
    <i name="pawaedc">  -1368.52100941 </i>
    <i name="eentropy">     -0.01427637 </i>
    <i name="bandstr">   -375.87604332 </i>
    <i name="atom">   1903.26342058 </i>
    <i name="e_fr_energy">    203.99465865 </i>
    <i name="e_wo_entrp">    204.00893502 </i>
    <i name="e_0_energy">    204.00179684 </i>
   </energy>
  </scstep>
  <scstep>
   <time name="dav">    7.99    8.06</time>
   <time name="total">    7.99    8.06</time>
   <energy>
    <i name="e_fr_energy">   -116.69646256 </i>
    <i name="e_wo_entrp">   -116.69550115 </i>
    <i name="e_0_energy">   -116.69598185 </i>
   </energy>
  </scstep>
  <scstep>
   <time name="dav">   11.47   11.57</time>
   <time name="total">   11.47   11.57</time>
   <energy>
    <i name="e_fr_energy">   -129.50775091 </i>
    <i name="e_wo_entrp">   -129.50461116 </i>
    <i name="e_0_energy">   -129.50618104 </i>
   </energy>
  </scstep>
  <scstep>
   <time name="dav">    8.06    8.14</time>
   <time name="total">    8.06    8.14</time>
   <energy>
    <i name="e_fr_energy">   -129.52604169 </i>
    <i name="e_wo_entrp">   -129.52288319 </i>
    <i name="e_0_energy">   -129.52446244 </i>
   </energy>
  </scstep>
  <scstep>
   <time name="dav">   10.91   10.99</time>
   <time name="total">   11.18   11.26</time>
   <energy>
    <i name="e_fr_energy">   -129.52609873 </i>
    <i name="e_wo_entrp">   -129.52294000 </i>
    <i name="e_0_energy">   -129.52451936 </i>
   </energy>
  </scstep>
  <scstep>
   <time name="dav">   10.68   10.76</time>
   <time name="total">   10.98   11.07</time>
   <energy>
    <i name="e_fr_energy">    -92.18527837 </i>
    <i name="e_wo_entrp">    -92.17938592 </i>
    <i name="e_0_energy">    -92.18233215 </i>
   </energy>
  </scstep>
  <scstep>
   <time name="dav">    9.08    9.16</time>
   <time name="total">    9.38    9.46</time>
   <energy>
    <i name="e_fr_energy">   -100.64554409 </i>
    <i name="e_wo_entrp">   -100.64000138 </i>
    <i name="e_0_energy">   -100.64277273 </i>
   </energy>
  </scstep>
  <scstep>
   <time name="dav">   10.16   10.24</time>
   <time name="total">   10.45   10.54</time>
   <energy>
    <i name="e_fr_energy">   -110.48169938 </i>
    <i name="e_wo_entrp">   -110.48168540 </i>
    <i name="e_0_energy">   -110.48169239 </i>
   </energy>
  </scstep>
  <scstep>
   <time name="dav">    8.10    8.16</time>
   <time name="total">    8.39    8.46</time>
   <energy>
    <i name="e_fr_energy">   -117.35694212 </i>
    <i name="e_wo_entrp">   -117.35693737 </i>
    <i name="e_0_energy">   -117.35693974 </i>
   </energy>
  </scstep>
  <scstep>
   <time name="dav">   10.20   10.26</time>
   <time name="total">   10.49   10.57</time>
   <energy>
    <i name="e_fr_energy">   -123.64749379 </i>
    <i name="e_wo_entrp">   -123.64682200 </i>
    <i name="e_0_energy">   -123.64715790 </i>
   </energy>
  </scstep>
  <scstep>
   <time name="dav">   10.54   10.60</time>
   <time name="total">   10.83   10.92</time>
   <energy>
    <i name="e_fr_energy">   -125.27424294 </i>
    <i name="e_wo_entrp">   -125.27307218 </i>
    <i name="e_0_energy">   -125.27365756 </i>
   </energy>
  </scstep>
  <scstep>
   <time name="dav">    7.62    7.67</time>
   <time name="total">    7.91    7.97</time>
   <energy>
    <i name="e_fr_energy">   -125.42937990 </i>
    <i name="e_wo_entrp">   -125.42789971 </i>
    <i name="e_0_energy">   -125.42863981 </i>
   </energy>
  </scstep>
  <scstep>
   <time name="dav">    7.23    7.27</time>
   <time name="total">    7.52    7.58</time>
   <energy>
    <i name="e_fr_energy">   -125.46416514 </i>
    <i name="e_wo_entrp">   -125.46263104 </i>
    <i name="e_0_energy">   -125.46339809 </i>
   </energy>
  </scstep>
  <scstep>
   <time name="dav">    8.12    8.18</time>
   <time name="total">    8.41    8.48</time>
   <energy>
    <i name="e_fr_energy">   -125.48708673 </i>
    <i name="e_wo_entrp">   -125.48554789 </i>
    <i name="e_0_energy">   -125.48631731 </i>
   </energy>
  </scstep>
  <scstep>
   <time name="dav">    7.58    7.63</time>
   <time name="total">    7.87    7.93</time>
   <energy>
    <i name="e_fr_energy">   -125.49378781 </i>
    <i name="e_wo_entrp">   -125.49224843 </i>
    <i name="e_0_energy">   -125.49301812 </i>
   </energy>
  </scstep>
  <scstep>
   <time name="dav">    6.49    6.54</time>
   <time name="total">    6.78    6.84</time>
   <energy>
    <i name="e_fr_energy">   -125.49579966 </i>
    <i name="e_wo_entrp">   -125.49426032 </i>
    <i name="e_0_energy">   -125.49502999 </i>
   </energy>
  </scstep>
  <scstep>
   <time name="dav">    7.27    7.34</time>
   <time name="total">    7.57    7.64</time>
   <energy>
    <i name="e_fr_energy">   -125.49705911 </i>
    <i name="e_wo_entrp">   -125.49551979 </i>
    <i name="e_0_energy">   -125.49628945 </i>
   </energy>
  </scstep>
  <scstep>
   <time name="dav">    6.78    6.83</time>
   <time name="total">    7.07    7.13</time>
   <energy>
    <i name="e_fr_energy">   -125.49783348 </i>
    <i name="e_wo_entrp">   -125.49629417 </i>
    <i name="e_0_energy">   -125.49706383 </i>
   </energy>
  </scstep>
  <scstep>
   <time name="dav">    8.27    8.42</time>
   <time name="total">    8.57    8.73</time>
   <energy>
    <i name="e_fr_energy">   -125.49825854 </i>
    <i name="e_wo_entrp">   -125.49671925 </i>
    <i name="e_0_energy">   -125.49748889 </i>
   </energy>
  </scstep>
  <scstep>
   <time name="dav">    9.02    9.09</time>
   <time name="total">    9.31    9.39</time>
   <energy>
    <i name="e_fr_energy">   -125.49829346 </i>
    <i name="e_wo_entrp">   -125.49675416 </i>
    <i name="e_0_energy">   -125.49752381 </i>
   </energy>
  </scstep>
  <scstep>
   <time name="dav">    8.56    8.62</time>
   <time name="total">    8.85    8.93</time>
   <energy>
    <i name="e_fr_energy">   -125.49831956 </i>
    <i name="e_wo_entrp">   -125.49678024 </i>
    <i name="e_0_energy">   -125.49754990 </i>
   </energy>
  </scstep>
  <scstep>
   <time name="dav">    8.97    9.03</time>
   <time name="total">    9.26    9.34</time>
   <energy>
    <i name="e_fr_energy">   -125.49834316 </i>
    <i name="e_wo_entrp">   -125.49680383 </i>
    <i name="e_0_energy">   -125.49757350 </i>
   </energy>
  </scstep>
  <scstep>
   <time name="dav">    8.77    8.84</time>
   <time name="total">    9.07    9.14</time>
   <energy>
    <i name="e_fr_energy">   -125.49835472 </i>
    <i name="e_wo_entrp">   -125.49681539 </i>
    <i name="e_0_energy">   -125.49758506 </i>
   </energy>
  </scstep>
  <scstep>
   <time name="dav">    9.48    9.54</time>
   <time name="total">    9.77    9.84</time>
   <energy>
    <i name="e_fr_energy">   -125.49835713 </i>
    <i name="e_wo_entrp">   -125.49681779 </i>
    <i name="e_0_energy">   -125.49758746 </i>
   </energy>
  </scstep>
  <scstep>
   <time name="dav">    8.41    8.47</time>
   <time name="total">    8.70    8.77</time>
   <energy>
    <i name="e_fr_energy">   -125.49835815 </i>
    <i name="e_wo_entrp">   -125.49681881 </i>
    <i name="e_0_energy">   -125.49758848 </i>
   </energy>
  </scstep>
  <scstep>
   <time name="dav">    9.01    9.08</time>
   <time name="total">    9.05    9.12</time>
   <energy>
    <i name="alphaZ">     58.54845360 </i>
    <i name="ewald">   4809.42644242 </i>
    <i name="hartreedc">  -6567.49390889 </i>
    <i name="XCdc">    180.74617973 </i>
    <i name="pawpsdc">   5793.29021197 </i>
    <i name="pawaedc">  -5797.72365351 </i>
    <i name="eentropy">     -0.00153933 </i>
    <i name="bandstr">   -505.55396520 </i>
    <i name="atom">   1903.26342058 </i>
    <i name="e_fr_energy">   -125.49835864 </i>
    <i name="e_wo_entrp">   -125.49681931 </i>
    <i name="e_0_energy">   -125.49758898 </i>
   </energy>
  </scstep>
  <structure>
   <crystal>
    <varray name="basis" >
     <v>       4.18809885       2.41800000       0.00000000 </v>
     <v>      -4.18809885       2.41800000       0.00000000 </v>
     <v>       0.00000000       0.00000000      15.00000000 </v>
    </varray>
    <i name="volume">    303.80469077 </i>
    <varray name="rec_basis" >
     <v>       0.11938591       0.20678246       0.00000000 </v>
     <v>      -0.11938591       0.20678246       0.00000000 </v>
     <v>       0.00000000       0.00000000       0.06666667 </v>
    </varray>
   </crystal>
   <varray name="positions" >
    <v>       0.00415361       0.00267210       0.12034134 </v>
    <v>       0.35695335       0.00285503       0.09748893 </v>
    <v>       0.00423858       0.35550699       0.09749256 </v>
    <v>       0.65142295       0.65006557       0.09747688 </v>
    <v>       0.32808646       0.32671938       0.10030508 </v>
    <v>       0.68027775       0.00278085       0.10027562 </v>
    <v>       0.00416530       0.67883808       0.10026559 </v>
    <v>       0.99999933       0.49999967       0.33373333 </v>
    <v>       0.16666633       0.33333267       0.33373333 </v>
    <v>       0.99999933       0.99999967       0.33373333 </v>
    <v>       0.16666633       0.83333267       0.33373333 </v>
    <v>       0.49999933       0.49999967       0.33373333 </v>
    <v>       0.66666633       0.33333267       0.33373333 </v>
    <v>       0.49999933       0.99999967       0.33373333 </v>
    <v>       0.66666633       0.83333267       0.33373333 </v>
   </varray>
  </structure>
  <varray name="forces" >
   <v>      -0.00475582       0.00550654      -0.32561271 </v>
   <v>      -0.10558699      -0.04336388       0.10114327 </v>
   <v>       0.08540444      -0.07731609       0.10067647 </v>
   <v>       0.02256474       0.11290519       0.10221042 </v>
   <v>       0.02980296      -0.33617993      -0.00321330 </v>
   <v>       0.27454804       0.19095914      -0.00079297 </v>
   <v>      -0.30229067       0.14669813       0.00003426 </v>
   <v>       0.01304233       0.00527573       0.00264731 </v>
   <v>      -0.03517196       0.04122395       0.02090926 </v>
   <v>       0.00051014      -0.00031614      -0.03155395 </v>
   <v>       0.05275455       0.00939951       0.02180287 </v>
   <v>      -0.01076094       0.01009256       0.00354032 </v>
   <v>      -0.00046190       0.00025354      -0.01510933 </v>
   <v>      -0.00163930      -0.01383833       0.00250388 </v>
   <v>      -0.01795962      -0.05129994       0.02081421 </v>
  </varray>
  <varray name="stress" >
   <v>       3.78642291       0.01650833      -0.00227475 </v>
   <v>       0.01650833       3.80780492       0.02486162 </v>
   <v>      -0.00227475       0.02486159      -2.25430257 </v>
  </varray>
  <energy>
   <i name="e_fr_energy">   -127.10336314 </i>
   <i name="e_wo_entrp">   -127.10182380 </i>
   <i name="e_0_energy">   -127.10259347 </i>
  </energy>
  <time name="totalsc">  235.11  237.17</time>
 </calculation>
 <calculation>
  <scstep>
   <time name="dav">    5.46    5.50</time>
   <time name="total">    5.75    5.80</time>
   <energy>
    <i name="alphaZ">     58.54845360 </i>
    <i name="ewald">   4812.72473598 </i>
    <i name="hartreedc">  -6569.49416069 </i>
    <i name="XCdc">    180.82013200 </i>
    <i name="pawpsdc">   5793.29701417 </i>
    <i name="pawaedc">  -5797.73045855 </i>
    <i name="eentropy">     -0.00154343 </i>
    <i name="bandstr">   -506.93277364 </i>
    <i name="atom">   1903.26342058 </i>
    <i name="e_fr_energy">   -125.50517999 </i>
    <i name="e_wo_entrp">   -125.50363656 </i>
    <i name="e_0_energy">   -125.50440828 </i>
   </energy>
  </scstep>
  <scstep>
   <time name="dav">   10.76   10.83</time>
   <time name="total">   11.05   11.13</time>
   <energy>
    <i name="e_fr_energy">   -125.49737831 </i>
    <i name="e_wo_entrp">   -125.49583472 </i>
    <i name="e_0_energy">   -125.49660652 </i>
   </energy>
  </scstep>
  <scstep>
   <time name="dav">    8.93    8.99</time>
   <time name="total">    9.22    9.29</time>
   <energy>
    <i name="e_fr_energy">   -125.49646210 </i>
    <i name="e_wo_entrp">   -125.49491839 </i>
    <i name="e_0_energy">   -125.49569025 </i>
   </energy>
  </scstep>
  <scstep>
   <time name="dav">   10.61   10.67</time>
   <time name="total">   10.89   10.97</time>
   <energy>
    <i name="e_fr_energy">   -125.49642092 </i>
    <i name="e_wo_entrp">   -125.49487743 </i>
    <i name="e_0_energy">   -125.49564917 </i>
   </energy>
  </scstep>
  <scstep>
   <time name="dav">   10.10   10.16</time>
   <time name="total">   10.39   10.46</time>
   <energy>
    <i name="e_fr_energy">   -125.49642343 </i>
    <i name="e_wo_entrp">   -125.49488000 </i>
    <i name="e_0_energy">   -125.49565171 </i>
   </energy>
  </scstep>
  <scstep>
   <time name="dav">    8.67    8.73</time>
   <time name="total">    8.71    8.77</time>
   <energy>
    <i name="alphaZ">     58.54845360 </i>
    <i name="ewald">   4812.72473598 </i>
    <i name="hartreedc">  -6570.19094588 </i>
    <i name="XCdc">    180.83582080 </i>
    <i name="pawpsdc">   5818.08328542 </i>
    <i name="pawaedc">  -5822.52469817 </i>
    <i name="eentropy">     -0.00154344 </i>
    <i name="bandstr">   -506.23495244 </i>
    <i name="atom">   1903.26342058 </i>
    <i name="e_fr_energy">   -125.49642356 </i>
    <i name="e_wo_entrp">   -125.49488012 </i>
    <i name="e_0_energy">   -125.49565184 </i>
   </energy>
  </scstep>
  <structure>
   <crystal>
    <varray name="basis" >
     <v>       4.18809885       2.41800000       0.00000000 </v>
     <v>      -4.18809885       2.41800000       0.00000000 </v>
     <v>       0.00000000       0.00000000      15.00000000 </v>
    </varray>
    <i name="volume">    303.80469077 </i>
    <varray name="rec_basis" >
     <v>       0.11938591       0.20678246       0.00000000 </v>
     <v>      -0.11938591       0.20678246       0.00000000 </v>
     <v>       0.00000000       0.00000000       0.06666667 </v>
    </varray>
   </crystal>
   <varray name="positions" >
    <v>       0.00418115       0.00275442       0.11929411 </v>
    <v>       0.35591264       0.00303057       0.09781423 </v>
    <v>       0.00395918       0.35424382       0.09781636 </v>
    <v>       0.65267923       0.65106192       0.09780561 </v>
    <v>       0.32490447       0.32319408       0.10029474 </v>
    <v>       0.68376396       0.00310455       0.10027307 </v>
    <v>       0.00388768       0.68204254       0.10026570 </v>
    <v>       0.00012708       0.49997718       0.33374185 </v>
    <v>       0.16687500       0.33394648       0.33380058 </v>
    <v>       0.99999912       0.99999357       0.33363185 </v>
    <v>       0.16706394       0.83312259       0.33380346 </v>
    <v>       0.50003804       0.50016232       0.33374472 </v>
    <v>       0.66666620       0.33333786       0.33368474 </v>
    <v>       0.49985184       0.99987106       0.33374139 </v>
    <v>       0.66605114       0.83292435       0.33380028 </v>
   </varray>
  </structure>
  <varray name="forces" >
   <v>      -0.00097699      -0.00079630      -0.12077101 </v>
   <v>       0.23706889       0.13412187       0.05384557 </v>
   <v>      -0.23849131       0.13745499       0.05345511 </v>
   <v>       0.00078127      -0.27041136       0.05459482 </v>
   <v>      -0.00475960       0.55598907      -0.02333206 </v>
   <v>      -0.47532486      -0.28310485      -0.02145881 </v>
   <v>       0.48139410      -0.27410994      -0.02119629 </v>
   <v>      -0.05645782      -0.02399136       0.01012630 </v>
   <v>       0.12687467      -0.14163629      -0.00104833 </v>
   <v>      -0.00193691       0.00134675       0.00664031 </v>
   <v>      -0.18412203      -0.03581384      -0.00085963 </v>
   <v>       0.04777979      -0.04158836       0.01030079 </v>
   <v>       0.00204222      -0.00038654      -0.00920367 </v>
   <v>       0.00603185       0.06062913       0.01004355 </v>
   <v>       0.06009673       0.18229703      -0.00113664 </v>
  </varray>
  <varray name="stress" >
   <v>       6.28061145       0.00132856       0.00389639 </v>
   <v>       0.00132860       6.28128328       0.01571952 </v>
   <v>       0.00389643       0.01571950      -1.90439279 </v>
  </varray>
  <energy>
   <i name="e_fr_energy">   -127.10090987 </i>
   <i name="e_wo_entrp">   -127.09936643 </i>
   <i name="e_0_energy">   -127.10013815 </i>
  </energy>
  <time name="totalsc">   60.67   61.13</time>
 </calculation>
 <calculation>
  <scstep>
   <time name="dav">    5.47    5.51</time>
   <time name="total">    5.76    5.81</time>
   <energy>
    <i name="alphaZ">     58.54845360 </i>
    <i name="ewald">   4810.89475284 </i>
    <i name="hartreedc">  -6569.07176594 </i>
    <i name="XCdc">    180.79430397 </i>
    <i name="pawpsdc">   5818.03652627 </i>
    <i name="pawaedc">  -5822.47791392 </i>
    <i name="eentropy">     -0.00154135 </i>
    <i name="bandstr">   -505.49323920 </i>
    <i name="atom">   1903.26342058 </i>
    <i name="e_fr_energy">   -125.50700317 </i>
    <i name="e_wo_entrp">   -125.50546182 </i>
    <i name="e_0_energy">   -125.50623249 </i>
   </energy>
  </scstep>
  <scstep>
   <time name="dav">   10.79   10.86</time>
   <time name="total">   11.09   11.17</time>
   <energy>
    <i name="e_fr_energy">   -125.50465008 </i>
    <i name="e_wo_entrp">   -125.50310888 </i>
    <i name="e_0_energy">   -125.50387948 </i>
   </energy>
  </scstep>
  <scstep>
   <time name="dav">    9.53    9.58</time>
   <time name="total">    9.82    9.89</time>
   <energy>
    <i name="e_fr_energy">   -125.50438736 </i>
    <i name="e_wo_entrp">   -125.50284625 </i>
    <i name="e_0_energy">   -125.50361681 </i>
   </energy>
  </scstep>
  <scstep>
   <time name="dav">    9.23    9.29</time>
   <time name="total">    9.51    9.59</time>
   <energy>
    <i name="e_fr_energy">   -125.50437576 </i>
    <i name="e_wo_entrp">   -125.50283450 </i>
    <i name="e_0_energy">   -125.50360513 </i>
   </energy>
  </scstep>
  <scstep>
   <time name="dav">    9.50    9.57</time>
   <time name="total">    9.54    9.61</time>
   <energy>
    <i name="alphaZ">     58.54845360 </i>
    <i name="ewald">   4810.89475284 </i>
    <i name="hartreedc">  -6568.71657942 </i>
    <i name="XCdc">    180.78595966 </i>
    <i name="pawpsdc">   5803.95564997 </i>
    <i name="pawaedc">  -5808.39244046 </i>
    <i name="eentropy">     -0.00154127 </i>
    <i name="bandstr">   -505.84205200 </i>
    <i name="atom">   1903.26342058 </i>
    <i name="e_fr_energy">   -125.50437652 </i>
    <i name="e_wo_entrp">   -125.50283524 </i>
    <i name="e_0_energy">   -125.50360588 </i>
   </energy>
  </scstep>
  <structure>
   <crystal>
    <varray name="basis" >
     <v>       4.18809885       2.41800000       0.00000000 </v>
     <v>      -4.18809885       2.41800000       0.00000000 </v>
     <v>       0.00000000       0.00000000      15.00000000 </v>
    </varray>
    <i name="volume">    303.80469077 </i>
    <varray name="rec_basis" >
     <v>       0.11938591       0.20678246       0.00000000 </v>
     <v>      -0.11938591       0.20678246       0.00000000 </v>
     <v>       0.00000000       0.00000000       0.06666667 </v>
    </varray>
   </crystal>
   <varray name="positions" >
    <v>       0.00416618       0.00270969       0.11986321 </v>
    <v>       0.35647820       0.00293518       0.09763745 </v>
    <v>       0.00411101       0.35493027       0.09764040 </v>
    <v>       0.65199652       0.65052047       0.09762696 </v>
    <v>       0.32663367       0.32510985       0.10030036 </v>
    <v>       0.68186943       0.00292864       0.10027446 </v>
    <v>       0.00403855       0.68030113       0.10026564 </v>
    <v>       0.00005766       0.49998940       0.33373722 </v>
    <v>       0.16676160       0.33361291       0.33376404 </v>
    <v>       0.99999923       0.99999689       0.33368700 </v>
    <v>       0.16684787       0.83323675       0.33376535 </v>
    <v>       0.50001700       0.50007393       0.33373853 </v>
    <v>       0.66666627       0.33333504       0.33371115 </v>
    <v>       0.49993199       0.99994095       0.33373701 </v>
    <v>       0.66638546       0.83314624       0.33376390 </v>
   </varray>
  </structure>
  <varray name="forces" >
   <v>      -0.00314829       0.00283815      -0.23135105 </v>
   <v>       0.05329215       0.03966400       0.07953903 </v>
   <v>      -0.06552014       0.02173326       0.07910969 </v>
   <v>       0.01319768      -0.06531993       0.08047058 </v>
   <v>       0.01469772       0.06956491      -0.01261191 </v>
   <v>      -0.06686538      -0.02408120      -0.01047694 </v>
   <v>       0.05404016      -0.04521424      -0.00993621 </v>
   <v>      -0.01833833      -0.00795796       0.00607751 </v>
   <v>       0.03851232      -0.04228263       0.01093808 </v>
   <v>      -0.00061177       0.00044262      -0.01421395 </v>
   <v>      -0.05525629      -0.01098892       0.01150921 </v>
   <v>       0.01567793      -0.01324884       0.00664220 </v>
   <v>       0.00067775      -0.00003714      -0.01250215 </v>
   <v>       0.00180106       0.01979577       0.00596115 </v>
   <v>       0.01784345       0.05509215       0.01084476 </v>
  </varray>
  <varray name="stress" >
   <v>       4.80907145       0.00951832       0.00041638 </v>
   <v>       0.00951829       4.81839063       0.02110708 </v>
   <v>       0.00041639       0.02110706      -2.08003598 </v>
  </varray>
  <energy>
   <i name="e_fr_energy">   -127.10914450 </i>
   <i name="e_wo_entrp">   -127.10760323 </i>
   <i name="e_0_energy">   -127.10837386 </i>
  </energy>
  <time name="totalsc">   50.38   50.77</time>
 </calculation>
 <calculation>
  <scstep>
   <time name="dav">    5.45    5.50</time>
   <time name="total">    5.75    5.81</time>
   <energy>
    <i name="alphaZ">     58.54845360 </i>
    <i name="ewald">   4811.08194715 </i>
    <i name="hartreedc">  -6568.67746071 </i>
    <i name="XCdc">    180.80174117 </i>
    <i name="pawpsdc">   5803.96398332 </i>
    <i name="pawaedc">  -5808.40078236 </i>
    <i name="eentropy">     -0.00154386 </i>
    <i name="bandstr">   -506.08803173 </i>
    <i name="atom">   1903.26342058 </i>
    <i name="e_fr_energy">   -125.50827284 </i>
    <i name="e_wo_entrp">   -125.50672899 </i>
    <i name="e_0_energy">   -125.50750092 </i>
   </energy>
  </scstep>
  <scstep>
   <time name="dav">   11.69   11.76</time>
   <time name="total">   11.97   12.06</time>
   <energy>
    <i name="e_fr_energy">   -125.50827775 </i>
    <i name="e_wo_entrp">   -125.50673444 </i>
    <i name="e_0_energy">   -125.50750610 </i>
   </energy>
  </scstep>
  <scstep>
   <time name="dav">    9.09    9.15</time>
   <time name="total">    9.38    9.45</time>
   <energy>
    <i name="e_fr_energy">   -125.50826463 </i>
    <i name="e_wo_entrp">   -125.50672161 </i>
    <i name="e_0_energy">   -125.50749312 </i>
   </energy>
  </scstep>
  <scstep>
   <time name="dav">   10.69   10.76</time>
   <time name="total">   10.98   11.07</time>
   <energy>
    <i name="e_fr_energy">   -125.50826499 </i>
    <i name="e_wo_entrp">   -125.50672190 </i>
    <i name="e_0_energy">   -125.50749345 </i>
   </energy>
  </scstep>
  <scstep>
   <time name="dav">    9.12    9.19</time>
   <time name="total">    9.16    9.22</time>
   <energy>
    <i name="alphaZ">     58.54845360 </i>
    <i name="ewald">   4811.08194715 </i>
    <i name="hartreedc">  -6568.68063277 </i>
    <i name="XCdc">    180.80190524 </i>
    <i name="pawpsdc">   5808.55058752 </i>
    <i name="pawaedc">  -5812.98900573 </i>
    <i name="eentropy">     -0.00154309 </i>
    <i name="bandstr">   -506.08339816 </i>
    <i name="atom">   1903.26342058 </i>
    <i name="e_fr_energy">   -125.50826566 </i>
    <i name="e_wo_entrp">   -125.50672257 </i>
    <i name="e_0_energy">   -125.50749411 </i>
   </energy>
  </scstep>
  <structure>
   <crystal>
    <varray name="basis" >
     <v>       4.18809885       2.41800000       0.00000000 </v>
     <v>      -4.18809885       2.41800000       0.00000000 </v>
     <v>       0.00000000       0.00000000      15.00000000 </v>
    </varray>
    <i name="volume">    303.80469077 </i>
    <varray name="rec_basis" >
     <v>       0.11938591       0.20678246       0.00000000 </v>
     <v>      -0.11938591       0.20678246       0.00000000 </v>
     <v>       0.00000000       0.00000000       0.06666667 </v>
    </varray>
   </crystal>
   <varray name="positions" >
    <v>       0.00418053       0.00276684       0.11899959 </v>
    <v>       0.35690527       0.00304787       0.09792772 </v>
    <v>       0.00391443       0.35521811       0.09792914 </v>
    <v>       0.65172392       0.65006262       0.09792056 </v>
    <v>       0.32671867       0.32497824       0.10026223 </v>
    <v>       0.68197928       0.00311973       0.10024394 </v>
    <v>       0.00386081       0.68023498       0.10023717 </v>
    <v>      -0.00008279       0.50000848       0.33375627 </v>
    <v>       0.16662329       0.33315673       0.33380826 </v>
    <v>       0.99999999       0.00000280       0.33362683 </v>
    <v>       0.16654260       0.83338250       0.33381176 </v>
    <v>       0.49998709       0.49990678       0.33375975 </v>
    <v>       0.66666940       0.33333222       0.33366601 </v>
    <v>       0.50008903       0.00008310       0.33375564 </v>
    <v>       0.66684917       0.83346635       0.33380780 </v>
   </varray>
  </structure>
  <varray name="forces" >
   <v>      -0.00026080      -0.00011749      -0.21350515 </v>
   <v>       0.04254110       0.02138060       0.04504607 </v>
   <v>      -0.04092280       0.02631817       0.04482806 </v>
   <v>      -0.00131802      -0.04694145       0.04548466 </v>
   <v>      -0.00664530       0.08907396       0.01632275 </v>
   <v>      -0.07225594      -0.05101043       0.01778537 </v>
   <v>       0.07854315      -0.03948948       0.01801687 </v>
   <v>       0.05052764       0.02365719       0.00688236 </v>
   <v>      -0.08803821       0.08496248      -0.00007839 </v>
   <v>       0.00209757      -0.00010554       0.00810253 </v>
   <v>       0.11568039       0.03042687      -0.00003954 </v>
   <v>      -0.04342001       0.03549207       0.00690313 </v>
   <v>      -0.00182110       0.00010697      -0.00243166 </v>
   <v>      -0.00344630      -0.05389738       0.00681129 </v>
   <v>      -0.03126138      -0.11985655      -0.00012834 </v>
  </varray>
  <varray name="stress" >
   <v>       5.17429943       0.01290892       0.00491253 </v>
   <v>       0.01290893       5.19994517       0.01490175 </v>
   <v>       0.00491253       0.01490176      -2.02558543 </v>
  </varray>
  <energy>
   <i name="e_fr_energy">   -127.11293766 </i>
   <i name="e_wo_entrp">   -127.11139456 </i>
   <i name="e_0_energy">   -127.11216611 </i>
  </energy>
  <time name="totalsc">   51.91   52.32</time>
 </calculation>
 <calculation>
  <scstep>
   <time name="dav">    5.48    5.52</time>
   <time name="total">    5.77    5.82</time>
   <energy>
    <i name="alphaZ">     58.54845360 </i>
    <i name="ewald">   4811.25050304 </i>
    <i name="hartreedc">  -6568.57687198 </i>
    <i name="XCdc">    180.82011264 </i>
    <i name="pawpsdc">   5808.68881900 </i>
    <i name="pawaedc">  -5813.12724746 </i>
    <i name="eentropy">     -0.00154597 </i>
    <i name="bandstr">   -506.37576350 </i>
    <i name="atom">   1903.26342058 </i>
    <i name="e_fr_energy">   -125.51012005 </i>
    <i name="e_wo_entrp">   -125.50857408 </i>
    <i name="e_0_energy">   -125.50934707 </i>
   </energy>
  </scstep>
  <scstep>
   <time name="dav">   10.68   10.75</time>
   <time name="total">   10.97   11.05</time>
   <energy>
    <i name="e_fr_energy">   -125.51013791 </i>
    <i name="e_wo_entrp">   -125.50859259 </i>
    <i name="e_0_energy">   -125.50936525 </i>
   </energy>
  </scstep>
  <scstep>
   <time name="dav">    8.81    8.87</time>
   <time name="total">    9.10    9.18</time>
   <energy>
    <i name="e_fr_energy">   -125.51011910 </i>
    <i name="e_wo_entrp">   -125.50857415 </i>
    <i name="e_0_energy">   -125.50934662 </i>
   </energy>
  </scstep>
  <scstep>
   <time name="dav">   10.90   10.97</time>
   <time name="total">   11.19   11.28</time>
   <energy>
    <i name="e_fr_energy">   -125.51011936 </i>
    <i name="e_wo_entrp">   -125.50857430 </i>
    <i name="e_0_energy">   -125.50934683 </i>
   </energy>
  </scstep>
  <scstep>
   <time name="dav">    8.39    8.44</time>
   <time name="total">    8.42    8.48</time>
   <energy>
    <i name="alphaZ">     58.54845360 </i>
    <i name="ewald">   4811.25050304 </i>
    <i name="hartreedc">  -6568.57321796 </i>
    <i name="XCdc">    180.82034694 </i>
    <i name="pawpsdc">   5814.06843238 </i>
    <i name="pawaedc">  -5818.50879793 </i>
    <i name="eentropy">     -0.00154506 </i>
    <i name="bandstr">   -506.37771595 </i>
    <i name="atom">   1903.26342058 </i>
    <i name="e_fr_energy">   -125.51012036 </i>
    <i name="e_wo_entrp">   -125.50857530 </i>
    <i name="e_0_energy">   -125.50934783 </i>
   </energy>
  </scstep>
  <structure>
   <crystal>
    <varray name="basis" >
     <v>       4.18809885       2.41800000       0.00000000 </v>
     <v>      -4.18809885       2.41800000       0.00000000 </v>
     <v>       0.00000000       0.00000000      15.00000000 </v>
    </varray>
    <i name="volume">    303.80469077 </i>
    <varray name="rec_basis" >
     <v>       0.11938591       0.20678246       0.00000000 </v>
     <v>      -0.11938591       0.20678246       0.00000000 </v>
     <v>       0.00000000       0.00000000       0.06666667 </v>
    </varray>
   </crystal>
   <varray name="positions" >
    <v>       0.00419835       0.00283788       0.11792619 </v>
    <v>       0.35743607       0.00318794       0.09828849 </v>
    <v>       0.00367010       0.35557586       0.09828803 </v>
    <v>       0.65138509       0.64949355       0.09828546 </v>
    <v>       0.32682431       0.32481466       0.10021483 </v>
    <v>       0.68211580       0.00335723       0.10020600 </v>
    <v>       0.00363990       0.68015277       0.10020180 </v>
    <v>      -0.00025736       0.50003219       0.33377995 </v>
    <v>       0.16645137       0.33258974       0.33386323 </v>
    <v>       0.00000093       0.00001014       0.33355205 </v>
    <v>       0.16616318       0.83356365       0.33386945 </v>
    <v>       0.49994991       0.49969902       0.33378613 </v>
    <v>       0.66667328       0.33332872       0.33360990 </v>
    <v>       0.50028420       0.00025979       0.33377879 </v>
    <v>       0.66742552       0.83386421       0.33386236 </v>
   </varray>
  </structure>
  <varray name="forces" >
   <v>       0.00342845      -0.00394878      -0.19547539 </v>
   <v>       0.02601861      -0.00227749       0.00359237 </v>
   <v>      -0.00828934       0.02963014       0.00364430 </v>
   <v>      -0.01845172      -0.02101123       0.00340701 </v>
   <v>      -0.03186485       0.11065283       0.05226983 </v>
   <v>      -0.07705557      -0.08204706       0.05292474 </v>
   <v>       0.10589983      -0.03175235       0.05279591 </v>
   <v>       0.13488392       0.06307010       0.00798197 </v>
   <v>      -0.24468949       0.24447435      -0.01357064 </v>
   <v>       0.00554180      -0.00079044       0.03503139 </v>
   <v>       0.32893392       0.08076620      -0.01419806 </v>
   <v>      -0.11632766       0.09488764       0.00731567 </v>
   <v>      -0.00494847       0.00028993       0.00988029 </v>
   <v>      -0.00929065      -0.14455451       0.00796403 </v>
   <v>      -0.09378877      -0.33738933      -0.01356343 </v>
  </varray>
  <varray name="stress" >
   <v>       5.64417298       0.01718675       0.01016142 </v>
   <v>       0.01718678       5.68817847       0.00800093 </v>
   <v>       0.01016140       0.00800094      -1.95296545 </v>
  </varray>
  <energy>
   <i name="e_fr_energy">   -127.11465209 </i>
   <i name="e_wo_entrp">   -127.11310703 </i>
   <i name="e_0_energy">   -127.11387956 </i>
  </energy>
  <time name="totalsc">   50.13   50.51</time>
 </calculation>
 <calculation>
  <scstep>
   <time name="dav">    5.47    5.51</time>
   <time name="total">    5.76    5.81</time>
   <energy>
    <i name="alphaZ">     58.54845360 </i>
    <i name="ewald">   4811.25987032 </i>
    <i name="hartreedc">  -6568.53265683 </i>
    <i name="XCdc">    180.82317822 </i>
    <i name="pawpsdc">   5814.25804983 </i>
    <i name="pawaedc">  -5818.69842687 </i>
    <i name="eentropy">     -0.00154532 </i>
    <i name="bandstr">   -506.43159578 </i>
    <i name="atom">   1903.26342058 </i>
    <i name="e_fr_energy">   -125.51125226 </i>
    <i name="e_wo_entrp">   -125.50970694 </i>
    <i name="e_0_energy">   -125.51047960 </i>
   </energy>
  </scstep>
  <scstep>
   <time name="dav">   10.30   10.37</time>
   <time name="total">   10.59   10.67</time>
   <energy>
    <i name="e_fr_energy">   -125.51125506 </i>
    <i name="e_wo_entrp">   -125.50970979 </i>
    <i name="e_0_energy">   -125.51048242 </i>
   </energy>
  </scstep>
  <scstep>
   <time name="dav">    8.22    8.27</time>
   <time name="total">    8.50    8.57</time>
   <energy>
    <i name="e_fr_energy">   -125.51125466 </i>
    <i name="e_wo_entrp">   -125.50970938 </i>
    <i name="e_0_energy">   -125.51048202 </i>
   </energy>
  </scstep>
  <scstep>
   <time name="dav">   10.59   10.65</time>
   <time name="total">   10.62   10.69</time>
   <energy>
    <i name="alphaZ">     58.54845360 </i>
    <i name="ewald">   4811.25987032 </i>
    <i name="hartreedc">  -6568.51848399 </i>
    <i name="XCdc">    180.82290149 </i>
    <i name="pawpsdc">   5815.21320972 </i>
    <i name="pawaedc">  -5819.65389388 </i>
    <i name="eentropy">     -0.00154525 </i>
    <i name="bandstr">   -506.44518745 </i>
    <i name="atom">   1903.26342058 </i>
    <i name="e_fr_energy">   -125.51125487 </i>
    <i name="e_wo_entrp">   -125.50970962 </i>
    <i name="e_0_energy">   -125.51048224 </i>
   </energy>
  </scstep>
  <structure>
   <crystal>
    <varray name="basis" >
     <v>       4.18809885       2.41800000       0.00000000 </v>
     <v>      -4.18809885       2.41800000       0.00000000 </v>
     <v>       0.00000000       0.00000000      15.00000000 </v>
    </varray>
    <i name="volume">    303.80469077 </i>
    <varray name="rec_basis" >
     <v>       0.11938591       0.20678246       0.00000000 </v>
     <v>      -0.11938591       0.20678246       0.00000000 </v>
     <v>       0.00000000       0.00000000       0.06666667 </v>
    </varray>
   </crystal>
   <varray name="positions" >
    <v>       0.00420080       0.00284848       0.11769562 </v>
    <v>       0.35754161       0.00320627       0.09835676 </v>
    <v>       0.00363567       0.35565888       0.09835596 </v>
    <v>       0.65130689       0.64938193       0.09835449 </v>
    <v>       0.32688664       0.32484338       0.10021370 </v>
    <v>       0.68208316       0.00338453       0.10020674 </v>
    <v>       0.00361195       0.68009455       0.10020300 </v>
    <v>      -0.00022522       0.50002982       0.33378558 </v>
    <v>       0.16646662       0.33266092       0.33387154 </v>
    <v>       0.00000221       0.00000968       0.33354321 </v>
    <v>       0.16621659       0.83354740       0.33387817 </v>
    <v>       0.49995570       0.49973464       0.33379216 </v>
    <v>       0.66667283       0.33332951       0.33360084 </v>
    <v>       0.50025181       0.00022886       0.33378432 </v>
    <v>       0.66735342       0.83380847       0.33387059 </v>
   </varray>
  </structure>
  <varray name="forces" >
   <v>       0.00390336      -0.00437294      -0.19250581 </v>
   <v>       0.01981724      -0.00735585      -0.00269098 </v>
   <v>      -0.00010827       0.02758375      -0.00257951 </v>
   <v>      -0.02060932      -0.01328181      -0.00299306 </v>
   <v>      -0.03458649       0.10296075       0.05769730 </v>
   <v>      -0.06911048      -0.08028213       0.05818285 </v>
   <v>       0.10039426      -0.02601122       0.05799111 </v>
   <v>       0.11974909       0.05615954       0.00758866 </v>
   <v>      -0.22145490       0.22497708      -0.01506260 </v>
   <v>       0.00475126      -0.00093878       0.03854040 </v>
   <v>       0.30109842       0.07168676      -0.01578352 </v>
   <v>      -0.10375775       0.08431099       0.00682030 </v>
   <v>      -0.00428846       0.00041730       0.01225726 </v>
   <v>      -0.00819621      -0.12873362       0.00757986 </v>
   <v>      -0.08760173      -0.30711983      -0.01504226 </v>
  </varray>
  <varray name="stress" >
   <v>       5.70851857       0.01396731       0.01074437 </v>
   <v>       0.01396732       5.74406767       0.00734970 </v>
   <v>       0.01074437       0.00734967      -1.93011733 </v>
  </varray>
  <energy>
   <i name="e_fr_energy">   -127.11576440 </i>
   <i name="e_wo_entrp">   -127.11421915 </i>
   <i name="e_0_energy">   -127.11499177 </i>
  </energy>
  <time name="totalsc">   40.15   40.45</time>
 </calculation>
 <calculation>
  <scstep>
   <time name="dav">    5.45    5.49</time>
   <time name="total">    5.74    5.79</time>
   <energy>
    <i name="alphaZ">     58.54845360 </i>
    <i name="ewald">   4811.26848306 </i>
    <i name="hartreedc">  -6568.40354103 </i>
    <i name="XCdc">    180.83143508 </i>
    <i name="pawpsdc">   5815.22721684 </i>
    <i name="pawaedc">  -5819.66790503 </i>
    <i name="eentropy">     -0.00154614 </i>
    <i name="bandstr">   -506.58015755 </i>
    <i name="atom">   1903.26342058 </i>
    <i name="e_fr_energy">   -125.51414060 </i>
    <i name="e_wo_entrp">   -125.51259446 </i>
    <i name="e_0_energy">   -125.51336753 </i>
   </energy>
  </scstep>
  <scstep>
   <time name="dav">    9.82    9.88</time>
   <time name="total">   10.11   10.18</time>
   <energy>
    <i name="e_fr_energy">   -125.51415874 </i>
    <i name="e_wo_entrp">   -125.51261277 </i>
    <i name="e_0_energy">   -125.51338575 </i>
   </energy>
  </scstep>
  <scstep>
   <time name="dav">    7.76    7.81</time>
   <time name="total">    8.05    8.12</time>
   <energy>
    <i name="e_fr_energy">   -125.51415314 </i>
    <i name="e_wo_entrp">   -125.51260713 </i>
    <i name="e_0_energy">   -125.51338013 </i>
   </energy>
  </scstep>
  <scstep>
   <time name="dav">   11.19   11.26</time>
   <time name="total">   11.48   11.56</time>
   <energy>
    <i name="e_fr_energy">   -125.51415325 </i>
    <i name="e_wo_entrp">   -125.51260732 </i>
    <i name="e_0_energy">   -125.51338029 </i>
   </energy>
  </scstep>
  <scstep>
   <time name="dav">    7.96    8.02</time>
   <time name="total">    7.99    8.05</time>
   <energy>
    <i name="alphaZ">     58.54845360 </i>
    <i name="ewald">   4811.26848306 </i>
    <i name="hartreedc">  -6568.38952384 </i>
    <i name="XCdc">    180.83091203 </i>
    <i name="pawpsdc">   5817.85044768 </i>
    <i name="pawaedc">  -5822.29206432 </i>
    <i name="eentropy">     -0.00154590 </i>
    <i name="bandstr">   -506.59273647 </i>
    <i name="atom">   1903.26342058 </i>
    <i name="e_fr_energy">   -125.51415359 </i>
    <i name="e_wo_entrp">   -125.51260768 </i>
    <i name="e_0_energy">   -125.51338063 </i>
   </energy>
  </scstep>
  <structure>
   <crystal>
    <varray name="basis" >
     <v>       4.18809885       2.41800000       0.00000000 </v>
     <v>      -4.18809885       2.41800000       0.00000000 </v>
     <v>       0.00000000       0.00000000      15.00000000 </v>
    </varray>
    <i name="volume">    303.80469077 </i>
    <varray name="rec_basis" >
     <v>       0.11938591       0.20678246       0.00000000 </v>
     <v>      -0.11938591       0.20678246       0.00000000 </v>
     <v>       0.00000000       0.00000000       0.06666667 </v>
    </varray>
   </crystal>
   <varray name="positions" >
    <v>       0.00420812       0.00288031       0.11700391 </v>
    <v>       0.35785822       0.00326127       0.09856159 </v>
    <v>       0.00353236       0.35590795       0.09855974 </v>
    <v>       0.65107228       0.64904706       0.09856156 </v>
    <v>       0.32707361       0.32492954       0.10021028 </v>
    <v>       0.68198524       0.00346643       0.10020894 </v>
    <v>       0.00352812       0.67991989       0.10020659 </v>
    <v>      -0.00012882       0.50002273       0.33380248 </v>
    <v>       0.16651237       0.33287449       0.33389646 </v>
    <v>       0.00000607       0.00000831       0.33351669 </v>
    <v>       0.16637683       0.83349864       0.33390434 </v>
    <v>       0.49997307       0.49984150       0.33381028 </v>
    <v>       0.66667147       0.33333189       0.33357363 </v>
    <v>       0.50015462       0.00013608       0.33380091 </v>
    <v>       0.66713712       0.83364126       0.33389528 </v>
   </varray>
  </structure>
  <varray name="forces" >
   <v>       0.00542650      -0.00572161      -0.18451242 </v>
   <v>       0.00067022      -0.02349360      -0.02122702 </v>
   <v>       0.02548729       0.02145995      -0.02094513 </v>
   <v>      -0.02760004       0.01082008      -0.02187035 </v>
   <v>      -0.04366737       0.07924993       0.07408100 </v>
   <v>      -0.04421574      -0.07543989       0.07405199 </v>
   <v>       0.08359584      -0.00760656       0.07369989 </v>
   <v>       0.07552383       0.03547508       0.00632905 </v>
   <v>      -0.15314193       0.16686412      -0.01972721 </v>
   <v>       0.00244371      -0.00138830       0.04925226 </v>
   <v>       0.21859716       0.04542519      -0.02073584 </v>
   <v>      -0.06663797       0.05362175       0.00525131 </v>
   <v>      -0.00233299       0.00080504       0.01967034 </v>
   <v>      -0.00543533      -0.08232349       0.00634848 </v>
   <v>      -0.06871320      -0.21774769      -0.01966634 </v>
  </varray>
  <varray name="stress" >
   <v>       5.91178283       0.00516454       0.01261147 </v>
   <v>       0.00516452       5.92610855       0.00525932 </v>
   <v>       0.01261147       0.00525931      -1.90754154 </v>
  </varray>
  <energy>
   <i name="e_fr_energy">   -127.11859443 </i>
   <i name="e_wo_entrp">   -127.11704853 </i>
   <i name="e_0_energy">   -127.11782148 </i>
  </energy>
  <time name="totalsc">   48.04   48.41</time>
 </calculation>
 <calculation>
  <scstep>
   <time name="dav">    5.46    5.50</time>
   <time name="total">    5.75    5.80</time>
   <energy>
    <i name="alphaZ">     58.54845360 </i>
    <i name="ewald">   4811.19745082 </i>
    <i name="hartreedc">  -6568.09394600 </i>
    <i name="XCdc">    180.84656099 </i>
    <i name="pawpsdc">   5817.82450981 </i>
    <i name="pawaedc">  -5822.26612653 </i>
    <i name="eentropy">     -0.00154757 </i>
    <i name="bandstr">   -506.83645758 </i>
    <i name="atom">   1903.26342058 </i>
    <i name="e_fr_energy">   -125.51768187 </i>
    <i name="e_wo_entrp">   -125.51613431 </i>
    <i name="e_0_energy">   -125.51690809 </i>
   </energy>
  </scstep>
  <scstep>
   <time name="dav">   10.47   10.54</time>
   <time name="total">   10.76   10.84</time>
   <energy>
    <i name="e_fr_energy">   -125.51775678 </i>
    <i name="e_wo_entrp">   -125.51620958 </i>
    <i name="e_0_energy">   -125.51698318 </i>
   </energy>
  </scstep>
  <scstep>
   <time name="dav">    8.50    8.56</time>
   <time name="total">    8.79    8.87</time>
   <energy>
    <i name="e_fr_energy">   -125.51773166 </i>
    <i name="e_wo_entrp">   -125.51618437 </i>
    <i name="e_0_energy">   -125.51695801 </i>
   </energy>
  </scstep>
  <scstep>
   <time name="dav">   10.82   10.89</time>
   <time name="total">   11.11   11.19</time>
   <energy>
    <i name="e_fr_energy">   -125.51773182 </i>
    <i name="e_wo_entrp">   -125.51618466 </i>
    <i name="e_0_energy">   -125.51695824 </i>
   </energy>
  </scstep>
  <scstep>
   <time name="dav">    9.75    9.82</time>
   <time name="total">    9.79    9.85</time>
   <energy>
    <i name="alphaZ">     58.54845360 </i>
    <i name="ewald">   4811.19745082 </i>
    <i name="hartreedc">  -6568.07943828 </i>
    <i name="XCdc">    180.84574759 </i>
    <i name="pawpsdc">   5822.65132870 </i>
    <i name="pawaedc">  -5827.09468545 </i>
    <i name="eentropy">     -0.00154711 </i>
    <i name="bandstr">   -506.84846315 </i>
    <i name="atom">   1903.26342058 </i>
    <i name="e_fr_energy">   -125.51773271 </i>
    <i name="e_wo_entrp">   -125.51618560 </i>
    <i name="e_0_energy">   -125.51695916 </i>
   </energy>
  </scstep>
  <structure>
   <crystal>
    <varray name="basis" >
     <v>       4.18809885       2.41800000       0.00000000 </v>
     <v>      -4.18809885       2.41800000       0.00000000 </v>
     <v>       0.00000000       0.00000000      15.00000000 </v>
    </varray>
    <i name="volume">    303.80469077 </i>
    <varray name="rec_basis" >
     <v>       0.11938591       0.20678246       0.00000000 </v>
     <v>      -0.11938591       0.20678246       0.00000000 </v>
     <v>       0.00000000       0.00000000       0.06666667 </v>
    </varray>
   </crystal>
   <varray name="positions" >
    <v>       0.00422276       0.00294395       0.11562047 </v>
    <v>       0.35849144       0.00337126       0.09897123 </v>
    <v>       0.00332575       0.35640609       0.09896730 </v>
    <v>       0.65060307       0.64837732       0.09897570 </v>
    <v>       0.32744755       0.32510184       0.10020345 </v>
    <v>       0.68178941       0.00363022       0.10021335 </v>
    <v>       0.00336044       0.67957059       0.10021376 </v>
    <v>       0.00006397       0.50000853       0.33383626 </v>
    <v>       0.16660386       0.33330161       0.33394629 </v>
    <v>       0.00001378       0.00000556       0.33346364 </v>
    <v>       0.16669731       0.83340114       0.33395668 </v>
    <v>       0.50000779       0.50005522       0.33384651 </v>
    <v>       0.66666875       0.33333664       0.33351923 </v>
    <v>       0.49996025      -0.00004948       0.33383410 </v>
    <v>       0.66670453       0.83330684       0.33394467 </v>
   </varray>
  </structure>
  <varray name="forces" >
   <v>       0.00852130      -0.00849426      -0.17307183 </v>
   <v>      -0.04106845      -0.05736769      -0.05669513 </v>
   <v>       0.07954043       0.00689936      -0.05607233 </v>
   <v>      -0.04110432       0.06273409      -0.05800904 </v>
   <v>      -0.06137739       0.02885739       0.10674608 </v>
   <v>       0.00810096      -0.06390109       0.10568946 </v>
   <v>       0.04708496       0.03058298       0.10503543 </v>
   <v>      -0.01379040      -0.00598238       0.00382333 </v>
   <v>      -0.01593505       0.05120569      -0.02910412 </v>
   <v>      -0.00210962      -0.00225813       0.07066095 </v>
   <v>       0.05377112      -0.00779919      -0.03067929 </v>
   <v>       0.00814598      -0.00848422       0.00213500 </v>
   <v>       0.00155678       0.00157114       0.03460620 </v>
   <v>       0.00040302       0.01123355       0.00390030 </v>
   <v>      -0.03173932      -0.03879725      -0.02896501 </v>
  </varray>
  <varray name="stress" >
   <v>       6.31525313      -0.01225931       0.01583650 </v>
   <v>      -0.01225932       6.28596348       0.00175880 </v>
   <v>       0.01583651       0.00175882      -1.88386492 </v>
  </varray>
  <energy>
   <i name="e_fr_energy">   -127.12202600 </i>
   <i name="e_wo_entrp">   -127.12047889 </i>
   <i name="e_0_energy">   -127.12125244 </i>
  </energy>
  <time name="totalsc">   50.87   51.28</time>
 </calculation>
 <calculation>
  <scstep>
   <time name="dav">    5.47    5.50</time>
   <time name="total">    5.76    5.81</time>
   <energy>
    <i name="alphaZ">     58.54845360 </i>
    <i name="ewald">   4810.69837972 </i>
    <i name="hartreedc">  -6567.21758008 </i>
    <i name="XCdc">    180.87108834 </i>
    <i name="pawpsdc">   5822.60484085 </i>
    <i name="pawaedc">  -5827.04819797 </i>
    <i name="eentropy">     -0.00154990 </i>
    <i name="bandstr">   -507.23491560 </i>
    <i name="atom">   1903.26342058 </i>
    <i name="e_fr_energy">   -125.51606047 </i>
    <i name="e_wo_entrp">   -125.51451057 </i>
    <i name="e_0_energy">   -125.51528552 </i>
   </energy>
  </scstep>
  <scstep>
   <time name="dav">   11.28   11.35</time>
   <time name="total">   11.57   11.65</time>
   <energy>
    <i name="e_fr_energy">   -125.51639217 </i>
    <i name="e_wo_entrp">   -125.51484305 </i>
    <i name="e_0_energy">   -125.51561761 </i>
   </energy>
  </scstep>
  <scstep>
   <time name="dav">    9.13    9.19</time>
   <time name="total">    9.41    9.49</time>
   <energy>
    <i name="e_fr_energy">   -125.51628738 </i>
    <i name="e_wo_entrp">   -125.51473806 </i>
    <i name="e_0_energy">   -125.51551272 </i>
   </energy>
  </scstep>
  <scstep>
   <time name="dav">   11.04   11.11</time>
   <time name="total">   11.33   11.41</time>
   <energy>
    <i name="e_fr_energy">   -125.51629117 </i>
    <i name="e_wo_entrp">   -125.51474199 </i>
    <i name="e_0_energy">   -125.51551658 </i>
   </energy>
  </scstep>
  <scstep>
   <time name="dav">    9.32    9.39</time>
   <time name="total">    9.61    9.69</time>
   <energy>
    <i name="e_fr_energy">   -125.51629494 </i>
    <i name="e_wo_entrp">   -125.51474589 </i>
    <i name="e_0_energy">   -125.51552041 </i>
   </energy>
  </scstep>
  <scstep>
   <time name="dav">   10.02   10.09</time>
   <time name="total">   10.06   10.12</time>
   <energy>
    <i name="alphaZ">     58.54845360 </i>
    <i name="ewald">   4810.69837972 </i>
    <i name="hartreedc">  -6567.18873401 </i>
    <i name="XCdc">    180.86980988 </i>
    <i name="pawpsdc">   5830.47839744 </i>
    <i name="pawaedc">  -5834.92478824 </i>
    <i name="eentropy">     -0.00154905 </i>
    <i name="bandstr">   -507.25968450 </i>
    <i name="atom">   1903.26342058 </i>
    <i name="e_fr_energy">   -125.51629459 </i>
    <i name="e_wo_entrp">   -125.51474554 </i>
    <i name="e_0_energy">   -125.51552006 </i>
   </energy>
  </scstep>
  <structure>
   <crystal>
    <varray name="basis" >
     <v>       4.18809885       2.41800000       0.00000000 </v>
     <v>      -4.18809885       2.41800000       0.00000000 </v>
     <v>       0.00000000       0.00000000      15.00000000 </v>
    </varray>
    <i name="volume">    303.80469077 </i>
    <varray name="rec_basis" >
     <v>       0.11938591       0.20678246       0.00000000 </v>
     <v>      -0.11938591       0.20678246       0.00000000 </v>
     <v>       0.00000000       0.00000000       0.06666667 </v>
    </varray>
   </crystal>
   <varray name="positions" >
    <v>       0.00425205       0.00307125       0.11285361 </v>
    <v>       0.35975788       0.00359126       0.09979052 </v>
    <v>       0.00291253       0.35740238       0.09978244 </v>
    <v>       0.64966463       0.64703785       0.09980397 </v>
    <v>       0.32819542       0.32544646       0.10018980 </v>
    <v>       0.68139774       0.00395779       0.10022217 </v>
    <v>       0.00302510       0.67887197       0.10022812 </v>
    <v>       0.00044957       0.49998014       0.33390384 </v>
    <v>       0.16678685       0.33415586       0.33404597 </v>
    <v>       0.00002920       0.00000006       0.33335756 </v>
    <v>       0.16733827       0.83320612       0.33406137 </v>
    <v>       0.50007725       0.50048266       0.33391897 </v>
    <v>       0.66666331       0.33334614       0.33341042 </v>
    <v>       0.49957151      -0.00042060       0.33390046 </v>
    <v>       0.66583935       0.83263799       0.33404345 </v>
   </varray>
  </structure>
  <varray name="forces" >
   <v>       0.01480061      -0.01424171      -0.16344793 </v>
   <v>      -0.13904372      -0.13134291      -0.12227222 </v>
   <v>       0.19939858      -0.03213463      -0.12096862 </v>
   <v>      -0.06577928       0.18189082      -0.12485677 </v>
   <v>      -0.09392544      -0.08446856       0.17122552 </v>
   <v>       0.12287339      -0.03216961       0.16818541 </v>
   <v>      -0.03860478       0.11183606       0.16701214 </v>
   <v>      -0.19515802      -0.08898095      -0.00126440 </v>
   <v>       0.26009822      -0.17774716      -0.04810001 </v>
   <v>      -0.01093337      -0.00391063       0.11345963 </v>
   <v>      -0.27475539      -0.11651274      -0.05077194 </v>
   <v>       0.15931690      -0.13508077      -0.00413427 </v>
   <v>       0.00923501       0.00307878       0.06481908 </v>
   <v>       0.01321301       0.20052598      -0.00106883 </v>
   <v>       0.03926429       0.31925806      -0.04781679 </v>
  </varray>
  <varray name="stress" >
   <v>       7.09756836      -0.04640784       0.02007614 </v>
[...]
       <r>     2.7733     0.9530    30.8852 </r>
       <r>     2.8803     0.6030    30.9497 </r>
       <r>     2.9872     1.0876    31.0661 </r>
       <r>     3.0942     1.5616    31.2331 </r>
       <r>     3.2012     1.2440    31.3662 </r>
       <r>     3.3082     1.2895    31.5042 </r>
       <r>     3.4152     1.2483    31.6377 </r>
       <r>     3.5222     1.2779    31.7745 </r>
       <r>     3.6292     2.0561    31.9944 </r>
       <r>     3.7361     2.5958    32.2722 </r>
       <r>     3.8431     2.9825    32.5912 </r>
       <r>     3.9501     2.8639    32.8976 </r>
       <r>     4.0571     2.8964    33.2075 </r>
       <r>     4.1641     2.9878    33.5272 </r>
       <r>     4.2711     3.3833    33.8891 </r>
       <r>     4.3781     3.1609    34.2273 </r>
       <r>     4.4850     3.1127    34.5603 </r>
       <r>     4.5920     2.9407    34.8749 </r>
       <r>     4.6990     2.8018    35.1747 </r>
       <r>     4.8060     3.3178    35.5296 </r>
       <r>     4.9130     3.1247    35.8639 </r>
       <r>     5.0200     2.8937    36.1735 </r>
       <r>     5.1270     3.2766    36.5241 </r>
       <r>     5.2339     3.3015    36.8773 </r>
       <r>     5.3409     2.9331    37.1911 </r>
       <r>     5.4479     2.7155    37.4816 </r>
       <r>     5.5549     2.5920    37.7589 </r>
       <r>     5.6619     3.5392    38.1375 </r>
       <r>     5.7689     3.4356    38.5051 </r>
       <r>     5.8759     2.8197    38.8068 </r>
       <r>     5.9828     2.3378    39.0569 </r>
       <r>     6.0898     2.6003    39.3351 </r>
       <r>     6.1968     2.0000    39.5490 </r>
       <r>     6.3038     2.3339    39.7987 </r>
       <r>     6.4108     2.9736    40.1169 </r>
       <r>     6.5178     3.0769    40.4460 </r>
       <r>     6.6247     3.0270    40.7699 </r>
       <r>     6.7317     3.3632    41.1297 </r>
       <r>     6.8387     4.2776    41.5873 </r>
       <r>     6.9457     3.5573    41.9679 </r>
       <r>     7.0527     3.2969    42.3206 </r>
       <r>     7.1597     3.4421    42.6889 </r>
       <r>     7.2667     2.7090    42.9787 </r>
       <r>     7.3736     2.2478    43.2192 </r>
       <r>     7.4806     2.8687    43.5261 </r>
       <r>     7.5876     2.8773    43.8339 </r>
       <r>     7.6946     2.8553    44.1394 </r>
       <r>     7.8016     3.5504    44.5192 </r>
       <r>     7.9086     4.1830    44.9668 </r>
       <r>     8.0156     3.9055    45.3846 </r>
       <r>     8.1225     4.0120    45.8138 </r>
       <r>     8.2295     4.0694    46.2492 </r>
       <r>     8.3365     3.7259    46.6478 </r>
       <r>     8.4435     4.7999    47.1613 </r>
       <r>     8.5505     4.0074    47.5901 </r>
       <r>     8.6575     1.9929    47.8033 </r>
       <r>     8.7645     0.9491    47.9048 </r>
       <r>     8.8714     0.4541    47.9534 </r>
       <r>     8.9784     0.3572    47.9916 </r>
       <r>     9.0854     0.0757    47.9997 </r>
       <r>     9.1924     0.0027    48.0000 </r>
       <r>     9.2994     0.0000    48.0000 </r>
       <r>     9.4064     0.0000    48.0000 </r>
       <r>     9.5134     0.0000    48.0000 </r>
       <r>     9.6203     0.0000    48.0000 </r>
       <r>     9.7273     0.0000    48.0000 </r>
       <r>     9.8343     0.0000    48.0000 </r>
       <r>     9.9413     0.0000    48.0000 </r>
       <r>    10.0483     0.0000    48.0000 </r>
       <r>    10.1553     0.0000    48.0000 </r>
       <r>    10.2623     0.0000    48.0000 </r>
       <r>    10.3692     0.0000    48.0000 </r>
      </set>
      <set comment="spin 2">
       <r>   -21.7264     0.0000     0.0000 </r>
       <r>   -21.6194     0.0000     0.0000 </r>
       <r>   -21.5124     0.0000     0.0000 </r>
       <r>   -21.4054     0.0000     0.0000 </r>
       <r>   -21.2984     0.0000     0.0000 </r>
       <r>   -21.1915     0.0000     0.0000 </r>
       <r>   -21.0845     0.0000     0.0000 </r>
       <r>   -20.9775     0.0000     0.0000 </r>
       <r>   -20.8705     0.0000     0.0000 </r>
       <r>   -20.7635     0.0000     0.0000 </r>
       <r>   -20.6565     0.0000     0.0000 </r>
       <r>   -20.5495     0.0000     0.0000 </r>
       <r>   -20.4426     0.0008     0.0001 </r>
       <r>   -20.3356     0.0343     0.0038 </r>
       <r>   -20.2286     0.2513     0.0306 </r>
       <r>   -20.1216     0.5294     0.0873 </r>
       <r>   -20.0146     0.5757     0.1489 </r>
       <r>   -19.9076     0.6299     0.2163 </r>
       <r>   -19.8006     0.5286     0.2728 </r>
       <r>   -19.6937     0.6861     0.3462 </r>
       <r>   -19.5867     0.5393     0.4039 </r>
       <r>   -19.4797     0.5382     0.4615 </r>
       <r>   -19.3727     0.7674     0.5436 </r>
       <r>   -19.2657     0.4903     0.5960 </r>
       <r>   -19.1587     0.4881     0.6483 </r>
       <r>   -19.0517     0.7785     0.7315 </r>
       <r>   -18.9448     0.6689     0.8031 </r>
       <r>   -18.8378     0.3815     0.8439 </r>
       <r>   -18.7308     0.5435     0.9021 </r>
       <r>   -18.6238     0.8844     0.9967 </r>
       <r>   -18.5168     0.5888     1.0597 </r>
       <r>   -18.4098     0.4868     1.1118 </r>
       <r>   -18.3028     0.3735     1.1517 </r>
       <r>   -18.1959     0.8295     1.2405 </r>
       <r>   -18.0889     0.8553     1.3320 </r>
       <r>   -17.9819     0.4621     1.3814 </r>
       <r>   -17.8749     0.4112     1.4254 </r>
       <r>   -17.7679     0.5193     1.4810 </r>
       <r>   -17.6609     0.7763     1.5640 </r>
       <r>   -17.5539     0.8728     1.6574 </r>
       <r>   -17.4470     0.7126     1.7336 </r>
       <r>   -17.3400     0.8298     1.8224 </r>
       <r>   -17.2330     1.2697     1.9582 </r>
       <r>   -17.1260     1.8432     2.1554 </r>
       <r>   -17.0190     1.9925     2.3686 </r>
       <r>   -16.9120     2.1617     2.5999 </r>
       <r>   -16.8051     2.6365     2.8819 </r>
       <r>   -16.6981     2.1582     3.1128 </r>
       <r>   -16.5911     0.6719     3.1847 </r>
       <r>   -16.4841     0.8747     3.2783 </r>
       <r>   -16.3771     1.0746     3.3933 </r>
       <r>   -16.2701     0.5924     3.4567 </r>
       <r>   -16.1631     0.5345     3.5138 </r>
       <r>   -16.0562     0.4866     3.5659 </r>
       <r>   -15.9492     0.4992     3.6193 </r>
       <r>   -15.8422     0.4390     3.6663 </r>
       <r>   -15.7352     0.9827     3.7714 </r>
       <r>   -15.6282     1.0714     3.8860 </r>
       <r>   -15.5212     0.5233     3.9420 </r>
       <r>   -15.4142     0.4927     3.9947 </r>
       <r>   -15.3073     0.4223     4.0399 </r>
       <r>   -15.2003     0.5700     4.1009 </r>
       <r>   -15.0933     0.7647     4.1827 </r>
       <r>   -14.9863     1.3072     4.3226 </r>
       <r>   -14.8793     2.1331     4.5508 </r>
       <r>   -14.7723     2.3440     4.8016 </r>
       <r>   -14.6653     2.2274     5.0399 </r>
       <r>   -14.5584     1.5146     5.2019 </r>
       <r>   -14.4514     0.9559     5.3042 </r>
       <r>   -14.3444     1.7531     5.4917 </r>
       <r>   -14.2374     2.0428     5.7103 </r>
       <r>   -14.1304     1.4878     5.8694 </r>
       <r>   -14.0234     1.3860     6.0177 </r>
       <r>   -13.9164     1.5341     6.1818 </r>
       <r>   -13.8095     2.4580     6.4448 </r>
       <r>   -13.7025     2.5454     6.7171 </r>
       <r>   -13.5955     2.3407     6.9676 </r>
       <r>   -13.4885     1.5182     7.1300 </r>
       <r>   -13.3815     0.8986     7.2261 </r>
       <r>   -13.2745     0.4175     7.2708 </r>
       <r>   -13.1675     0.4932     7.3236 </r>
       <r>   -13.0606     0.8383     7.4132 </r>
       <r>   -12.9536     0.9066     7.5102 </r>
       <r>   -12.8466     0.6161     7.5762 </r>
       <r>   -12.7396     0.8170     7.6636 </r>
       <r>   -12.6326     0.9040     7.7603 </r>
       <r>   -12.5256     0.7322     7.8386 </r>
       <r>   -12.4187     0.6935     7.9128 </r>
       <r>   -12.3117     0.4471     7.9606 </r>
       <r>   -12.2047     0.7425     8.0401 </r>
       <r>   -12.0977     1.0465     8.1520 </r>
       <r>   -11.9907     0.4821     8.2036 </r>
       <r>   -11.8837     0.4183     8.2484 </r>
       <r>   -11.7767     0.4312     8.2945 </r>
       <r>   -11.6698     0.6928     8.3686 </r>
       <r>   -11.5628     0.8904     8.4639 </r>
       <r>   -11.4558     0.5507     8.5228 </r>
       <r>   -11.3488     0.2280     8.5472 </r>
       <r>   -11.2418     0.5671     8.6079 </r>
       <r>   -11.1348     0.7452     8.6876 </r>
       <r>   -11.0278     0.6889     8.7613 </r>
       <r>   -10.9209     0.9669     8.8647 </r>
       <r>   -10.8139     0.8117     8.9516 </r>
       <r>   -10.7069     0.3257     8.9864 </r>
       <r>   -10.5999     0.9774     9.0910 </r>
       <r>   -10.4929     1.5749     9.2595 </r>
       <r>   -10.3859     1.9589     9.4690 </r>
       <r>   -10.2789     1.9810     9.6810 </r>
       <r>   -10.1720     1.8561     9.8796 </r>
       <r>   -10.0650     2.2326    10.1184 </r>
       <r>    -9.9580     2.3689    10.3719 </r>
       <r>    -9.8510     1.2832    10.5091 </r>
       <r>    -9.7440     0.8966    10.6051 </r>
       <r>    -9.6370     1.7630    10.7937 </r>
       <r>    -9.5300     1.9171    10.9988 </r>
       <r>    -9.4231     2.0740    11.2207 </r>
       <r>    -9.3161     2.0527    11.4403 </r>
       <r>    -9.2091     1.8300    11.6361 </r>
       <r>    -9.1021     1.3433    11.7798 </r>
       <r>    -8.9951     0.8855    11.8745 </r>
       <r>    -8.8881     1.9388    12.0819 </r>
       <r>    -8.7811     2.7183    12.3727 </r>
       <r>    -8.6742     2.0028    12.5870 </r>
       <r>    -8.5672     0.9901    12.6929 </r>
       <r>    -8.4602     1.3010    12.8321 </r>
       <r>    -8.3532     2.6294    13.1134 </r>
       <r>    -8.2462     2.5298    13.3841 </r>
       <r>    -8.1392     1.4647    13.5408 </r>
       <r>    -8.0322     2.0063    13.7554 </r>
       <r>    -7.9253     3.1280    14.0901 </r>
       <r>    -7.8183     3.0964    14.4214 </r>
       <r>    -7.7113     2.7264    14.7130 </r>
       <r>    -7.6043     1.3495    14.8574 </r>
       <r>    -7.4973     1.0240    14.9670 </r>
       <r>    -7.3903     2.3613    15.2196 </r>
       <r>    -7.2834     2.2764    15.4631 </r>
       <r>    -7.1764     1.5033    15.6240 </r>
       <r>    -7.0694     1.4903    15.7834 </r>
       <r>    -6.9624     2.1688    16.0154 </r>
       <r>    -6.8554     2.2535    16.2565 </r>
       <r>    -6.7484     2.4274    16.5162 </r>
       <r>    -6.6414     2.7648    16.8120 </r>
       <r>    -6.5345     2.4828    17.0776 </r>
       <r>    -6.4275     2.5983    17.3556 </r>
       <r>    -6.3205     2.1544    17.5861 </r>
       <r>    -6.2135     2.2478    17.8266 </r>
       <r>    -6.1065     3.2995    18.1796 </r>
       <r>    -5.9995     3.0066    18.5012 </r>
       <r>    -5.8925     3.9625    18.9252 </r>
       <r>    -5.7856     3.5744    19.3076 </r>
       <r>    -5.6786     2.1152    19.5339 </r>
       <r>    -5.5716     2.4348    19.7943 </r>
       <r>    -5.4646     4.1300    20.2362 </r>
       <r>    -5.3576     4.4598    20.7133 </r>
       <r>    -5.2506     3.0970    21.0447 </r>
       <r>    -5.1436     2.2165    21.2818 </r>
       <r>    -5.0367     1.3160    21.4226 </r>
       <r>    -4.9297     1.2082    21.5519 </r>
       <r>    -4.8227     1.8415    21.7489 </r>
       <r>    -4.7157     1.5307    21.9126 </r>
       <r>    -4.6087     1.0853    22.0288 </r>
       <r>    -4.5017     1.0986    22.1463 </r>
       <r>    -4.3947     1.8733    22.3467 </r>
       <r>    -4.2878     2.8903    22.6559 </r>
       <r>    -4.1808     2.3772    22.9103 </r>
       <r>    -4.0738     2.4335    23.1706 </r>
       <r>    -3.9668     2.8214    23.4724 </r>
       <r>    -3.8598     3.1641    23.8110 </r>
       <r>    -3.7528     2.3733    24.0649 </r>
       <r>    -3.6458     2.2862    24.3095 </r>
       <r>    -3.5389     2.5708    24.5845 </r>
       <r>    -3.4319     2.0465    24.8034 </r>
       <r>    -3.3249     1.7638    24.9921 </r>
       <r>    -3.2179     1.7062    25.1747 </r>
       <r>    -3.1109     2.2320    25.4135 </r>
       <r>    -3.0039     2.3152    25.6612 </r>
       <r>    -2.8970     1.5236    25.8242 </r>
       <r>    -2.7900     1.5423    25.9892 </r>
       <r>    -2.6830     0.9543    26.0913 </r>
       <r>    -2.5760     1.2767    26.2278 </r>
       <r>    -2.4690     2.4795    26.4931 </r>
       <r>    -2.3620     1.8674    26.6929 </r>
       <r>    -2.2550     0.5106    26.7475 </r>
       <r>    -2.1481     0.5999    26.8117 </r>
       <r>    -2.0411     1.3260    26.9536 </r>
       <r>    -1.9341     1.2892    27.0915 </r>
       <r>    -1.8271     1.4133    27.2427 </r>
       <r>    -1.7201     1.4632    27.3992 </r>
       <r>    -1.6131     1.2347    27.5313 </r>
       <r>    -1.5061     0.9243    27.6302 </r>
       <r>    -1.3992     0.5725    27.6915 </r>
       <r>    -1.2922     0.5038    27.7454 </r>
       <r>    -1.1852     0.5209    27.8011 </r>
       <r>    -1.0782     0.4793    27.8524 </r>
       <r>    -0.9712     0.7449    27.9321 </r>
       <r>    -0.8642     0.4074    27.9757 </r>
       <r>    -0.7572     0.0874    27.9850 </r>
       <r>    -0.6503     0.0101    27.9861 </r>
       <r>    -0.5433     0.0003    27.9861 </r>
       <r>    -0.4363     0.0068    27.9868 </r>
       <r>    -0.3293     0.0797    27.9954 </r>
       <r>    -0.2223     0.1365    28.0100 </r>
       <r>    -0.1153     0.0354    28.0138 </r>
       <r>    -0.0083     0.0013    28.0139 </r>
       <r>     0.0986     0.0000    28.0139 </r>
       <r>     0.2056     0.0034    28.0143 </r>
       <r>     0.3126     0.1014    28.0251 </r>
       <r>     0.4196     0.4080    28.0688 </r>
       <r>     0.5266     0.2515    28.0957 </r>
       <r>     0.6336     0.1347    28.1101 </r>
       <r>     0.7406     0.4194    28.1549 </r>
       <r>     0.8475     0.6638    28.2260 </r>
       <r>     0.9545     1.0892    28.3425 </r>
       <r>     1.0615     3.0690    28.6708 </r>
       <r>     1.1685     2.8801    28.9789 </r>
       <r>     1.2755     0.7424    29.0584 </r>
       <r>     1.3825     0.4856    29.1103 </r>
       <r>     1.4894     0.9851    29.2157 </r>
       <r>     1.5964     1.5502    29.3816 </r>
       <r>     1.7034     2.3615    29.6342 </r>
       <r>     1.8104     2.0950    29.8584 </r>
       <r>     1.9174     0.9297    29.9578 </r>
       <r>     2.0244     0.7982    30.0432 </r>
       <r>     2.1314     1.2820    30.1804 </r>
       <r>     2.2383     0.9612    30.2832 </r>
       <r>     2.3453     1.0084    30.3911 </r>
       <r>     2.4523     0.9787    30.4958 </r>
       <r>     2.5593     1.1929    30.6234 </r>
       <r>     2.6663     1.4941    30.7833 </r>
       <r>     2.7733     0.9530    30.8852 </r>
       <r>     2.8803     0.6029    30.9497 </r>
       <r>     2.9872     1.0874    31.0661 </r>
       <r>     3.0942     1.5616    31.2331 </r>
       <r>     3.2012     1.2441    31.3662 </r>
       <r>     3.3082     1.2894    31.5042 </r>
       <r>     3.4152     1.2484    31.6377 </r>
       <r>     3.5222     1.2779    31.7744 </r>
       <r>     3.6292     2.0560    31.9944 </r>
       <r>     3.7361     2.5959    32.2721 </r>
       <r>     3.8431     2.9825    32.5912 </r>
       <r>     3.9501     2.8640    32.8976 </r>
       <r>     4.0571     2.8963    33.2075 </r>
       <r>     4.1641     2.9879    33.5271 </r>
       <r>     4.2711     3.3832    33.8891 </r>
       <r>     4.3781     3.1609    34.2273 </r>
       <r>     4.4850     3.1126    34.5603 </r>
       <r>     4.5920     2.9404    34.8748 </r>
       <r>     4.6990     2.8013    35.1745 </r>
       <r>     4.8060     3.3175    35.5295 </r>
       <r>     4.9130     3.1251    35.8638 </r>
       <r>     5.0200     2.8935    36.1734 </r>
       <r>     5.1270     3.2764    36.5239 </r>
       <r>     5.2339     3.3012    36.8771 </r>
       <r>     5.3409     2.9332    37.1909 </r>
       <r>     5.4479     2.7165    37.4815 </r>
       <r>     5.5549     2.5918    37.7588 </r>
       <r>     5.6619     3.5389    38.1374 </r>
       <r>     5.7689     3.4349    38.5049 </r>
       <r>     5.8759     2.8205    38.8067 </r>
       <r>     5.9828     2.3381    39.0568 </r>
       <r>     6.0898     2.6001    39.3350 </r>
       <r>     6.1968     1.9994    39.5489 </r>
       <r>     6.3038     2.3330    39.7985 </r>
       <r>     6.4108     2.9744    40.1167 </r>
       <r>     6.5178     3.0768    40.4459 </r>
       <r>     6.6247     3.0269    40.7697 </r>
       <r>     6.7317     3.3624    41.1294 </r>
       <r>     6.8387     4.2774    41.5870 </r>
       <r>     6.9457     3.5580    41.9677 </r>
       <r>     7.0527     3.2964    42.3204 </r>
       <r>     7.1597     3.4428    42.6887 </r>
       <r>     7.2667     2.7100    42.9786 </r>
       <r>     7.3736     2.2477    43.2191 </r>
       <r>     7.4806     2.8672    43.5258 </r>
       <r>     7.5876     2.8779    43.8337 </r>
       <r>     7.6946     2.8557    44.1393 </r>
       <r>     7.8016     3.5508    44.5191 </r>
       <r>     7.9086     4.1838    44.9667 </r>
       <r>     8.0156     3.9043    45.3844 </r>
       <r>     8.1225     4.0106    45.8135 </r>
       <r>     8.2295     4.0705    46.2490 </r>
       <r>     8.3365     3.7256    46.6476 </r>
       <r>     8.4435     4.7993    47.1610 </r>
       <r>     8.5505     4.0091    47.5900 </r>
       <r>     8.6575     1.9937    47.8033 </r>
       <r>     8.7645     0.9492    47.9048 </r>
       <r>     8.8714     0.4541    47.9534 </r>
       <r>     8.9784     0.3572    47.9916 </r>
       <r>     9.0854     0.0757    47.9997 </r>
       <r>     9.1924     0.0027    48.0000 </r>
       <r>     9.2994     0.0000    48.0000 </r>
       <r>     9.4064     0.0000    48.0000 </r>
       <r>     9.5134     0.0000    48.0000 </r>
       <r>     9.6203     0.0000    48.0000 </r>
       <r>     9.7273     0.0000    48.0000 </r>
       <r>     9.8343     0.0000    48.0000 </r>
       <r>     9.9413     0.0000    48.0000 </r>
       <r>    10.0483     0.0000    48.0000 </r>
       <r>    10.1553     0.0000    48.0000 </r>
       <r>    10.2623     0.0000    48.0000 </r>
       <r>    10.3692     0.0000    48.0000 </r>
      </set>
     </set>
    </array>
   </total>
  </dos>
 </calculation>
 <structure name="finalpos" >
  <crystal>
   <varray name="basis" >
    <v>       4.18809885       2.41800000       0.00000000 </v>
    <v>      -4.18809885       2.41800000       0.00000000 </v>
    <v>       0.00000000       0.00000000      15.00000000 </v>
   </varray>
   <i name="volume">    303.80469077 </i>
   <varray name="rec_basis" >
    <v>       0.11938591       0.20678246       0.00000000 </v>
    <v>      -0.11938591       0.20678246       0.00000000 </v>
    <v>       0.00000000       0.00000000       0.06666667 </v>
   </varray>
  </crystal>
  <varray name="positions" >
   <v>       0.00404284       0.00268465       0.10191658 </v>
   <v>       0.35921683       0.00295373       0.10048023 </v>
   <v>       0.00376582       0.35759709       0.10048116 </v>
   <v>       0.64912458       0.64750277       0.10047680 </v>
   <v>       0.32785589       0.32623412       0.10057711 </v>
   <v>       0.68048777       0.00295216       0.10057326 </v>
   <v>       0.00377277       0.67887389       0.10056984 </v>
   <v>       0.00015038       0.50007339       0.33481033 </v>
   <v>       0.16679834       0.33345896       0.33484329 </v>
   <v>       0.00012637       0.00007811       0.33476830 </v>
   <v>       0.16684203       0.83341256       0.33484719 </v>
   <v>       0.50013390       0.50011138       0.33481323 </v>
   <v>       0.66679738       0.33341372       0.33470309 </v>
   <v>       0.50009434       0.00005391       0.33480880 </v>
   <v>       0.66675140       0.83336689       0.33484344 </v>
  </varray>
 </structure>
</modeling>
