   15   15    1    1
  0.2033749E+02  0.4846000E-09  0.4846000E-09  0.1500000E-08  0.5000000E-15
  1.000000000000000E-004
  CAR 
 DF                                      
     56    145    128
 
  0.0000000E+00  0.0000000E+00  0.0000000E+00  0.3460208E-02
      1        -20.240829   1.000000
      2        -17.387688   1.000000
      3        -14.753329   1.000000
      4        -14.751628   1.000000
      5        -14.751570   1.000000
      6        -13.869463   1.000000
      7        -13.869397   1.000000
      8        -13.867569   1.000000
      9        -13.499116   1.000000
     10        -13.499011   1.000000
     11        -10.422385   1.000000
     12         -9.433443   1.000000
     13         -9.433351   1.000000
     14         -8.380561   1.000000
     15         -7.645954   1.000000
     16         -6.849404   1.000000
     17         -6.849267   1.000000
     18         -6.849248   1.000000
     19         -6.721440   1.000000
     20         -3.299827   1.000000
     21         -3.299694   1.000000
     22         -2.902979   1.000000
     23         -2.902879   1.000000
     24         -2.796339   1.000000
     25         -2.795994   1.000000
     26         -2.787752   1.000000
     27         -0.876438   1.000000
     28         -0.874192   1.000000
     29          0.982850   0.000000
     30          0.990277   0.000000
     31          1.319719   0.000000
     32          1.584030   0.000000
     33          1.589293   0.000000
     34          2.089530   0.000000
     35          2.886141   0.000000
     36          3.504841   0.000000
     37          3.505075   0.000000
     38          3.609070   0.000000
     39          4.620870   0.000000
     40          6.729179   0.000000
     41          7.468480   0.000000
     42          7.594149   0.000000
     43          7.603557   0.000000
     44          7.603787   0.000000
     45          7.877864   0.000000
     46          8.381409   0.000000
     47          8.381579   0.000000
     48          8.787828   0.000000
     49          9.002173   0.000000
     50          9.286715   0.000000
     51          9.398224   0.000000
     52          9.398464   0.000000
     53         10.438510   0.000000
     54         10.438990   0.000000
     55         10.811319   0.000000
     56         11.350046   0.000000
     57         11.351522   0.000000
     58         11.383373   0.000000
     59         11.487580   0.000000
     60         11.503836   0.000000
     61         11.503899   0.000000
     62         11.703910   0.000000
     63         11.786275   0.000000
     64         11.936002   0.000000
     65         11.936519   0.000000
     66         12.117505   0.000000
     67         12.339824   0.000000
     68         12.340026   0.000000
     69         12.870139   0.000000
     70         12.873048   0.000000
     71         12.933632   0.000000
     72         13.134349   0.000000
     73         13.417012   0.000000
     74         13.604112   0.000000
     75         13.604483   0.000000
     76         13.770741   0.000000
     77         14.050801   0.000000
     78         14.056438   0.000000
     79         14.218480   0.000000
     80         14.435291   0.000000
     81         14.910897   0.000000
     82         14.921099   0.000000
     83         15.513322   0.000000
     84         15.688816   0.000000
     85         15.692685   0.000000
     86         15.943677   0.000000
     87         16.090310   0.000000
     88         16.098213   0.000000
     89         16.814309   0.000000
     90         17.031560   0.000000
     91         18.099161   0.000000
     92         18.106151   0.000000
     93         18.187160   0.000000
     94         18.584559   0.000000
     95         19.160944   0.000000
     96         19.273928   0.000000
     97         19.285761   0.000000
     98         19.830169   0.000000
     99         20.104666   0.000000
    100         20.681634   0.000000
    101         20.681923   0.000000
    102         20.689929   0.000000
    103         20.923710   0.000000
    104         20.928186   0.000000
    105         20.934504   0.000000
    106         21.099704   0.000000
    107         21.107068   0.000000
    108         21.352986   0.000000
    109         21.358565   0.000000
    110         21.413922   0.000000
    111         21.549601   0.000000
    112         21.566477   0.000000
    113         21.794392   0.000000
    114         21.898094   0.000000
    115         22.112166   0.000000
    116         22.120093   0.000000
    117         22.193987   0.000000
    118         22.529429   0.000000
    119         22.536391   0.000000
    120         22.889740   0.000000
    121         23.321367   0.000000
    122         23.323388   0.000000
    123         23.426399   0.000000
    124         23.664217   0.000000
    125         23.675025   0.000000
    126         24.153984   0.000000
    127         25.040016   0.000000
    128         25.052856   0.000000
 
  0.5882353E-01 -0.3469447E-17  0.0000000E+00  0.6920415E-02
      1        -20.219733   1.000000
      2        -17.373297   1.000000
      3        -15.095337   1.000000
      4        -14.847568   1.000000
      5        -14.845838   1.000000
      6        -13.740709   1.000000
      7        -13.739118   1.000000
      8        -13.559857   1.000000
      9        -13.512378   1.000000
     10        -13.487205   1.000000
     11        -10.369936   1.000000
     12         -9.499545   1.000000
     13         -9.391031   1.000000
     14         -8.355003   1.000000
     15         -7.522883   1.000000
     16         -6.914750   1.000000
     17         -6.914363   1.000000
     18         -6.828059   1.000000
     19         -6.698169   1.000000
     20         -3.386543   1.000000
     21         -3.347639   1.000000
     22         -3.010837   1.000000
     23         -2.965068   1.000000
     24         -2.934883   1.000000
     25         -2.814913   1.000000
     26         -2.806704   1.000000
     27         -1.004005   1.000000
     28         -0.947232   1.000000
     29          0.987664   0.000000
     30          1.064837   0.000000
     31          1.406148   0.000000
     32          1.623309   0.000000
     33          1.664898   0.000000
     34          2.321724   0.000000
     35          2.915731   0.000000
     36          3.555260   0.000000
     37          3.606987   0.000000
     38          3.640577   0.000000
     39          4.649745   0.000000
     40          6.753281   0.000000
     41          7.493139   0.000000
     42          7.608783   0.000000
     43          7.692219   0.000000
     44          7.701109   0.000000
     45          7.822684   0.000000
     46          8.395122   0.000000
     47          8.475568   0.000000
     48          8.835033   0.000000
     49          9.023826   0.000000
     50          9.229018   0.000000
     51          9.243896   0.000000
     52          9.278303   0.000000
     53         10.189679   0.000000
     54         10.247254   0.000000
     55         10.496734   0.000000
     56         10.804797   0.000000
     57         11.093844   0.000000
     58         11.233050   0.000000
     59         11.490830   0.000000
     60         11.557186   0.000000
     61         11.707699   0.000000
     62         11.762536   0.000000
     63         11.816802   0.000000
     64         11.931063   0.000000
     65         12.094282   0.000000
     66         12.239080   0.000000
     67         12.421895   0.000000
     68         12.719914   0.000000
     69         12.787650   0.000000
     70         12.888451   0.000000
     71         13.249262   0.000000
     72         13.316102   0.000000
     73         13.449925   0.000000
     74         13.590161   0.000000
     75         13.699490   0.000000
     76         13.793283   0.000000
     77         13.924805   0.000000
     78         14.045605   0.000000
     79         14.282071   0.000000
     80         14.619724   0.000000
     81         14.940990   0.000000
     82         14.985404   0.000000
     83         15.217451   0.000000
     84         15.528550   0.000000
     85         15.684515   0.000000
     86         16.067438   0.000000
     87         16.325951   0.000000
     88         16.454732   0.000000
     89         16.991630   0.000000
     90         17.142467   0.000000
     91         17.845204   0.000000
     92         18.002907   0.000000
     93         18.263158   0.000000
     94         18.561553   0.000000
     95         19.068769   0.000000
     96         19.323628   0.000000
     97         19.466527   0.000000
     98         19.835637   0.000000
     99         20.042521   0.000000
    100         20.389400   0.000000
    101         20.465119   0.000000
    102         20.517866   0.000000
    103         20.599176   0.000000
    104         20.751114   0.000000
    105         20.792928   0.000000
    106         20.881224   0.000000
    107         21.091038   0.000000
    108         21.251210   0.000000
    109         21.472258   0.000000
    110         21.551371   0.000000
    111         21.602281   0.000000
    112         21.712446   0.000000
    113         21.888818   0.000000
    114         21.964916   0.000000
    115         22.147189   0.000000
    116         22.227186   0.000000
    117         22.284855   0.000000
    118         22.516690   0.000000
    119         22.603125   0.000000
    120         22.958544   0.000000
    121         23.380366   0.000000
    122         23.531108   0.000000
    123         23.747310   0.000000
    124         23.852671   0.000000
    125         23.925479   0.000000
    126         24.263027   0.000000
    127         25.010276   0.000000
    128         25.048817   0.000000
 
 -0.3469447E-17  0.5882353E-01  0.0000000E+00  0.6920415E-02
      1        -20.219733   1.000000
      2        -17.373297   1.000000
      3        -15.095329   1.000000
      4        -14.847601   1.000000
      5        -14.845819   1.000000
      6        -13.740744   1.000000
      7        -13.739100   1.000000
      8        -13.559655   1.000000
      9        -13.512428   1.000000
     10        -13.487334   1.000000
     11        -10.369935   1.000000
     12         -9.499519   1.000000
     13         -9.391057   1.000000
     14         -8.355003   1.000000
     15         -7.522882   1.000000
     16         -6.914770   1.000000
     17         -6.914383   1.000000
     18         -6.828019   1.000000
     19         -6.698169   1.000000
     20         -3.386631   1.000000
     21         -3.347551   1.000000
     22         -3.010895   1.000000
     23         -2.965108   1.000000
     24         -2.934758   1.000000
     25         -2.814725   1.000000
     26         -2.806917   1.000000
     27         -1.002825   1.000000
     28         -0.948587   1.000000
     29          0.992432   0.000000
     30          1.060635   0.000000
     31          1.406784   0.000000
     32          1.618335   0.000000
     33          1.668437   0.000000
     34          2.322153   0.000000
     35          2.915729   0.000000
     36          3.555049   0.000000
     37          3.607161   0.000000
     38          3.640593   0.000000
     39          4.649745   0.000000
     40          6.753280   0.000000
     41          7.493142   0.000000
     42          7.608873   0.000000
     43          7.691998   0.000000
     44          7.701189   0.000000
     45          7.822766   0.000000
     46          8.395231   0.000000
     47          8.475456   0.000000
     48          8.835000   0.000000
     49          9.023828   0.000000
     50          9.228973   0.000000
     51          9.243884   0.000000
     52          9.278290   0.000000
     53         10.189136   0.000000
     54         10.247646   0.000000
     55         10.497214   0.000000
     56         10.805601   0.000000
     57         11.093379   0.000000
     58         11.232209   0.000000
     59         11.490771   0.000000
     60         11.557218   0.000000
     61         11.707686   0.000000
     62         11.762917   0.000000
     63         11.816245   0.000000
     64         11.929908   0.000000
     65         12.093954   0.000000
     66         12.240024   0.000000
     67         12.422846   0.000000
     68         12.721188   0.000000
     69         12.787320   0.000000
     70         12.887769   0.000000
     71         13.250002   0.000000
     72         13.316238   0.000000
     73         13.449860   0.000000
     74         13.590277   0.000000
     75         13.698042   0.000000
     76         13.792985   0.000000
     77         13.924148   0.000000
     78         14.044455   0.000000
     79         14.281601   0.000000
     80         14.627249   0.000000
     81         14.939994   0.000000
     82         14.989232   0.000000
     83         15.208684   0.000000
     84         15.528354   0.000000
     85         15.688677   0.000000
     86         16.060798   0.000000
     87         16.322871   0.000000
     88         16.461623   0.000000
     89         16.991405   0.000000
     90         17.141882   0.000000
     91         17.848520   0.000000
     92         17.998995   0.000000
     93         18.266517   0.000000
     94         18.562233   0.000000
     95         19.065959   0.000000
     96         19.322786   0.000000
     97         19.466757   0.000000
     98         19.836548   0.000000
     99         20.042464   0.000000
    100         20.389693   0.000000
    101         20.466253   0.000000
    102         20.517808   0.000000
    103         20.595528   0.000000
    104         20.750134   0.000000
    105         20.790494   0.000000
    106         20.882267   0.000000
    107         21.092772   0.000000
    108         21.252192   0.000000
    109         21.469668   0.000000
    110         21.543368   0.000000
    111         21.614643   0.000000
    112         21.723170   0.000000
    113         21.873094   0.000000
    114         21.978227   0.000000
    115         22.136969   0.000000
    116         22.228695   0.000000
    117         22.290040   0.000000
    118         22.516744   0.000000
    119         22.600350   0.000000
    120         22.958519   0.000000
    121         23.379457   0.000000
    122         23.532548   0.000000
    123         23.748500   0.000000
    124         23.842034   0.000000
    125         23.929027   0.000000
    126         24.265814   0.000000
    127         25.016173   0.000000
    128         25.044082   0.000000
 
 -0.5882353E-01  0.5882353E-01  0.0000000E+00  0.6920415E-02
      1        -20.219733   1.000000
      2        -17.373297   1.000000
      3        -15.095327   1.000000
      4        -14.847587   1.000000
      5        -14.845836   1.000000
      6        -13.740745   1.000000
      7        -13.739084   1.000000
      8        -13.559611   1.000000
      9        -13.512497   1.000000
     10        -13.487324   1.000000
     11        -10.369932   1.000000
     12         -9.499469   1.000000
     13         -9.391110   1.000000
     14         -8.355003   1.000000
     15         -7.522881   1.000000
     16         -6.914781   1.000000
     17         -6.914380   1.000000
     18         -6.828011   1.000000
     19         -6.698169   1.000000
     20         -3.386649   1.000000
     21         -3.347533   1.000000
     22         -3.010917   1.000000
     23         -2.965071   1.000000
     24         -2.934765   1.000000
     25         -2.814709   1.000000
     26         -2.806941   1.000000
     27         -1.003699   1.000000
     28         -0.947643   1.000000
     29          0.990721   0.000000
     30          1.062828   0.000000
     31          1.404313   0.000000
     32          1.621646   0.000000
     33          1.667335   0.000000
     34          2.321862   0.000000
     35          2.915729   0.000000
     36          3.555162   0.000000
     37          3.607072   0.000000
     38          3.640571   0.000000
     39          4.649746   0.000000
     40          6.753283   0.000000
     41          7.493139   0.000000
     42          7.608583   0.000000
     43          7.692659   0.000000
     44          7.700995   0.000000
     45          7.822567   0.000000
     46          8.395254   0.000000
     47          8.475432   0.000000
     48          8.835007   0.000000
     49          9.023831   0.000000
     50          9.228972   0.000000
     51          9.243975   0.000000
     52          9.278239   0.000000
     53         10.189224   0.000000
     54         10.247453   0.000000
     55         10.497274   0.000000
     56         10.805364   0.000000
     57         11.093505   0.000000
     58         11.232419   0.000000
     59         11.490805   0.000000
     60         11.557164   0.000000
     61         11.707721   0.000000
     62         11.762771   0.000000
     63         11.816522   0.000000
     64         11.930180   0.000000
     65         12.093999   0.000000
     66         12.240302   0.000000
     67         12.421251   0.000000
     68         12.722220   0.000000
     69         12.786865   0.000000
     70         12.887977   0.000000
     71         13.249532   0.000000
     72         13.317723   0.000000
     73         13.449825   0.000000
     74         13.588495   0.000000
     75         13.696260   0.000000
     76         13.793365   0.000000
     77         13.924093   0.000000
     78         14.050402   0.000000
     79         14.279335   0.000000
     80         14.623418   0.000000
     81         14.941629   0.000000
     82         14.989627   0.000000
     83         15.207726   0.000000
     84         15.530059   0.000000
     85         15.689572   0.000000
     86         16.060115   0.000000
     87         16.324406   0.000000
     88         16.458785   0.000000
     89         16.990957   0.000000
     90         17.143409   0.000000
     91         17.845774   0.000000
     92         18.003454   0.000000
     93         18.264701   0.000000
     94         18.561293   0.000000
     95         19.062458   0.000000
     96         19.332439   0.000000
     97         19.461430   0.000000
     98         19.836417   0.000000
     99         20.042730   0.000000
    100         20.391636   0.000000
    101         20.463598   0.000000
    102         20.517783   0.000000
    103         20.595635   0.000000
    104         20.749358   0.000000
    105         20.791441   0.000000
    106         20.882725   0.000000
    107         21.091782   0.000000
    108         21.252743   0.000000
    109         21.470822   0.000000
    110         21.545211   0.000000
    111         21.611906   0.000000
    112         21.721150   0.000000
    113         21.893667   0.000000
    114         21.956666   0.000000
    115         22.140663   0.000000
    116         22.226977   0.000000
    117         22.291723   0.000000
    118         22.510375   0.000000
    119         22.605848   0.000000
    120         22.958538   0.000000
    121         23.375776   0.000000
    122         23.534708   0.000000
    123         23.746608   0.000000
    124         23.851418   0.000000
    125         23.923895   0.000000
    126         24.265181   0.000000
    127         25.006638   0.000000
    128         25.052642   0.000000
 
  0.1176471E+00  0.0000000E+00  0.0000000E+00  0.6920415E-02
      1        -20.156453   1.000000
      2        -17.330739   1.000000
      3        -15.652648   1.000000
      4        -15.041030   1.000000
      5        -15.038862   1.000000
      6        -13.709546   1.000000
      7        -13.554764   1.000000
      8        -13.440166   1.000000
      9        -13.435109   1.000000
     10        -12.841987   1.000000
     11        -10.243057   1.000000
     12         -9.629118   1.000000
     13         -9.268285   1.000000
     14         -8.278394   1.000000
     15         -7.207768   1.000000
     16         -7.104684   1.000000
     17         -7.103943   1.000000
     18         -6.764530   1.000000
     19         -6.628875   1.000000
     20         -3.640339   1.000000
     21         -3.484837   1.000000
     22         -3.318687   1.000000
     23         -3.295141   1.000000
     24         -3.136940   1.000000
     25         -2.866667   1.000000
     26         -2.853302   1.000000
     27         -1.353496   1.000000
     28         -1.115405   1.000000
     29          0.979682   0.000000
     30          1.262444   0.000000
     31          1.561675   0.000000
     32          1.792215   0.000000
     33          2.017562   0.000000
     34          2.827601   0.000000
     35          3.008599   0.000000
     36          3.696985   0.000000
     37          3.728362   0.000000
     38          3.894009   0.000000
     39          4.737487   0.000000
     40          6.823152   0.000000
     41          7.561720   0.000000
     42          7.594988   0.000000
     43          7.649697   0.000000
     44          7.984419   0.000000
     45          7.987211   0.000000
     46          8.431129   0.000000
     47          8.752857   0.000000
     48          8.790884   0.000000
     49          8.907245   0.000000
     50          8.960769   0.000000
     51          9.030910   0.000000
     52          9.167147   0.000000
     53          9.634186   0.000000
     54          9.896177   0.000000
     55         10.108719   0.000000
     56         10.242069   0.000000
     57         10.771063   0.000000
     58         10.910624   0.000000
     59         10.967080   0.000000
     60         11.476377   0.000000
     61         11.563679   0.000000
     62         11.608668   0.000000
     63         11.818425   0.000000
     64         12.244145   0.000000
     65         12.327785   0.000000
     66         12.573325   0.000000
     67         12.783621   0.000000
     68         12.907201   0.000000
     69         13.016626   0.000000
     70         13.234634   0.000000
     71         13.338628   0.000000
     72         13.507763   0.000000
     73         13.552936   0.000000
     74         13.619528   0.000000
     75         13.791823   0.000000
     76         13.929082   0.000000
     77         14.050644   0.000000
     78         14.257585   0.000000
     79         14.509783   0.000000
     80         14.742380   0.000000
     81         14.874680   0.000000
     82         14.961730   0.000000
     83         15.396352   0.000000
     84         15.550536   0.000000
     85         15.894024   0.000000
     86         16.252954   0.000000
     87         16.621463   0.000000
     88         16.821082   0.000000
     89         17.178734   0.000000
     90         17.400375   0.000000
     91         17.743536   0.000000
     92         17.903300   0.000000
     93         18.225693   0.000000
     94         18.537325   0.000000
     95         18.965801   0.000000
     96         19.306977   0.000000
     97         19.628437   0.000000
     98         19.795095   0.000000
     99         19.884796   0.000000
    100         19.962647   0.000000
    101         20.036489   0.000000
    102         20.110927   0.000000
    103         20.176961   0.000000
    104         20.384009   0.000000
    105         20.523097   0.000000
    106         20.617880   0.000000
    107         21.018303   0.000000
    108         21.177068   0.000000
    109         21.338114   0.000000
    110         21.485761   0.000000
    111         21.791811   0.000000
    112         21.935556   0.000000
    113         21.976468   0.000000
    114         22.090262   0.000000
    115         22.229005   0.000000
    116         22.370670   0.000000
    117         22.434278   0.000000
    118         22.665875   0.000000
    119         23.155991   0.000000
    120         23.175313   0.000000
    121         23.635973   0.000000
    122         23.791601   0.000000
    123         24.098521   0.000000
    124         24.330860   0.000000
    125         24.384315   0.000000
    126         24.477293   0.000000
    127         25.002589   0.000000
    128         25.107451   0.000000
 
  0.0000000E+00  0.1176471E+00  0.0000000E+00  0.6920415E-02
      1        -20.156453   1.000000
      2        -17.330739   1.000000
      3        -15.652647   1.000000
      4        -15.041046   1.000000
      5        -15.038854   1.000000
      6        -13.709521   1.000000
      7        -13.554867   1.000000
      8        -13.440121   1.000000
      9        -13.435034   1.000000
     10        -12.842025   1.000000
     11        -10.243055   1.000000
     12         -9.629093   1.000000
     13         -9.268311   1.000000
     14         -8.278393   1.000000
     15         -7.207766   1.000000
     16         -7.104701   1.000000
     17         -7.103966   1.000000
     18         -6.764489   1.000000
     19         -6.628875   1.000000
     20         -3.640423   1.000000
     21         -3.484753   1.000000
     22         -3.318803   1.000000
     23         -3.295088   1.000000
     24         -3.136848   1.000000
     25         -2.866473   1.000000
     26         -2.853520   1.000000
     27         -1.353103   1.000000
     28         -1.116122   1.000000
     29          0.982653   0.000000
     30          1.260932   0.000000
     31          1.561431   0.000000
     32          1.790059   0.000000
     33          2.018236   0.000000
     34          2.828277   0.000000
     35          3.008583   0.000000
     36          3.696745   0.000000
     37          3.728364   0.000000
     38          3.894169   0.000000
     39          4.737489   0.000000
     40          6.823147   0.000000
     41          7.561787   0.000000
     42          7.595241   0.000000
     43          7.649455   0.000000
     44          7.984349   0.000000
     45          7.987314   0.000000
     46          8.431223   0.000000
     47          8.752765   0.000000
     48          8.790719   0.000000
     49          8.907323   0.000000
     50          8.960498   0.000000
     51          9.030874   0.000000
     52          9.167210   0.000000
     53          9.634204   0.000000
     54          9.896388   0.000000
     55         10.109022   0.000000
     56         10.242434   0.000000
     57         10.770694   0.000000
     58         10.910415   0.000000
     59         10.966628   0.000000
     60         11.476367   0.000000
     61         11.563661   0.000000
     62         11.608661   0.000000
     63         11.818648   0.000000
     64         12.243441   0.000000
     65         12.325959   0.000000
     66         12.574080   0.000000
     67         12.784364   0.000000
     68         12.908105   0.000000
     69         13.017112   0.000000
     70         13.234520   0.000000
     71         13.338327   0.000000
     72         13.504124   0.000000
     73         13.552987   0.000000
     74         13.620377   0.000000
     75         13.793602   0.000000
     76         13.933633   0.000000
     77         14.049332   0.000000
     78         14.258146   0.000000
     79         14.514846   0.000000
     80         14.734518   0.000000
     81         14.874703   0.000000
     82         14.964129   0.000000
     83         15.400556   0.000000
     84         15.547173   0.000000
     85         15.894593   0.000000
     86         16.243437   0.000000
     87         16.618468   0.000000
     88         16.825615   0.000000
     89         17.176062   0.000000
     90         17.409789   0.000000
     91         17.742603   0.000000
     92         17.903030   0.000000
     93         18.224922   0.000000
     94         18.540097   0.000000
     95         18.965453   0.000000
     96         19.304222   0.000000
     97         19.624369   0.000000
     98         19.796080   0.000000
     99         19.883367   0.000000
    100         19.962995   0.000000
    101         20.036471   0.000000
    102         20.109624   0.000000
    103         20.175292   0.000000
    104         20.385088   0.000000
    105         20.529610   0.000000
    106         20.616410   0.000000
    107         21.017404   0.000000
    108         21.181448   0.000000
    109         21.326049   0.000000
    110         21.497500   0.000000
    111         21.790636   0.000000
    112         21.942156   0.000000
    113         21.972401   0.000000
    114         22.091800   0.000000
    115         22.231753   0.000000
    116         22.367524   0.000000
    117         22.432372   0.000000
    118         22.663334   0.000000
    119         23.157349   0.000000
    120         23.178703   0.000000
    121         23.636911   0.000000
    122         23.789809   0.000000
    123         24.099063   0.000000
    124         24.317948   0.000000
    125         24.385821   0.000000
    126         24.476627   0.000000
    127         25.008709   0.000000
    128         25.105423   0.000000
 
 -0.1176471E+00  0.1176471E+00  0.0000000E+00  0.6920415E-02
      1        -20.156453   1.000000
      2        -17.330739   1.000000
      3        -15.652647   1.000000
      4        -15.041041   1.000000
      5        -15.038861   1.000000
      6        -13.709480   1.000000
      7        -13.554880   1.000000
      8        -13.440102   1.000000
      9        -13.435082   1.000000
     10        -12.842029   1.000000
     11        -10.243042   1.000000
     12         -9.629049   1.000000
     13         -9.268366   1.000000
     14         -8.278393   1.000000
     15         -7.207762   1.000000
     16         -7.104714   1.000000
     17         -7.103961   1.000000
     18         -6.764482   1.000000
     19         -6.628874   1.000000
     20         -3.640440   1.000000
     21         -3.484735   1.000000
     22         -3.318793   1.000000
     23         -3.295103   1.000000
     24         -3.136840   1.000000
     25         -2.866550   1.000000