 vasp.6.4.2 20Jul23 (build Aug 23 2023 19:13:21) complex                        
  
 executed on             LinuxIFC date 2024.02.20  13:13:12
 running  144 mpi-ranks, with    1 threads/rank, on    3 nodes
 distrk:  each k-point on  144 cores,    1 groups
 distr:  one band on NCORE=   1 cores,  144 groups


--------------------------------------------------------------------------------------------------------


 INCAR:
   SYSTEM = PDoS_HSE06
   ISTART = 1
   ICHARG = 2
   PREC = Accurate
   LORBIT = 11
   NEDOS = 4000
   ENCUT = 450
   ALGO = Damped
   TIME = 0.4
   NELM = 200
   EDIFF = 1E-6
   EDIFFG = -1E-3
   SIGMA = 0.1
   ISMEAR = 0
   IBRION = -1
   GGA = PE
   LHFCALC = .TRUE.
   AEXX = 0.25
   HFSCREEN = 0.2
   NKRED = 1

 POTCAR:    PAW_PBE B 06Sep2000                   
 POTCAR:    PAW_PBE C 08Apr2002                   
 POTCAR:    PAW_PBE B 06Sep2000                   
   SHA256 =  a32ced30f5ae56fd4d10b4325ff17eb3e4e38ee0f4288bc219fb012fddfa6e97 B/POTCAR              
   COPYR  = (c) Copyright 06Sep2000 Georg Kresse                                                    
   COPYR  = This file is part of the software VASP. Any use, copying, and all other rights are regul
   COPYR  = If you do not have a valid VASP license, you may not use, copy or distribute this file. 
   VRHFIN =B: s2p1                                                                                  
   LEXCH  = PE                                                                                      
   EATOM  =    71.1703 eV,    5.2309 Ry                                                             
                                                                                                    
   TITEL  = PAW_PBE B 06Sep2000                                                                     
   LULTRA =        F    use ultrasoft PP ?                                                          
   IUNSCR =        1    unscreen: 0-lin 1-nonlin 2-no                                               
   RPACOR =    1.200    partial core radius                                                         
   POMASS =   10.811; ZVAL   =    3.000    mass and valenz                                          
   RCORE  =    1.700    outmost cutoff radius                                                       
   RWIGS  =    1.710; RWIGS  =    0.905    wigner-seitz radius (au A)                               
   ENMAX  =  318.614; ENMIN  =  238.960 eV                                                          
   ICORE  =        2    local potential                                                             
   LCOR   =        T    correct aug charges                                                         
   LPAW   =        T    paw PP                                                                      
   EAUG   =  535.514                                                                                
   DEXC   =    0.000                                                                                
   RMAX   =    1.732    core radius for proj-oper                                                   
   RAUG   =    1.300    factor for augmentation sphere                                              
   RDEP   =    1.757    radius for radial grids                                                     
   RDEPT  =    1.436    core radius for aug-charge                                                  
                                                                                                    
   Atomic configuration                                                                             
    4 entries                                                                                       
     n  l   j            E        occ.                                                              
     1  0  0.50      -180.5896   2.0000                                                             
     2  0  0.50        -9.4431   2.0000                                                             
     2  1  0.50        -3.6068   1.0000                                                             
     3  2  1.50        -4.0817   0.0000                                                             
   Description                                                                                      
     l       E           TYP  RCUT    TYP  RCUT                                                     
     0     -9.4430752     23  1.500                                                                 
     0      0.8675899     23  1.500                                                                 
     1     -3.6067955     23  1.700                                                                 
     1      6.1086146     23  1.700                                                                 
     2     -4.0817478      7  1.700                                                                 
  local pseudopotential read in
  partial core-charges read in
  partial kinetic energy density read in
  atomic valenz-charges read in
  non local Contribution for L=           0  read in
    real space projection operators read in
  non local Contribution for L=           0  read in
    real space projection operators read in
  non local Contribution for L=           1  read in
    real space projection operators read in
  non local Contribution for L=           1  read in
    real space projection operators read in
    PAW grid and wavefunctions read in
 
   number of l-projection  operators is LMAX  =           4
   number of lm-projection operators is LMMAX =           8
 
 POTCAR:    PAW_PBE C 08Apr2002                   
   SHA256 =  253f7b50bb8d59471dbedb8285d89021f4a42ed1a2c5d38a03a736e69125dd95 C/POTCAR              
   COPYR  = (c) Copyright 08Apr2002 Georg Kresse                                                    
   COPYR  = This file is part of the software VASP. Any use, copying, and all other rights are regul
   COPYR  = If you do not have a valid VASP license, you may not use, copy or distribute this file. 
   VRHFIN =C: s2p2                                                                                  
   LEXCH  = PE                                                                                      
   EATOM  =   147.1560 eV,   10.8157 Ry                                                             
                                                                                                    
   TITEL  = PAW_PBE C 08Apr2002                                                                     
   LULTRA =        F    use ultrasoft PP ?                                                          
   IUNSCR =        1    unscreen: 0-lin 1-nonlin 2-no                                               
   RPACOR =    1.200    partial core radius                                                         
   POMASS =   12.011; ZVAL   =    4.000    mass and valenz                                          
   RCORE  =    1.500    outmost cutoff radius                                                       
   RWIGS  =    1.630; RWIGS  =    0.863    wigner-seitz radius (au A)                               
   ENMAX  =  400.000; ENMIN  =  300.000 eV                                                          
   ICORE  =        2    local potential                                                             
   LCOR   =        T    correct aug charges                                                         
   LPAW   =        T    paw PP                                                                      
   EAUG   =  644.873                                                                                
   DEXC   =    0.000                                                                                
   RMAX   =    1.529    core radius for proj-oper                                                   
   RAUG   =    1.300    factor for augmentation sphere                                              
   RDEP   =    1.501    radius for radial grids                                                     
   RDEPT  =    1.300    core radius for aug-charge                                                  
                                                                                                    
   Atomic configuration                                                                             
    4 entries                                                                                       
     n  l   j            E        occ.                                                              
     1  0  0.50      -273.3789   2.0000                                                             
     2  0  0.50       -13.7508   2.0000                                                             
     2  1  0.50        -5.2854   2.0000                                                             
     3  2  1.50        -5.4423   0.0000                                                             
   Description                                                                                      
     l       E           TYP  RCUT    TYP  RCUT                                                     
     0    -13.7508458     23  1.200                                                                 
     0     -8.2022199     23  1.200                                                                 
     1     -5.2854383     23  1.500                                                                 
     1     34.0145650     23  1.500                                                                 
     2     -5.4423304      7  1.500                                                                 
  local pseudopotential read in
  partial core-charges read in
  partial kinetic energy density read in
  atomic valenz-charges read in
  non local Contribution for L=           0  read in
    real space projection operators read in
  non local Contribution for L=           0  read in
    real space projection operators read in
  non local Contribution for L=           1  read in
    real space projection operators read in
  non local Contribution for L=           1  read in
    real space projection operators read in
    PAW grid and wavefunctions read in
 
   number of l-projection  operators is LMAX  =           4
   number of lm-projection operators is LMMAX =           8
 
  PAW_PBE B 06Sep2000                   :
 energy of atom  1       EATOM=  -71.1703
 kinetic energy error for atom=    0.0015 (will be added to EATOM!!)
  PAW_PBE C 08Apr2002                   :
 energy of atom  2       EATOM= -147.1560
 kinetic energy error for atom=    0.0116 (will be added to EATOM!!)
 
 
 POSCAR: Graphene-Borophene Top with lattice para
  positions in direct lattice
  velocities in cartesian coordinates
 exchange correlation table for  LEXCH =        8
   RHO(1)=    0.500       N(1)  =     2000
   RHO(2)=  100.500       N(2)  =     4000

 VTST: version 4.1, (05/19/21)

 CHAIN: initializing optimizer
 
 OPT: Using VASP Dynamics algorithm
 CHAIN: Read ICHAIN            0
 
 POSCAR: Graphene-Borophene Top with lattice para
  positions in direct lattice
  velocities in cartesian coordinates
 


--------------------------------------------------------------------------------------------------------


 ion  position               nearest neighbor table
   1  0.669  0.000  0.101-   3 1.65   6 1.65   7 1.68   8 1.68   2 1.68
   2  0.332  0.000  0.101-   5 1.65   4 1.65   7 1.68   8 1.68   1 1.68
   3  1.000  0.331  0.101-   1 1.65   5 1.65   7 1.68   8 1.68   4 1.68
   4  1.000  0.668  0.101-   6 1.65   2 1.65   7 1.68   8 1.68   3 1.68
   5  0.332  0.331  0.101-   2 1.65   3 1.65   7 1.68   8 1.68   6 1.68
   6  0.669  0.668  0.101-   4 1.65   1 1.65   7 1.68   8 1.68   5 1.68
   7  0.667  0.333  0.088-   5 1.68   6 1.68   2 1.68   1 1.68   4 1.68   3 1.68
   8  0.333  0.667  0.114-   5 1.68   6 1.68   3 1.68   4 1.68   1 1.68   2 1.68
   9  0.167  0.333  0.335-  14 1.44  10 1.44  12 1.44
  10  0.333  0.167  0.334-  11 1.44   9 1.44  13 1.44
  11  0.167  0.833  0.335-  16 1.44  10 1.44  12 1.44
  12  0.333  0.667  0.335-   9 1.44  15 1.44  11 1.44
  13  0.667  0.333  0.334-  10 1.44  16 1.44  14 1.44
  14  0.833  0.167  0.334-   9 1.44  15 1.44  13 1.44
  15  0.667  0.833  0.335-  14 1.44  16 1.44  12 1.44
  16  0.833  0.667  0.334-  11 1.44  15 1.44  13 1.44
 
  LATTYP: Found a hexagonal cell.
 ALAT       =     4.9790000000
 C/A-ratio  =     3.0126531432
  
  Lattice vectors:
  
 A1 = (   4.3119404854,   2.4895000000,   0.0000000000)
 A2 = (  -4.3119404854,   2.4895000000,   0.0000000000)
 A3 = (   0.0000000000,   0.0000000000,  15.0000000000)


Analysis of symmetry for initial positions (statically):
=====================================================================
 Subroutine PRICEL returns:
 Original cell was already a primitive cell.
 

 Routine SETGRP: Setting up the symmetry group for a 
 hexagonal supercell.


 Subroutine GETGRP returns: Found  6 space group operations
 (whereof  6 operations were pure point group operations)
 out of a pool of 24 trial point group operations.


The static configuration has the point symmetry C_3v.


Analysis of symmetry for dynamics (positions and initial velocities):
=====================================================================
 Subroutine PRICEL returns:
 Original cell was already a primitive cell.
 

 Routine SETGRP: Setting up the symmetry group for a 
 hexagonal supercell.


 Subroutine GETGRP returns: Found  6 space group operations
 (whereof  6 operations were pure point group operations)
 out of a pool of 24 trial point group operations.


The dynamic configuration has the point symmetry C_3v.


 Subroutine INISYM returns: Found  6 space group operations
 (whereof  6 operations are pure point group operations),
 and found     1 'primitive' translations


----------------------------------------------------------------------------------------

                                     Primitive cell                                     

  volume of cell :     322.0373

  direct lattice vectors                    reciprocal lattice vectors
     4.311940485  2.489500000  0.000000000     0.115957074  0.200843543  0.000000000
    -4.311940485  2.489500000  0.000000000    -0.115957074  0.200843543  0.000000000
     0.000000000  0.000000000 15.000000000     0.000000000  0.000000000  0.066666667

  length of vectors
     4.979000000  4.979000000 15.000000000     0.231914147  0.231914147  0.066666667

  position of ions in fractional coordinates (direct lattice)
     0.668529486  0.000031744  0.101490874
     0.331501257  0.000031744  0.101490874
     0.999968256  0.331469514  0.101490874
     0.999968256  0.668497743  0.101490874
     0.331501257  0.331469514  0.101490874
     0.668529486  0.668497743  0.101490874
     0.666666000  0.333333000  0.088455217
     0.333333000  0.666666000  0.114424057
     0.166653576  0.333308152  0.334568638
     0.333330518  0.166664759  0.334466239
     0.166653576  0.833345424  0.334568638
     0.333333000  0.666666000  0.334626021
     0.666666000  0.333333000  0.334444829
     0.833334241  0.166664759  0.334466239
     0.666690848  0.833345424  0.334568638
     0.833334241  0.666668482  0.334466239

  ion indices of the primitive-cell ions
   primitive index   ion index
                 1           1
                 2           2
                 3           3
                 4           4
                 5           5
                 6           6
                 7           7
                 8           8
                 9           9
                10          10
                11          11
                12          12
                13          13
                14          14
                15          15
                16          16

----------------------------------------------------------------------------------------

 
 
 KPOINTS: k-points                                

Automatic generation of k-mesh.
 Grid dimensions read from file:
 generate k-points for:   11   11    1

 Generating k-lattice:

  Cartesian coordinates                     Fractional coordinates (reciprocal lattice)
     0.010541552  0.018258504  0.000000000     0.090909091 -0.000000000  0.000000000
    -0.010541552  0.018258504  0.000000000    -0.000000000  0.090909091  0.000000000
     0.000000000  0.000000000  0.066666667     0.000000000  0.000000000  1.000000000

  Length of vectors
     0.021083104  0.021083104  0.066666667

  Shift w.r.t. Gamma in fractional coordinates (k-lattice)
     0.000000000  0.000000000  0.000000000

 
 Subroutine IBZKPT returns following result:
 ===========================================
 
 Found     16 irreducible k-points:
 
 Following reciprocal coordinates:
            Coordinates               Weight
  0.000000  0.000000  0.000000      1.000000
  0.090909  0.000000  0.000000      6.000000
  0.181818 -0.000000  0.000000      6.000000
  0.272727  0.000000  0.000000      6.000000
  0.363636  0.000000  0.000000      6.000000
  0.454545 -0.000000  0.000000      6.000000
  0.090909  0.090909  0.000000      6.000000
  0.181818  0.090909  0.000000     12.000000
  0.272727  0.090909  0.000000     12.000000
  0.363636  0.090909  0.000000     12.000000
  0.454545  0.090909  0.000000      6.000000
  0.181818  0.181818  0.000000      6.000000
  0.272727  0.181818  0.000000     12.000000
  0.363636  0.181818  0.000000     12.000000
  0.272727  0.272727  0.000000      6.000000
  0.363636  0.272727  0.000000      6.000000
 
 Following cartesian coordinates:
            Coordinates               Weight
  0.000000  0.000000  0.000000      1.000000
  0.010542  0.018259  0.000000      6.000000
  0.021083  0.036517  0.000000      6.000000
  0.031625  0.054776  0.000000      6.000000
  0.042166  0.073034  0.000000      6.000000
  0.052708  0.091293  0.000000      6.000000
 -0.000000  0.036517  0.000000      6.000000
  0.010542  0.054776  0.000000     12.000000
  0.021083  0.073034  0.000000     12.000000
  0.031625  0.091293  0.000000     12.000000
  0.042166  0.109551  0.000000      6.000000
  0.000000  0.073034  0.000000      6.000000
  0.010542  0.091293  0.000000     12.000000
  0.021083  0.109551  0.000000     12.000000
  0.000000  0.109551  0.000000      6.000000
  0.010542  0.127810  0.000000      6.000000
 
 
 Subroutine IBZKPT_HF returns following result:
 ==============================================
 
 Found    121 k-points in 1st BZ
 the following    121 k-points will be used (e.g. in the exchange kernel)
 Following reciprocal coordinates:   # in IRBZ
  0.000000  0.000000  0.000000    0.00826446   1 t-inv F
  0.090909  0.000000  0.000000    0.00826446   2 t-inv F
  0.181818 -0.000000  0.000000    0.00826446   3 t-inv F
  0.272727  0.000000  0.000000    0.00826446   4 t-inv F
  0.363636  0.000000  0.000000    0.00826446   5 t-inv F
  0.454545 -0.000000  0.000000    0.00826446   6 t-inv F
  0.090909  0.090909  0.000000    0.00826446   7 t-inv F
  0.181818  0.090909  0.000000    0.00826446   8 t-inv F
  0.272727  0.090909  0.000000    0.00826446   9 t-inv F
  0.363636  0.090909  0.000000    0.00826446  10 t-inv F
  0.454545  0.090909  0.000000    0.00826446  11 t-inv F
  0.181818  0.181818  0.000000    0.00826446  12 t-inv F
  0.272727  0.181818  0.000000    0.00826446  13 t-inv F
  0.363636  0.181818  0.000000    0.00826446  14 t-inv F
  0.272727  0.272727  0.000000    0.00826446  15 t-inv F
  0.363636  0.272727  0.000000    0.00826446  16 t-inv F
 -0.090909  0.090909  0.000000    0.00826446   2 t-inv F
  0.000000 -0.090909  0.000000    0.00826446   2 t-inv F
 -0.181818  0.181818  0.000000    0.00826446   3 t-inv F
 -0.000000 -0.181818  0.000000    0.00826446   3 t-inv F
 -0.272727  0.272727  0.000000    0.00826446   4 t-inv F
  0.000000 -0.272727  0.000000    0.00826446   4 t-inv F
 -0.363636  0.363636  0.000000    0.00826446   5 t-inv F
  0.000000 -0.363636  0.000000    0.00826446   5 t-inv F
 -0.454545  0.454545  0.000000    0.00826446   6 t-inv F
 -0.000000 -0.454545  0.000000    0.00826446   6 t-inv F
 -0.181818  0.090909  0.000000    0.00826446   7 t-inv F
  0.090909 -0.181818  0.000000    0.00826446   7 t-inv F
 -0.090909  0.181818  0.000000    0.00826446   7 t-inv F
  0.181818 -0.090909  0.000000    0.00826446   7 t-inv F
 -0.090909 -0.090909  0.000000    0.00826446   7 t-inv F
 -0.272727  0.181818  0.000000    0.00826446   8 t-inv F
  0.090909 -0.272727  0.000000    0.00826446   8 t-inv F
 -0.181818  0.272727  0.000000    0.00826446   8 t-inv F
  0.272727 -0.090909  0.000000    0.00826446   8 t-inv F
 -0.090909 -0.181818  0.000000    0.00826446   8 t-inv F
 -0.363636  0.272727  0.000000    0.00826446   9 t-inv F
  0.090909 -0.363636  0.000000    0.00826446   9 t-inv F
 -0.272727  0.363636  0.000000    0.00826446   9 t-inv F
  0.363636 -0.090909  0.000000    0.00826446   9 t-inv F
 -0.090909 -0.272727  0.000000    0.00826446   9 t-inv F
 -0.454545  0.363636  0.000000    0.00826446  10 t-inv F
  0.090909 -0.454545  0.000000    0.00826446  10 t-inv F
 -0.363636  0.454545  0.000000    0.00826446  10 t-inv F
  0.454545 -0.090909  0.000000    0.00826446  10 t-inv F
 -0.090909 -0.363636  0.000000    0.00826446  10 t-inv F
 -0.545455  0.454545  0.000000    0.00826446  11 t-inv F
  0.090909 -0.545455  0.000000    0.00826446  11 t-inv F
 -0.454545  0.545455  0.000000    0.00826446  11 t-inv F
  0.545455 -0.090909  0.000000    0.00826446  11 t-inv F
 -0.090909 -0.454545  0.000000    0.00826446  11 t-inv F
 -0.363636  0.181818  0.000000    0.00826446  12 t-inv F
  0.181818 -0.363636  0.000000    0.00826446  12 t-inv F
 -0.181818  0.363636  0.000000    0.00826446  12 t-inv F
  0.363636 -0.181818  0.000000    0.00826446  12 t-inv F
 -0.181818 -0.181818  0.000000    0.00826446  12 t-inv F
 -0.454545  0.272727  0.000000    0.00826446  13 t-inv F
  0.181818 -0.454545  0.000000    0.00826446  13 t-inv F
 -0.272727  0.454545  0.000000    0.00826446  13 t-inv F
  0.454545 -0.181818  0.000000    0.00826446  13 t-inv F
 -0.181818 -0.272727  0.000000    0.00826446  13 t-inv F
 -0.545455  0.363636  0.000000    0.00826446  14 t-inv F
  0.181818 -0.545455  0.000000    0.00826446  14 t-inv F
 -0.363636  0.545455  0.000000    0.00826446  14 t-inv F
  0.545455 -0.181818  0.000000    0.00826446  14 t-inv F
 -0.181818 -0.363636  0.000000    0.00826446  14 t-inv F
 -0.545455  0.272727  0.000000    0.00826446  15 t-inv F
  0.272727 -0.545455  0.000000    0.00826446  15 t-inv F
 -0.272727  0.545455  0.000000    0.00826446  15 t-inv F
  0.545455 -0.272727  0.000000    0.00826446  15 t-inv F
 -0.272727 -0.272727  0.000000    0.00826446  15 t-inv F
 -0.636364  0.363636  0.000000    0.00826446  16 t-inv F
  0.272727 -0.636364  0.000000    0.00826446  16 t-inv F
 -0.363636  0.636364  0.000000    0.00826446  16 t-inv F
  0.636364 -0.272727  0.000000    0.00826446  16 t-inv F
 -0.272727 -0.363636  0.000000    0.00826446  16 t-inv F
 -0.090909 -0.000000  0.000000    0.00826446   2 t-inv T
  0.090909 -0.090909  0.000000    0.00826446   2 t-inv T
 -0.000000  0.090909  0.000000    0.00826446   2 t-inv T
 -0.181818  0.000000  0.000000    0.00826446   3 t-inv T
  0.181818 -0.181818  0.000000    0.00826446   3 t-inv T
  0.000000  0.181818  0.000000    0.00826446   3 t-inv T
 -0.272727 -0.000000  0.000000    0.00826446   4 t-inv T
  0.272727 -0.272727  0.000000    0.00826446   4 t-inv T
 -0.000000  0.272727  0.000000    0.00826446   4 t-inv T
 -0.363636 -0.000000  0.000000    0.00826446   5 t-inv T
  0.363636 -0.363636  0.000000    0.00826446   5 t-inv T
 -0.000000  0.363636  0.000000    0.00826446   5 t-inv T
 -0.454545  0.000000  0.000000    0.00826446   6 t-inv T
  0.454545 -0.454545  0.000000    0.00826446   6 t-inv T
  0.000000  0.454545  0.000000    0.00826446   6 t-inv T
 -0.181818 -0.090909  0.000000    0.00826446   8 t-inv T
  0.272727 -0.181818  0.000000    0.00826446   8 t-inv T
 -0.090909  0.272727  0.000000    0.00826446   8 t-inv T
  0.181818 -0.272727  0.000000    0.00826446   8 t-inv T
 -0.272727  0.090909  0.000000    0.00826446   8 t-inv T
  0.090909  0.181818  0.000000    0.00826446   8 t-inv T
 -0.272727 -0.090909  0.000000    0.00826446   9 t-inv T
  0.363636 -0.272727  0.000000    0.00826446   9 t-inv T
 -0.090909  0.363636  0.000000    0.00826446   9 t-inv T
  0.272727 -0.363636  0.000000    0.00826446   9 t-inv T
 -0.363636  0.090909  0.000000    0.00826446   9 t-inv T
  0.090909  0.272727  0.000000    0.00826446   9 t-inv T
 -0.363636 -0.090909  0.000000    0.00826446  10 t-inv T
  0.454545 -0.363636  0.000000    0.00826446  10 t-inv T
 -0.090909  0.454545  0.000000    0.00826446  10 t-inv T
  0.363636 -0.454545  0.000000    0.00826446  10 t-inv T
 -0.454545  0.090909  0.000000    0.00826446  10 t-inv T
  0.090909  0.363636  0.000000    0.00826446  10 t-inv T
 -0.272727 -0.181818  0.000000    0.00826446  13 t-inv T
  0.454545 -0.272727  0.000000    0.00826446  13 t-inv T
 -0.181818  0.454545  0.000000    0.00826446  13 t-inv T
  0.272727 -0.454545  0.000000    0.00826446  13 t-inv T
 -0.454545  0.181818  0.000000    0.00826446  13 t-inv T
  0.181818  0.272727  0.000000    0.00826446  13 t-inv T
 -0.363636 -0.181818  0.000000    0.00826446  14 t-inv T
  0.545455 -0.363636  0.000000    0.00826446  14 t-inv T
 -0.181818  0.545455  0.000000    0.00826446  14 t-inv T
  0.363636 -0.545455  0.000000    0.00826446  14 t-inv T
 -0.545455  0.181818  0.000000    0.00826446  14 t-inv T
  0.181818  0.363636  0.000000    0.00826446  14 t-inv T


--------------------------------------------------------------------------------------------------------




 Dimension of arrays:
   k-points           NKPTS =     16   k-points in BZ     NKDIM =    121   number of bands    NBANDS=    144
   number of dos      NEDOS =   4000   number of ions     NIONS =     16
   non local maximal  LDIM  =      4   non local SUM 2l+1 LMDIM =      8
   total plane-waves  NPLWV = 139968
   max r-space proj   IRMAX =      1   max aug-charges    IRDMAX=   6977
   dimension x,y,z NGX =    36 NGY =   36 NGZ =  108
   dimension x,y,z NGXF=    72 NGYF=   72 NGZF=  216
   support grid    NGXF=    72 NGYF=   72 NGZF=  216
   ions per type =               8   8
   NGX,Y,Z   is equivalent  to a cutoff of  12.02, 12.02, 11.97 a.u.
   NGXF,Y,Z  is equivalent  to a cutoff of  24.04, 24.04, 23.94 a.u.

 SYSTEM =  PDoS_HSE06                              
 POSCAR =  Graphene-Borophene Top with lattice para

 Startparameter for this run:
   NWRITE =      2    write-flag & timer
   PREC   = accura    normal or accurate (medium, high low for compatibility)
   ISTART =      0    job   : 0-new  1-cont  2-samecut
   ICHARG =      2    charge: 1-file 2-atom 10-const
   ISPIN  =      1    spin polarized calculation?
   LNONCOLLINEAR =      F non collinear calculations
   LSORBIT =      F    spin-orbit coupling
   INIWAV =      1    electr: 0-lowe 1-rand  2-diag
   LASPH  =      F    aspherical Exc in radial PAW
 Electronic Relaxation 1
   ENCUT  =  450.0 eV  33.07 Ry    5.75 a.u.   8.61  8.61 25.95*2*pi/ulx,y,z
   ENINI  =  450.0     initial cutoff
   ENAUG  =  644.9 eV  augmentation charge cutoff
   NELM   =    200;   NELMIN=  2; NELMDL=  0     # of ELM steps 
   EDIFF  = 0.1E-05   stopping-criterion for ELM
   LREAL  =      F    real-space projection
   NLSPLINE    = F    spline interpolate recip. space projectors
   LCOMPAT=      F    compatible to vasp.4.4
   GGA_COMPAT  = T    GGA compatible to vasp.4.4-vasp.4.6
   LMAXPAW     = -100 max onsite density
   LMAXMIX     =    2 max onsite mixed and CHGCAR
   VOSKOWN=      0    Vosko Wilk Nusair interpolation
   ROPT   =    0.00000   0.00000
 Ionic relaxation
   EDIFFG = -.1E-02   stopping-criterion for IOM
   NSW    =      0    number of steps for IOM
   NBLOCK =      1;   KBLOCK =      1    inner block; outer block 
   IBRION =     -1    ionic relax: 0-MD 1-quasi-New 2-CG
   NFREE  =      0    steps in history (QN), initial steepest desc. (CG)
   ISIF   =      0    stress and relaxation
   IWAVPR =     10    prediction:  0-non 1-charg 2-wave 3-comb
   ISYM   =      3    0-nonsym 1-usesym 2-fastsym
   LCORR  =      T    Harris-Foulkes like correction to forces

   POTIM  = 0.5000    time-step for ionic-motion
   TEIN   =    0.0    initial temperature
   TEBEG  =    0.0;   TEEND  =   0.0 temperature during run
   SMASS  =  -3.00    Nose mass-parameter (am)
   estimated Nose-frequenzy (Omega)   =  0.10E-29 period in steps = 0.13E+47 mass=  -0.567E-27a.u.
   SCALEE = 1.0000    scale energy and forces
   NPACO  =    256;   APACO  = 10.0  distance and # of slots for P.C.
   PSTRESS=    0.0 pullay stress

  Mass of Ions in am
   POMASS =  10.81 12.01
  Ionic Valenz
   ZVAL   =   3.00  4.00
  Atomic Wigner-Seitz radii
   RWIGS  =  -1.00 -1.00
  virtual crystal weights 
   VCA    =   1.00  1.00
   NELECT =      56.0000    total number of electrons
   NUPDOWN=      -1.0000    fix difference up-down

 DOS related values:
   EMIN   =  10.00;   EMAX   =-10.00  energy-range for DOS
   EFERMI =   0.00;   METHOD = LEGACY      
   ISMEAR =     0;   SIGMA  =   0.10  broadening in eV -4-tet -1-fermi 0-gaus

 Electronic relaxation 2 (details)
   IALGO  =     53    algorithm
   LDIAG  =      T    sub-space diagonalisation (order eigenvalues)
   LSUBROT=      F    optimize rotation matrix (better conditioning)
   TURBO    =      0    0=normal 1=particle mesh
   IRESTART =      0    0=no restart 2=restart with 2 vectors
   NREBOOT  =      0    no. of reboots
   NMIN     =      0    reboot dimension
   EREF     =   0.00    reference energy to select bands
   IMIX   =      4    mixing-type and parameters
     AMIX     =   0.40;   BMIX     =  1.00
     AMIX_MAG =   1.60;   BMIX_MAG =  1.00
     AMIN     =   0.10
     WC   =   100.;   INIMIX=   1;  MIXPRE=   1;  MAXMIX= -45

 Intra band minimization:
   WEIMIN = 0.0000     energy-eigenvalue tresh-hold
   EBREAK =  0.17E-08  absolut break condition
   DEPER  =   0.30     relativ break condition  

   TIME   =   0.40     timestep for ELM

  volume/ion in A,a.u.               =      20.13       135.83
  Fermi-wavevector in a.u.,A,eV,Ry     =   0.913767  1.726769 11.360458  0.834970
  Thomas-Fermi vector in A             =   2.038317
 
 Write flags
   LWAVE        =      T    write WAVECAR
   LDOWNSAMPLE  =      F    k-point downsampling of WAVECAR
   LCHARG       =      T    write CHGCAR
   LVTOT        =      F    write LOCPOT, total local potential
   LVHAR        =      F    write LOCPOT, Hartree potential only
   LELF         =      F    write electronic localiz. function (ELF)
   LORBIT       =     11    0 simple, 1 ext, 2 COOP (PROOUT), +10 PAW based schemes


 Dipole corrections
   LMONO  =      F    monopole corrections only (constant potential shift)
   LDIPOL =      F    correct potential (dipole corrections)
   IDIPOL =      0    1-x, 2-y, 3-z, 4-all directions 
   EPSILON=  1.0000000 bulk dielectric constant

 Exchange correlation treatment:
   GGA     =    PE    GGA type
   LEXCH   =     8    internal setting for exchange type
   LIBXC   =     F    Libxc                    
   VOSKOWN =     0    Vosko Wilk Nusair interpolation
   EXXOEP  =     0    0=HF, 1=EXX-LHF (local Hartree Fock) 2=EXX OEP
   LHFCALC =     T    Hartree Fock is set to
   LSYMGRAD=     F    symmetrize gradient (conserves proper symmetry)
   PRECFOCK=normal    Normal, Fast or Accurate (Low or Medium for compatibility)
   LRHFCALC=     F    long range Hartree Fock
   LRSCOR  =     F    long range correlation only (use DFT for short range part)
   LTHOMAS =     F    Thomas Fermi screening in HF
   LMODELHF=     F    short range full HF, long range fraction AEXX
   FOCKCORR=     1    mode to apply convergence corrections
   LFOCKACE=     T    use Adeptively-Compressed-Exchange operator
   ENCUT4O =  -1.0   cutoff for four orbital integrals eV
   LMAXFOCK=     4    L truncation for augmentation on plane wave grid
   LMAXFOCKAE=  -1    L truncation for all-electron charge restoration on plane wave grid
   NMAXFOCKAE=   1    number of basis functions for all-electron charge restoration
   LFOCKAEDFT=     F  apply the AE augmentation even for DFT
   NKREDX  =     1    reduce k-point grid by
   NKREDY  =     1    reduce k-point grid by
   NKREDZ  =     1    reduce k-point grid by
   SHIFTRED=     F    shift reduced grid of Gamma
   HFKIDENT=     F    idential grid for each k-point
   ODDONLY =     F    use only odd q-grid points
   EVENONLY=     F    use only even q-grid points
   HFALPHA =   -1.0000 decay constant for conv. correction
   MCALPHA =    0.0000 extent of test-charge in conv. correction in multipole expansion
   AEXX    =    0.2500 exact exchange contribution
   HFSCREEN=    0.2000 screening length (either q_TF or 0.3 A-1)
   HFSCREENC=   0.2000 screening length for correlation (either q_TF or 0.3 A-1)
   HFRCUT  =    0.0000 spherical cutoff for potential kernel
   ALDAX   =    0.7500 LDA exchange part
   AGGAX   =    0.7500 GGA exchange part
   ALDAC   =    1.0000 LDA correlation
   AGGAC   =    1.0000 GGA correlation
   ENCUTFOCK=  -1.0 apply spherical cutoff to Coloumb kernel
   NBANDSGWLOW=     1    first orbital included in HF term
   NBLOCK_FOCK=    64    blocking factor in FOCK_ACC

 Linear response parameters
   LEPSILON=     F    determine dielectric tensor
   LRPA    =     F    only Hartree local field effects (RPA)
   LNABLA  =     F    use nabla operator in PAW spheres
   LVEL    =     F    velocity operator in full k-point grid
   CSHIFT  =0.1000    complex shift for real part using Kramers Kronig
   OMEGAMAX=  -1.0    maximum frequency
   DEG_THRESHOLD= 0.2000000E-02 threshold for treating states as degnerate
   RTIME   =   -0.100 relaxation time in fs
  (WPLASMAI=    0.000 imaginary part of plasma frequency in eV, 0.658/RTIME)
   DFIELD  = 0.0000000 0.0000000 0.0000000 field for delta impulse in time
 
  Optional k-point grid parameters
   LKPOINTS_OPT  =     T    use optional k-point grid
   KPOINTS_OPT_MODE=     1    mode for optional k-point grid
 
 Orbital magnetization related:
   ORBITALMAG=     F  switch on orbital magnetization
   LCHIMAG   =     F  perturbation theory with respect to B field
   DQ        =  0.001000  dq finite difference perturbation B field
   LLRAUG    =     F  two centre corrections for induced B field
   LBONE     =     F  B-component reconstruction in AE one-centre
   LVGVCALC  =     T  calculate vGv susceptibility
   LVGVAPPL  =     F  apply vGv susceptibility instead of pGv for G=0

 Random number generation:
   RANDOM_GENERATOR = DEFAULT
   PCG_SEED         = not used


--------------------------------------------------------------------------------------------------------


 Static calculation
 charge density and potential will be updated during run
 non-spin polarized calculation
 Conjugate gradient for all bands (Freysoldt, et al. PRB 79, 241103 (2009))
 perform sub-space diagonalisation
    before iterative eigenvector-optimisation
 modified Broyden-mixing scheme, WC =      100.0
 initial mixing is a Kerker type mixing with AMIX =  0.4000 and BMIX =      1.0000
 Hartree-type preconditioning will be used
 using additional bands          116
 reciprocal scheme for non local part
 use partial core corrections
 no Harris-corrections to forces 
 use gradient corrections 
 use of overlap-Matrix (Vanderbilt PP)
 Gauss-broadening in eV      SIGMA  =   0.10


--------------------------------------------------------------------------------------------------------


  energy-cutoff  :      450.00
  volume of cell :      322.04
      direct lattice vectors                 reciprocal lattice vectors
     4.311940485  2.489500000  0.000000000     0.115957074  0.200843543  0.000000000
    -4.311940485  2.489500000  0.000000000    -0.115957074  0.200843543  0.000000000
     0.000000000  0.000000000 15.000000000     0.000000000  0.000000000  0.066666667

  length of vectors
     4.979000000  4.979000000 15.000000000     0.231914147  0.231914147  0.066666667


 
 k-points in units of 2pi/SCALE and weight: k-points                                
   0.00000000  0.00000000  0.00000000       0.008
   0.01054155  0.01825850  0.00000000       0.050
   0.02108310  0.03651701  0.00000000       0.050
   0.03162466  0.05477551  0.00000000       0.050
   0.04216621  0.07303402  0.00000000       0.050
   0.05270776  0.09129252  0.00000000       0.050
  -0.00000000  0.03651701  0.00000000       0.050
   0.01054155  0.05477551  0.00000000       0.099
   0.02108310  0.07303402  0.00000000       0.099
   0.03162466  0.09129252  0.00000000       0.099
   0.04216621  0.10955102  0.00000000       0.050
   0.00000000  0.07303402  0.00000000       0.050
   0.01054155  0.09129252  0.00000000       0.099
   0.02108310  0.10955102  0.00000000       0.099
   0.00000000  0.10955102  0.00000000       0.050
   0.01054155  0.12780953  0.00000000       0.050
 
 k-points in reciprocal lattice and weights: k-points                                
   0.00000000  0.00000000  0.00000000       0.008
   0.09090909  0.00000000  0.00000000       0.050
   0.18181818 -0.00000000  0.00000000       0.050
   0.27272727  0.00000000  0.00000000       0.050
   0.36363636  0.00000000  0.00000000       0.050
   0.45454545 -0.00000000  0.00000000       0.050
   0.09090909  0.09090909  0.00000000       0.050
   0.18181818  0.09090909  0.00000000       0.099
   0.27272727  0.09090909  0.00000000       0.099
   0.36363636  0.09090909  0.00000000       0.099
   0.45454545  0.09090909  0.00000000       0.050
   0.18181818  0.18181818  0.00000000       0.050
   0.27272727  0.18181818  0.00000000       0.099
   0.36363636  0.18181818  0.00000000       0.099
   0.27272727  0.27272727  0.00000000       0.050
   0.36363636  0.27272727  0.00000000       0.050
 
 position of ions in fractional coordinates (direct lattice) 
   0.66852949  0.00003174  0.10149087
   0.33150126  0.00003174  0.10149087
   0.99996826  0.33146951  0.10149087
   0.99996826  0.66849774  0.10149087
   0.33150126  0.33146951  0.10149087
   0.66852949  0.66849774  0.10149087
   0.66666600  0.33333300  0.08845522
   0.33333300  0.66666600  0.11442406
   0.16665358  0.33330815  0.33456864
   0.33333052  0.16666476  0.33446624
   0.16665358  0.83334542  0.33456864
   0.33333300  0.66666600  0.33462602
   0.66666600  0.33333300  0.33444483
   0.83333424  0.16666476  0.33446624
   0.66669085  0.83334542  0.33456864
   0.83333424  0.66666848  0.33446624
 
 position of ions in cartesian coordinates  (Angst):
   2.88252248  1.66438318  1.52236312
   1.42927682  0.82535141  1.52236312
   2.88252679  3.31461433  1.52236312
   1.42928113  4.15364610  1.52236312
   0.00013688  1.65046573  1.52236312
   0.00013688  3.32852929  1.52236312
   1.43731206  2.48949751  1.32682825
  -1.43731206  2.48949751  1.71636086
  -0.71860461  1.24465472  5.01852957
   0.71865283  1.24473824  5.01699358
  -2.87473557  2.48949751  5.01852957
  -1.43731206  2.48949751  5.01939032
   1.43731206  2.48949751  5.01667243
   2.87463913  2.48949751  5.01699358
  -0.71860461  3.73434030  5.01852957
   0.71865283  3.73425678  5.01699358
 


--------------------------------------------------------------------------------------------------------


 k-point   1 :   0.0000 0.0000 0.0000  plane waves:    7005
 k-point   2 :   0.0909 0.0000 0.0000  plane waves:    6987
 k-point   3 :   0.1818-0.0000 0.0000  plane waves:    6993
 k-point   4 :   0.2727 0.0000 0.0000  plane waves:    6999
 k-point   5 :   0.3636 0.0000 0.0000  plane waves:    6969
 k-point   6 :   0.4545-0.0000 0.0000  plane waves:    6965
 k-point   7 :   0.0909 0.0909 0.0000  plane waves:    7001
 k-point   8 :   0.1818 0.0909 0.0000  plane waves:    7003
 k-point   9 :   0.2727 0.0909 0.0000  plane waves:    6981
 k-point  10 :   0.3636 0.0909 0.0000  plane waves:    6969
 k-point  11 :   0.4545 0.0909 0.0000  plane waves:    6972
 k-point  12 :   0.1818 0.1818 0.0000  plane waves:    6997
 k-point  13 :   0.2727 0.1818 0.0000  plane waves:    6965
 k-point  14 :   0.3636 0.1818 0.0000  plane waves:    6950
 k-point  15 :   0.2727 0.2727 0.0000  plane waves:    6943
 k-point  16 :   0.3636 0.2727 0.0000  plane waves:    6928

 maximum and minimum number of plane-waves per node :      7005     6928

 maximum number of plane-waves:      7005
 maximum index in each direction: 
   IXMAX=    8   IYMAX=    8   IZMAX=   25
   IXMIN=   -9   IYMIN=   -8   IZMIN=  -25


 serial   3D FFT for wavefunctions
 parallel 3D FFT for charge:
    minimum data exchange during FFTs selected (reduces bandwidth)


 FFT grid for exact exchange (Hartree Fock) 
  NGX = 28; NGY = 28; NGZ = 80

 
 Radii for the augmentation spheres in the non-local exchange
 for species   1 augmentation radius   0.959 (default was   0.767)
       energy cutoff for augmentation   1800.0
 for species   2 augmentation radius   0.874 (default was   0.699)
       energy cutoff for augmentation   1800.0
 Maximum index for augmentation-charges in exchange          714
  SETUP_FOCK is finished

 total amount of memory used by VASP MPI-rank0    60421. kBytes
=======================================================================

   base      :      30000. kBytes
   nonl-proj :      16257. kBytes
   fftplans  :       1088. kBytes
   grid      :       6496. kBytes
   one-center:         49. kBytes
   HF        :          9. kBytes
   nonlr-proj:        993. kBytes
   wavefun   :       5529. kBytes
 
     INWAV:  cpu time      0.0000: real time      0.0000
 Broyden mixing: mesh for mixing (old mesh)
   NGX = 17   NGY = 17   NGZ = 51
  (NGX  = 72   NGY  = 72   NGZ  =216)
  gives a total of  14739 points

 initial charge density was supplied:
 charge density of overlapping atoms calculated
 number of electron      56.0000000 magnetization 
 charge density for first step will be calculated from the start-wavefunctions


--------------------------------------------------------------------------------------------------------


 Maximum index for augmentation-charges          383 (set IRDMAX)


--------------------------------------------------------------------------------------------------------


 First call to EWALD:  gamma=   0.259
 Maximum number of real-space cells 4x 4x 2
 Maximum number of reciprocal cells 2x 2x 5

    FEWALD:  cpu time      0.0014: real time      0.0014


--------------------------------------- Ionic step        1  -------------------------------------------




--------------------------------------- Iteration      1(   1)  ---------------------------------------


    POTLOK:  cpu time      0.0194: real time      0.0218
    SETDIJ:  cpu time      0.0034: real time      0.0040
    TRIAL :  cpu time      6.8260: real time      9.4008
    CORREC:  cpu time      0.0007: real time      0.0007
    --------------------------------------------
      LOOP:  cpu time      6.8535: real time      9.4323

 eigenvalue-minimisations  :  6912
 total energy-change (2. order) :-0.2113201E+03  (-0.2911540E+04)
 number of electron      56.0000000 magnetization 
 augmentation part       56.0000000 magnetization 

 Free energy of the ion-electron system (eV)
  ---------------------------------------------------
  alpha Z        PSCENC =        60.47074313
  Ewald energy   TEWEN  =      4495.95153103
  -Hartree energ DENC   =     -5910.63168057
  -exchange      EXHF   =         0.00000000
  -V(xc)+E(xc)   XCENC  =       161.30414655
  PAW double counting   =      1216.17529508    -1541.66962650
  entropy T*S    EENTRO =        -0.01382400
  eigenvalues    EBANDS =      -418.21549646
  atomic energy  EATOM  =      1725.30882121
  ---------------------------------------------------
  free energy    TOTEN  =      -211.32009052 eV

  energy without entropy =     -211.30626653  energy(sigma->0) =     -211.31317853
  exchange ACFDT corr.  =         0.00000000  see jH, gK, PRB 81, 115126


--------------------------------------------------------------------------------------------------------




--------------------------------------- Iteration      1(   2)  ---------------------------------------


    TRIAL :  cpu time     12.8727: real time     14.8328
    CORREC:  cpu time      0.0009: real time      0.0009
    --------------------------------------------
      LOOP:  cpu time     12.8771: real time     14.8377

 eigenvalue-minimisations  :  9216
 total energy-change (2. order) :-0.2807825E+03  (-0.2804938E+03)
 number of electron      56.0000000 magnetization 
 augmentation part       56.0000000 magnetization 

 Free energy of the ion-electron system (eV)
  ---------------------------------------------------
  alpha Z        PSCENC =        60.47074313
  Ewald energy   TEWEN  =      4495.95153103
  -Hartree energ DENC   =     -5910.63168057
  -exchange      EXHF   =         0.00000000
  -V(xc)+E(xc)   XCENC  =       161.30414655
  PAW double counting   =      1216.17529508    -1541.66962650
  entropy T*S    EENTRO =        -0.00397382
  eigenvalues    EBANDS =      -699.00785601
  atomic energy  EATOM  =      1725.30882121
  ---------------------------------------------------
  free energy    TOTEN  =      -492.10259989 eV

  energy without entropy =     -492.09862607  energy(sigma->0) =     -492.10061298
  exchange ACFDT corr.  =         0.00000000  see jH, gK, PRB 81, 115126


--------------------------------------------------------------------------------------------------------




--------------------------------------- Iteration      1(   3)  ---------------------------------------


    TRIAL :  cpu time     12.0621: real time     12.9621
    CORREC:  cpu time      0.0009: real time      0.0009
    --------------------------------------------
      LOOP:  cpu time     12.0639: real time     12.9657

 eigenvalue-minimisations  :  9216
 total energy-change (2. order) :-0.5279004E+01  (-0.5278962E+01)
 number of electron      56.0000000 magnetization 
 augmentation part       56.0000000 magnetization 

 Free energy of the ion-electron system (eV)
  ---------------------------------------------------
  alpha Z        PSCENC =        60.47074313
  Ewald energy   TEWEN  =      4495.95153103
  -Hartree energ DENC   =     -5910.63168057
  -exchange      EXHF   =         0.00000000
  -V(xc)+E(xc)   XCENC  =       161.30414655
  PAW double counting   =      1216.17529508    -1541.66962650
  entropy T*S    EENTRO =        -0.00429035
  eigenvalues    EBANDS =      -704.28654369
  atomic energy  EATOM  =      1725.30882121
  ---------------------------------------------------
  free energy    TOTEN  =      -497.38160411 eV

  energy without entropy =     -497.37731376  energy(sigma->0) =     -497.37945893
  exchange ACFDT corr.  =         0.00000000  see jH, gK, PRB 81, 115126


--------------------------------------------------------------------------------------------------------




--------------------------------------- Iteration      1(   4)  ---------------------------------------


    TRIAL :  cpu time     12.0229: real time     12.4443
    CORREC:  cpu time      0.0006: real time      0.0006
    --------------------------------------------
      LOOP:  cpu time     12.0245: real time     12.4474

 eigenvalue-minimisations  :  9216
 total energy-change (2. order) :-0.9384675E-01  (-0.9384657E-01)
 number of electron      56.0000000 magnetization 
 augmentation part       56.0000000 magnetization 

 Free energy of the ion-electron system (eV)
  ---------------------------------------------------
  alpha Z        PSCENC =        60.47074313
  Ewald energy   TEWEN  =      4495.95153103
  -Hartree energ DENC   =     -5910.63168057
  -exchange      EXHF   =         0.00000000
  -V(xc)+E(xc)   XCENC  =       161.30414655
  PAW double counting   =      1216.17529508    -1541.66962650
  entropy T*S    EENTRO =        -0.00431939
  eigenvalues    EBANDS =      -704.38036141
  atomic energy  EATOM  =      1725.30882121
  ---------------------------------------------------
  free energy    TOTEN  =      -497.47545086 eV

  energy without entropy =     -497.47113147  energy(sigma->0) =     -497.47329116
  exchange ACFDT corr.  =         0.00000000  see jH, gK, PRB 81, 115126


--------------------------------------------------------------------------------------------------------




--------------------------------------- Iteration      1(   5)  ---------------------------------------


    POTLOK:  cpu time      0.0295: real time      0.0298
    SETDIJ:  cpu time      0.0295: real time      0.0298
    TRIAL :  cpu time    698.0906: real time    709.5449
    CORREC:  cpu time      0.0010: real time      0.0010
    CHARGE:  cpu time      0.2646: real time      0.3371
    --------------------------------------------
      LOOP:  cpu time    698.4160: real time    709.9455

 eigenvalue-minimisations  :  9216
 total energy-change (2. order) : 0.3466554E+03  (-0.6099386E+00)
 number of electron      55.9999990 magnetization 
 augmentation part        0.8168615 magnetization 

 Free energy of the ion-electron system (eV)
  ---------------------------------------------------
  alpha Z        PSCENC =        60.47074313
  Ewald energy   TEWEN  =      4495.95153103
  -Hartree energ DENC   =     -5910.63168057
  -exchange      EXHF   =       117.39821756
  -V(xc)+E(xc)   XCENC  =       123.89037611
  PAW double counting   =      1244.20631370    -1241.29989946
  entropy T*S    EENTRO =        -0.00009712
  eigenvalues    EBANDS =      -766.11441615
  atomic energy  EATOM  =      1725.30882121
  ---------------------------------------------------
  free energy    TOTEN  =      -150.82009057 eV

  energy without entropy =     -150.81999345  energy(sigma->0) =     -150.82004201
  exchange ACFDT corr.  =        -0.00075519  see jH, gK, PRB 81, 115126


--------------------------------------------------------------------------------------------------------




--------------------------------------- Iteration      1(   6)  ---------------------------------------


    POTLOK:  cpu time      0.0329: real time      0.0341
    SETDIJ:  cpu time      0.0276: real time      0.0290
    TRIAL :  cpu time    683.3768: real time    689.9409
    CORREC:  cpu time      0.0031: real time      0.0031
    CHARGE:  cpu time      0.2811: real time      0.3025
    --------------------------------------------
      LOOP:  cpu time    683.7227: real time    690.3125

 eigenvalue-minimisations  :     0
 total energy-change (2. order) : 0.1628786E+02  (-0.3881171E+01)
 number of electron      55.9999991 magnetization 
 augmentation part        0.7744979 magnetization 

 Free energy of the ion-electron system (eV)
  ---------------------------------------------------
  alpha Z        PSCENC =        60.47074313
  Ewald energy   TEWEN  =      4495.95153103
  -Hartree energ DENC   =     -6220.04464512
  -exchange      EXHF   =       117.55448333
  -V(xc)+E(xc)   XCENC  =       132.33029662
  PAW double counting   =      6046.61387679    -6045.39713135
  entropy T*S    EENTRO =        -0.00000001
  eigenvalues    EBANDS =      -447.32010427
  atomic energy  EATOM  =      1725.30882121
  ---------------------------------------------------
  free energy    TOTEN  =      -134.53222575 eV

  energy without entropy =     -134.53222575  energy(sigma->0) =     -134.53222575
  exchange ACFDT corr.  =        -0.00000911  see jH, gK, PRB 81, 115126


--------------------------------------------------------------------------------------------------------




--------------------------------------- Iteration      1(   7)  ---------------------------------------


    POTLOK:  cpu time      0.0458: real time      0.0459
    SETDIJ:  cpu time      0.0296: real time      0.0300
    TRIAL :  cpu time    683.8124: real time    688.7849
    CORREC:  cpu time      0.0018: real time      0.0018
    CHARGE:  cpu time      0.2459: real time      0.2472
    --------------------------------------------
      LOOP:  cpu time    684.1362: real time    689.2086

 eigenvalue-minimisations  :     0
 total energy-change (2. order) :-0.3011897E+01  (-0.2157788E+01)
 number of electron      55.9999991 magnetization 
 augmentation part        0.7334814 magnetization 

 Free energy of the ion-electron system (eV)
  ---------------------------------------------------
  alpha Z        PSCENC =        60.47074313
  Ewald energy   TEWEN  =      4495.95153103
  -Hartree energ DENC   =     -6181.03175282
  -exchange      EXHF   =       116.47833417
  -V(xc)+E(xc)   XCENC  =       131.27430792
  PAW double counting   =      6278.61495863    -6277.14778724
  entropy T*S    EENTRO =        -0.00000000
  eigenvalues    EBANDS =      -487.46327916
  atomic energy  EATOM  =      1725.30882121
  ---------------------------------------------------
  free energy    TOTEN  =      -137.54412313 eV

  energy without entropy =     -137.54412313  energy(sigma->0) =     -137.54412313
  exchange ACFDT corr.  =        -0.00103720  see jH, gK, PRB 81, 115126


--------------------------------------------------------------------------------------------------------




--------------------------------------- Iteration      1(   8)  ---------------------------------------


    POTLOK:  cpu time      0.0305: real time      0.0306
    SETDIJ:  cpu time      0.0338: real time      0.0341
    TRIAL :  cpu time    684.0402: real time    689.1974
    CORREC:  cpu time      0.0014: real time      0.0023
    CHARGE:  cpu time      0.2413: real time      0.2478
    --------------------------------------------
      LOOP:  cpu time    684.3489: real time    689.5150

 eigenvalue-minimisations  :     0
 total energy-change (2. order) :-0.1517057E+01  (-0.7992103E+00)
 number of electron      55.9999991 magnetization 
 augmentation part        0.7081961 magnetization 

 Free energy of the ion-electron system (eV)
  ---------------------------------------------------
  alpha Z        PSCENC =        60.47074313
  Ewald energy   TEWEN  =      4495.95153103
  -Hartree energ DENC   =     -6143.63921700
  -exchange      EXHF   =       115.45318112
  -V(xc)+E(xc)   XCENC  =       130.28717031
  PAW double counting   =      6457.82414382    -6456.13470434
  entropy T*S    EENTRO =        -0.00000664
  eigenvalues    EBANDS =      -524.58284907
  atomic energy  EATOM  =      1725.30882121
  ---------------------------------------------------
  free energy    TOTEN  =      -139.06117980 eV

  energy without entropy =     -139.06117316  energy(sigma->0) =     -139.06117648
  exchange ACFDT corr.  =        -0.00017805  see jH, gK, PRB 81, 115126


--------------------------------------------------------------------------------------------------------




--------------------------------------- Iteration      1(   9)  ---------------------------------------


    POTLOK:  cpu time      0.0451: real time      0.0452
    SETDIJ:  cpu time      0.0297: real time      0.0300
    TRIAL :  cpu time    684.1371: real time    689.3713
    CORREC:  cpu time      0.0012: real time      0.0012
    CHARGE:  cpu time      0.2338: real time      0.2367
    --------------------------------------------
      LOOP:  cpu time    684.4483: real time    689.7962

 eigenvalue-minimisations  :     0
 total energy-change (2. order) :-0.5945823E+00  (-0.3928876E+00)
 number of electron      55.9999991 magnetization 
 augmentation part        0.6960378 magnetization 

 Free energy of the ion-electron system (eV)
  ---------------------------------------------------
  alpha Z        PSCENC =        60.47074313
  Ewald energy   TEWEN  =      4495.95153103
  -Hartree energ DENC   =     -6121.66612080
  -exchange      EXHF   =       114.83040843
  -V(xc)+E(xc)   XCENC  =       129.70785459
  PAW double counting   =      6502.70018056    -6500.89699611
  entropy T*S    EENTRO =        -0.00040039
  eigenvalues    EBANDS =      -546.06217754
  atomic energy  EATOM  =      1725.30882121
  ---------------------------------------------------
  free energy    TOTEN  =      -139.65576213 eV

  energy without entropy =     -139.65536174  energy(sigma->0) =     -139.65556194
  exchange ACFDT corr.  =        -0.00007181  see jH, gK, PRB 81, 115126


--------------------------------------------------------------------------------------------------------




--------------------------------------- Iteration      1(  10)  ---------------------------------------


    POTLOK:  cpu time      0.0555: real time      0.0559
    SETDIJ:  cpu time      0.0296: real time      0.0301
    TRIAL :  cpu time    684.0846: real time    688.9782
    CORREC:  cpu time      0.0018: real time      0.0018
    CHARGE:  cpu time      0.2403: real time      0.2437
    --------------------------------------------
      LOOP:  cpu time    684.4132: real time    689.3127

 eigenvalue-minimisations  :     0
 total energy-change (2. order) :-0.3096478E+00  (-0.1917326E+00)
 number of electron      55.9999991 magnetization 
 augmentation part        0.6911137 magnetization 

 Free energy of the ion-electron system (eV)
  ---------------------------------------------------
  alpha Z        PSCENC =        60.47074313
  Ewald energy   TEWEN  =      4495.95153103
  -Hartree energ DENC   =     -6111.28960086
  -exchange      EXHF   =       114.51225129
  -V(xc)+E(xc)   XCENC  =       129.43423073
  PAW double counting   =      6462.20556618    -6460.36671807
  entropy T*S    EENTRO =        -0.00140585
  eigenvalues    EBANDS =      -556.19183414
  atomic energy  EATOM  =      1725.30882121
  ---------------------------------------------------
  free energy    TOTEN  =      -139.96540991 eV

  energy without entropy =     -139.96400406  energy(sigma->0) =     -139.96470698
  exchange ACFDT corr.  =        -0.00004078  see jH, gK, PRB 81, 115126


--------------------------------------------------------------------------------------------------------




--------------------------------------- Iteration      1(  11)  ---------------------------------------


    POTLOK:  cpu time      0.0446: real time      0.0447
    SETDIJ:  cpu time      0.0292: real time      0.0299
    TRIAL :  cpu time    682.9741: real time    688.0036
    CORREC:  cpu time      0.0012: real time      0.0015
    CHARGE:  cpu time      0.2692: real time      0.2743
    --------------------------------------------
      LOOP:  cpu time    683.3199: real time    688.4767

 eigenvalue-minimisations  :     0
 total energy-change (2. order) :-0.1464320E+00  (-0.7343710E-01)
 number of electron      55.9999991 magnetization 
 augmentation part        0.6889810 magnetization 

 Free energy of the ion-electron system (eV)
  ---------------------------------------------------
  alpha Z        PSCENC =        60.47074313
  Ewald energy   TEWEN  =      4495.95153103
  -Hartree energ DENC   =     -6106.61310456
  -exchange      EXHF   =       114.34836331
  -V(xc)+E(xc)   XCENC  =       129.31146081
  PAW double counting   =      6400.65560721    -6398.81504954
  entropy T*S    EENTRO =        -0.00165709
  eigenvalues    EBANDS =      -560.72880869
  atomic energy  EATOM  =      1725.30882121
  ---------------------------------------------------
  free energy    TOTEN  =      -140.11184194 eV

  energy without entropy =     -140.11018484  energy(sigma->0) =     -140.11101339
  exchange ACFDT corr.  =        -0.00017561  see jH, gK, PRB 81, 115126


--------------------------------------------------------------------------------------------------------




--------------------------------------- Iteration      1(  12)  ---------------------------------------


    POTLOK:  cpu time      0.0355: real time      0.0356
    SETDIJ:  cpu time      0.0296: real time      0.0300
    TRIAL :  cpu time    683.6503: real time    688.8868
    CORREC:  cpu time      0.0011: real time      0.0011
    CHARGE:  cpu time      0.2348: real time      0.2368
    --------------------------------------------
      LOOP:  cpu time    683.9528: real time    689.1994

 eigenvalue-minimisations  :     0
 total energy-change (2. order) :-0.5390854E-01  (-0.2402632E-01)
 number of electron      55.9999991 magnetization 
 augmentation part        0.6876453 magnetization 

 Free energy of the ion-electron system (eV)
  ---------------------------------------------------
  alpha Z        PSCENC =        60.47074313
  Ewald energy   TEWEN  =      4495.95153103
  -Hartree energ DENC   =     -6103.83691006
  -exchange      EXHF   =       114.24975742
  -V(xc)+E(xc)   XCENC  =       129.24475602
  PAW double counting   =      6351.30607862    -6349.47069286
  entropy T*S    EENTRO =        -0.00128861
  eigenvalues    EBANDS =      -563.38817790
  atomic energy  EATOM  =      1725.30882121
  ---------------------------------------------------
  free energy    TOTEN  =      -140.16575047 eV

  energy without entropy =     -140.16446187  energy(sigma->0) =     -140.16510617
  exchange ACFDT corr.  =        -0.00021496  see jH, gK, PRB 81, 115126


--------------------------------------------------------------------------------------------------------




--------------------------------------- Iteration      1(  13)  ---------------------------------------


    POTLOK:  cpu time      0.0294: real time      0.0295
    SETDIJ:  cpu time      0.0295: real time      0.0298
    TRIAL :  cpu time    684.4028: real time    689.3127
    CORREC:  cpu time      0.0011: real time      0.0011
    CHARGE:  cpu time      0.2368: real time      0.2407
    --------------------------------------------
      LOOP:  cpu time    684.7001: real time    689.6143

 eigenvalue-minimisations  :     0
 total energy-change (2. order) :-0.1708529E-01  (-0.7293055E-02)
 number of electron      55.9999991 magnetization 
 augmentation part        0.6866331 magnetization 

 Free energy of the ion-electron system (eV)
  ---------------------------------------------------
  alpha Z        PSCENC =        60.47074313
  Ewald energy   TEWEN  =      4495.95153103
  -Hartree energ DENC   =     -6101.74804414
  -exchange      EXHF   =       114.18211430
  -V(xc)+E(xc)   XCENC  =       129.19867278
  PAW double counting   =      6320.49676050    -6318.66457905
  entropy T*S    EENTRO =        -0.00093956
  eigenvalues    EBANDS =      -565.37756691
  atomic energy  EATOM  =      1725.30882121
  ---------------------------------------------------
  free energy    TOTEN  =      -140.18283576 eV

  energy without entropy =     -140.18189620  energy(sigma->0) =     -140.18236598
  exchange ACFDT corr.  =        -0.00015830  see jH, gK, PRB 81, 115126


--------------------------------------------------------------------------------------------------------




--------------------------------------- Iteration      1(  14)  ---------------------------------------


    POTLOK:  cpu time      0.0290: real time      0.0294
    SETDIJ:  cpu time      0.0297: real time      0.0298
    TRIAL :  cpu time    684.9493: real time    689.8274
    CORREC:  cpu time      0.0018: real time      0.0018
    CHARGE:  cpu time      0.2349: real time      0.2379
    --------------------------------------------
      LOOP:  cpu time    685.2451: real time    690.1267

 eigenvalue-minimisations  :     0
 total energy-change (2. order) :-0.4968443E-02  (-0.2098195E-02)
 number of electron      55.9999991 magnetization 
 augmentation part        0.6859219 magnetization 

 Free energy of the ion-electron system (eV)
  ---------------------------------------------------
  alpha Z        PSCENC =        60.47074313
  Ewald energy   TEWEN  =      4495.95153103
  -Hartree energ DENC   =     -6100.31894553
  -exchange      EXHF   =       114.13629562
  -V(xc)+E(xc)   XCENC  =       129.16618685
  PAW double counting   =      6303.65082401    -6301.81934346
  entropy T*S    EENTRO =        -0.00075903
  eigenvalues    EBANDS =      -566.73297750
  atomic energy  EATOM  =      1725.30882121
  ---------------------------------------------------
  free energy    TOTEN  =      -140.18780421 eV

  energy without entropy =     -140.18704518  energy(sigma->0) =     -140.18742469
  exchange ACFDT corr.  =        -0.00010711  see jH, gK, PRB 81, 115126


--------------------------------------------------------------------------------------------------------




--------------------------------------- Iteration      1(  15)  ---------------------------------------


    POTLOK:  cpu time      0.0294: real time      0.0295
    SETDIJ:  cpu time      0.0295: real time      0.0299
    TRIAL :  cpu time    684.2277: real time    689.3765
    CORREC:  cpu time      0.0018: real time      0.0018
    CHARGE:  cpu time      0.2345: real time      0.2376
    --------------------------------------------
      LOOP:  cpu time    684.5234: real time    689.6757

 eigenvalue-minimisations  :     0
 total energy-change (2. order) :-0.1354506E-02  (-0.6013239E-03)
 number of electron      55.9999991 magnetization 
 augmentation part        0.6855529 magnetization 

 Free energy of the ion-electron system (eV)
  ---------------------------------------------------
  alpha Z        PSCENC =        60.47074313
  Ewald energy   TEWEN  =      4495.95153103
  -Hartree energ DENC   =     -6099.52600604
  -exchange      EXHF   =       114.10853797
  -V(xc)+E(xc)   XCENC  =       129.14596176
  PAW double counting   =      6295.29850057    -6293.46673765
  entropy T*S    EENTRO =        -0.00068605
  eigenvalues    EBANDS =      -567.47975166
  atomic energy  EATOM  =      1725.30882121
  ---------------------------------------------------
  free energy    TOTEN  =      -140.18915871 eV

  energy without entropy =     -140.18847267  energy(sigma->0) =     -140.18881569
  exchange ACFDT corr.  =        -0.00008194  see jH, gK, PRB 81, 115126


--------------------------------------------------------------------------------------------------------




--------------------------------------- Iteration      1(  16)  ---------------------------------------


    POTLOK:  cpu time      0.0292: real time      0.0293
    SETDIJ:  cpu time      0.0291: real time      0.0299
    TRIAL :  cpu time    684.2606: real time    689.2942
    CORREC:  cpu time      0.0012: real time      0.0012
    CHARGE:  cpu time      0.2716: real time      0.2758
    --------------------------------------------
      LOOP:  cpu time    684.5921: real time    689.6308

 eigenvalue-minimisations  :     0
 total energy-change (2. order) :-0.3702484E-03  (-0.1991751E-03)
 number of electron      55.9999991 magnetization 
 augmentation part        0.6854736 magnetization 

 Free energy of the ion-electron system (eV)
  ---------------------------------------------------
  alpha Z        PSCENC =        60.47074313
  Ewald energy   TEWEN  =      4495.95153103
  -Hartree energ DENC   =     -6099.21131144
  -exchange      EXHF   =       114.09449728
  -V(xc)+E(xc)   XCENC  =       129.13576888
  PAW double counting   =      6291.32290131    -6289.49101865
  entropy T*S    EENTRO =        -0.00066417
  eigenvalues    EBANDS =      -567.77077567
  atomic energy  EATOM  =      1725.30882121
  ---------------------------------------------------
  free energy    TOTEN  =      -140.18952896 eV

  energy without entropy =     -140.18886479  energy(sigma->0) =     -140.18919687
  exchange ACFDT corr.  =        -0.00007212  see jH, gK, PRB 81, 115126


--------------------------------------------------------------------------------------------------------




--------------------------------------- Iteration      1(  17)  ---------------------------------------


    POTLOK:  cpu time      0.0293: real time      0.0297
    SETDIJ:  cpu time      0.0297: real time      0.0301
    TRIAL :  cpu time    683.4398: real time    688.5871
    CORREC:  cpu time      0.0012: real time      0.0012
    CHARGE:  cpu time      0.2321: real time      0.2330
    --------------------------------------------
      LOOP:  cpu time    683.7324: real time    688.8815

 eigenvalue-minimisations  :     0
 total energy-change (2. order) :-0.1264474E-03  (-0.8970672E-04)
 number of electron      55.9999991 magnetization 
 augmentation part        0.6855616 magnetization 

 Free energy of the ion-electron system (eV)
  ---------------------------------------------------
  alpha Z        PSCENC =        60.47074313
  Ewald energy   TEWEN  =      4495.95153103
  -Hartree energ DENC   =     -6099.16888044
  -exchange      EXHF   =       114.08918626
  -V(xc)+E(xc)   XCENC  =       129.13222970
  PAW double counting   =      6289.37179334    -6287.53999503
  entropy T*S    EENTRO =        -0.00066392
  eigenvalues    EBANDS =      -567.80442044
  atomic energy  EATOM  =      1725.30882121
  ---------------------------------------------------
  free energy    TOTEN  =      -140.18965541 eV

  energy without entropy =     -140.18899149  energy(sigma->0) =     -140.18932345
  exchange ACFDT corr.  =        -0.00006923  see jH, gK, PRB 81, 115126


--------------------------------------------------------------------------------------------------------




--------------------------------------- Iteration      1(  18)  ---------------------------------------


    POTLOK:  cpu time      0.0290: real time      0.0292
    SETDIJ:  cpu time      0.0295: real time      0.0298
    TRIAL :  cpu time    684.1414: real time    689.1378
    CORREC:  cpu time      0.0012: real time      0.0012
    CHARGE:  cpu time      0.2320: real time      0.2333
    --------------------------------------------
      LOOP:  cpu time    684.4336: real time    689.4319

 eigenvalue-minimisations  :     0
 total energy-change (2. order) :-0.6339183E-04  (-0.4878811E-04)
 number of electron      55.9999991 magnetization 
 augmentation part        0.6856997 magnetization 

 Free energy of the ion-electron system (eV)
  ---------------------------------------------------
  alpha Z        PSCENC =        60.47074313
  Ewald energy   TEWEN  =      4495.95153103
  -Hartree energ DENC   =     -6099.23408347
  -exchange      EXHF   =       114.08836702
  -V(xc)+E(xc)   XCENC  =       129.13213220
  PAW double counting   =      6288.48997902    -6286.65839532
  entropy T*S    EENTRO =        -0.00067119
  eigenvalues    EBANDS =      -567.73814970
  atomic energy  EATOM  =      1725.30882121
  ---------------------------------------------------
  free energy    TOTEN  =      -140.18971880 eV

  energy without entropy =     -140.18904761  energy(sigma->0) =     -140.18938321
  exchange ACFDT corr.  =        -0.00006918  see jH, gK, PRB 81, 115126


--------------------------------------------------------------------------------------------------------




--------------------------------------- Iteration      1(  19)  ---------------------------------------


    POTLOK:  cpu time      0.0287: real time      0.0292
    SETDIJ:  cpu time      0.0298: real time      0.0299
    TRIAL :  cpu time    684.7041: real time    689.9327
    CORREC:  cpu time      0.0019: real time      0.0019
    CHARGE:  cpu time      0.2379: real time      0.2392
    --------------------------------------------
      LOOP:  cpu time    685.0028: real time    690.2334

 eigenvalue-minimisations  :     0
 total energy-change (2. order) :-0.3660556E-04  (-0.2544659E-04)
 number of electron      55.9999991 magnetization 
 augmentation part        0.6858151 magnetization 

 Free energy of the ion-electron system (eV)
  ---------------------------------------------------
  alpha Z        PSCENC =        60.47074313
  Ewald energy   TEWEN  =      4495.95153103
  -Hartree energ DENC   =     -6099.31793723
  -exchange      EXHF   =       114.08929990
  -V(xc)+E(xc)   XCENC  =       129.13330813
  PAW double counting   =      6288.26835897    -6286.43701929
  entropy T*S    EENTRO =        -0.00067972
  eigenvalues    EBANDS =      -567.65619007
  atomic energy  EATOM  =      1725.30882121
  ---------------------------------------------------
  free energy    TOTEN  =      -140.18975541 eV

  energy without entropy =     -140.18907569  energy(sigma->0) =     -140.18941555
  exchange ACFDT corr.  =        -0.00007012  see jH, gK, PRB 81, 115126


--------------------------------------------------------------------------------------------------------




--------------------------------------- Iteration      1(  20)  ---------------------------------------


    POTLOK:  cpu time      0.0303: real time      0.0305
    SETDIJ:  cpu time      0.0297: real time      0.0298
    TRIAL :  cpu time    684.8943: real time    689.8659
    CORREC:  cpu time      0.0011: real time      0.0011
    CHARGE:  cpu time      0.2320: real time      0.2335
    --------------------------------------------
      LOOP:  cpu time    685.1887: real time    690.1624

 eigenvalue-minimisations  :     0
 total energy-change (2. order) :-0.1938289E-04  (-0.1208691E-04)
 number of electron      55.9999991 magnetization 
 augmentation part        0.6858847 magnetization 

 Free energy of the ion-electron system (eV)
  ---------------------------------------------------
  alpha Z        PSCENC =        60.47074313
  Ewald energy   TEWEN  =      4495.95153103
  -Hartree energ DENC   =     -6099.38866905
  -exchange      EXHF   =       114.09059033
  -V(xc)+E(xc)   XCENC  =       129.13464555
  PAW double counting   =      6288.48750509    -6286.65630910
  entropy T*S    EENTRO =        -0.00068712
  eigenvalues    EBANDS =      -567.58795326
  atomic energy  EATOM  =      1725.30882121
  ---------------------------------------------------
  free energy    TOTEN  =      -140.18977479 eV

  energy without entropy =     -140.18908767  energy(sigma->0) =     -140.18943123
  exchange ACFDT corr.  =        -0.00007122  see jH, gK, PRB 81, 115126


--------------------------------------------------------------------------------------------------------




--------------------------------------- Iteration      1(  21)  ---------------------------------------


    POTLOK:  cpu time      0.0295: real time      0.0296
    SETDIJ:  cpu time      0.0293: real time      0.0298
    TRIAL :  cpu time    683.9319: real time    688.8796
    CORREC:  cpu time      0.0018: real time      0.0018
    CHARGE:  cpu time      0.2326: real time      0.2336
    --------------------------------------------
      LOOP:  cpu time    684.2260: real time    689.1754

 eigenvalue-minimisations  :     0
 total energy-change (2. order) :-0.9216606E-05  (-0.5221800E-05)
 number of electron      55.9999991 magnetization 
 augmentation part        0.6859185 magnetization 

 Free energy of the ion-electron system (eV)
  ---------------------------------------------------
  alpha Z        PSCENC =        60.47074313
  Ewald energy   TEWEN  =      4495.95153103
  -Hartree energ DENC   =     -6099.44099053
  -exchange      EXHF   =       114.09169328
  -V(xc)+E(xc)   XCENC  =       129.13572672
  PAW double counting   =      6288.94201493    -6287.11086018
  entropy T*S    EENTRO =        -0.00069273
  eigenvalues    EBANDS =      -567.53777648
  atomic energy  EATOM  =      1725.30882121
  ---------------------------------------------------
  free energy    TOTEN  =      -140.18978401 eV

  energy without entropy =     -140.18909128  energy(sigma->0) =     -140.18943764
  exchange ACFDT corr.  =        -0.00007216  see jH, gK, PRB 81, 115126


--------------------------------------------------------------------------------------------------------




--------------------------------------- Iteration      1(  22)  ---------------------------------------


    POTLOK:  cpu time      0.0294: real time      0.0295
    SETDIJ:  cpu time      0.0296: real time      0.0299
    TRIAL :  cpu time    684.4721: real time    689.4769
    CORREC:  cpu time      0.0032: real time      0.0032
    CHARGE:  cpu time      0.2451: real time      0.2466
    --------------------------------------------
      LOOP:  cpu time    684.7799: real time    689.7866

 eigenvalue-minimisations  :     0
 total energy-change (2. order) :-0.3967541E-05  (-0.2053921E-05)
 number of electron      55.9999991 magnetization 
 augmentation part        0.6859339 magnetization 

 Free energy of the ion-electron system (eV)
  ---------------------------------------------------
  alpha Z        PSCENC =        60.47074313
  Ewald energy   TEWEN  =      4495.95153103
  -Hartree energ DENC   =     -6099.47737480
  -exchange      EXHF   =       114.09248582
  -V(xc)+E(xc)   XCENC  =       129.13648521
  PAW double counting   =      6289.41490467    -6287.58373901
  entropy T*S    EENTRO =        -0.00069662
  eigenvalues    EBANDS =      -567.50295250
  atomic energy  EATOM  =      1725.30882121
  ---------------------------------------------------
  free energy    TOTEN  =      -140.18978797 eV

  energy without entropy =     -140.18909135  energy(sigma->0) =     -140.18943966
  exchange ACFDT corr.  =        -0.00007288  see jH, gK, PRB 81, 115126


--------------------------------------------------------------------------------------------------------




--------------------------------------- Iteration      1(  23)  ---------------------------------------


    POTLOK:  cpu time      0.0288: real time      0.0293
    SETDIJ:  cpu time      0.0296: real time      0.0297
    TRIAL :  cpu time    684.2815: real time    689.3466
    CORREC:  cpu time      0.0018: real time      0.0018
    CHARGE:  cpu time      0.2545: real time      0.2572
    --------------------------------------------
      LOOP:  cpu time    684.5967: real time    689.6652

 eigenvalue-minimisations  :     0
 total energy-change (2. order) :-0.1552164E-05  (-0.7379403E-06)
 number of electron      55.9999991 magnetization 
 augmentation part        0.6859431 magnetization 

 Free energy of the ion-electron system (eV)
  ---------------------------------------------------
  alpha Z        PSCENC =        60.47074313
  Ewald energy   TEWEN  =      4495.95153103
  -Hartree energ DENC   =     -6099.50140877
  -exchange      EXHF   =       114.09300427
  -V(xc)+E(xc)   XCENC  =       129.13697880
  PAW double counting   =      6289.76751755    -6287.93632891
  entropy T*S    EENTRO =        -0.00069913
  eigenvalues    EBANDS =      -567.47995122
  atomic energy  EATOM  =      1725.30882121
  ---------------------------------------------------
  free energy    TOTEN  =      -140.18978952 eV

  energy without entropy =     -140.18909040  energy(sigma->0) =     -140.18943996
  exchange ACFDT corr.  =        -0.00007337  see jH, gK, PRB 81, 115126


--------------------------------------------------------------------------------------------------------




--------------------------------------- Iteration      1(  24)  ---------------------------------------


    POTLOK:  cpu time      0.0294: real time      0.0295
    SETDIJ:  cpu time      0.0296: real time      0.0299
    TRIAL :  cpu time    684.6467: real time    689.7142
    CORREC:  cpu time      0.0012: real time      0.0012
    EDDIAG:  cpu time    684.3337: real time    689.4066
    CHARGE:  cpu time      0.2314: real time      0.2340
    --------------------------------------------
      LOOP:  cpu time   1369.2739: real time   1379.4174

 eigenvalue-minimisations  :     0
 total energy-change (2. order) :-0.5539123E-06  (-0.2513472E-06)
 number of electron      55.9999991 magnetization 
 augmentation part        0.6859504 magnetization 

 Free energy of the ion-electron system (eV)
  ---------------------------------------------------
  alpha Z        PSCENC =        60.47074313
  Ewald energy   TEWEN  =      4495.95153103
  -Hartree energ DENC   =     -6099.51631656
  -exchange      EXHF   =       114.09349219
  -V(xc)+E(xc)   XCENC  =       129.13728163
  PAW double counting   =      6289.96500249    -6288.13379958
  entropy T*S    EENTRO =        -0.00070064
  eigenvalues    EBANDS =      -567.46567271
  atomic energy  EATOM  =      1725.30882121
  ---------------------------------------------------
  free energy    TOTEN  =      -140.18979008 eV

  energy without entropy =     -140.18908944  energy(sigma->0) =     -140.18943976
[...]
    131      24.2508      0.00000
    132      24.4369      0.00000
    133      24.5367      0.00000
    134      24.6106      0.00000
    135      24.8530      0.00000
    136      25.0273      0.00000
    137      25.2589      0.00000
    138      25.4349      0.00000
    139      25.4719      0.00000
    140      25.6239      0.00000
    141      25.7756      0.00000
    142      26.0639      0.00000
    143      26.4007      0.00000
    144      26.6094      0.00000

 k-point    16 :       0.3636    0.2727    0.0000
  band No.  band energies     occupation 
      1     -20.4946      2.00000
      2     -20.4906      2.00000
      3     -19.9313      2.00000
      4     -16.7413      2.00000
      5     -16.4312      2.00000
      6     -15.4206      2.00000
      7     -14.6667      2.00000
      8     -14.2851      2.00000
      9     -12.3737      2.00000
     10     -10.5921      2.00000
     11     -10.3225      2.00000
     12     -10.0232      2.00000
     13      -9.5062      2.00000
     14      -9.5049      2.00000
     15      -8.6653      2.00000
     16      -8.6382      2.00000
     17      -8.5159      2.00000
     18      -7.8282      2.00000
     19      -7.8276      2.00000
     20      -7.1218      2.00000
     21      -7.0117      2.00000
     22      -6.3844      2.00000
     23      -5.5372      2.00000
     24      -5.0773      2.00000
     25      -4.8100      2.00000
     26      -4.5829      2.00000
     27      -2.9691      2.00000
     28      -1.1511      2.00000
     29      -0.1003      0.02877
     30       2.7715      0.00000
     31       3.8159      0.00000
     32       4.2331      0.00000
     33       4.5051      0.00000
     34       5.0224      0.00000
     35       5.1832      0.00000
     36       5.4413      0.00000
     37       5.5575      0.00000
     38       5.8849      0.00000
     39       6.1342      0.00000
     40       6.1692      0.00000
     41       6.3456      0.00000
     42       6.9057      0.00000
     43       6.9268      0.00000
     44       6.9625      0.00000
     45       7.0746      0.00000
     46       7.2694      0.00000
     47       7.8457      0.00000
     48       8.5853      0.00000
     49       8.7129      0.00000
     50       8.8212      0.00000
     51       9.5486      0.00000
     52       9.6541      0.00000
     53       9.7460      0.00000
     54       9.7854      0.00000
     55      10.1651      0.00000
     56      10.2643      0.00000
     57      10.3408      0.00000
     58      10.4343      0.00000
     59      10.5343      0.00000
     60      10.8087      0.00000
     61      11.0616      0.00000
     62      11.6153      0.00000
     63      11.8811      0.00000
     64      11.8959      0.00000
     65      11.9604      0.00000
     66      12.1941      0.00000
     67      12.9611      0.00000
     68      13.0422      0.00000
     69      13.2319      0.00000
     70      13.5065      0.00000
     71      13.8451      0.00000
     72      13.9686      0.00000
     73      14.0099      0.00000
     74      14.1463      0.00000
     75      14.3709      0.00000
     76      14.5348      0.00000
     77      15.0768      0.00000
     78      15.3369      0.00000
     79      15.5360      0.00000
     80      15.7544      0.00000
     81      15.9519      0.00000
     82      15.9715      0.00000
     83      16.0817      0.00000
     84      16.2234      0.00000
     85      16.5214      0.00000
     86      16.6060      0.00000
     87      16.6530      0.00000
     88      16.9975      0.00000
     89      17.2383      0.00000
     90      17.3294      0.00000
     91      17.3377      0.00000
     92      17.4954      0.00000
     93      17.8687      0.00000
     94      18.0539      0.00000
     95      18.1764      0.00000
     96      18.5351      0.00000
     97      18.6505      0.00000
     98      18.7028      0.00000
     99      18.7143      0.00000
    100      18.9897      0.00000
    101      19.2409      0.00000
    102      19.4925      0.00000
    103      19.8445      0.00000
    104      20.4283      0.00000
    105      21.0795      0.00000
    106      21.1162      0.00000
    107      21.2447      0.00000
    108      21.3896      0.00000
    109      21.4413      0.00000
    110      21.5094      0.00000
    111      21.6201      0.00000
    112      21.6556      0.00000
    113      21.9828      0.00000
    114      22.0175      0.00000
    115      22.0943      0.00000
    116      22.2152      0.00000
    117      22.2625      0.00000
    118      22.3194      0.00000
    119      22.4149      0.00000
    120      22.5854      0.00000
    121      22.7782      0.00000
    122      22.8093      0.00000
    123      22.8642      0.00000
    124      22.9587      0.00000
    125      23.2064      0.00000
    126      23.3269      0.00000
    127      23.4422      0.00000
    128      23.5659      0.00000
    129      23.8207      0.00000
    130      23.9338      0.00000
    131      24.2764      0.00000
    132      24.4142      0.00000
    133      24.6013      0.00000
    134      24.7088      0.00000
    135      24.9164      0.00000
    136      25.0923      0.00000
    137      25.1354      0.00000
    138      25.2333      0.00000
    139      25.5250      0.00000
    140      25.5806      0.00000
    141      25.7316      0.00000
    142      26.1652      0.00000
    143      26.4330      0.00000
    144      26.5196      0.00000


--------------------------------------------------------------------------------------------------------


 soft charge-density along one line, spin component           1
         0         1         2         3         4         5         6         7         8         9
 total charge-density along one line
 
 pseudopotential strength for first ion, spin component:           1
  6.413   9.770  -0.005   0.000  -0.008  -0.007   0.000  -0.013
  9.770  14.878  -0.007   0.000  -0.012  -0.011   0.000  -0.019
 -0.005  -0.007  -2.216   0.001   0.003  -3.767   0.002   0.005
  0.000   0.000   0.001  -2.214  -0.001   0.002  -3.761  -0.001
 -0.008  -0.012   0.003  -0.001  -2.213   0.005  -0.001  -3.761
 -0.007  -0.011  -3.767   0.002   0.005  -6.201   0.005   0.010
  0.000   0.000   0.002  -3.761  -0.001   0.005  -6.187  -0.003
 -0.013  -0.019   0.005  -0.001  -3.761   0.010  -0.003  -6.190
 total augmentation occupancy for first ion, spin component:           1
  4.056  -1.174  -0.203   0.001  -0.353   0.097  -0.000   0.169
 -1.174   0.356   0.114  -0.000   0.198  -0.044   0.000  -0.076
 -0.203   0.114   4.521  -0.098  -0.267  -1.318   0.049   0.124
  0.001  -0.000  -0.098   1.968   0.058   0.051  -0.459  -0.029
 -0.353   0.198  -0.267   0.058   4.211   0.124  -0.028  -1.175
  0.097  -0.044  -1.318   0.051   0.124   0.394  -0.019  -0.048
 -0.000   0.000   0.049  -0.459  -0.028  -0.019   0.110   0.011
  0.169  -0.076   0.124  -0.029  -1.175  -0.048   0.011   0.338


------------------------ aborting loop because EDIFF is reached ----------------------------------------





 total charge

# of ion       s       p       d       tot
------------------------------------------
    1        0.711   1.444   0.000   2.154
    2        0.711   1.444   0.000   2.154
    3        0.711   1.444   0.000   2.154
    4        0.711   1.444   0.000   2.154
    5        0.711   1.444   0.000   2.154
    6        0.711   1.444   0.000   2.154
    7        0.689   1.393   0.000   2.082
    8        0.689   1.393   0.000   2.082
    9        0.863   1.750   0.000   2.613
   10        0.863   1.750   0.000   2.613
   11        0.863   1.750   0.000   2.613
   12        0.863   1.750   0.000   2.614
   13        0.863   1.750   0.000   2.613
   14        0.863   1.750   0.000   2.613
   15        0.863   1.750   0.000   2.613
   16        0.863   1.750   0.000   2.613
--------------------------------------------------
tot         12.548  25.450   0.000  37.997
 
    FORLOC:  cpu time      0.0006: real time      0.0008
    FORHF :  cpu time    120.1755: real time    120.9828
    FORNL :  cpu time      0.0726: real time      0.0733
    FORCOR:  cpu time      0.0693: real time      0.0696
    OFIELD:  cpu time      0.0001: real time      0.0001

 VOLUME and BASIS-vectors are now :
 -----------------------------------------------------------------------------
  energy-cutoff  :      450.00
  volume of cell :      322.04
      direct lattice vectors                 reciprocal lattice vectors
     4.311940485  2.489500000  0.000000000     0.115957074  0.200843543  0.000000000
    -4.311940485  2.489500000  0.000000000    -0.115957074  0.200843543  0.000000000
     0.000000000  0.000000000 15.000000000     0.000000000  0.000000000  0.066666667

  length of vectors
     4.979000000  4.979000000 15.000000000     0.231914147  0.231914147  0.066666667


 FORCES acting on ions:
    Electron-Ion                     Ewald-Force                    Non-Local-Force
 -----------------------------------------------------------------------------------------------
   -.259E+02 -.149E+02 0.216E+03   0.288E+02 0.166E+02 -.216E+03   -.293E+01 -.169E+01 -.166E-01
   0.259E+02 0.150E+02 0.216E+03   -.287E+02 -.166E+02 -.216E+03   0.293E+01 0.169E+01 -.166E-01
   -.259E+02 0.149E+02 0.216E+03   0.288E+02 -.166E+02 -.216E+03   -.293E+01 0.169E+01 -.166E-01
   0.259E+02 -.150E+02 0.216E+03   -.287E+02 0.166E+02 -.216E+03   0.293E+01 -.169E+01 -.166E-01
   0.411E-01 0.299E+02 0.216E+03   -.365E-01 -.332E+02 -.216E+03   -.257E-02 0.338E+01 -.166E-01
   0.411E-01 -.299E+02 0.216E+03   -.365E-01 0.332E+02 -.216E+03   -.257E-02 -.338E+01 -.166E-01
   0.438E-04 0.675E-04 0.254E+03   0.206E-03 0.308E-03 -.255E+03   0.746E-17 -.506E-17 0.122E+01
   -.432E-04 0.672E-04 0.178E+03   -.206E-03 0.308E-03 -.177E+03   0.105E-16 -.673E-17 -.123E+01
   -.662E+00 0.115E+01 -.216E+03   0.671E+00 -.116E+01 0.216E+03   -.793E-02 0.137E-01 0.331E-01
   0.367E+00 0.637E+00 -.215E+03   -.371E+00 -.642E+00 0.215E+03   0.297E-02 0.515E-02 0.538E-01
   0.132E+01 0.457E-03 -.216E+03   -.134E+01 -.328E-05 0.216E+03   0.159E-01 0.156E-16 0.331E-01
   -.250E-03 0.461E-03 -.218E+03   -.498E-03 0.354E-05 0.218E+03   0.510E-18 0.199E-17 0.347E-02
   0.248E-03 0.458E-03 -.216E+03   0.500E-03 0.355E-05 0.216E+03   0.859E-17 -.639E-17 0.273E-01
   -.735E+00 0.454E-03 -.215E+03   0.741E+00 -.329E-05 0.215E+03   -.595E-02 -.153E-17 0.538E-01
   -.662E+00 -.115E+01 -.216E+03   0.671E+00 0.116E+01 0.216E+03   -.793E-02 -.137E-01 0.331E-01
   0.367E+00 -.636E+00 -.215E+03   -.371E+00 0.642E+00 0.215E+03   0.297E-02 -.515E-02 0.538E-01
 -----------------------------------------------------------------------------------------------
   -.910E-07 0.454E-02 -.185E+00   -.160E-13 -.103E-13 0.171E-12   -.918E-15 0.919E-15 0.180E+00
 
 
 POSITION                                       TOTAL-FORCE (eV/Angst)
 -----------------------------------------------------------------------------------
      2.88252      1.66438      1.52236        -0.180376     -0.101960     -0.040118
      1.42928      0.82535      1.52236         0.178488      0.105230     -0.040118
      2.88253      3.31461      1.52236        -0.180376      0.101960     -0.040118
      1.42928      4.15365      1.52236         0.178488     -0.105230     -0.040118
      0.00014      1.65047      1.52236         0.001888      0.207190     -0.040118
      0.00014      3.32853      1.52236         0.001888     -0.207190     -0.040118
      1.43731      2.48950      1.32683        -0.000000      0.000000     -0.102109
     -1.43731      2.48950      1.71636        -0.000000     -0.000000      0.003052
     -0.71860      1.24465      5.01853         0.000363     -0.000629      0.040801
      0.71865      1.24474      5.01699         0.000120      0.000207      0.044630
     -2.87474      2.48950      5.01853        -0.000726     -0.000000      0.040801
     -1.43731      2.48950      5.01939        -0.000000     -0.000000      0.042320
      1.43731      2.48950      5.01667        -0.000000      0.000000      0.041154
      2.87464      2.48950      5.01699        -0.000239      0.000000      0.044630
     -0.71860      3.73434      5.01853         0.000363      0.000629      0.040801
      0.71865      3.73426      5.01699         0.000120     -0.000207      0.044630
 -----------------------------------------------------------------------------------
    total drift:                               -0.000000      0.004540     -0.000686


--------------------------------------------------------------------------------------------------------



  FREE ENERGIE OF THE ION-ELECTRON SYSTEM (eV)
  ---------------------------------------------------
  free  energy   TOTEN  =      -140.18979008 eV

  energy  without entropy=     -140.18908944  energy(sigma->0) =     -140.18943976
 


--------------------------------------------------------------------------------------------------------


    POTLOK:  cpu time      0.0621: real time      0.0628


--------------------------------------------------------------------------------------------------------


 stress matrix after NEB project (eV)
      0.00000      0.00000      0.00000
      0.00000      0.00000      0.00000
      0.00000      0.00000      0.00000
  FORCES: max atom, RMS     0.211047    0.135124
  FORCE total and by dimension    0.540496    0.207190
  Stress total and by dimension    0.000000    0.000000



 total charge

# of ion       s       p       d       tot
------------------------------------------
    1        0.711   1.444   0.000   2.154
    2        0.711   1.444   0.000   2.154
    3        0.711   1.444   0.000   2.154
    4        0.711   1.444   0.000   2.154
    5        0.711   1.444   0.000   2.154
    6        0.711   1.444   0.000   2.154
    7        0.689   1.393   0.000   2.082
    8        0.689   1.393   0.000   2.082
    9        0.863   1.750   0.000   2.613
   10        0.863   1.750   0.000   2.613
   11        0.863   1.750   0.000   2.613
   12        0.863   1.750   0.000   2.614
   13        0.863   1.750   0.000   2.613
   14        0.863   1.750   0.000   2.613
   15        0.863   1.750   0.000   2.613
   16        0.863   1.750   0.000   2.613
--------------------------------------------------
tot         12.548  25.450   0.000  37.997
 



 total charge

# of ion       s       p       d       tot
------------------------------------------
    1        0.711   1.444   0.000   2.154
    2        0.711   1.444   0.000   2.154
    3        0.711   1.444   0.000   2.154
    4        0.711   1.444   0.000   2.154
    5        0.711   1.444   0.000   2.154
    6        0.711   1.444   0.000   2.154
    7        0.689   1.393   0.000   2.082
    8        0.689   1.393   0.000   2.082
    9        0.863   1.750   0.000   2.613
   10        0.863   1.750   0.000   2.613
   11        0.863   1.750   0.000   2.613
   12        0.863   1.750   0.000   2.614
   13        0.863   1.750   0.000   2.613
   14        0.863   1.750   0.000   2.613
   15        0.863   1.750   0.000   2.613
   16        0.863   1.750   0.000   2.613
--------------------------------------------------
tot         12.548  25.450   0.000  37.997
 



 total charge

# of ion       s       p       d       tot
------------------------------------------
    1        0.711   1.444   0.000   2.154
    2        0.711   1.444   0.000   2.154
    3        0.711   1.444   0.000   2.154
    4        0.711   1.444   0.000   2.154
    5        0.711   1.444   0.000   2.154
    6        0.711   1.444   0.000   2.154
    7        0.689   1.393   0.000   2.082
    8        0.689   1.393   0.000   2.082
    9        0.863   1.750   0.000   2.613
   10        0.863   1.750   0.000   2.613
   11        0.863   1.750   0.000   2.613
   12        0.863   1.750   0.000   2.614
   13        0.863   1.750   0.000   2.613
   14        0.863   1.750   0.000   2.613
   15        0.863   1.750   0.000   2.613
   16        0.863   1.750   0.000   2.613
--------------------------------------------------
tot         12.548  25.450   0.000  37.997
 



 total charge

# of ion       s       p       d       tot
------------------------------------------
    1        0.711   1.444   0.000   2.154
    2        0.711   1.444   0.000   2.154
    3        0.711   1.444   0.000   2.154
    4        0.711   1.444   0.000   2.154
    5        0.711   1.444   0.000   2.154
    6        0.711   1.444   0.000   2.154
    7        0.689   1.393   0.000   2.082
    8        0.689   1.393   0.000   2.082
    9        0.863   1.750   0.000   2.613
   10        0.863   1.750   0.000   2.613
   11        0.863   1.750   0.000   2.613
   12        0.863   1.750   0.000   2.614
   13        0.863   1.750   0.000   2.613
   14        0.863   1.750   0.000   2.613
   15        0.863   1.750   0.000   2.613
   16        0.863   1.750   0.000   2.613
--------------------------------------------------
tot         12.548  25.450   0.000  37.997
 



 total charge

# of ion       s       p       d       tot
------------------------------------------
    1        0.711   1.444   0.000   2.154
    2        0.711   1.444   0.000   2.154
    3        0.711   1.444   0.000   2.154
    4        0.711   1.444   0.000   2.154
    5        0.711   1.444   0.000   2.154
    6        0.711   1.444   0.000   2.154
    7        0.689   1.393   0.000   2.082
    8        0.689   1.393   0.000   2.082
    9        0.863   1.750   0.000   2.613
   10        0.863   1.750   0.000   2.613
   11        0.863   1.750   0.000   2.613
   12        0.863   1.750   0.000   2.614
   13        0.863   1.750   0.000   2.613
   14        0.863   1.750   0.000   2.613
   15        0.863   1.750   0.000   2.613
   16        0.863   1.750   0.000   2.613
--------------------------------------------------
tot         12.548  25.450   0.000  37.997
 
 writing wavefunctions
     LOOP+:  cpu time  45282.7413: real time  45652.3401
    4ORBIT:  cpu time      0.0000: real time      0.0000



 total charge

# of ion       s       p       d       tot
------------------------------------------
    1        0.711   1.444   0.000   2.154
    2        0.711   1.444   0.000   2.154
    3        0.711   1.444   0.000   2.154
    4        0.711   1.444   0.000   2.154
    5        0.711   1.444   0.000   2.154
    6        0.711   1.444   0.000   2.154
    7        0.689   1.393   0.000   2.082
    8        0.689   1.393   0.000   2.082
    9        0.863   1.750   0.000   2.613
   10        0.863   1.750   0.000   2.613
   11        0.863   1.750   0.000   2.613
   12        0.863   1.750   0.000   2.614
   13        0.863   1.750   0.000   2.613
   14        0.863   1.750   0.000   2.613
   15        0.863   1.750   0.000   2.613
   16        0.863   1.750   0.000   2.613
--------------------------------------------------
tot         12.548  25.450   0.000  37.997
 

 total amount of memory used by VASP MPI-rank0   204217. kBytes
=======================================================================

   base      :      30000. kBytes
   nonl-proj :      16257. kBytes
   fftplans  :       1088. kBytes
   grid      :       6496. kBytes
   one-center:         49. kBytes
   HF        :          9. kBytes
   nonlr-proj:       1593. kBytes
   wavefun   :       5529. kBytes
   fock_wrk  :     143196. kBytes
 
  
  
 General timing and accounting informations for this job:
 ========================================================
  
                  Total CPU time used (sec):    45292.012
                            User time (sec):    44948.938
                          System time (sec):      343.074
                         Elapsed time (sec):    45664.869
  
                   Maximum memory used (kb):     1142716.
                   Average memory used (kb):          N/A
  
                          Minor page faults:     68306435
                          Major page faults:         1822
                 Voluntary context switches:        58153
