Lattice                                 
           1
     4.196759    2.423000    0.000000
    -4.196759    2.423000    0.000000
     0.000000    0.000000   15.000000
   B    C 
     4    11
Direct configuration=     1
   0.00415361  0.00267210  0.12034134
   0.35695335  0.00285503  0.09748893
   0.00423858  0.35550699  0.09749256
   0.65142295  0.65006557  0.09747688
   0.32808646  0.32671938  0.10030508
   0.68027775  0.00278085  0.10027562
   0.00416530  0.67883808  0.10026559
   0.99999933  0.49999967  0.33426667
   0.16666633  0.33333267  0.33426667
   0.99999933  0.99999967  0.33426667
   0.16666633  0.83333267  0.33426667
   0.49999933  0.49999967  0.33426667
   0.66666633  0.33333267  0.33426667
   0.49999933  0.99999967  0.33426667
   0.66666633  0.83333267  0.33426667
Direct configuration=     2
   0.00418052  0.00275231  0.11923024
   0.35584324  0.00302731  0.09783609
   0.00396462  0.35417846  0.09783819
   0.65274460  0.65113229  0.09782755
   0.32470482  0.32300100  0.10030050
   0.68395757  0.00309843  0.10027903
   0.00389315  0.68224224  0.10027177
   0.00012375  0.49997675  0.33427287
   0.16687055  0.33393465  0.33433033
   0.99999912  0.99999368  0.33416448
   0.16705672  0.83312710  0.33433316
   0.50003815  0.50015920  0.33427569
   0.66666621  0.33333777  0.33421697
   0.49985467  0.99987436  0.33427242
   0.66606299  0.83293178  0.33433004
Direct configuration=     3
   0.00416611  0.00270936  0.11982514
   0.35643761  0.00293507  0.09765022
   0.00411130  0.35488978  0.09765313
   0.65203697  0.65056115  0.09763980
   0.32651540  0.32499187  0.10030295
   0.68198734  0.00292839  0.10027720
   0.00403886  0.68041960  0.10026846
   0.00005714  0.49998902  0.33426955
   0.16676121  0.33361234  0.33429625
   0.99999923  0.99999689  0.33421919
   0.16684770  0.83323716  0.33429756
   0.50001736  0.50007378  0.33427086
   0.66666628  0.33333504  0.33424358
   0.49993212  0.99994145  0.33426934
   0.66638603  0.83314642  0.33429611
Direct configuration=     4
   0.00418015  0.00276534  0.11891267
   0.35687919  0.00304616  0.09795911
   0.00391808  0.35519436  0.09796049
   0.65174728  0.65008939  0.09795207
   0.32661692  0.32488200  0.10026964
   0.68207621  0.00311500  0.10025161
   0.00386556  0.68033648  0.10024501
  -0.00007898  0.50000965  0.33428592
   0.16662282  0.33315681  0.33433612
   0.99999997  0.00000275  0.33415928
   0.16654296  0.83338279  0.33433955
   0.49998590  0.49990943  0.33428933
   0.66666935  0.33333221  0.33419756
   0.50008631  0.00007922  0.33428530
   0.66684894  0.83346576  0.33433567
Direct configuration=     5
   0.00420023  0.00284539  0.11760764
   0.35751075  0.00320503  0.09840090
   0.00364173  0.35562997  0.09840008
   0.65133296  0.64941466  0.09839869
   0.32676212  0.32472487  0.10022198
   0.68220331  0.00338188  0.10021501
   0.00361769  0.68021760  0.10021147
  -0.00027365  0.50003915  0.33430933
   0.16642490  0.33250530  0.33439314
   0.00000104  0.00001115  0.33407360
   0.16610712  0.83359106  0.33439961
   0.49994089  0.49967436  0.33431575
   0.66667375  0.33332817  0.33413175
   0.50030683  0.00027625  0.33430813
   0.66751099  0.83392249  0.33439225
Direct configuration=     6
   0.00420258  0.00285561  0.11736500
   0.35761817  0.00322329  0.09847297
   0.00360798  0.35571518  0.09847181
   0.65125248  0.64930136  0.09847151
   0.32682677  0.32475693  0.10022306
   0.68216752  0.00340837  0.10021797
   0.00359052  0.68015691  0.10021489
  -0.00023990  0.50003613  0.33431414
   0.16644301  0.33258515  0.33440023
   0.00000232  0.00001058  0.33406502
   0.16616611  0.83357183  0.33440708
   0.49994755  0.49971237  0.33432094
   0.66667323  0.33332901  0.33412263
   0.50027224  0.00024369  0.33431285
   0.66743010  0.83386093  0.33439926
Direct configuration=     7
   0.00420962  0.00288624  0.11663705
   0.35794046  0.00327806  0.09868917
   0.00350671  0.35597081  0.09868698
   0.65101105  0.64896147  0.09868995
   0.32702072  0.32485312  0.10022627
   0.68206014  0.00348781  0.10022682
   0.00350899  0.67997485  0.10022516
  -0.00013865  0.50002707  0.33432858
   0.16649737  0.33282472  0.33442147
   0.00000618  0.00000887  0.33403929
   0.16634306  0.83351414  0.33442951
   0.49996751  0.49982639  0.33433653
   0.66667164  0.33333154  0.33409526
   0.50016847  0.00014601  0.33432700
   0.66718741  0.83367625  0.33442029
Direct configuration=     8
   0.00422370  0.00294752  0.11518117
   0.35858502  0.00338759  0.09912157
   0.00330418  0.35648206  0.09911732
   0.65052818  0.64828168  0.09912684
   0.32740862  0.32504549  0.10023271
   0.68184537  0.00364669  0.10024453
   0.00334595  0.67961073  0.10024569
   0.00006384  0.50000895  0.33435747
   0.16660607  0.33330385  0.33446396
   0.00001391  0.00000545  0.33398782
   0.16669697  0.83339875  0.33447435
   0.50000742  0.50005443  0.33436770
   0.66666848  0.33333659  0.33404053
   0.49996092 -0.00004935  0.33435531
   0.66670203  0.83330690  0.33446236
Direct configuration=     9
   0.00425186  0.00307007  0.11226939
   0.35987415  0.00360666  0.09998637
   0.00289912  0.35750457  0.09997801
   0.64956243  0.64692210  0.10000062
   0.32818443  0.32543023  0.10024557
   0.68141584  0.00396446  0.10027995
   0.00301985  0.67888249  0.10028677
   0.00046884  0.49997272  0.33441524
   0.16682348  0.33426212  0.33454895
   0.00002935 -0.00000138  0.33388489
   0.16740479  0.83316797  0.33456405
   0.50008726  0.50051052  0.33443004
   0.66666215  0.33334669  0.33393106
   0.49954582 -0.00044007  0.33441192
   0.66573128  0.83256819  0.33454650
Direct configuration=    10
   0.00423348  0.00299007  0.11417011
   0.35903264  0.00346366  0.09942186
   0.00316353  0.35683711  0.09941618
   0.65019284  0.64780959  0.09943024
   0.32767801  0.32517908  0.10023717
   0.68169623  0.00375703  0.10025683
   0.00323271  0.67935786  0.10025996
   0.00020447  0.49999637  0.33437753
   0.16668156  0.33363659  0.33449347
   0.00001927  0.00000308  0.33395208
   0.16694275  0.83331862  0.33450550
   0.50003514  0.50021280  0.33438934
   0.66666628  0.33334009  0.33400252
   0.49981679 -0.00018502  0.33437497
   0.66636496  0.83305039  0.33449158
Direct configuration=    11
   0.00423090  0.00298207  0.11363374
   0.35902759  0.00343469  0.09950983
   0.00320208  0.35686995  0.09950401
   0.65016703  0.64781435  0.09951862
   0.32771011  0.32528463  0.10031121
   0.68159361  0.00367769  0.10033330
   0.00329173  0.67932699  0.10033680
   0.00013493  0.50000626  0.33438657
   0.16673178  0.33363515  0.33448784
   0.00001198  0.00000263  0.33398053
   0.16690606  0.83327806  0.33449955
   0.50001831  0.50013744  0.33439797
   0.66667299  0.33334091  0.33400956
   0.49988539 -0.00012145  0.33438389
   0.66637619  0.83309796  0.33448592
Direct configuration=    12
   0.00422315  0.00295809  0.11202463
   0.35901243  0.00334777  0.09977376
   0.00331771  0.35696849  0.09976749
   0.65008960  0.64782864  0.09978373
   0.32780642  0.32560128  0.10053332
   0.68128577  0.00343966  0.10056271
   0.00346877  0.67923436  0.10056734
  -0.00007369  0.50003590  0.33441370
   0.16688241  0.33363083  0.33447093
  -0.00000989  0.00000129  0.33406588
   0.16679598  0.83315638  0.33448171
   0.49996779  0.49991135  0.33442385
   0.66669312  0.33334336  0.33403068
   0.50009119  0.00006927  0.33441067
   0.66640989  0.83324067  0.33446893
Direct configuration=    13
   0.00420766  0.00291011  0.10880642
   0.35898211  0.00317394  0.10030161
   0.00354898  0.35716556  0.10029445
   0.64993475  0.64785721  0.10031395
   0.32799904  0.32623457  0.10097754
   0.68067009  0.00296360  0.10102152
   0.00382286  0.67904912  0.10102841
  -0.00049093  0.50009520  0.33446796
   0.16718367  0.33362219  0.33443712
  -0.00005363 -0.00000141  0.33423658
   0.16657584  0.83291304  0.33444603
   0.49986676  0.49945917  0.33447562
   0.66673337  0.33334825  0.33407293
   0.50050280  0.00045071  0.33446422
   0.66647730  0.83352609  0.33443497
Direct configuration=    14
   0.00420600  0.00289545  0.10785948
   0.35895790  0.00310518  0.10043726
   0.00366451  0.35721899  0.10043063
   0.64986119  0.64789383  0.10044904
   0.32794624  0.32631838  0.10112608
   0.68058374  0.00284498  0.10117157
   0.00393378  0.67906970  0.10117842
  -0.00016901  0.50000374  0.33446620
   0.16682242  0.33345985  0.33443450
   0.00000682  0.00000896  0.33429594
   0.16667835  0.83321585  0.33444213
   0.50001980  0.49983840  0.33447231
   0.66668771  0.33334381  0.33412085
   0.50018339  0.00018868  0.33446238
   0.66657783  0.83336152  0.33443254
Direct configuration=    15
   0.00420474  0.00288441  0.10714618
   0.35893967  0.00305339  0.10053944
   0.00375154  0.35725924  0.10053320
   0.64980579  0.64792141  0.10055080
   0.32790647  0.32638152  0.10123798
   0.68051870  0.00275563  0.10128460
   0.00401732  0.67908521  0.10129142
   0.00007347  0.49993485  0.33446488
   0.16655030  0.33333756  0.33443253
   0.00005236  0.00001677  0.33434065
   0.16675556  0.83344395  0.33443919
   0.50013508  0.50012405  0.33446981
   0.66665332  0.33334048  0.33415695
   0.49994278 -0.00000870  0.33446100
   0.66665355  0.83323756  0.33443071
Direct configuration=    16
   0.00420351  0.00287570  0.10690393
   0.35898138  0.00303582  0.10057619
   0.00379711  0.35731210  0.10057080
   0.64971860  0.64789243  0.10058620
   0.32783803  0.32630446  0.10127118
   0.68059141  0.00279414  0.10131505
   0.00401006  0.67912364  0.10132113
   0.00011068  0.49998985  0.33444787
   0.16661858  0.33336760  0.33444442
   0.00002564  0.00001200  0.33435366
   0.16676549  0.83340697  0.33445037
   0.50004920  0.50012529  0.33445202
   0.66668215  0.33334569  0.33419944
   0.49991167 -0.00007565  0.33444423
   0.66665715  0.83325730  0.33444284
Direct configuration=    17
   0.00420149  0.00286142  0.10650646
   0.35904983  0.00300699  0.10063648
   0.00387187  0.35739884  0.10063248
   0.64957556  0.64784488  0.10064428
   0.32772572  0.32617802  0.10132566
   0.68071071  0.00285731  0.10136503
   0.00399815  0.67918668  0.10136990
   0.00017172  0.50008010  0.33441998
   0.16673061  0.33341690  0.33446392
  -0.00001819  0.00000416  0.33437500
   0.16678178  0.83334630  0.33446871
   0.49990829  0.50012733  0.33442282
   0.66672945  0.33335424  0.33426917
   0.49986063 -0.00018551  0.33441672
   0.66666305  0.83328968  0.33446273
Direct configuration=    18
   0.00418726  0.00282269  0.10621651
   0.35915023  0.00299272  0.10069244
   0.00391745  0.35750883  0.10068992
   0.64942153  0.64776259  0.10069757
   0.32770973  0.32610402  0.10134909
   0.68079262  0.00295525  0.10138198
   0.00394812  0.67918416  0.10138531
   0.00006513  0.50005053  0.33440085
   0.16674239  0.33342734  0.33448053
   0.00001518  0.00001082  0.33439285
   0.16672068  0.83329643  0.33448439
   0.49997920  0.50002534  0.33440261
   0.66669364  0.33334851  0.33432751
   0.50000387 -0.00003748  0.33439803
   0.66661363  0.83331559  0.33447976
Direct configuration=    19
   0.00418150  0.00280702  0.10609916
   0.35919087  0.00298694  0.10071508
   0.00393590  0.35755334  0.10071316
   0.64935920  0.64772929  0.10071913
   0.32770325  0.32607407  0.10135857
   0.68082577  0.00299489  0.10138884
   0.00392788  0.67918314  0.10139155
   0.00002200  0.50003857  0.33439311
   0.16674716  0.33343157  0.33448725
   0.00002868  0.00001352  0.33440008
   0.16669595  0.83327624  0.33449073
   0.50000789  0.49998406  0.33439443
   0.66667914  0.33334619  0.33435111
   0.50006184  0.00002243  0.33439046
   0.66659362  0.83332607  0.33448665
Direct configuration=    20
   0.00416242  0.00276248  0.10594545
   0.35924810  0.00299309  0.10075769
   0.00393613  0.35761032  0.10075675
   0.64929390  0.64767987  0.10075969
   0.32778162  0.32609983  0.10135299
   0.68081735  0.00305777  0.10137742
   0.00387974  0.67912212  0.10137885
  -0.00000435  0.49996934  0.33440015
   0.16667841  0.33340582  0.33448877
   0.00003134  0.00001449  0.33441554
   0.16674049  0.83334648  0.33449207
   0.50007969  0.50002698  0.33440124
   0.66667819  0.33334584  0.33436638
   0.50002035  0.00004994  0.33439788
   0.66661730  0.83328296  0.33448846
Direct configuration=    21
   0.00415020  0.00273397  0.10584703
   0.35928474  0.00299702  0.10078497
   0.00393627  0.35764681  0.10078466
   0.64925210  0.64764822  0.10078565
   0.32783179  0.32611632  0.10134941
   0.68081196  0.00309803  0.10137011
   0.00384892  0.67908306  0.10137071
  -0.00002122  0.49992503  0.33440466
   0.16663439  0.33338933  0.33448975
   0.00003304  0.00001512  0.33442544
   0.16676900  0.83339145  0.33449292
   0.50012566  0.50005446  0.33440560
   0.66667757  0.33334561  0.33437616
   0.49999378  0.00006755  0.33440262
   0.66663246  0.83325536  0.33448962
Direct configuration=    22
   0.00413525  0.00269923  0.10568513
   0.35930390  0.00302014  0.10083419
   0.00391835  0.35764861  0.10083491
   0.64924675  0.64763545  0.10083252
   0.32789645  0.32613803  0.10133446
   0.68080200  0.00314617  0.10134774
   0.00380667  0.67903164  0.10134675
   0.00003864  0.49997662  0.33442665
   0.16666780  0.33339365  0.33448744
   0.00001673  0.00001223  0.33444237
   0.16677115  0.83337881  0.33449078
   0.50005529  0.50007541  0.33442779
   0.66669673  0.33334925  0.33437597
   0.49995430 -0.00001061  0.33442503
   0.66665065  0.83327270  0.33448760
Direct configuration=    23
   0.00412396  0.00267302  0.10556298
   0.35931836  0.00303759  0.10087133
   0.00390483  0.35764998  0.10087283
   0.64924271  0.64762581  0.10086788
   0.32794525  0.32615440  0.10132317
   0.68079449  0.00318248  0.10133087
   0.00377480  0.67899284  0.10132867
   0.00008381  0.50001556  0.33444325
   0.16669301  0.33339691  0.33448571
   0.00000442  0.00001005  0.33445513
   0.16677277  0.83336928  0.33448917
   0.50000220  0.50009121  0.33444453
   0.66671119  0.33335200  0.33437582
   0.49992451 -0.00006958  0.33444193
   0.66666438  0.83328578  0.33448608
Direct configuration=    24
   0.00413084  0.00268738  0.10541295
   0.35928343  0.00307007  0.10090786
   0.00388208  0.35757868  0.10091006
   0.64930456  0.64766282  0.10090256
   0.32790378  0.32611877  0.10131345
   0.68081808  0.00318153  0.10131449
   0.00377472  0.67901234  0.10131086
   0.00007622  0.50004477  0.33446621
   0.16671517  0.33340740  0.33449078
   0.00003205  0.00001551  0.33446101
   0.16671011  0.83331526  0.33449466
   0.50000600  0.50003374  0.33446814
   0.66668348  0.33334859  0.33436992
   0.50001575 -0.00002754  0.33446513
   0.66662439  0.83331801  0.33449126
Direct configuration=    25
   0.00413268  0.00269121  0.10537288
   0.35927411  0.00307875  0.10091761
   0.00387600  0.35755964  0.10092000
   0.64932107  0.64767271  0.10091183
   0.32789271  0.32610925  0.10131085
   0.68082438  0.00318127  0.10131011
   0.00377469  0.67901754  0.10130611
   0.00007420  0.50005257  0.33447234
   0.16672108  0.33341020  0.33449214
   0.00003943  0.00001697  0.33446258
   0.16669338  0.83330084  0.33449612
   0.50000702  0.50001840  0.33447444
   0.66667608  0.33334768  0.33436834
   0.50004011 -0.00001631  0.33447132
   0.66661371  0.83332662  0.33449265
Direct configuration=    26
   0.00414887  0.00272833  0.10523992
   0.35923989  0.00310148  0.10093503
   0.00385588  0.35749667  0.10093766
   0.64937946  0.64770105  0.10092829
   0.32783255  0.32608993  0.10131139
   0.68082518  0.00313773  0.10130579
   0.00380668  0.67905049  0.10130080
   0.00001272  0.49999064  0.33448759
   0.16669720  0.33341108  0.33450836
   0.00002886  0.00001624  0.33445740
   0.16674282  0.83334068  0.33451283
   0.50005660  0.50002780  0.33449047
   0.66668882  0.33334981  0.33436826
   0.50001876  0.00003206  0.33448667
   0.66662640  0.83329337  0.33450887
Direct configuration=    27
   0.00415429  0.00274076  0.10519541
   0.35922844  0.00310909  0.10094086
   0.00384915  0.35747559  0.10094357
   0.64939900  0.64771053  0.10093380
   0.32781241  0.32608346  0.10131156
   0.68082545  0.00312316  0.10130435
   0.00381739  0.67906153  0.10129902
  -0.00000786  0.49996991  0.33449270
   0.16668920  0.33341137  0.33451379
   0.00002532  0.00001599  0.33445567
   0.16675937  0.83335401  0.33451842
   0.50007319  0.50003095  0.33449583
   0.66669308  0.33335052  0.33436824
   0.50001161  0.00004825  0.33449181
   0.66663064  0.83328223  0.33451430
Direct configuration=    28
   0.00416346  0.00276614  0.10505591
   0.35923165  0.00310990  0.10094524
   0.00383253  0.35747827  0.10094779
   0.64940948  0.64769321  0.10093801
   0.32781411  0.32613504  0.10132005
   0.68076663  0.00305596  0.10130939
   0.00385971  0.67905993  0.10130341
   0.00003217  0.49998355  0.33450338
   0.16668539  0.33340635  0.33453855
   0.00001808  0.00001435  0.33444827
   0.16677642  0.83337079  0.33454356
   0.50005136  0.50006511  0.33450716
   0.66670348  0.33335245  0.33437722
   0.49996827 -0.00000067  0.33450241
   0.66664792  0.83327696  0.33453898
Direct configuration=    29
   0.00417414  0.00279571  0.10489341
   0.35923540  0.00311084  0.10095035
   0.00381317  0.35748139  0.10095270
   0.64942168  0.64767304  0.10094290
   0.32781608  0.32619512  0.10132993
   0.68069811  0.00297769  0.10131527
   0.00390902  0.67905807  0.10130852
   0.00007880  0.49999944  0.33451581
   0.16668095  0.33340051  0.33456740
   0.00000966  0.00001243  0.33443966
   0.16679629  0.83339034  0.33457285
   0.50002592  0.50010490  0.33452034
   0.66671560  0.33335469  0.33438769
   0.49991779 -0.00005765  0.33451476
   0.66666805  0.83327081  0.33456773
Direct configuration=    30
   0.00417394  0.00280057  0.10478821
   0.35924903  0.00310068  0.10095172
   0.00380504  0.35750690  0.10095381
   0.64941094  0.64764991  0.10094445
   0.32783190  0.32622995  0.10133584
   0.68066348  0.00294392  0.10131958
   0.00392647  0.67905552  0.10131256
   0.00008644  0.50002112  0.33452514
   0.16669009  0.33339921  0.33458327
   0.00002466  0.00001564  0.33444180
   0.16675869  0.83336425  0.33458878
   0.50002266  0.50007978  0.33452991
   0.66670119  0.33335323  0.33439679
   0.49996185 -0.00004604  0.33452395
   0.66665427  0.83329269  0.33458351
Direct configuration=    31
   0.00417366  0.00280707  0.10464768
   0.35926723  0.00308712  0.10095355
   0.00379418  0.35754097  0.10095529
   0.64939660  0.64761900  0.10094652
   0.32785304  0.32627646  0.10134373
   0.68061722  0.00289880  0.10132534
   0.00394979  0.67905212  0.10131796
   0.00009665  0.50005008  0.33453760
   0.16670231  0.33339747  0.33460448
   0.00004470  0.00001993  0.33444465
   0.16670847  0.83332941  0.33461006
   0.50001830  0.50004622  0.33454270
   0.66668194  0.33335128  0.33440895
   0.50002070 -0.00003054  0.33453623
   0.66663587  0.83332193  0.33460458
Direct configuration=    32
   0.00416896  0.00280211  0.10454435
   0.35927908  0.00306969  0.10095625
   0.00379519  0.35756966  0.10095767
   0.64937685  0.64760293  0.10094971
   0.32785500  0.32626605  0.10134468
   0.68062806  0.00290377  0.10132608
   0.00394130  0.67906278  0.10131872
   0.00005336  0.50002715  0.33455057
   0.16670995  0.33340588  0.33461344
   0.00003969  0.00002034  0.33446082
   0.16672168  0.83332994  0.33461878
   0.50003542  0.50002967  0.33455556
   0.66668865  0.33335285  0.33442022
   0.50003230  0.00000724  0.33454905
   0.66663518  0.83331728  0.33461342
Direct configuration=    33
   0.00415865  0.00279122  0.10431755
   0.35930510  0.00303143  0.10096217
   0.00379742  0.35763266  0.10096291
   0.64933350  0.64756763  0.10095672
   0.32785931  0.32624319  0.10134677
   0.68065184  0.00291467  0.10132771
   0.00392267  0.67908620  0.10132037
  -0.00004167  0.49997681  0.33457905
   0.16672671  0.33342435  0.33463311
   0.00002868  0.00002122  0.33449631
   0.16675067  0.83333111  0.33463792
   0.50007298  0.49999334  0.33458380
   0.66670338  0.33335627  0.33444495
   0.50005775  0.00009016  0.33457719
   0.66663366  0.83330706  0.33463282
Direct configuration=    34
   0.00415675  0.00279033  0.10422675
   0.35930961  0.00301894  0.10096701
   0.00380336  0.35764664  0.10096752
   0.64931701  0.64756192  0.10096206
   0.32785360  0.32621707  0.10134311
   0.68067515  0.00293651  0.10132454
   0.00390619  0.67909131  0.10131735
  -0.00002532  0.49997628  0.33459137
   0.16672006  0.33342472  0.33463924
   0.00002786  0.00002098  0.33451565
   0.16676265  0.83334211  0.33464373
   0.50007284  0.50001241  0.33459589
   0.66670641  0.33335691  0.33445688
   0.50003754  0.00007275  0.33458938
   0.66663695  0.83329846  0.33463885
Direct configuration=    35
   0.00415107  0.00278765  0.10395437
   0.35932313  0.00298147  0.10098155
   0.00382120  0.35768861  0.10098135
   0.64926753  0.64754479  0.10097809
   0.32783646  0.32613869  0.10133214
   0.68074509  0.00300202  0.10131504
   0.00385674  0.67910664  0.10130829
   0.00002374  0.49997468  0.33462832
   0.16670009  0.33342583  0.33465762
   0.00002541  0.00002028  0.33457366
   0.16679857  0.83337508  0.33466116
   0.50007242  0.50006964  0.33463216
   0.66671548  0.33335884  0.33449268
   0.49997693  0.00002049  0.33462595
   0.66664682  0.83327265  0.33465695
Direct configuration=    36
   0.00413969  0.00278229  0.10340960
   0.35935017  0.00290652  0.10101063
   0.00385688  0.35777253  0.10100900
   0.64916857  0.64751052  0.10101014
   0.32780219  0.32598193  0.10131019
   0.68088496  0.00313303  0.10129604
   0.00375785  0.67913731  0.10129017
   0.00012185  0.49997148  0.33470224
   0.16666015  0.33342804  0.33469440
   0.00002049  0.00001886  0.33468967
   0.16687042  0.83344104  0.33469602
   0.50007156  0.50018408  0.33470470
   0.66673361  0.33336269  0.33456427
   0.49985570 -0.00008402  0.33469911
   0.66666656  0.83322103  0.33469316
Direct configuration=    37
   0.00414812  0.00278626  0.10381344
   0.35933012  0.00296208  0.10098907
   0.00383043  0.35771032  0.10098850
   0.64924193  0.64753592  0.10098638
   0.32782760  0.32609814  0.10132646
   0.68078127  0.00303591  0.10131013
   0.00383116  0.67911458  0.10130360
   0.00004912  0.49997385  0.33464745
   0.16668975  0.33342640  0.33466714
   0.00002414  0.00001991  0.33460367
   0.16681716  0.83339214  0.33467018
   0.50007219  0.50009924  0.33465093
   0.66672017  0.33335984  0.33451120
   0.49994557 -0.00000655  0.33464488
   0.66665193  0.83325929  0.33466632
Direct configuration=    38
   0.00414923  0.00279003  0.10365797
   0.35932783  0.00295553  0.10100260
   0.00384307  0.35770937  0.10100177
   0.64922267  0.64753736  0.10100064
   0.32783532  0.32607952  0.10131149
   0.68079398  0.00307433  0.10129691
   0.00380608  0.67908924  0.10129079
   0.00008770  0.50001342  0.33466581
   0.16669522  0.33341163  0.33468200
   0.00003909  0.00002302  0.33463491
   0.16677246  0.83337198  0.33468455
   0.50005197  0.50008836  0.33466888
   0.66670756  0.33335881  0.33453686
   0.49997468 -0.00002580  0.33466309
   0.66665384  0.83329055  0.33468107
Direct configuration=    39
   0.00415055  0.00279454  0.10347200
   0.35932508  0.00294769  0.10101878
   0.00385818  0.35770823  0.10101764
   0.64919962  0.64753908  0.10101770
   0.32784455  0.32605726  0.10129358
   0.68080918  0.00312028  0.10128110
   0.00377607  0.67905893  0.10127547
   0.00013384  0.50006076  0.33468778
   0.16670176  0.33339396  0.33469978
   0.00005697  0.00002674  0.33467228
   0.16671898  0.83334786  0.33470175
   0.50002777  0.50007533  0.33469035
   0.66669247  0.33335758  0.33456756
   0.50000951 -0.00004883  0.33468488
   0.66665614  0.83332794  0.33469871
Direct configuration=    40
   0.00414963  0.00278946  0.10333369
   0.35931177  0.00295926  0.10103557
   0.00386574  0.35768486  0.10103440
   0.64920272  0.64755367  0.10103489
   0.32787330  0.32608768  0.10127263
   0.68077838  0.00313000  0.10126255
   0.00376957  0.67901337  0.10125745
   0.00008350  0.50004434  0.33469995
   0.16671941  0.33339822  0.33472064
   0.00004838  0.00002727  0.33469167
   0.16672593  0.83334340  0.33472244
   0.50003465  0.50004761  0.33470231
   0.66670368  0.33336030  0.33459451
   0.50002866 -0.00000738  0.33469705
   0.66666534  0.83333525  0.33471957
Direct configuration=    41
   0.00414823  0.00278173  0.10312291
   0.35929148  0.00297688  0.10106117
   0.00387728  0.35764926  0.10105996
   0.64920744  0.64757590  0.10106109
   0.32791712  0.32613404  0.10124072
   0.68073144  0.00314481  0.10123429
   0.00375967  0.67894396  0.10122998
   0.00000679  0.50001933  0.33471849
   0.16674633  0.33340472  0.33475244
   0.00003529  0.00002807  0.33472121
   0.16673651  0.83333661  0.33475397
   0.50004514  0.50000537  0.33472054
   0.66672075  0.33336446  0.33463560
   0.50005784  0.00005580  0.33471560
   0.66667937  0.83334639  0.33475136
Direct configuration=    42
   0.00413749  0.00275342  0.10295431
   0.35927084  0.00300337  0.10108074
   0.00387431  0.35761286  0.10107973
   0.64923780  0.64760363  0.10108073
   0.32792644  0.32617584  0.10121292
   0.68069503  0.00311626  0.10120989
   0.00377485  0.67893117  0.10120630
   0.00003396  0.49999558  0.33473474
   0.16671569  0.33342322  0.33478284
   0.00004355  0.00002883  0.33473654
   0.16677871  0.83336619  0.33478463
   0.50007844  0.50005506  0.33473681
   0.66671785  0.33336441  0.33466525
   0.50001817  0.00003743  0.33473201
   0.66665755  0.83330006  0.33478189
Direct configuration=    43
   0.00413514  0.00274721  0.10291735
   0.35926631  0.00300918  0.10108503
   0.00387366  0.35760488  0.10108407
   0.64924446  0.64760971  0.10108503
   0.32792848  0.32618501  0.10120683
   0.68068704  0.00311000  0.10120454
   0.00377817  0.67892836  0.10120111
   0.00003992  0.49999037  0.33473831
   0.16670898  0.33342727  0.33478950
   0.00004535  0.00002900  0.33473990
   0.16678796  0.83337268  0.33479135
   0.50008574  0.50006596  0.33474037
   0.66671721  0.33336440  0.33467175
   0.50000947  0.00003340  0.33473560
   0.66665276  0.83328991  0.33478858
Direct configuration=    44
   0.00412615  0.00272675  0.10284316
   0.35926974  0.00302594  0.10108829
   0.00386121  0.35759896  0.10108762
   0.64926164  0.64761219  0.10108790
   0.32789235  0.32618263  0.10119714
   0.68069164  0.00307096  0.10119642
   0.00380265  0.67897196  0.10119331
   0.00009133  0.50002846  0.33475156
   0.16671065  0.33341580  0.33480297
   0.00005354  0.00002995  0.33474326
   0.16676242  0.83336385  0.33480538
   0.50005867  0.50007480  0.33475389
   0.66671065  0.33336380  0.33467713
   0.50001004 -0.00000758  0.33474905
   0.66665798  0.83330886  0.33480224
Direct configuration=    45
   0.00412318  0.00271998  0.10281863
   0.35927087  0.00303148  0.10108936
   0.00385709  0.35759701  0.10108880
   0.64926731  0.64761301  0.10108885
   0.32788041  0.32618184  0.10119394
   0.68069317  0.00305805  0.10119374
   0.00381074  0.67898638  0.10119074
   0.00010833  0.50004106  0.33475595
   0.16671121  0.33341201  0.33480743
   0.00005624  0.00003027  0.33474437
   0.16675398  0.83336093  0.33481002
   0.50004972  0.50007772  0.33475835
   0.66670848  0.33336360  0.33467891
   0.50001023 -0.00002113  0.33475350
   0.66665971  0.83331512  0.33480676
Direct configuration=    46
   0.00412084  0.00271578  0.10276163
   0.35929398  0.00304523  0.10108609
   0.00384223  0.35760834  0.10108592
   0.64926113  0.64759059  0.10108496
   0.32784396  0.32617632  0.10118970
   0.68069671  0.00302398  0.10119056
   0.00383681  0.67902316  0.10118775
   0.00007799  0.50003724  0.33477150
   0.16672534  0.33340611  0.33481681
   0.00004749  0.00003016  0.33474661
   0.16675262  0.83335830  0.33482012
   0.50004372  0.50005701  0.33477425
   0.66671863  0.33336587  0.33467775
   0.50002155 -0.00000007  0.33476929
   0.66667764  0.83332931  0.33481640
Direct configuration=    47
   0.00411954  0.00271345  0.10273004
   0.35930679  0.00305285  0.10108428
   0.00383399  0.35761463  0.10108433
   0.64925771  0.64757817  0.10108280
   0.32782377  0.32617327  0.10118736
   0.68069868  0.00300510  0.10118880
   0.00385126  0.67904354  0.10118609
   0.00006119  0.50003512  0.33478012
   0.16673316  0.33340284  0.33482201
   0.00004264  0.00003010  0.33474784
   0.16675187  0.83335685  0.33482572
   0.50004039  0.50004553  0.33478305
   0.66672426  0.33336713  0.33467711
   0.50002782  0.00001160  0.33477804
   0.66668758  0.83333717  0.33482173
Direct configuration=    48
   0.00412489  0.00272757  0.10267485
   0.35933736  0.00306075  0.10107703
   0.00382134  0.35763320  0.10107753
   0.64923173  0.64754064  0.10107475
   0.32781597  0.32618234  0.10118460
   0.68068463  0.00298975  0.10118673
   0.00386808  0.67904199  0.10118413
   0.00005406  0.50000892  0.33479654
   0.16671351  0.33341708  0.33483165
   0.00005307  0.00003196  0.33475169
   0.16677100  0.83336870  0.33483602
   0.50007754  0.50005931  0.33479977
   0.66671654  0.33336630  0.33467767
   0.50002655  0.00003003  0.33479472
   0.66666440  0.83330880  0.33483164
Direct configuration=    49
   0.00412513  0.00272819  0.10267244
   0.35933870  0.00306110  0.10107671
   0.00382078  0.35763401  0.10107724
   0.64923059  0.64753899  0.10107440
   0.32781563  0.32618273  0.10118448
   0.68068402  0.00298908  0.10118664
   0.00386882  0.67904192  0.10118404
   0.00005375  0.50000777  0.33479726
   0.16671265  0.33341771  0.33483207
   0.00005352  0.00003204  0.33475186
   0.16677184  0.83336922  0.33483647
   0.50007917  0.50005992  0.33480050
   0.66671620  0.33336627  0.33467770
   0.50002649  0.00003083  0.33479545
   0.66666338  0.83330755  0.33483208
Direct configuration=    50
   0.00412999  0.00274229  0.10263643
   0.35934528  0.00305735  0.10107027
   0.00381620  0.35763912  0.10107108
   0.64921743  0.64752416  0.10106742
   0.32783304  0.32619093  0.10118186
   0.68067222  0.00299950  0.10118410
   0.00386321  0.67901878  0.10118149
   0.00007856  0.50002271  0.33480649
   0.16671720  0.33342224  0.33484006
   0.00005514  0.00003195  0.33475677
   0.16677096  0.83336496  0.33484473
   0.50006714  0.50006990  0.33480980