Lattice                                 
           1
     4.364768    2.520000    0.000000
    -4.364768    2.520000    0.000000
     0.000000    0.000000   15.000000
   B    C 
     2    14
Direct configuration=     1
   0.33833034  0.66916432  0.10000000
   0.67165522  0.33584146  0.10000000
   0.16373946  0.31999962  0.10000000
   0.32250218  0.16126397  0.10000000
   0.16376430  0.84376384  0.10000000
   0.84623863  0.16123684  0.10000000
   0.68749850  0.84373000  0.10000000
   0.84626736  0.68499594  0.10000000
   0.16666600  0.33333300  0.32880000
   0.33333300  0.16666600  0.32880000
   0.16666600  0.83333300  0.32880000
   0.33333300  0.66666600  0.32880000
   0.66666600  0.33333300  0.32880000
   0.83333300  0.16666600  0.32880000
   0.66666600  0.83333300  0.32880000
   0.83333300  0.66666600  0.32880000
Direct configuration=     2
   0.33832830  0.66916297  0.10014655
   0.67167622  0.33581245  0.10014654
   0.16707917  0.32668911  0.09994687
   0.32918500  0.16460155  0.09994652
   0.16710976  0.84040820  0.09994689
   0.84288496  0.16457928  0.09994725
   0.68083326  0.84041685  0.09994744
   0.84290982  0.67833070  0.09994724
   0.16636085  0.33271907  0.32887109
   0.33271849  0.16635982  0.32887169
   0.16636089  0.83363969  0.32887108
   0.33332700  0.66666409  0.32860119
   0.66666154  0.33332976  0.32860119
   0.83363933  0.16636171  0.32886973
   0.66727812  0.83363803  0.32886898
   0.83363930  0.66727870  0.32886974
Direct configuration=     3
   0.33832979  0.66916396  0.10003959
   0.67166089  0.33583363  0.10003959
   0.16464161  0.32180664  0.09998565
   0.32430740  0.16216554  0.09998555
   0.16466800  0.84285739  0.09998565
   0.84533271  0.16213973  0.09998575
   0.68569803  0.84283503  0.09998580
   0.84536039  0.68319548  0.09998575
   0.16658357  0.33316716  0.32881920
   0.33316700  0.16658329  0.32881936
   0.16658358  0.83341585  0.32881920
   0.33333138  0.66666548  0.32874630
   0.66666479  0.33333212  0.32874630
   0.83341575  0.16658380  0.32881884
   0.66683135  0.83341540  0.32881863
   0.83341574  0.66683151  0.32881884
Direct configuration=     4
   0.33833486  0.66916456  0.10013925
   0.67166479  0.33583043  0.10013924
   0.16463557  0.32179324  0.09994950
   0.32429616  0.16215412  0.09994917
   0.16465377  0.84286028  0.09994951
   0.84535016  0.16214150  0.09994996
   0.68570637  0.84284923  0.09995010
   0.84536640  0.68320855  0.09994996
   0.16654747  0.33309674  0.32886512
   0.33309596  0.16654767  0.32886570
   0.16654746  0.83345041  0.32886512
   0.33333010  0.66666474  0.32861830
   0.66666341  0.33333153  0.32861830
   0.83344972  0.16654829  0.32886383
   0.66690007  0.83344987  0.32886311
   0.83344973  0.66690082  0.32886383
Direct configuration=     5
   0.33833663  0.66916478  0.10017417
   0.67166616  0.33582931  0.10017415
   0.16463345  0.32178854  0.09993684
   0.32429222  0.16215012  0.09993642
   0.16464879  0.84286130  0.09993684
   0.84535627  0.16214212  0.09993742
   0.68570929  0.84285420  0.09993759
   0.84536850  0.68321314  0.09993742
   0.16653482  0.33307207  0.32888121
   0.33307107  0.16653519  0.32888194
   0.16653481  0.83346252  0.32888121
   0.33332966  0.66666448  0.32857345
   0.66666293  0.33333133  0.32857345
   0.83346162  0.16653585  0.32887959
   0.66692415  0.83346195  0.32887869
   0.83346164  0.66692511  0.32887959
Direct configuration=     6
   0.33831979  0.66916568  0.10023971
   0.67166762  0.33583698  0.10023970
   0.16467386  0.32180433  0.09991243
   0.32429607  0.16215694  0.09991169
   0.16466783  0.84285352  0.09991243
   0.84533579  0.16213764  0.09991350
   0.68572824  0.84284841  0.09991380
   0.84533454  0.68320608  0.09991346
   0.16662517  0.33325477  0.32889506
   0.33325305  0.16662661  0.32889611
   0.16662519  0.83336939  0.32889506
   0.33332841  0.66666430  0.32854002
   0.66666209  0.33333055  0.32854002
   0.83336769  0.16662703  0.32889276
   0.66673899  0.83336899  0.32889150
   0.83336767  0.66674078  0.32889275
Direct configuration=     7
   0.33832983  0.66916514  0.10020064
   0.67166675  0.33583241  0.10020063
   0.16464977  0.32179492  0.09992698
   0.32429377  0.16215287  0.09992643
   0.16465648  0.84285816  0.09992698
   0.84534800  0.16214031  0.09992776
   0.68571695  0.84285186  0.09992798
   0.84535478  0.68321029  0.09992774
   0.16657131  0.33314586  0.32888681
   0.33314457  0.16657211  0.32888766
   0.16657131  0.83342491  0.32888681
   0.33332915  0.66666441  0.32855995
   0.66666259  0.33333101  0.32855995
   0.83342368  0.16657268  0.32888491
   0.66684936  0.83342440  0.32888386
   0.83342369  0.66685066  0.32888491
Direct configuration=     8
   0.33832998  0.66916513  0.10020007
   0.67166674  0.33583234  0.10020005
   0.16464942  0.32179478  0.09992719
   0.32429374  0.16215281  0.09992665
   0.16465631  0.84285822  0.09992720
   0.84534818  0.16214035  0.09992797
   0.68571678  0.84285191  0.09992819
   0.84535508  0.68321035  0.09992795
   0.16657052  0.33314426  0.32888668
   0.33314298  0.16657131  0.32888754
   0.16657052  0.83342572  0.32888668
   0.33332916  0.66666441  0.32856024
   0.66666259  0.33333102  0.32856024
   0.83342450  0.16657188  0.32888479
   0.66685099  0.83342522  0.32888375
   0.83342451  0.66685228  0.32888479
Direct configuration=     9
   0.33832991  0.66916514  0.10020035
   0.67166674  0.33583237  0.10020033
   0.16464959  0.32179485  0.09992709
   0.32429376  0.16215284  0.09992654
   0.16465639  0.84285819  0.09992709
   0.84534809  0.16214033  0.09992787
   0.68571686  0.84285189  0.09992809
   0.84535494  0.68321032  0.09992785
   0.16657091  0.33314504  0.32888674
   0.33314375  0.16657170  0.32888760
   0.16657090  0.83342533  0.32888674
   0.33332916  0.66666441  0.32856010
   0.66666259  0.33333102  0.32856010
   0.83342411  0.16657227  0.32888485
   0.66685020  0.83342482  0.32888381
   0.83342411  0.66685150  0.32888485
Direct configuration=    10
   0.33834052  0.66916792  0.10022189
   0.67166013  0.33583355  0.10022188
   0.16463270  0.32179293  0.09991811
   0.32430613  0.16214717  0.09991737
   0.16463906  0.84285476  0.09991811
   0.84537008  0.16214995  0.09991923
   0.68570005  0.84285469  0.09991964
   0.84537688  0.68320951  0.09991922
   0.16656984  0.33314487  0.32888397
   0.33314298  0.16657121  0.32888497
   0.16656985  0.83342470  0.32888397
   0.33332801  0.66666372  0.32857374
   0.66666132  0.33333053  0.32857374
   0.83342288  0.16657175  0.32888179
   0.66684870  0.83342422  0.32888060
   0.83342287  0.66685053  0.32888178
Direct configuration=    11
   0.33833981  0.66916774  0.10022045
   0.67166057  0.33583347  0.10022044
   0.16463383  0.32179305  0.09991871
   0.32430531  0.16214755  0.09991798
   0.16464022  0.84285499  0.09991871
   0.84536862  0.16214931  0.09991981
   0.68570117  0.84285450  0.09992020
   0.84537541  0.68320956  0.09991980
   0.16656991  0.33314488  0.32888416
   0.33314303  0.16657124  0.32888515
   0.16656992  0.83342474  0.32888416
   0.33332808  0.66666377  0.32857283
   0.66666141  0.33333056  0.32857283
   0.83342296  0.16657179  0.32888199
   0.66684880  0.83342426  0.32888081
   0.83342296  0.66685060  0.32888199
Direct configuration=    12
   0.33833648  0.66916779  0.10023106
   0.67166502  0.33583376  0.10023105
   0.16464450  0.32179387  0.09991404
   0.32430015  0.16214811  0.09991317
   0.16464757  0.84285604  0.09991403
   0.84536243  0.16214818  0.09991536
   0.68570888  0.84285526  0.09991586
   0.84536593  0.68321012  0.09991535
   0.16656729  0.33314077  0.32888270
   0.33313855  0.16656901  0.32888378
   0.16656730  0.83342623  0.32888270
   0.33332732  0.66666340  0.32858048
   0.66666064  0.33333017  0.32858048
   0.83342408  0.16656957  0.32888039
   0.66685178  0.83342574  0.32887914
   0.83342408  0.66685397  0.32888039
Direct configuration=    13
   0.33833467  0.66916782  0.10023682
   0.67166743  0.33583392  0.10023681
   0.16465028  0.32179432  0.09991150
   0.32429735  0.16214841  0.09991057
   0.16465155  0.84285661  0.09991150
   0.84535908  0.16214757  0.09991295
   0.68571306  0.84285567  0.09991350
   0.84536079  0.68321043  0.09991294
   0.16656588  0.33313854  0.32888192
   0.33313612  0.16656780  0.32888303
   0.16656589  0.83342703  0.32888192
   0.33332691  0.66666320  0.32858464
   0.66666023  0.33332997  0.32858464
   0.83342469  0.16656836  0.32887952
   0.66685340  0.83342655  0.32887823
   0.83342468  0.66685579  0.32887952
