       N       E                     dE             d eps       ncg     rms          ort
SDA:   1    -0.143238323192E+03   -0.14324E+03   -0.14282E+00 13920   0.357E+00 0.000E+00
DMP:   2    -0.143343789916E+03   -0.10547E+00   -0.72615E-01 13920   0.117E+00 0.169E+00
DMP:   3    -0.143393628037E+03   -0.49838E-01   -0.24962E-01 13920   0.368E-01 0.670E-01
DMP:   4    -0.143410407480E+03   -0.16779E-01   -0.88926E-02 13920   0.139E-01 0.219E-01
DMP:   5    -0.143416803443E+03   -0.63960E-02   -0.40130E-02 13920   0.641E-02 0.947E-02
DMP:   6    -0.143419934142E+03   -0.31307E-02   -0.21746E-02 13920   0.339E-02 0.535E-02
DMP:   7    -0.143421695958E+03   -0.17618E-02   -0.11901E-02 13920   0.174E-02 0.324E-02
DMP:   8    -0.143422663650E+03   -0.96769E-03   -0.61061E-03 13920   0.832E-03 0.182E-02
DMP:   9    -0.143423159559E+03   -0.49591E-03   -0.29785E-03 13920   0.387E-03 0.937E-03
DMP:  10    -0.143423401494E+03   -0.24194E-03   -0.13966E-03 13920   0.174E-03 0.458E-03
DMP:  11    -0.143423515616E+03   -0.11412E-03   -0.65003E-04 13920   0.793E-04 0.218E-03
DMP:  12    -0.143423569234E+03   -0.53618E-04   -0.30408E-04 13920   0.364E-04 0.104E-03
DMP:  13    -0.143423594422E+03   -0.25188E-04   -0.14068E-04 13920   0.164E-04 0.491E-04
DMP:  14    -0.143423606069E+03   -0.11647E-04   -0.63878E-05 13920   0.730E-05 0.227E-04
DMP:  15    -0.143423611363E+03   -0.52944E-05   -0.28848E-05 13920   0.327E-05 0.103E-04
DMP:  16    -0.143423613771E+03   -0.24071E-05   -0.13218E-05 13920   0.151E-05 0.470E-05
DMP:  17    -0.143423614888E+03   -0.11172E-05   -0.62666E-06 13920   0.727E-06 0.220E-05
DMP:  18    -0.143423615427E+03   -0.53932E-06   -0.31295E-06 13920   0.373E-06 0.107E-05
   1 F= -.14342362E+03 E0= -.14342362E+03  d E =-.690617E-08
       N       E                     dE             ncg
DAV:   1    -0.304053408289E+05   -0.12249E+06    41760
DAV:   2    -0.818035565956E+05   -0.51398E+05    55680
DAV:   3    -0.844490616740E+05   -0.26455E+04    55680
DAV:   4    -0.845453725494E+05   -0.96311E+02    55680
DAV:   5    -0.845499256408E+05   -0.45531E+01    55680
DAV:   6    -0.845501830616E+05   -0.25742E+00    55680
DAV:   7    -0.845501989762E+05   -0.15915E-01    55680
DAV:   8    -0.845502000316E+05   -0.10554E-02    55680
DAV:   9    -0.845502001050E+05   -0.73315E-04    55680
DAV:  10    -0.845502001103E+05   -0.53022E-05    55680
DAV:  11    -0.845502001107E+05   -0.39555E-06    55680
       N       E                     dE             ncg
DAV:   1    -0.303070844072E+05   -0.15001E+06    41760
DAV:   2    -0.824052489133E+05   -0.52098E+05    55680
DAV:   3    -0.849500587883E+05   -0.25448E+04    55680
DAV:   4    -0.850400989969E+05   -0.90040E+02    55680
DAV:   5    -0.850442617363E+05   -0.41627E+01    55680
DAV:   6    -0.850444916768E+05   -0.22994E+00    55680
DAV:   7    -0.850445055959E+05   -0.13919E-01    55680
DAV:   8    -0.850445065012E+05   -0.90535E-03    55680
DAV:   9    -0.850445065631E+05   -0.61851E-04    55680
DAV:  10    -0.850445065675E+05   -0.44064E-05    55680
DAV:  11    -0.850445065678E+05   -0.32473E-06    55680
       N       E                     dE             ncg
DAV:   1    -0.301710732075E+05   -0.17803E+06    41760
DAV:   2    -0.828989605638E+05   -0.52728E+05    55680
DAV:   3    -0.853600491079E+05   -0.24611E+04    55680
DAV:   4    -0.854450816919E+05   -0.85033E+02    55680
DAV:   5    -0.854489353090E+05   -0.38536E+01    55680
DAV:   6    -0.854491439068E+05   -0.20860E+00    55680
DAV:   7    -0.854491563109E+05   -0.12404E-01    55680
DAV:   8    -0.854491571063E+05   -0.79543E-03    55680
DAV:   9    -0.854491571601E+05   -0.53819E-04    55680
DAV:  10    -0.854491571639E+05   -0.38171E-05    55680
DAV:  11    -0.854491571642E+05   -0.28124E-06    55680
       N       E                     dE             ncg
DAV:   1     0.175382578908E+05   -0.16827E+06    31680
DAV:   2    -0.233613944073E+05   -0.40900E+05    42240
DAV:   3    -0.251633767040E+05   -0.18020E+04    42240
DAV:   4    -0.252244763954E+05   -0.61100E+02    42240
DAV:   5    -0.252272111660E+05   -0.27348E+01    42240
DAV:   6    -0.252273578701E+05   -0.14670E+00    42240
DAV:   7    -0.252273666012E+05   -0.87311E-02    42240
DAV:   8    -0.252273671706E+05   -0.56943E-03    42240
DAV:   9    -0.252273672104E+05   -0.39798E-04    42240
DAV:  10    -0.252273672134E+05   -0.29649E-05    42240
DAV:  11    -0.252273672136E+05   -0.23207E-06    42240
