  16  16   0  16
  0.2007078E+02  0.4972000E-09  0.4972000E-09  0.1500000E-08  0.5000000E-15
  1.000000000000000E-004
  CAR 
 Lattice                                 
      9.82952187    -21.15488538  301     -0.31019959      1.00000000
    -21.155  0.0000E+00  0.0000E+00  0.0000E+00  0.0000E+00
    -21.052  0.0000E+00  0.0000E+00  0.0000E+00  0.0000E+00
    -20.948  0.0000E+00  0.0000E+00  0.0000E+00  0.0000E+00
    -20.845  0.0000E+00  0.0000E+00  0.0000E+00  0.0000E+00
    -20.742  0.0000E+00  0.0000E+00  0.0000E+00  0.0000E+00
    -20.638  0.0000E+00  0.0000E+00  0.0000E+00  0.0000E+00
    -20.535  0.0000E+00  0.0000E+00  0.0000E+00  0.0000E+00
    -20.432  0.0000E+00  0.0000E+00  0.0000E+00  0.0000E+00
    -20.329  0.5832E-19  0.5832E-19  0.6023E-20  0.6023E-20
    -20.225  0.3663E-14  0.3663E-14  0.3783E-15  0.3783E-15
    -20.122  0.3490E-10  0.3490E-10  0.3605E-11  0.3605E-11
    -20.019  0.4627E-07  0.4627E-07  0.4783E-08  0.4783E-08
    -19.916  0.9255E-05  0.9255E-05  0.9606E-06  0.9606E-06
    -19.812  0.3080E-03  0.3080E-03  0.3277E-04  0.3277E-04
    -19.709  0.2073E-02  0.2073E-02  0.2469E-03  0.2469E-03
    -19.606  0.4297E-02  0.4297E-02  0.6907E-03  0.6907E-03
    -19.502  0.4752E-02  0.4752E-02  0.1181E-02  0.1181E-02
    -19.399  0.5097E-02  0.5097E-02  0.1708E-02  0.1708E-02
    -19.296  0.4432E-02  0.4432E-02  0.2166E-02  0.2166E-02
    -19.193  0.5569E-02  0.5569E-02  0.2741E-02  0.2741E-02
    -19.089  0.4337E-02  0.4337E-02  0.3189E-02  0.3189E-02
    -18.986  0.4673E-02  0.4673E-02  0.3671E-02  0.3671E-02
    -18.883  0.6115E-02  0.6115E-02  0.4303E-02  0.4303E-02
    -18.779  0.3831E-02  0.3831E-02  0.4699E-02  0.4699E-02
    -18.676  0.4417E-02  0.4417E-02  0.5155E-02  0.5155E-02
    -18.573  0.6358E-02  0.6358E-02  0.5812E-02  0.5812E-02
    -18.470  0.5128E-02  0.5128E-02  0.6341E-02  0.6341E-02
    -18.366  0.3016E-02  0.3016E-02  0.6653E-02  0.6653E-02
    -18.263  0.5288E-02  0.5288E-02  0.7199E-02  0.7199E-02
    -18.160  0.6891E-02  0.6891E-02  0.7911E-02  0.7911E-02
    -18.056  0.4509E-02  0.4509E-02  0.8376E-02  0.8376E-02
    -17.953  0.3719E-02  0.3719E-02  0.8761E-02  0.8761E-02
    -17.850  0.3727E-02  0.3727E-02  0.9145E-02  0.9145E-02
    -17.747  0.7444E-02  0.7444E-02  0.9914E-02  0.9914E-02
    -17.643  0.6110E-02  0.6110E-02  0.1055E-01  0.1055E-01
    -17.540  0.3281E-02  0.3281E-02  0.1088E-01  0.1088E-01
    -17.437  0.3807E-02  0.3807E-02  0.1128E-01  0.1128E-01
    -17.333  0.4698E-02  0.4698E-02  0.1176E-01  0.1176E-01
    -17.230  0.7136E-02  0.7136E-02  0.1250E-01  0.1250E-01
    -17.127  0.6358E-02  0.6358E-02  0.1316E-01  0.1316E-01
    -17.024  0.4249E-02  0.4249E-02  0.1360E-01  0.1360E-01
    -16.920  0.2282E-02  0.2282E-02  0.1383E-01  0.1383E-01
    -16.817  0.4886E-02  0.4886E-02  0.1434E-01  0.1434E-01
    -16.714  0.7236E-02  0.7236E-02  0.1508E-01  0.1508E-01
    -16.611  0.6350E-02  0.6350E-02  0.1574E-01  0.1574E-01
    -16.507  0.5202E-02  0.5202E-02  0.1628E-01  0.1628E-01
    -16.404  0.4419E-02  0.4419E-02  0.1673E-01  0.1673E-01
    -16.301  0.2505E-02  0.2505E-02  0.1699E-01  0.1699E-01
    -16.197  0.4167E-02  0.4167E-02  0.1742E-01  0.1742E-01
    -16.094  0.9212E-02  0.9212E-02  0.1837E-01  0.1837E-01
    -15.991  0.6782E-02  0.6782E-02  0.1907E-01  0.1907E-01
    -15.888  0.7700E-02  0.7700E-02  0.1987E-01  0.1987E-01
    -15.784  0.9697E-02  0.9697E-02  0.2087E-01  0.2087E-01
    -15.681  0.1051E-01  0.1051E-01  0.2196E-01  0.2196E-01
    -15.578  0.9672E-02  0.9672E-02  0.2295E-01  0.2295E-01
    -15.474  0.1376E-01  0.1376E-01  0.2438E-01  0.2438E-01
    -15.371  0.1597E-01  0.1597E-01  0.2602E-01  0.2602E-01
    -15.268  0.1309E-01  0.1309E-01  0.2738E-01  0.2738E-01
    -15.165  0.1209E-01  0.1209E-01  0.2863E-01  0.2863E-01
    -15.061  0.1438E-01  0.1438E-01  0.3011E-01  0.3011E-01
    -14.958  0.1138E-01  0.1138E-01  0.3129E-01  0.3129E-01
    -14.855  0.1037E-01  0.1037E-01  0.3236E-01  0.3236E-01
    -14.751  0.1129E-01  0.1129E-01  0.3352E-01  0.3352E-01
    -14.648  0.1057E-01  0.1057E-01  0.3461E-01  0.3461E-01
    -14.545  0.8285E-02  0.8285E-02  0.3547E-01  0.3547E-01
    -14.442  0.8098E-02  0.8098E-02  0.3631E-01  0.3631E-01
    -14.338  0.7277E-02  0.7277E-02  0.3706E-01  0.3706E-01
    -14.235  0.9415E-02  0.9415E-02  0.3803E-01  0.3803E-01
    -14.132  0.1652E-01  0.1652E-01  0.3974E-01  0.3974E-01
    -14.028  0.1270E-01  0.1270E-01  0.4105E-01  0.4105E-01
    -13.925  0.5759E-02  0.5759E-02  0.4164E-01  0.4164E-01
    -13.822  0.5368E-02  0.5368E-02  0.4220E-01  0.4220E-01
    -13.719  0.4791E-02  0.4791E-02  0.4269E-01  0.4269E-01
    -13.615  0.4378E-02  0.4378E-02  0.4314E-01  0.4314E-01
    -13.512  0.7416E-02  0.7416E-02  0.4391E-01  0.4391E-01
    -13.409  0.9512E-02  0.9512E-02  0.4489E-01  0.4489E-01
    -13.306  0.6841E-02  0.6841E-02  0.4560E-01  0.4560E-01
    -13.202  0.5889E-02  0.5889E-02  0.4621E-01  0.4621E-01
    -13.099  0.7489E-02  0.7489E-02  0.4698E-01  0.4698E-01
    -12.996  0.8492E-02  0.8492E-02  0.4786E-01  0.4786E-01
    -12.892  0.6763E-02  0.6763E-02  0.4856E-01  0.4856E-01
    -12.789  0.8113E-02  0.8113E-02  0.4939E-01  0.4939E-01
    -12.686  0.8535E-02  0.8535E-02  0.5027E-01  0.5027E-01
    -12.583  0.1032E-01  0.1032E-01  0.5134E-01  0.5134E-01
    -12.479  0.1407E-01  0.1407E-01  0.5279E-01  0.5279E-01
    -12.376  0.1064E-01  0.1064E-01  0.5389E-01  0.5389E-01
    -12.273  0.1370E-01  0.1370E-01  0.5531E-01  0.5531E-01
    -12.169  0.1219E-01  0.1219E-01  0.5657E-01  0.5657E-01
    -12.066  0.1281E-01  0.1281E-01  0.5789E-01  0.5789E-01
    -11.963  0.2006E-01  0.2006E-01  0.5996E-01  0.5996E-01
    -11.860  0.1634E-01  0.1634E-01  0.6165E-01  0.6165E-01
    -11.756  0.1211E-01  0.1211E-01  0.6290E-01  0.6290E-01
    -11.653  0.1133E-01  0.1133E-01  0.6407E-01  0.6407E-01
    -11.550  0.1083E-01  0.1083E-01  0.6519E-01  0.6519E-01
    -11.446  0.8342E-02  0.8342E-02  0.6605E-01  0.6605E-01
    -11.343  0.4621E-02  0.4621E-02  0.6653E-01  0.6653E-01
    -11.240  0.3063E-02  0.3063E-02  0.6684E-01  0.6684E-01
    -11.137  0.4936E-02  0.4936E-02  0.6735E-01  0.6735E-01
    -11.033  0.5683E-02  0.5683E-02  0.6794E-01  0.6794E-01
    -10.930  0.6176E-02  0.6176E-02  0.6858E-01  0.6858E-01
    -10.827  0.6931E-02  0.6931E-02  0.6929E-01  0.6929E-01
    -10.723  0.8862E-02  0.8862E-02  0.7021E-01  0.7021E-01
    -10.620  0.8760E-02  0.8760E-02  0.7111E-01  0.7111E-01
    -10.517  0.1358E-01  0.1358E-01  0.7252E-01  0.7252E-01
    -10.414  0.2057E-01  0.2057E-01  0.7464E-01  0.7464E-01
    -10.310  0.1672E-01  0.1672E-01  0.7637E-01  0.7637E-01
    -10.207  0.6461E-02  0.6461E-02  0.7704E-01  0.7704E-01
    -10.104  0.3604E-02  0.3604E-02  0.7741E-01  0.7741E-01
    -10.000  0.1102E-01  0.1102E-01  0.7855E-01  0.7855E-01
     -9.897  0.1894E-01  0.1894E-01  0.8050E-01  0.8050E-01
     -9.794  0.9995E-02  0.9995E-02  0.8154E-01  0.8154E-01
     -9.691  0.4874E-02  0.4874E-02  0.8204E-01  0.8204E-01
     -9.587  0.6116E-02  0.6116E-02  0.8267E-01  0.8267E-01
     -9.484  0.1289E-01  0.1289E-01  0.8400E-01  0.8400E-01
     -9.381  0.2001E-01  0.2001E-01  0.8607E-01  0.8607E-01
     -9.278  0.1616E-01  0.1616E-01  0.8774E-01  0.8774E-01
     -9.174  0.1779E-01  0.1779E-01  0.8957E-01  0.8957E-01
     -9.071  0.1440E-01  0.1440E-01  0.9106E-01  0.9106E-01
     -8.968  0.1162E-01  0.1162E-01  0.9226E-01  0.9226E-01
     -8.864  0.1467E-01  0.1467E-01  0.9378E-01  0.9378E-01
     -8.761  0.1688E-01  0.1688E-01  0.9552E-01  0.9552E-01
     -8.658  0.1444E-01  0.1444E-01  0.9701E-01  0.9701E-01
     -8.555  0.1021E-01  0.1021E-01  0.9807E-01  0.9807E-01
     -8.451  0.1351E-01  0.1351E-01  0.9946E-01  0.9946E-01
     -8.348  0.2108E-01  0.2108E-01  0.1016E+00  0.1016E+00
     -8.245  0.1570E-01  0.1570E-01  0.1033E+00  0.1033E+00
     -8.141  0.8523E-02  0.8523E-02  0.1041E+00  0.1041E+00
     -8.038  0.1383E-01  0.1383E-01  0.1056E+00  0.1056E+00
     -7.935  0.1439E-01  0.1439E-01  0.1071E+00  0.1071E+00
     -7.832  0.1830E-01  0.1830E-01  0.1089E+00  0.1089E+00
     -7.728  0.2573E-01  0.2573E-01  0.1116E+00  0.1116E+00
     -7.625  0.1782E-01  0.1782E-01  0.1134E+00  0.1134E+00
     -7.522  0.1361E-01  0.1361E-01  0.1149E+00  0.1149E+00
     -7.418  0.1558E-01  0.1558E-01  0.1165E+00  0.1165E+00
     -7.315  0.2031E-01  0.2031E-01  0.1186E+00  0.1186E+00
     -7.212  0.1925E-01  0.1925E-01  0.1205E+00  0.1205E+00
     -7.109  0.1500E-01  0.1500E-01  0.1221E+00  0.1221E+00
     -7.005  0.1463E-01  0.1463E-01  0.1236E+00  0.1236E+00
     -6.902  0.1831E-01  0.1831E-01  0.1255E+00  0.1255E+00
     -6.799  0.2472E-01  0.2472E-01  0.1281E+00  0.1281E+00
     -6.695  0.2590E-01  0.2590E-01  0.1307E+00  0.1307E+00
     -6.592  0.2747E-01  0.2747E-01  0.1336E+00  0.1336E+00
     -6.489  0.2438E-01  0.2438E-01  0.1361E+00  0.1361E+00
     -6.386  0.2678E-01  0.2678E-01  0.1388E+00  0.1388E+00
     -6.282  0.2778E-01  0.2778E-01  0.1417E+00  0.1417E+00
     -6.179  0.2157E-01  0.2157E-01  0.1439E+00  0.1439E+00
     -6.076  0.1668E-01  0.1668E-01  0.1457E+00  0.1457E+00
     -5.973  0.1524E-01  0.1524E-01  0.1472E+00  0.1472E+00
     -5.869  0.1559E-01  0.1559E-01  0.1489E+00  0.1489E+00
     -5.766  0.1701E-01  0.1701E-01  0.1506E+00  0.1506E+00
     -5.663  0.1931E-01  0.1931E-01  0.1526E+00  0.1526E+00
     -5.559  0.1230E-01  0.1230E-01  0.1539E+00  0.1539E+00
     -5.456  0.8016E-02  0.8016E-02  0.1547E+00  0.1547E+00
     -5.353  0.1498E-01  0.1498E-01  0.1562E+00  0.1562E+00
     -5.250  0.1956E-01  0.1956E-01  0.1583E+00  0.1583E+00
     -5.146  0.1610E-01  0.1610E-01  0.1599E+00  0.1599E+00
     -5.043  0.1165E-01  0.1165E-01  0.1611E+00  0.1611E+00
     -4.940  0.1622E-01  0.1622E-01  0.1628E+00  0.1628E+00
     -4.836  0.1726E-01  0.1726E-01  0.1646E+00  0.1646E+00
     -4.733  0.1109E-01  0.1109E-01  0.1657E+00  0.1657E+00
     -4.630  0.1104E-01  0.1104E-01  0.1669E+00  0.1669E+00
     -4.527  0.1401E-01  0.1401E-01  0.1683E+00  0.1683E+00
     -4.423  0.1914E-01  0.1914E-01  0.1703E+00  0.1703E+00
     -4.320  0.1800E-01  0.1800E-01  0.1722E+00  0.1722E+00
     -4.217  0.1768E-01  0.1768E-01  0.1740E+00  0.1740E+00
     -4.113  0.1856E-01  0.1856E-01  0.1759E+00  0.1759E+00
     -4.010  0.1992E-01  0.1992E-01  0.1780E+00  0.1780E+00
     -3.907  0.2290E-01  0.2290E-01  0.1803E+00  0.1803E+00
     -3.804  0.2451E-01  0.2451E-01  0.1829E+00  0.1829E+00
     -3.700  0.2775E-01  0.2775E-01  0.1857E+00  0.1857E+00
     -3.597  0.2859E-01  0.2859E-01  0.1887E+00  0.1887E+00
     -3.494  0.2221E-01  0.2221E-01  0.1910E+00  0.1910E+00
     -3.390  0.1396E-01  0.1396E-01  0.1924E+00  0.1924E+00
     -3.287  0.1315E-01  0.1315E-01  0.1938E+00  0.1938E+00
     -3.184  0.1359E-01  0.1359E-01  0.1952E+00  0.1952E+00
     -3.081  0.1187E-01  0.1187E-01  0.1964E+00  0.1964E+00
     -2.977  0.1357E-01  0.1357E-01  0.1978E+00  0.1978E+00
     -2.874  0.1519E-01  0.1519E-01  0.1994E+00  0.1994E+00
     -2.771  0.1063E-01  0.1063E-01  0.2005E+00  0.2005E+00
     -2.668  0.7878E-02  0.7878E-02  0.2013E+00  0.2013E+00
     -2.564  0.1053E-01  0.1053E-01  0.2024E+00  0.2024E+00
     -2.461  0.1938E-01  0.1938E-01  0.2044E+00  0.2044E+00
     -2.358  0.1471E-01  0.1471E-01  0.2059E+00  0.2059E+00
     -2.254  0.6152E-02  0.6152E-02  0.2065E+00  0.2065E+00
     -2.151  0.7678E-02  0.7678E-02  0.2073E+00  0.2073E+00
     -2.048  0.9300E-02  0.9300E-02  0.2083E+00  0.2083E+00
     -1.945  0.8709E-02  0.8709E-02  0.2092E+00  0.2092E+00
     -1.841  0.9736E-02  0.9736E-02  0.2102E+00  0.2102E+00
     -1.738  0.9060E-02  0.9060E-02  0.2111E+00  0.2111E+00
     -1.635  0.6048E-02  0.6048E-02  0.2117E+00  0.2117E+00
     -1.531  0.7428E-02  0.7428E-02  0.2125E+00  0.2125E+00
     -1.428  0.1047E-01  0.1047E-01  0.2136E+00  0.2136E+00
     -1.325  0.5840E-02  0.5840E-02  0.2142E+00  0.2142E+00
     -1.222  0.5255E-02  0.5255E-02  0.2147E+00  0.2147E+00
     -1.118  0.7611E-02  0.7611E-02  0.2155E+00  0.2155E+00
     -1.015  0.6088E-02  0.6088E-02  0.2162E+00  0.2162E+00
     -0.912  0.6551E-02  0.6551E-02  0.2168E+00  0.2168E+00
     -0.808  0.4689E-02  0.4689E-02  0.2173E+00  0.2173E+00
     -0.705  0.2013E-02  0.2013E-02  0.2175E+00  0.2175E+00
     -0.602  0.1428E-02  0.1428E-02  0.2177E+00  0.2177E+00
     -0.499  0.3984E-02  0.3984E-02  0.2181E+00  0.2181E+00
     -0.395  0.4081E-02  0.4081E-02  0.2185E+00  0.2185E+00
     -0.292  0.2803E-02  0.2802E-02  0.2188E+00  0.2188E+00
     -0.189  0.1745E-02  0.1745E-02  0.2190E+00  0.2190E+00
     -0.085  0.2829E-02  0.2829E-02  0.2193E+00  0.2193E+00
      0.018  0.3229E-02  0.3229E-02  0.2196E+00  0.2196E+00
      0.121  0.3635E-02  0.3635E-02  0.2200E+00  0.2200E+00
      0.224  0.6814E-02  0.6814E-02  0.2207E+00  0.2207E+00
      0.328  0.8242E-02  0.8242E-02  0.2215E+00  0.2215E+00
      0.431  0.1019E-01  0.1019E-01  0.2226E+00  0.2226E+00
      0.534  0.9708E-02  0.9708E-02  0.2236E+00  0.2236E+00
      0.637  0.7461E-02  0.7461E-02  0.2244E+00  0.2244E+00
      0.741  0.5692E-02  0.5692E-02  0.2249E+00  0.2249E+00
      0.844  0.1069E-01  0.1069E-01  0.2260E+00  0.2260E+00
      0.947  0.9851E-02  0.9851E-02  0.2271E+00  0.2271E+00
      1.051  0.7366E-02  0.7366E-02  0.2278E+00  0.2278E+00
      1.154  0.1105E-01  0.1105E-01  0.2290E+00  0.2290E+00
      1.257  0.1687E-01  0.1687E-01  0.2307E+00  0.2307E+00
      1.360  0.1672E-01  0.1672E-01  0.2324E+00  0.2324E+00
      1.464  0.1264E-01  0.1264E-01  0.2337E+00  0.2337E+00
      1.567  0.8200E-02  0.8200E-02  0.2346E+00  0.2346E+00
      1.670  0.6129E-02  0.6129E-02  0.2352E+00  0.2352E+00
      1.774  0.8249E-02  0.8249E-02  0.2361E+00  0.2361E+00
      1.877  0.1107E-01  0.1107E-01  0.2372E+00  0.2372E+00
      1.980  0.1039E-01  0.1039E-01  0.2383E+00  0.2383E+00
      2.083  0.1284E-01  0.1284E-01  0.2396E+00  0.2396E+00
      2.187  0.1118E-01  0.1118E-01  0.2408E+00  0.2408E+00
      2.290  0.1189E-01  0.1189E-01  0.2420E+00  0.2420E+00
      2.393  0.7246E-02  0.7246E-02  0.2427E+00  0.2427E+00
      2.497  0.4776E-02  0.4776E-02  0.2432E+00  0.2432E+00
      2.600  0.1283E-01  0.1283E-01  0.2446E+00  0.2446E+00
      2.703  0.1460E-01  0.1460E-01  0.2461E+00  0.2461E+00
      2.806  0.1197E-01  0.1197E-01  0.2473E+00  0.2473E+00
      2.910  0.1271E-01  0.1271E-01  0.2486E+00  0.2486E+00
      3.013  0.8672E-02  0.8672E-02  0.2495E+00  0.2495E+00
      3.116  0.1169E-01  0.1169E-01  0.2507E+00  0.2507E+00
      3.220  0.1740E-01  0.1740E-01  0.2525E+00  0.2525E+00
      3.323  0.1819E-01  0.1819E-01  0.2544E+00  0.2544E+00
      3.426  0.1815E-01  0.1815E-01  0.2563E+00  0.2563E+00
      3.529  0.1340E-01  0.1340E-01  0.2577E+00  0.2577E+00
      3.633  0.2017E-01  0.2017E-01  0.2597E+00  0.2597E+00
      3.736  0.2223E-01  0.2223E-01  0.2620E+00  0.2620E+00
      3.839  0.2115E-01  0.2115E-01  0.2642E+00  0.2642E+00
      3.942  0.1885E-01  0.1885E-01  0.2662E+00  0.2662E+00
      4.046  0.1652E-01  0.1652E-01  0.2679E+00  0.2679E+00
      4.149  0.1784E-01  0.1784E-01  0.2697E+00  0.2697E+00
      4.252  0.2349E-01  0.2349E-01  0.2721E+00  0.2721E+00
      4.356  0.2723E-01  0.2723E-01  0.2750E+00  0.2750E+00
      4.459  0.2118E-01  0.2118E-01  0.2771E+00  0.2771E+00
      4.562  0.1657E-01  0.1657E-01  0.2789E+00  0.2789E+00
      4.665  0.2852E-01  0.2852E-01  0.2818E+00  0.2818E+00
      4.769  0.2757E-01  0.2758E-01  0.2846E+00  0.2846E+00
      4.872  0.1878E-01  0.1878E-01  0.2866E+00  0.2866E+00
      4.975  0.2162E-01  0.2161E-01  0.2888E+00  0.2888E+00
      5.079  0.2881E-01  0.2882E-01  0.2918E+00  0.2918E+00
      5.182  0.3276E-01  0.3276E-01  0.2952E+00  0.2952E+00
      5.285  0.2822E-01  0.2822E-01  0.2981E+00  0.2981E+00
      5.388  0.2554E-01  0.2553E-01  0.3007E+00  0.3007E+00
      5.492  0.2197E-01  0.2198E-01  0.3030E+00  0.3030E+00
      5.595  0.2648E-01  0.2648E-01  0.3057E+00  0.3057E+00
      5.698  0.2899E-01  0.2898E-01  0.3087E+00  0.3087E+00
      5.802  0.2417E-01  0.2417E-01  0.3112E+00  0.3112E+00
      5.905  0.2168E-01  0.2168E-01  0.3135E+00  0.3135E+00
      6.008  0.1703E-01  0.1703E-01  0.3152E+00  0.3152E+00
      6.111  0.2439E-01  0.2439E-01  0.3177E+00  0.3177E+00
      6.215  0.2203E-01  0.2202E-01  0.3200E+00  0.3200E+00
      6.318  0.1732E-01  0.1732E-01  0.3218E+00  0.3218E+00
      6.421  0.2069E-01  0.2069E-01  0.3239E+00  0.3239E+00
      6.525  0.2272E-01  0.2272E-01  0.3263E+00  0.3263E+00
      6.628  0.2380E-01  0.2380E-01  0.3287E+00  0.3287E+00
      6.731  0.2866E-01  0.2867E-01  0.3317E+00  0.3317E+00
      6.834  0.3006E-01  0.3006E-01  0.3348E+00  0.3348E+00
      6.938  0.3100E-01  0.3099E-01  0.3380E+00  0.3380E+00
      7.041  0.2605E-01  0.2605E-01  0.3407E+00  0.3407E+00
      7.144  0.2525E-01  0.2525E-01  0.3433E+00  0.3433E+00
      7.247  0.3032E-01  0.3032E-01  0.3464E+00  0.3464E+00
      7.351  0.3361E-01  0.3361E-01  0.3499E+00  0.3499E+00
      7.454  0.3988E-01  0.3988E-01  0.3540E+00  0.3540E+00
      7.557  0.4035E-01  0.4035E-01  0.3582E+00  0.3582E+00
      7.661  0.3046E-01  0.3046E-01  0.3613E+00  0.3613E+00
      7.764  0.3352E-01  0.3352E-01  0.3648E+00  0.3648E+00
      7.867  0.3475E-01  0.3475E-01  0.3684E+00  0.3684E+00
      7.970  0.2684E-01  0.2684E-01  0.3712E+00  0.3712E+00
      8.074  0.1772E-01  0.1772E-01  0.3730E+00  0.3730E+00
      8.177  0.1396E-01  0.1395E-01  0.3744E+00  0.3744E+00
      8.280  0.4512E-02  0.4512E-02  0.3749E+00  0.3749E+00
      8.384  0.5175E-03  0.5175E-03  0.3750E+00  0.3750E+00
      8.487  0.2830E-03  0.2830E-03  0.3750E+00  0.3750E+00
      8.590  0.8822E-04  0.8821E-04  0.3750E+00  0.3750E+00
      8.693  0.4393E-05  0.4393E-05  0.3750E+00  0.3750E+00
      8.797  0.3090E-07  0.3090E-07  0.3750E+00  0.3750E+00
      8.900  0.2858E-10  0.2857E-10  0.3750E+00  0.3750E+00
      9.003  0.3337E-14  0.3336E-14  0.3750E+00  0.3750E+00
      9.107  0.5832E-19  0.5832E-19  0.3750E+00  0.3750E+00
      9.210  0.0000E+00  0.0000E+00  0.3750E+00  0.3750E+00
      9.313  0.0000E+00  0.0000E+00  0.3750E+00  0.3750E+00
      9.416  0.0000E+00  0.0000E+00  0.3750E+00  0.3750E+00
      9.520  0.0000E+00  0.0000E+00  0.3750E+00  0.3750E+00
      9.623  0.0000E+00  0.0000E+00  0.3750E+00  0.3750E+00
      9.726  0.0000E+00  0.0000E+00  0.3750E+00  0.3750E+00
      9.830  0.0000E+00  0.0000E+00  0.3750E+00  0.3750E+00
