Lattice                                 
           1
     4.305878    2.486000    0.000000
    -4.305878    2.486000    0.000000
     0.000000    0.000000   15.000000
   B    C 
     8     8
Direct configuration=     1
   0.66888689  0.00000000  0.10000000
   0.33111211  0.00000000  0.10000000
   0.00000000  0.33111211  0.10000000
   0.00000000  0.66888689  0.10000000
   0.33111211  0.33111211  0.10000000
   0.66888689  0.66888689  0.10000000
   0.66666600  0.33333300  0.09922189
   0.33333300  0.66666600  0.10077811
   0.16666600  0.33333300  0.46773333
   0.33333300  0.16666600  0.46773333
   0.16666600  0.83333300  0.46773333
   0.33333300  0.66666600  0.46773333
   0.66666600  0.33333300  0.46773333
   0.83333300  0.16666600  0.46773333
   0.66666600  0.83333300  0.46773333
   0.83333300  0.66666600  0.46773333
Direct configuration=     2
   0.67076241  0.00000003  0.10002702
   0.32923663  0.00000003  0.10002702
  -0.00000003  0.32923659  0.10002702
  -0.00000003  0.67076237  0.10002702
   0.32923663  0.32923659  0.10002702
   0.67076241  0.67076237  0.10002702
   0.66666600  0.33333300  0.09924320
   0.33333300  0.66666600  0.10081674
   0.16666367  0.33332833  0.46770556
   0.33332846  0.16666373  0.46770558
   0.16666367  0.83333533  0.46770556
   0.33333300  0.66666600  0.46770555
   0.66666600  0.33333300  0.46770563
   0.83333527  0.16666373  0.46770558
   0.66667067  0.83333533  0.46770556
   0.83333527  0.66667054  0.46770558
Direct configuration=     3
   0.66983750  0.00000002  0.10001370
   0.33016152  0.00000002  0.10001370
  -0.00000002  0.33016150  0.10001370
  -0.00000002  0.66983748  0.10001370
   0.33016152  0.33016150  0.10001370
   0.66983750  0.66983748  0.10001370
   0.66666600  0.33333300  0.09923269
   0.33333300  0.66666600  0.10079769
   0.16666482  0.33333063  0.46771926
   0.33333070  0.16666485  0.46771927
   0.16666482  0.83333418  0.46771926
   0.33333300  0.66666600  0.46771925
   0.66666600  0.33333300  0.46771929
   0.83333415  0.16666485  0.46771927
   0.66666837  0.83333418  0.46771926
   0.83333415  0.66666830  0.46771927
Direct configuration=     4
   0.66984342  0.00000002  0.10001378
   0.33015560  0.00000002  0.10001378
  -0.00000002  0.33015558  0.10001378
  -0.00000002  0.66984340  0.10001378
   0.33015560  0.33015558  0.10001378
   0.66984342  0.66984340  0.10001378
   0.66666600  0.33333300  0.09923275
   0.33333300  0.66666600  0.10079782
   0.16666481  0.33333062  0.46771917
   0.33333068  0.16666484  0.46771918
   0.16666481  0.83333419  0.46771917
   0.33333300  0.66666600  0.46771916
   0.66666600  0.33333300  0.46771920
   0.83333416  0.16666484  0.46771918
   0.66666838  0.83333419  0.46771917
   0.83333416  0.66666832  0.46771918
Direct configuration=     5
   0.66984109  0.00000002  0.10001375
   0.33015793  0.00000002  0.10001375
  -0.00000002  0.33015791  0.10001375
  -0.00000002  0.66984107  0.10001375
   0.33015793  0.33015791  0.10001375
   0.66984109  0.66984107  0.10001375
   0.66666600  0.33333300  0.09923273
   0.33333300  0.66666600  0.10079777
   0.16666481  0.33333063  0.46771920
   0.33333069  0.16666484  0.46771921
   0.16666481  0.83333419  0.46771920
   0.33333300  0.66666600  0.46771920
   0.66666600  0.33333300  0.46771924
   0.83333416  0.16666484  0.46771921
   0.66666837  0.83333419  0.46771920
   0.83333416  0.66666831  0.46771921
Direct configuration=     6
   0.66983929  0.00000002  0.10001372
   0.33015972  0.00000002  0.10001372
  -0.00000002  0.33015971  0.10001372
  -0.00000002  0.66983928  0.10001372
   0.33015972  0.33015971  0.10001372
   0.66983929  0.66983928  0.10001372
   0.66666600  0.33333300  0.09923271
   0.33333300  0.66666600  0.10079773
   0.16666481  0.33333063  0.46771923
   0.33333069  0.16666485  0.46771924
   0.16666481  0.83333419  0.46771923
   0.33333300  0.66666600  0.46771922
   0.66666600  0.33333300  0.46771927
   0.83333415  0.16666485  0.46771924
   0.66666837  0.83333419  0.46771923
   0.83333415  0.66666831  0.46771924
Direct configuration=     7
   0.66983842  0.00000002  0.10001371
   0.33016060  0.00000002  0.10001371
  -0.00000002  0.33016058  0.10001371
  -0.00000002  0.66983840  0.10001371
   0.33016060  0.33016058  0.10001371
   0.66983842  0.66983840  0.10001371
   0.66666600  0.33333300  0.09923270
   0.33333300  0.66666600  0.10079771
   0.16666482  0.33333063  0.46771924
   0.33333069  0.16666485  0.46771925
   0.16666482  0.83333418  0.46771924
   0.33333300  0.66666600  0.46771924
   0.66666600  0.33333300  0.46771928
   0.83333415  0.16666485  0.46771925
   0.66666837  0.83333418  0.46771924
   0.83333415  0.66666831  0.46771925
Direct configuration=     8
   0.66983838 -0.00000001  0.10003830
   0.33016061 -0.00000001  0.10003830
   0.00000001  0.33016062  0.10003830
   0.00000001  0.66983839  0.10003830
   0.33016061  0.33016062  0.10003830
   0.66983838  0.66983839  0.10003830
   0.66666600  0.33333300  0.09925510
   0.33333300  0.66666600  0.10082889
   0.16666654  0.33333409  0.46769409
   0.33333405  0.16666653  0.46769411
   0.16666654  0.83333246  0.46769409
   0.33333300  0.66666600  0.46769408
   0.66666600  0.33333300  0.46769418
   0.83333247  0.16666653  0.46769411
   0.66666491  0.83333246  0.46769409
   0.83333247  0.66666495  0.46769411
Direct configuration=     9
   0.66983827 -0.00000010  0.10011209
   0.33016063 -0.00000010  0.10011209
   0.00000010  0.33016073  0.10011209
   0.00000010  0.66983837  0.10011209
   0.33016063  0.33016073  0.10011209
   0.66983827  0.66983837  0.10011209
   0.66666600  0.33333300  0.09932229
   0.33333300  0.66666600  0.10092243
   0.16667173  0.33334446  0.46761861
   0.33334413  0.16667157  0.46761870
   0.16667173  0.83332727  0.46761861
   0.33333300  0.66666600  0.46761861
   0.66666600  0.33333300  0.46761888
   0.83332743  0.16667157  0.46761870
   0.66665454  0.83332727  0.46761861
   0.83332743  0.66665487  0.46761870
Direct configuration=    10
   0.66983805 -0.00000028  0.10025965
   0.33016067 -0.00000028  0.10025965
   0.00000028  0.33016095  0.10025965
   0.00000028  0.66983833  0.10025965
   0.33016067  0.33016095  0.10025965
   0.66983805  0.66983833  0.10025965
   0.66666600  0.33333300  0.09945669
   0.33333300  0.66666600  0.10110951
   0.16668210  0.33336520  0.46746767
   0.33336429  0.16668165  0.46746786
   0.16668210  0.83331690  0.46746767
   0.33333300  0.66666600  0.46746768
   0.66666600  0.33333300  0.46746829
   0.83331735  0.16668165  0.46746786
   0.66663380  0.83331690  0.46746767
   0.83331735  0.66663471  0.46746786
Direct configuration=    11
   0.66983761 -0.00000064  0.10055478
   0.33016075 -0.00000064  0.10055478
   0.00000064  0.33016139  0.10055478
   0.00000064  0.66983825  0.10055478
   0.33016075  0.33016139  0.10055478
   0.66983761  0.66983825  0.10055478
   0.66666600  0.33333300  0.09972548
   0.33333300  0.66666600  0.10148367
   0.16670284  0.33340669  0.46716578
   0.33340461  0.16670180  0.46716618
   0.16670284  0.83329616  0.46716578
   0.33333300  0.66666600  0.46716582
   0.66666600  0.33333300  0.46716711
   0.83329720  0.16670180  0.46716618
   0.66659231  0.83329616  0.46716578
   0.83329720  0.66659439  0.46716618
Direct configuration=    12
   0.66983672 -0.00000136  0.10114504
   0.33016093 -0.00000136  0.10114504
   0.00000136  0.33016228  0.10114504
   0.00000136  0.66983807  0.10114504
   0.33016093  0.33016228  0.10114504
   0.66983672  0.66983807  0.10114504
   0.66666600  0.33333300  0.10026305
   0.33333300  0.66666600  0.10223200
   0.16674433  0.33348965  0.46656201
   0.33348524  0.16674212  0.46656284
   0.16674433  0.83325467  0.46656201
   0.33333300  0.66666600  0.46656209
   0.66666600  0.33333300  0.46656473
   0.83325688  0.16674212  0.46656284
   0.66650935  0.83325467  0.46656201
   0.83325688  0.66651376  0.46656284
Direct configuration=    13
   0.66983494 -0.00000279  0.10232557
   0.33016127 -0.00000279  0.10232557
   0.00000279  0.33016406  0.10232557
   0.00000279  0.66983773  0.10232557
   0.33016127  0.33016406  0.10232557
   0.66983494  0.66983773  0.10232557
   0.66666600  0.33333300  0.10133820
   0.33333300  0.66666600  0.10372864
   0.16682729  0.33365559  0.46535446
   0.33364650  0.16682275  0.46535614
   0.16682729  0.83317171  0.46535446
   0.33333300  0.66666600  0.46535463
   0.66666600  0.33333300  0.46535999
   0.83317625  0.16682275  0.46535614
   0.66634341  0.83317171  0.46535446
   0.83317625  0.66635250  0.46535614
Direct configuration=    14
   0.66983139 -0.00000566  0.10468662
   0.33016195 -0.00000566  0.10468662
   0.00000566  0.33016761  0.10468662
   0.00000566  0.66983705  0.10468662
   0.33016195  0.33016761  0.10468662
   0.66983139  0.66983705  0.10468662
   0.66666600  0.33333300  0.10348850
   0.33333300  0.66666600  0.10672193
   0.16699323  0.33398745  0.46293936
   0.33396902  0.16698401  0.46294274
   0.16699323  0.83300577  0.46293936
   0.33333300  0.66666600  0.46293971
   0.66666600  0.33333300  0.46295051
   0.83301499  0.16698401  0.46294274
   0.66601155  0.83300577  0.46293936
   0.83301499  0.66602998  0.46294274
Direct configuration=    15
   0.66982429 -0.00001139  0.10940871
   0.33016331 -0.00001139  0.10940871
   0.00001139  0.33017471  0.10940871
   0.00001139  0.66983569  0.10940871
   0.33016331  0.33017471  0.10940871
   0.66982429  0.66983569  0.10940871
   0.66666600  0.33333300  0.10778910
   0.33333300  0.66666600  0.11270850
   0.16732509  0.33465119  0.45810916
   0.33461406  0.16730653  0.45811595
   0.16732509  0.83267391  0.45810916
   0.33333300  0.66666600  0.45810988
   0.66666600  0.33333300  0.45813154
   0.83269247  0.16730653  0.45811595
   0.66534781  0.83267391  0.45810916
   0.83269247  0.66538494  0.45811595
Direct configuration=    16
   0.66981010 -0.00002286  0.11885291
   0.33016605 -0.00002286  0.11885291
   0.00002286  0.33018890  0.11885291
   0.00002286  0.66983295  0.11885291
   0.33016605  0.33018890  0.11885291
   0.66981010  0.66983295  0.11885291
   0.66666600  0.33333300  0.11639031
   0.33333300  0.66666600  0.12468165
   0.16798883  0.33597866  0.44844877
   0.33590415  0.16795158  0.44846237
   0.16798883  0.83201017  0.44844877
   0.33333300  0.66666600  0.44845022
   0.66666600  0.33333300  0.44849361
   0.83204742  0.16795158  0.44846237
   0.66402034  0.83201017  0.44844877
   0.83204742  0.66409485  0.44846237
Direct configuration=    17
   0.66978170 -0.00004579  0.13774130
   0.33017151 -0.00004579  0.13774130
   0.00004579  0.33021730  0.13774130
   0.00004579  0.66982749  0.13774130
   0.33017151  0.33021730  0.13774130
   0.66978170  0.66982749  0.13774130
   0.66666600  0.33333300  0.13359271
   0.33333300  0.66666600  0.14862795
   0.16931630  0.33863360  0.42912798
   0.33848433  0.16924166  0.42915521
   0.16931630  0.83068270  0.42912798
   0.33333300  0.66666600  0.42913090
   0.66666600  0.33333300  0.42921774
   0.83075734  0.16924166  0.42915521
   0.66136540  0.83068270  0.42912798
   0.83075734  0.66151467  0.42915521
Direct configuration=    18
   0.66979804 -0.00003259  0.12687146
   0.33016836 -0.00003259  0.12687146
   0.00003259  0.33020096  0.12687146
   0.00003259  0.66983064  0.12687146
   0.33016836  0.33020096  0.12687146
   0.66979804  0.66983064  0.12687146
   0.66666600  0.33333300  0.12369311
   0.33333300  0.66666600  0.13484740
   0.16855237  0.33710574  0.44024666
   0.33699949  0.16849925  0.44026605
   0.16855237  0.83144663  0.44024666
   0.33333300  0.66666600  0.44024873
   0.66666600  0.33333300  0.44031057
   0.83149975  0.16849925  0.44026605
   0.66289326  0.83144663  0.44024666
   0.83149975  0.66299951  0.44026605
Direct configuration=    19
   0.66979804 -0.00003260  0.12687219
   0.33016837 -0.00003260  0.12687219
   0.00003260  0.33020096  0.12687219
   0.00003260  0.66983063  0.12687219
   0.33016837  0.33020096  0.12687219
   0.66979804  0.66983063  0.12687219
   0.66666600  0.33333300  0.12369378
   0.33333300  0.66666600  0.13484833
   0.16855240  0.33710580  0.44024591
   0.33699955  0.16849927  0.44026530
   0.16855240  0.83144660  0.44024591
   0.33333300  0.66666600  0.44024798
   0.66666600  0.33333300  0.44030982
   0.83149973  0.16849927  0.44026530
   0.66289320  0.83144660  0.44024591
   0.83149973  0.66299945  0.44026530
Direct configuration=    20
   0.66979803 -0.00003260  0.12687439
   0.33016837 -0.00003260  0.12687439
   0.00003260  0.33020097  0.12687439
   0.00003260  0.66983063  0.12687439
   0.33016837  0.33020097  0.12687439
   0.66979803  0.66983063  0.12687439
   0.66666600  0.33333300  0.12369579
   0.33333300  0.66666600  0.13485112
   0.16855248  0.33710595  0.44024366
   0.33699970  0.16849935  0.44026305
   0.16855248  0.83144652  0.44024366
   0.33333300  0.66666600  0.44024573
   0.66666600  0.33333300  0.44030757
   0.83149965  0.16849935  0.44026305
   0.66289305  0.83144652  0.44024366
   0.83149965  0.66299930  0.44026305
Direct configuration=    21
   0.66979801 -0.00003261  0.12687880
   0.33016837 -0.00003261  0.12687880
   0.00003261  0.33020099  0.12687880
   0.00003261  0.66983063  0.12687880
   0.33016837  0.33020099  0.12687880
   0.66979801  0.66983063  0.12687880
   0.66666600  0.33333300  0.12369979
   0.33333300  0.66666600  0.13485669
   0.16855264  0.33710627  0.44023916
   0.33700001  0.16849950  0.44025855
   0.16855264  0.83144636  0.44023916
   0.33333300  0.66666600  0.44024123
   0.66666600  0.33333300  0.44030308
   0.83149950  0.16849950  0.44025855
   0.66289273  0.83144636  0.44023916
   0.83149950  0.66299899  0.44025855
Direct configuration=    22
   0.66979798 -0.00003264  0.12688760
   0.33016838 -0.00003264  0.12688760
   0.00003264  0.33020102  0.12688760
   0.00003264  0.66983062  0.12688760
   0.33016838  0.33020102  0.12688760
   0.66979798  0.66983062  0.12688760
   0.66666600  0.33333300  0.12370780
   0.33333300  0.66666600  0.13486785
   0.16855295  0.33710690  0.44023015
   0.33700062  0.16849981  0.44024955
   0.16855295  0.83144605  0.44023015
   0.33333300  0.66666600  0.44023222
   0.66666600  0.33333300  0.44029409
   0.83149919  0.16849981  0.44024955
   0.66289210  0.83144605  0.44023015
   0.83149919  0.66299838  0.44024955
Direct configuration=    23
   0.66979792 -0.00003269  0.12690522
   0.33016839 -0.00003269  0.12690522
   0.00003269  0.33020108  0.12690522
   0.00003269  0.66983061  0.12690522
   0.33016839  0.33020108  0.12690522
   0.66979792  0.66983061  0.12690522
   0.66666600  0.33333300  0.12372383
   0.33333300  0.66666600  0.13489016
   0.16855358  0.33710817  0.44021213
   0.33700185  0.16850043  0.44023154
   0.16855358  0.83144542  0.44021213
   0.33333300  0.66666600  0.44021421
   0.66666600  0.33333300  0.44027611
   0.83149857  0.16850043  0.44023154
   0.66289083  0.83144542  0.44021213
   0.83149857  0.66299715  0.44023154
Direct configuration=    24
   0.66979778 -0.00003279  0.12694045
   0.33016842 -0.00003279  0.12694045
   0.00003279  0.33020122  0.12694045
   0.00003279  0.66983058  0.12694045
   0.33016842  0.33020122  0.12694045
   0.66979778  0.66983058  0.12694045
   0.66666600  0.33333300  0.12375588
   0.33333300  0.66666600  0.13493478
   0.16855485  0.33711069  0.44017611
   0.33700431  0.16850166  0.44019554
   0.16855485  0.83144415  0.44017611
   0.33333300  0.66666600  0.44017818
   0.66666600  0.33333300  0.44024016
   0.83149734  0.16850166  0.44019554
   0.66288831  0.83144415  0.44017611
   0.83149734  0.66299469  0.44019554
Direct configuration=    25
   0.66979752 -0.00003300  0.12701092
   0.33016848 -0.00003300  0.12701092
   0.00003300  0.33020148  0.12701092
   0.00003300  0.66983052  0.12701092
   0.33016848  0.33020148  0.12701092
   0.66979752  0.66983052  0.12701092
   0.66666600  0.33333300  0.12381998
   0.33333300  0.66666600  0.13502403
   0.16855738  0.33711575  0.44010405
   0.33700923  0.16850412  0.44012353
   0.16855738  0.83144162  0.44010405
   0.33333300  0.66666600  0.44010613
   0.66666600  0.33333300  0.44016826
   0.83149488  0.16850412  0.44012353
   0.66288325  0.83144162  0.44010405
   0.83149488  0.66298977  0.44012353
Direct configuration=    26
   0.66979700 -0.00003340  0.12715185
   0.33016860 -0.00003340  0.12715185
   0.00003340  0.33020200  0.12715185
   0.00003340  0.66983040  0.12715185
   0.33016860  0.33020200  0.12715185
   0.66979700  0.66983040  0.12715185
   0.66666600  0.33333300  0.12394818
   0.33333300  0.66666600  0.13520252
   0.16856243  0.33712586  0.43995994
   0.33701908  0.16850904  0.43997952
   0.16856243  0.83143657  0.43995994
   0.33333300  0.66666600  0.43996202
   0.66666600  0.33333300  0.44002446
   0.83148996  0.16850904  0.43997952
   0.66287314  0.83143657  0.43995994
   0.83148996  0.66297992  0.43997952
Direct configuration=    27
   0.66979595 -0.00003421  0.12743372
   0.33016884 -0.00003421  0.12743372
   0.00003421  0.33020305  0.12743372
   0.00003421  0.66983016  0.12743372
   0.33016884  0.33020305  0.12743372
   0.66979595  0.66983016  0.12743372
   0.66666600  0.33333300  0.12420458
   0.33333300  0.66666600  0.13555950
   0.16857255  0.33714609  0.43967172
   0.33703876  0.16851888  0.43969148
   0.16857255  0.83142645  0.43967172
   0.33333300  0.66666600  0.43967380
   0.66666600  0.33333300  0.43973685
   0.83148012  0.16851888  0.43969148
   0.66285291  0.83142645  0.43967172
   0.83148012  0.66296024  0.43969148
Direct configuration=    28
   0.66979385 -0.00003584  0.12799746
   0.33016932 -0.00003584  0.12799746
   0.00003584  0.33020515  0.12799746
   0.00003584  0.66982968  0.12799746
   0.33016932  0.33020515  0.12799746
   0.66979385  0.66982968  0.12799746
   0.66666600  0.33333300  0.12471737
   0.33333300  0.66666600  0.13627347
   0.16859277  0.33718655  0.43909527
   0.33707813  0.16853857  0.43911542
   0.16859277  0.83140623  0.43909527
   0.33333300  0.66666600  0.43909738
   0.66666600  0.33333300  0.43916164
   0.83146043  0.16853857  0.43911542
   0.66281245  0.83140623  0.43909527
   0.83146043  0.66292087  0.43911542
Direct configuration=    29
   0.66978965 -0.00003908  0.12912493
   0.33017027 -0.00003908  0.12912493
   0.00003908  0.33020935  0.12912493
   0.00003908  0.66982873  0.12912493
   0.33017027  0.33020935  0.12912493
   0.66978965  0.66982873  0.12912493
   0.66666600  0.33333300  0.12574297
   0.33333300  0.66666600  0.13770140
   0.16863323  0.33726745  0.43794238
   0.33715687  0.16857794  0.43796329
   0.16863323  0.83136577  0.43794238
   0.33333300  0.66666600  0.43794452
   0.66666600  0.33333300  0.43801121
   0.83142106  0.16857794  0.43796329
   0.66273155  0.83136577  0.43794238
   0.83142106  0.66284213  0.43796329
Direct configuration=    30
   0.66978125 -0.00004558  0.13137987
   0.33017217 -0.00004558  0.13137987
   0.00004558  0.33021775  0.13137987
   0.00004558  0.66982683  0.13137987
   0.33017217  0.33021775  0.13137987
   0.66978125  0.66982683  0.13137987
   0.66666600  0.33333300  0.12779416
   0.33333300  0.66666600  0.14055726
   0.16871413  0.33742927  0.43563660
   0.33731436  0.16865668  0.43565903
   0.16871413  0.83128487  0.43563660
   0.33333300  0.66666600  0.43563881
   0.66666600  0.33333300  0.43571036
   0.83134232  0.16865668  0.43565903
   0.66256973  0.83128487  0.43563660
   0.83134232  0.66268464  0.43565903
Direct configuration=    31
   0.66976446 -0.00005856  0.13588975
   0.33017598 -0.00005856  0.13588975
   0.00005856  0.33023454  0.13588975
   0.00005856  0.66982302  0.13588975
   0.33017598  0.33023454  0.13588975
   0.66976446  0.66982302  0.13588975
   0.66666600  0.33333300  0.13189655
   0.33333300  0.66666600  0.14626898
   0.16887595  0.33775290  0.43102503
   0.33762932  0.16881416  0.43105050
   0.16887595  0.83112305  0.43102503
   0.33333300  0.66666600  0.43102738
   0.66666600  0.33333300  0.43110865
   0.83118484  0.16881416  0.43105050
   0.66224610  0.83112305  0.43102503
   0.83118484  0.66236968  0.43105050
Direct configuration=    32
   0.66973087 -0.00008453  0.14490952
   0.33018360 -0.00008453  0.14490952
   0.00008453  0.33026813  0.14490952
   0.00008453  0.66981540  0.14490952
   0.33018360  0.33026813  0.14490952
   0.66973087  0.66981540  0.14490952
   0.66666600  0.33333300  0.14010131
   0.33333300  0.66666600  0.15769243
   0.16919958  0.33840016  0.42180189
   0.33825925  0.16912913  0.42183346
   0.16919958  0.83079942  0.42180189
   0.33333300  0.66666600  0.42180453
   0.66666600  0.33333300  0.42190524
   0.83086987  0.16912913  0.42183346
   0.66159884  0.83079942  0.42180189
   0.83086987  0.66173975  0.42183346
Direct configuration=    33
   0.66966369 -0.00013648  0.16294905
   0.33019883 -0.00013648  0.16294905
   0.00013648  0.33033531  0.16294905
   0.00013648  0.66980017  0.16294905
   0.33019883  0.33033531  0.16294905
   0.66966369  0.66980017  0.16294905
   0.66666600  0.33333300  0.15651084
   0.33333300  0.66666600  0.18053932
   0.16984684  0.33969467  0.40335562
   0.33951912  0.16975906  0.40339937
   0.16984684  0.83015216  0.40335562
   0.33333300  0.66666600  0.40335882
   0.66666600  0.33333300  0.40349842
   0.83023994  0.16975906  0.40339937
   0.66030433  0.83015216  0.40335562
   0.83023994  0.66047988  0.40339937
Direct configuration=    34
   0.66969065 -0.00011563  0.15570991
   0.33019272 -0.00011563  0.15570991
   0.00011563  0.33030835  0.15570991
   0.00011563  0.66980628  0.15570991
   0.33019272  0.33030835  0.15570991
   0.66969065  0.66980628  0.15570991
   0.66666600  0.33333300  0.14992581
   0.33333300  0.66666600  0.17137102
   0.16958710  0.33917519  0.41075799
   0.33901354  0.16950627  0.41079684
   0.16958710  0.83041190  0.41075799
   0.33333300  0.66666600  0.41076096
   0.66666600  0.33333300  0.41088495
   0.83049273  0.16950627  0.41079684
   0.66082381  0.83041190  0.41075799
   0.83049273  0.66098546  0.41079684
Direct configuration=    35
   0.66967813 -0.00012531  0.15907033
   0.33019556 -0.00012531  0.15907033
   0.00012531  0.33032087  0.15907033
   0.00012531  0.66980344  0.15907033
   0.33019556  0.33032087  0.15907033
   0.66967813  0.66980344  0.15907033
   0.66666600  0.33333300  0.15298260
   0.33333300  0.66666600  0.17562697
   0.16970767  0.33941634  0.40732179
   0.33924823  0.16962362  0.40736292
   0.16970767  0.83029133  0.40732179
   0.33333300  0.66666600  0.40732487
   0.66666600  0.33333300  0.40745611
   0.83037538  0.16962362  0.40736292
   0.66058266  0.83029133  0.40732179
   0.83037538  0.66075077  0.40736292
Direct configuration=    36
   0.66957866 -0.00018882  0.16526400
   0.33023152 -0.00018882  0.16526400
   0.00018882  0.33042034  0.16526400
   0.00018882  0.66976748  0.16526400
   0.33023152  0.33042034  0.16526400
   0.66957866  0.66976748  0.16526400
   0.66666600  0.33333300  0.15859906
   0.33333300  0.66666600  0.18344717
   0.16959773  0.33919647  0.40099467
   0.33903873  0.16951886  0.40103839
   0.16959773  0.83040127  0.40099467
   0.33333300  0.66666600  0.40099756
   0.66666600  0.33333300  0.40113974
   0.83048014  0.16951886  0.40103839
   0.66080253  0.83040127  0.40099467
   0.83048014  0.66096027  0.40103839
Direct configuration=    37
   0.66955632 -0.00020308  0.16665456
   0.33023960 -0.00020308  0.16665456
   0.00020308  0.33044268  0.16665456
   0.00020308  0.66975940  0.16665456
   0.33023960  0.33044268  0.16665456
   0.66955632  0.66975940  0.16665456
   0.66666600  0.33333300  0.15986003
   0.33333300  0.66666600  0.18520291
   0.16957305  0.33914710  0.39957414
   0.33899169  0.16949535  0.39961844
   0.16957305  0.83042595  0.39957414
   0.33333300  0.66666600  0.39957700
   0.66666600  0.33333300  0.39972163
   0.83050365  0.16949535  0.39961844
   0.66085190  0.83042595  0.39957414
   0.83050365  0.66100731  0.39961844
Direct configuration=    38
   0.66946298 -0.00025544  0.16643027
   0.33028057 -0.00025544  0.16643027
   0.00025544  0.33053602  0.16643027
   0.00025544  0.66971843  0.16643027
   0.33028057  0.33053602  0.16643027
   0.66946298  0.66971843  0.16643027
   0.66666600  0.33333300  0.15963493
   0.33333300  0.66666600  0.18488811
   0.16924443  0.33848986  0.39981163
   0.33835903  0.16917902  0.39985264
   0.16924443  0.83075457  0.39981163
   0.33333300  0.66666600  0.39981422
   0.66666600  0.33333300  0.39995496
   0.83081998  0.16917902  0.39985264
   0.66150914  0.83075457  0.39981163
   0.83081998  0.66163997  0.39985264
Direct configuration=    39
   0.66918296 -0.00041253  0.16575742
   0.33040351 -0.00041253  0.16575742
   0.00041253  0.33081604  0.16575742
   0.00041253  0.66959549  0.16575742
   0.33040351  0.33081604  0.16575742
   0.66918296  0.66959549  0.16575742
   0.66666600  0.33333300  0.15895962
   0.33333300  0.66666600  0.18394371
   0.16825857  0.33651814  0.40052410
   0.33646105  0.16823003  0.40055522
   0.16825857  0.83174043  0.40052410
   0.33333300  0.66666600  0.40052589
   0.66666600  0.33333300  0.40065495
   0.83176897  0.16823003  0.40055522
   0.66348086  0.83174043  0.40052410
   0.83176897  0.66353795  0.40055522
Direct configuration=    40
   0.66862291 -0.00072671  0.16441172
   0.33064938 -0.00072671  0.16441172
   0.00072671  0.33137609  0.16441172
   0.00072671  0.66934962  0.16441172
   0.33064938  0.33137609  0.16441172
   0.66862291  0.66934962  0.16441172
   0.66666600  0.33333300  0.15760901
   0.33333300  0.66666600  0.18205490
   0.16628685  0.33257470  0.40194904
   0.33266510  0.16633205  0.40196039
   0.16628685  0.83371215  0.40194904
   0.33333300  0.66666600  0.40194924
   0.66666600  0.33333300  0.40205493
   0.83366695  0.16633205  0.40196039
   0.66742430  0.83371215  0.40194904
   0.83366695  0.66733390  0.40196039
Direct configuration=    41
   0.66871686 -0.00067401  0.16463746
   0.33060814 -0.00067401  0.16463746
   0.00067401  0.33128214  0.16463746
   0.00067401  0.66939086  0.16463746
   0.33060814  0.33128214  0.16463746
   0.66871686  0.66939086  0.16463746
   0.66666600  0.33333300  0.15783558
   0.33333300  0.66666600  0.18237175
   0.16661761  0.33323622  0.40171000
   0.33330188  0.16665044  0.40172467
   0.16661761  0.83338139  0.40171000
   0.33333300  0.66666600  0.40171047
   0.66666600  0.33333300  0.40182008
   0.83334856  0.16665044  0.40172467
   0.66676278  0.83338139  0.40171000
   0.83334856  0.66669712  0.40172467
Direct configuration=    42
   0.66863263 -0.00069574  0.16465167
   0.33067063 -0.00069574  0.16465167
   0.00069574  0.33136637  0.16465167
   0.00069574  0.66932837  0.16465167
   0.33067063  0.33136637  0.16465167
   0.66863263  0.66932837  0.16465167
   0.66666600  0.33333300  0.15779824
   0.33333300  0.66666600  0.18233146
   0.16662361  0.33324821  0.40171195
   0.33330805  0.16665353  0.40172229
   0.16662361  0.83337539  0.40171195
   0.33333300  0.66666600  0.40171098
   0.66666600  0.33333300  0.40181326
   0.83334547  0.16665353  0.40172229
   0.66675079  0.83337539  0.40171195
   0.83334547  0.66669095  0.40172229
Direct configuration=    43
   0.66837995 -0.00076094  0.16469429
   0.33085811 -0.00076094  0.16469429
   0.00076094  0.33161905  0.16469429
   0.00076094  0.66914089  0.16469429
   0.33085811  0.33161905  0.16469429
   0.66837995  0.66914089  0.16469429
   0.66666600  0.33333300  0.15768625
   0.33333300  0.66666600  0.18221059
   0.16664159  0.33328417  0.40171778
   0.33332658  0.16666279  0.40171516
   0.16664159  0.83335741  0.40171778
   0.33333300  0.66666600  0.40171250
   0.66666600  0.33333300  0.40179279
   0.83333621  0.16666279  0.40171516
   0.66671483  0.83335741  0.40171778
   0.83333621  0.66667242  0.40171516
Direct configuration=    44
   0.66787459 -0.00089135  0.16477952
   0.33123306 -0.00089135  0.16477952
   0.00089135  0.33212441  0.16477952
   0.00089135  0.66876594  0.16477952
   0.33123306  0.33212441  0.16477952
   0.66787459  0.66876594  0.16477952
   0.66666600  0.33333300  0.15746226
   0.33333300  0.66666600  0.18196885
   0.16667755  0.33335609  0.40172945
   0.33336363  0.16668131  0.40170090
   0.16667755  0.83332145  0.40172945
   0.33333300  0.66666600  0.40171553
   0.66666600  0.33333300  0.40175185
   0.83331769  0.16668131  0.40170090
   0.66664291  0.83332145  0.40172945
   0.83331769  0.66663537  0.40170090
Direct configuration=    45
   0.66792870 -0.00081403  0.16483307
   0.33125627 -0.00081403  0.16483307
   0.00081403  0.33207030  0.16483307
   0.00081403  0.66874273  0.16483307
   0.33125627  0.33207030  0.16483307
   0.66792870  0.66874273  0.16483307
   0.66666600  0.33333300  0.15731258
   0.33333300  0.66666600  0.18183543
   0.16665804  0.33331708  0.40173118
   0.33334471  0.16667186  0.40169266
   0.16665804  0.83334096  0.40173118
   0.33333300  0.66666600  0.40171969
   0.66666600  0.33333300  0.40172904
   0.83332714  0.16667186  0.40169266
   0.66668192  0.83334096  0.40173118
   0.83332714  0.66665429  0.40169266
Direct configuration=    46
   0.66809103 -0.00058207  0.16499370
   0.33132590 -0.00058207  0.16499370
   0.00058207  0.33190797  0.16499370
   0.00058207  0.66867310  0.16499370
   0.33132590  0.33190797  0.16499370
   0.66809103  0.66867310  0.16499370
   0.66666600  0.33333300  0.15686357
   0.33333300  0.66666600  0.18143517
   0.16659952  0.33320004  0.40173638
   0.33328797  0.16664349  0.40166794
   0.16659952  0.83339948  0.40173638
   0.33333300  0.66666600  0.40173214
   0.66666600  0.33333300  0.40166060
   0.83335551  0.16664349  0.40166794
   0.66679896  0.83339948  0.40173638
   0.83335551  0.66671103  0.40166794
Direct configuration=    47
   0.66841569 -0.00011816  0.16531497
   0.33146516 -0.00011816  0.16531497
   0.00011816  0.33158331  0.16531497
   0.00011816  0.66853384  0.16531497
   0.33146516  0.33158331  0.16531497
   0.66841569  0.66853384  0.16531497
   0.66666600  0.33333300  0.15596553
   0.33333300  0.66666600  0.18063464
   0.16648247  0.33296595  0.40174678
   0.33317449  0.16658674  0.40161851
   0.16648247  0.83351653  0.40174678
   0.33333300  0.66666600  0.40175706
   0.66666600  0.33333300  0.40152371