Lattice                                 
           1
     4.243524    2.450000    0.000000
    -4.243524    2.450000    0.000000
     0.000000    0.000000   15.000000
   B    C 
     4    11
Direct configuration=     1
   0.00415361  0.00267210  0.12034134
   0.35695335  0.00285503  0.09748893
   0.00423858  0.35550699  0.09749256
   0.65142295  0.65006557  0.09747688
   0.32808646  0.32671938  0.10030508
   0.68027775  0.00278085  0.10027562
   0.00416530  0.67883808  0.10026559
   0.11111044  0.38888856  0.33726667
   0.27777744  0.22222156  0.33726667
   0.11111044  0.88888856  0.33726667
   0.27777744  0.72222156  0.33726667
   0.61111044  0.38888856  0.33726667
   0.77777744  0.22222156  0.33726667
   0.61111044  0.88888856  0.33726667
   0.77777744  0.72222156  0.33726667
Direct configuration=     2
   0.00416352  0.00268414  0.11873110
   0.35538786  0.00279762  0.09791027
   0.00419405  0.35417683  0.09796859
   0.65287642  0.65141138  0.09793860
   0.32378034  0.32225133  0.10031699
   0.68485802  0.00279315  0.10033295
   0.00422297  0.68316375  0.10028748
   0.11103479  0.38898926  0.33728403
   0.27790380  0.22233030  0.33736144
   0.11129704  0.88903227  0.33729830
   0.27797129  0.72221970  0.33720886
   0.61107531  0.38883757  0.33720368
   0.77774188  0.22227618  0.33729306
   0.61092472  0.88883028  0.33734804
   0.77741754  0.72208470  0.33729594
Direct configuration=     3
   0.00415902  0.00267868  0.11946187
   0.35609832  0.00282367  0.09771906
   0.00421426  0.35478049  0.09775256
   0.65221680  0.65080062  0.09772906
   0.32573456  0.32427904  0.10031158
   0.68277938  0.00278757  0.10030693
   0.00419680  0.68120065  0.10027754
   0.11106913  0.38894356  0.33727615
   0.27784646  0.22228095  0.33731843
   0.11121236  0.88896705  0.33728395
   0.27788332  0.72222054  0.33723510
   0.61109125  0.38886071  0.33723226
   0.77775802  0.22225139  0.33728108
   0.61100900  0.88885673  0.33731111
   0.77758088  0.72214681  0.33728265
Direct configuration=     4
   0.00416319  0.00271248  0.11807762
   0.35660400  0.00276496  0.09810040
   0.00421338  0.35528100  0.09818744
   0.65177815  0.65023074  0.09814929
   0.32600047  0.32441897  0.10028379
   0.68260774  0.00278359  0.10032087
   0.00424105  0.68098027  0.10025889
   0.11110059  0.38887986  0.33729683
   0.27767612  0.22224562  0.33739403
   0.11097650  0.88885866  0.33731937
   0.27765150  0.72227258  0.33720019
   0.61108143  0.38892814  0.33719658
   0.77773274  0.22222556  0.33730505
   0.61114911  0.88896849  0.33737760
   0.77787357  0.72232753  0.33731139
Direct configuration=     5
   0.00417569  0.00281387  0.11392487
   0.35812107  0.00258883  0.09924444
   0.00421075  0.35678253  0.09949208
   0.65046221  0.64852110  0.09940997
   0.32679821  0.32483878  0.10020040
   0.68209282  0.00277166  0.10036268
   0.00437379  0.68031912  0.10020291
   0.11119498  0.38868875  0.33735886
   0.27716510  0.22213963  0.33762083
   0.11026895  0.88853349  0.33742565
   0.27695605  0.72242869  0.33709548
   0.61105196  0.38913045  0.33708953
   0.77765691  0.22214808  0.33737695
   0.61156942  0.88930378  0.33757707
   0.77875166  0.72286968  0.33739762
Direct configuration=     6
   0.00418029  0.00285114  0.11239851
   0.35867867  0.00252410  0.09966493
   0.00420978  0.35733443  0.09997160
   0.64997853  0.64789272  0.09987334
   0.32709142  0.32499307  0.10016975
   0.68190356  0.00276727  0.10037804
   0.00442258  0.68007611  0.10018233
   0.11122968  0.38861851  0.33738166
   0.27697727  0.22210067  0.33770419
   0.11000888  0.88841397  0.33746471
   0.27670044  0.72248607  0.33705699
   0.61104112  0.38920481  0.33705019
   0.77762904  0.22211960  0.33740338
   0.61172390  0.88942702  0.33765039
   0.77907440  0.72306895  0.33742931
Direct configuration=     7
   0.00418530  0.00285483  0.11187787
   0.35882021  0.00250791  0.09977606
   0.00422032  0.35745435  0.10009630
   0.64987032  0.64774508  0.09999424
   0.32718420  0.32505525  0.10019667
   0.68183029  0.00275554  0.10041628
   0.00443382  0.67999766  0.10021216
   0.11115778  0.38871929  0.33738910
   0.27710426  0.22213490  0.33771853
   0.11021721  0.88858054  0.33747628
   0.27689133  0.72246590  0.33706005
   0.61101104  0.38917972  0.33705378
   0.77763191  0.22217899  0.33741069
   0.61154667  0.88933739  0.33766310
   0.77874488  0.72291109  0.33743821
Direct configuration=     8
   0.00420035  0.00286588  0.11031596
   0.35924485  0.00245936  0.10010944
   0.00425194  0.35781410  0.10047039
   0.64954570  0.64730215  0.10035692
   0.32746254  0.32524176  0.10027745
   0.68161050  0.00272034  0.10053098
   0.00446752  0.67976231  0.10030163
   0.11094207  0.38902162  0.33741143
   0.27748524  0.22223759  0.33776157
   0.11084221  0.88908025  0.33751100
   0.27746401  0.72240540  0.33706920
   0.61092077  0.38910446  0.33706457
   0.77764055  0.22235718  0.33743263
   0.61101499  0.88906853  0.33770123
   0.77775632  0.72243752  0.33746492
Direct configuration=     9
   0.00423045  0.00288799  0.10719212
   0.36009414  0.00236225  0.10077620
   0.00431517  0.35853362  0.10121857
   0.64889646  0.64641630  0.10108229
   0.32801922  0.32561478  0.10043901
   0.68117092  0.00264994  0.10076040
   0.00453493  0.67929161  0.10048058
   0.11051065  0.38962628  0.33745609
   0.27824718  0.22244297  0.33784764
   0.11209221  0.89007967  0.33758045
   0.27860937  0.72228440  0.33708752
   0.61074024  0.38895394  0.33708614
   0.77765781  0.22271354  0.33747651
   0.60995161  0.88853079  0.33777748
   0.77577919  0.72149036  0.33751835
Direct configuration=    10
   0.00421108  0.00287376  0.10920225
   0.35954764  0.00242474  0.10034715
   0.00427448  0.35807062  0.10073713
   0.64931423  0.64698633  0.10061553
   0.32766100  0.32537475  0.10033505
   0.68145378  0.00269524  0.10061277
   0.00449155  0.67959450  0.10036543
   0.11078826  0.38923719  0.33742735
   0.27775688  0.22231081  0.33779226
   0.11128786  0.88943656  0.33753576
   0.27787235  0.72236226  0.33707574
   0.61085641  0.38905080  0.33707226
   0.77764670  0.22248423  0.33744828
   0.61063587  0.88887681  0.33772841
   0.77705144  0.72209984  0.33748397
Direct configuration=    11
   0.00422640  0.00285393  0.10870268
   0.35951739  0.00242246  0.10039147
   0.00430389  0.35799982  0.10077856
   0.64937768  0.64703792  0.10065748
   0.32764488  0.32536220  0.10043595
   0.68146946  0.00266539  0.10071369
   0.00449370  0.67960910  0.10046725
   0.11080059  0.38921884  0.33743403
   0.27776402  0.22241469  0.33777692
   0.11125215  0.88936687  0.33754161
   0.27787481  0.72239047  0.33711250
   0.61085128  0.38900907  0.33711061
   0.77759499  0.22248470  0.33745224
   0.61063174  0.88890079  0.33771537
   0.77704657  0.72214220  0.33748898
Direct configuration=    12
   0.00427236  0.00279442  0.10720398
   0.35942663  0.00241562  0.10052442
   0.00439213  0.35778742  0.10090286
   0.64956803  0.64719270  0.10078334
   0.32759652  0.32532456  0.10073867
   0.68151648  0.00257582  0.10101643
   0.00450015  0.67965292  0.10077271
   0.11083760  0.38916376  0.33745405
   0.27778545  0.22272632  0.33773091
   0.11114500  0.88915778  0.33755914
   0.27788216  0.72247511  0.33722278
   0.61083589  0.38888389  0.33722567
   0.77743986  0.22248611  0.33746413
   0.61061935  0.88897271  0.33767623
   0.77703195  0.72226930  0.33750401
Direct configuration=    13
   0.00436427  0.00267541  0.10420656
   0.35924512  0.00240195  0.10079033
   0.00456860  0.35736262  0.10115146
   0.64994873  0.64750226  0.10103507
   0.32749980  0.32524929  0.10134410
   0.68161052  0.00239668  0.10162192
   0.00451304  0.67974056  0.10138363
   0.11091160  0.38905361  0.33749410
   0.27782829  0.22334959  0.33763889
   0.11093071  0.88873960  0.33759420
   0.27789687  0.72264438  0.33744334
   0.61080511  0.38863352  0.33745580
   0.77712960  0.22248894  0.33748791
   0.61059456  0.88911656  0.33759796
   0.77700273  0.72252348  0.33753406
Direct configuration=    14
   0.00441647  0.00261884  0.10317600
   0.35926060  0.00240661  0.10090970
   0.00462389  0.35733891  0.10124384
   0.64995494  0.64752266  0.10113481
   0.32762187  0.32537805  0.10153705
   0.68152441  0.00235002  0.10179880
   0.00453156  0.67955380  0.10157661
   0.11080284  0.38917172  0.33750929
   0.27752448  0.22269713  0.33760795
   0.11078194  0.88908463  0.33760337
   0.27755427  0.72250127  0.33752524
   0.61078506  0.38907396  0.33753649
   0.77734758  0.22242585  0.33750217
   0.61076073  0.88925625  0.33757061
   0.77735892  0.72249876  0.33754741
Direct configuration=    15
   0.00442399  0.00261070  0.10302769
   0.35926283  0.00240728  0.10092688
   0.00463184  0.35733550  0.10125714
   0.64995584  0.64752559  0.10114917
   0.32763944  0.32539658  0.10156481
   0.68151202  0.00234331  0.10182425
   0.00453423  0.67952692  0.10160438
   0.11078718  0.38918871  0.33751147
   0.27748075  0.22260324  0.33760350
   0.11076053  0.88913428  0.33760469
   0.27750497  0.72248067  0.33753703
   0.61078217  0.38913735  0.33754810
   0.77737895  0.22241677  0.33750422
   0.61078464  0.88927635  0.33756667
   0.77741018  0.72249520  0.33754933
Direct configuration=    16
   0.00443763  0.00259881  0.10303544
   0.35935814  0.00241047  0.10097737
   0.00461984  0.35745191  0.10128897
   0.64982892  0.64742724  0.10118673
   0.32774392  0.32548940  0.10152224
   0.68144312  0.00236512  0.10176631
   0.00454988  0.67938502  0.10156044
   0.11076208  0.38917094  0.33751407
   0.27745094  0.22250747  0.33761412
   0.11081795  0.88921239  0.33760356
   0.27749248  0.72252714  0.33753094
   0.61076525  0.38915267  0.33753773
   0.77743578  0.22251267  0.33751184
   0.61075358  0.88916244  0.33757598
   0.77739005  0.72250474  0.33755357
Direct configuration=    17
   0.00445594  0.00258286  0.10304583
   0.35948602  0.00241476  0.10104512
   0.00460373  0.35760811  0.10133168
   0.64965863  0.64729527  0.10123714
   0.32788411  0.32561395  0.10146513
   0.68135069  0.00239439  0.10168858
   0.00457087  0.67919463  0.10150147
   0.11072839  0.38914709  0.33751756
   0.27741093  0.22237897  0.33762838
   0.11089500  0.88931720  0.33760205
   0.27747573  0.72258949  0.33752278
   0.61074255  0.38917323  0.33752382
   0.77751204  0.22264134  0.33752207
   0.61071190  0.88900961  0.33758847
   0.77736303  0.72251754  0.33755925
Direct configuration=    18
   0.00446806  0.00255672  0.10303544
   0.35955759  0.00241432  0.10111144
   0.00459203  0.35764921  0.10136892
   0.64958108  0.64724653  0.10128326
   0.32788688  0.32560243  0.10141738
   0.68137733  0.00241671  0.10161559
   0.00458753  0.67918305  0.10145152
   0.11076455  0.38918465  0.33752335
   0.27742962  0.22247061  0.33764117
   0.11081473  0.88924871  0.33760224
   0.27746459  0.72254037  0.33751620
   0.61074524  0.38917870  0.33751383
   0.77743925  0.22253094  0.33753233
   0.61074162  0.88914747  0.33760232
   0.77739946  0.72250801  0.33756436
Direct configuration=    19
   0.00447498  0.00254177  0.10302950
   0.35959850  0.00241406  0.10114935
   0.00458535  0.35767271  0.10139021
   0.64953675  0.64721867  0.10130962
   0.32788847  0.32559585  0.10139008
   0.68139256  0.00242947  0.10157387
   0.00459705  0.67917643  0.10142297
   0.11078522  0.38920612  0.33752665
   0.27744030  0.22252299  0.33764848
   0.11076885  0.88920956  0.33760234
   0.27745823  0.72251229  0.33751243
   0.61074677  0.38918183  0.33750811
   0.77739764  0.22246783  0.33753819
   0.61075861  0.88922628  0.33761024
   0.77742028  0.72250257  0.33756729
Direct configuration=    20
   0.00448167  0.00251573  0.10300114
   0.35960031  0.00241128  0.10118817
   0.00458354  0.35761533  0.10140477
   0.64955852  0.64724914  0.10133159
   0.32781498  0.32551310  0.10137126
   0.68147564  0.00243544  0.10153220
   0.00460445  0.67926945  0.10140219
   0.11075196  0.38918702  0.33753336
   0.27743475  0.22253533  0.33765565
   0.11078482  0.88921496  0.33760480
   0.27746910  0.72253996  0.33751050
   0.61074946  0.38916410  0.33750648
   0.77741225  0.22251280  0.33754557
   0.61074362  0.88919260  0.33762122
   0.77738448  0.72252218  0.33757043
Direct configuration=    21
   0.00448515  0.00250220  0.10298640
   0.35960126  0.00240983  0.10120835
   0.00458260  0.35758551  0.10141234
   0.64956984  0.64726498  0.10134300
   0.32777678  0.32547009  0.10136148
   0.68151882  0.00243854  0.10151055
   0.00460830  0.67931781  0.10139139
   0.11073468  0.38917709  0.33753685
   0.27743187  0.22254175  0.33765937
   0.11079312  0.88921777  0.33760607
   0.27747475  0.72255435  0.33750949
   0.61075085  0.38915489  0.33750564
   0.77741984  0.22253617  0.33754941
   0.61073583  0.88917510  0.33762693
   0.77736587  0.72253238  0.33757206
Direct configuration=    22
   0.00449567  0.00248470  0.10294696
   0.35959866  0.00240926  0.10122486
   0.00458765  0.35755175  0.10141048
   0.64959049  0.64728325  0.10134672
   0.32777453  0.32546090  0.10136309
   0.68153301  0.00243520  0.10149277
   0.00461255  0.67932067  0.10139132
   0.11073953  0.38920326  0.33754334
   0.27741718  0.22250202  0.33766346
   0.11079337  0.88925788  0.33760968
   0.27745527  0.72254767  0.33751214
   0.61073614  0.38918938  0.33750950
   0.77741803  0.22253342  0.33755544
   0.61072691  0.88918044  0.33763459
   0.77737058  0.72251864  0.33757500
Direct configuration=    23
   0.00450617  0.00246722  0.10290756
   0.35959607  0.00240869  0.10124135
   0.00459269  0.35751803  0.10140862
   0.64961111  0.64730151  0.10135042
   0.32777229  0.32545172  0.10136470
   0.68154717  0.00243188  0.10147501
   0.00461680  0.67932353  0.10139125
   0.11074439  0.38922939  0.33754983
   0.27740251  0.22246234  0.33766754
   0.11079362  0.88929795  0.33761329
   0.27743580  0.72254100  0.33751479
   0.61072144  0.38922383  0.33751335
   0.77741621  0.22253068  0.33756146
   0.61071800  0.88918578  0.33764223
   0.77737528  0.72250492  0.33757793
Direct configuration=    24
   0.00451274  0.00245896  0.10288347
   0.35959767  0.00240831  0.10124842
   0.00459624  0.35750624  0.10140639
   0.64961841  0.64730599  0.10135101
   0.32777966  0.32545459  0.10136724
   0.68154788  0.00242917  0.10146725
   0.00461951  0.67931339  0.10139290
   0.11074329  0.38923111  0.33755338
   0.27739902  0.22246827  0.33766985
   0.11078774  0.88929770  0.33761543
   0.27743059  0.72254623  0.33751704
   0.61071637  0.38922549  0.33751605
   0.77741104  0.22253436  0.33756493
   0.61071461  0.88918805  0.33764608
   0.77737480  0.72251056  0.33757989
Direct configuration=    25
   0.00453243  0.00243418  0.10281121
   0.35960246  0.00240716  0.10126963
   0.00460690  0.35747086  0.10139970
   0.64964031  0.64731945  0.10135279
   0.32780177  0.32546323  0.10137485
   0.68155000  0.00242106  0.10144397
   0.00462763  0.67928300  0.10139786
   0.11074000  0.38923626  0.33756405
   0.27738853  0.22248607  0.33767677
   0.11077009  0.88929694  0.33762185
   0.27741494  0.72256195  0.33752381
   0.61070117  0.38923047  0.33752412
   0.77739552  0.22254541  0.33757533
   0.61070443  0.88919488  0.33765761
   0.77737336  0.72252751  0.33758579
Direct configuration=    26
   0.00457183  0.00238463  0.10266667
   0.35961206  0.00240488  0.10131206
   0.00462823  0.35740011  0.10138632
   0.64968411  0.64734636  0.10135633
   0.32784599  0.32548049  0.10139007
   0.68155423  0.00240484  0.10139741
   0.00464388  0.67922220  0.10140778
   0.11073341  0.38924657  0.33758538
   0.27736757  0.22252168  0.33769061
   0.11073481  0.88929544  0.33763469
   0.27738364  0.72259339  0.33753735
   0.61067076  0.38924042  0.33754027
   0.77736448  0.22256750  0.33759614
   0.61068407  0.88920854  0.33768068
   0.77737048  0.72256141  0.33759758
Direct configuration=    27
   0.00465062  0.00228553  0.10237761
   0.35963126  0.00240031  0.10139690
   0.00467087  0.35725860  0.10135957
   0.64977170  0.64740017  0.10136341
   0.32793443  0.32551503  0.10142051
   0.68156271  0.00237240  0.10130428
   0.00467637  0.67910061  0.10142762
   0.11072024  0.38926718  0.33762803
   0.27732565  0.22259288  0.33771829
   0.11066425  0.88929242  0.33766038
   0.27732105  0.72265626  0.33756443
   0.61060995  0.38926032  0.33757257
   0.77730239  0.22261168  0.33763775
   0.61064334  0.88923586  0.33772681
   0.77736472  0.72262920  0.33762117
Direct configuration=    28
   0.00466833  0.00227132  0.10230177
   0.35965722  0.00239343  0.10140904
   0.00468315  0.35725503  0.10135541
   0.64977090  0.64738056  0.10136417
   0.32794737  0.32550653  0.10142716
   0.68157799  0.00236224  0.10128910
   0.00468898  0.67907987  0.10143249
   0.11067810  0.38927984  0.33763690
   0.27731695  0.22260767  0.33772680
   0.11066649  0.88931305  0.33766709
   0.27733045  0.72265433  0.33757464
   0.61061593  0.38926772  0.33758127
   0.77730023  0.22262076  0.33764857
   0.61063050  0.88925757  0.33773521
   0.77731696  0.72262851  0.33762971
Direct configuration=    29
   0.00472145  0.00222867  0.10207427
   0.35973510  0.00237279  0.10144543
   0.00472000  0.35724432  0.10134294
   0.64976851  0.64732172  0.10136645
   0.32798617  0.32548105  0.10144713
   0.68162384  0.00233177  0.10124355
   0.00472680  0.67901763  0.10144710
   0.11055168  0.38931782  0.33766349
   0.27729088  0.22265205  0.33775232
   0.11067323  0.88937496  0.33768722
   0.27735862  0.72264853  0.33760530
   0.61063385  0.38928995  0.33760738
   0.77729374  0.22264800  0.33768101
   0.61059199  0.88932272  0.33776039
   0.77717370  0.72262646  0.33765535
Direct configuration=    30
   0.00474046  0.00222128  0.10196266
   0.35979272  0.00235010  0.10144777
   0.00474060  0.35727133  0.10134475
   0.64975076  0.64725662  0.10136838
   0.32798707  0.32543637  0.10145097
   0.68166680  0.00231237  0.10123516
   0.00475175  0.67902037  0.10145015
   0.11054387  0.38933406  0.33767427
   0.27727052  0.22266468  0.33776631
   0.11064991  0.88938881  0.33769866
   0.27733203  0.72266806  0.33762372
   0.61060890  0.38930857  0.33762153
   0.77727144  0.22266352  0.33769547
   0.61057429  0.88933641  0.33776864
   0.77716846  0.72264589  0.33767088
Direct configuration=    31
   0.00479750  0.00219909  0.10162783
   0.35996555  0.00228203  0.10145477
   0.00480239  0.35735238  0.10135018
   0.64969749  0.64706132  0.10137417
   0.32798979  0.32530235  0.10146248
   0.68179566  0.00225417  0.10120998
   0.00482660  0.67902861  0.10145931
   0.11052043  0.38938277  0.33770661
   0.27720943  0.22270257  0.33780829
   0.11057995  0.88943036  0.33773300
   0.27725225  0.72272663  0.33767900
   0.61053405  0.38936442  0.33766397
   0.77720455  0.22271007  0.33773884
   0.61052120  0.88937748  0.33779342
   0.77715273  0.72270420  0.33771749
Direct configuration=    32
   0.00491157  0.00215471  0.10095816
   0.36031121  0.00214590  0.10146877
   0.00492597  0.35751446  0.10136105
   0.64959097  0.64667071  0.10138575
   0.32799522  0.32503430  0.10148551
   0.68205338  0.00213777  0.10115963
   0.00497630  0.67904509  0.10147763
   0.11047357  0.38948020  0.33777129
   0.27708726  0.22277836  0.33789223
   0.11044003  0.88951345  0.33780168
   0.27709269  0.72284377  0.33778954
   0.61038434  0.38947612  0.33774885
   0.77707076  0.22280318  0.33782559
   0.61041502  0.88945962  0.33784297
   0.77712127  0.72282082  0.33781069
Direct configuration=    33
   0.00483224  0.00218558  0.10142390
   0.36007081  0.00224058  0.10145903
   0.00484002  0.35740173  0.10135349
   0.64966506  0.64694237  0.10137770
   0.32799144  0.32522072  0.10146950
   0.68187413  0.00221872  0.10119465
   0.00487219  0.67903363  0.10146489
   0.11050616  0.38941244  0.33772630
   0.27717223  0.22272565  0.33783385
   0.11053734  0.88945566  0.33775391
   0.27720366  0.72276230  0.33771266
   0.61048846  0.38939843  0.33768982
   0.77716380  0.22273842  0.33776525
   0.61048886  0.88940249  0.33780851
   0.77714315  0.72273971  0.33774587
Direct configuration=    34
   0.00484546  0.00216791  0.10127205
   0.36007254  0.00218578  0.10144496
   0.00487727  0.35736311  0.10138048
   0.64974357  0.64692145  0.10139212
   0.32804902  0.32519225  0.10144719
   0.68188038  0.00217735  0.10119832
   0.00491104  0.67903100  0.10144538
   0.11047688  0.38943116  0.33774774
   0.27714453  0.22275575  0.33785168
   0.11050898  0.88947730  0.33778270
   0.27717631  0.72279567  0.33773121
   0.61045619  0.38941922  0.33771648
   0.77713882  0.22277651  0.33777655
   0.61045519  0.88941329  0.33782766
   0.77711338  0.72277069  0.33776483
Direct configuration=    35
   0.00488514  0.00211493  0.10081647
   0.36007773  0.00202140  0.10140273
   0.00498902  0.35724725  0.10146145
   0.64997913  0.64685869  0.10143539
   0.32822174  0.32510683  0.10138026
   0.68189911  0.00205324  0.10120934
   0.00502759  0.67902311  0.10138685
   0.11038905  0.38948731  0.33781203
   0.27706144  0.22284606  0.33790516
   0.11042389  0.88954223  0.33786905
   0.27709425  0.72289577  0.33778685
   0.61035937  0.38948157  0.33779647
   0.77706386  0.22289076  0.33781043
   0.61035418  0.88944569  0.33788513
   0.77702407  0.72286361  0.33782171
Direct configuration=    36
   0.00490126  0.00209340  0.10063134
   0.36007984  0.00195460  0.10138557
   0.00503442  0.35720016  0.10149436
   0.65007485  0.64683319  0.10145297
   0.32829193  0.32507211  0.10135306
   0.68190673  0.00200280  0.10121381
   0.00507495  0.67901990  0.10136306
   0.11035336  0.38951013  0.33783816
   0.27702767  0.22288275  0.33792690
   0.11038931  0.88956862  0.33790414
   0.27706090  0.72293645  0.33780946
   0.61032003  0.38950691  0.33782897
   0.77703339  0.22293719  0.33782420
   0.61031313  0.88945886  0.33790848
   0.77698778  0.72290137  0.33784483
Direct configuration=    37
   0.00494166  0.00209724  0.10047589
   0.36006198  0.00191720  0.10137054
   0.00508008  0.35715644  0.10152408
   0.65014558  0.64681870  0.10146912
   0.32834365  0.32504619  0.10131894
   0.68194246  0.00196972  0.10122176
   0.00511767  0.67893471  0.10133312
   0.11031590  0.38958175  0.33785774
   0.27698578  0.22288227  0.33795340
   0.11035757  0.88962808  0.33793037
   0.27702241  0.72291649  0.33783153
   0.61030652  0.38956824  0.33785017
   0.77697940  0.22289767  0.33784334
   0.61030285  0.88957054  0.33792888
   0.77694605  0.72289320  0.33787046
Direct configuration=    38
   0.00494737  0.00209779  0.10045393
   0.36005946  0.00191191  0.10136842
   0.00508653  0.35715026  0.10152828
   0.65015557  0.64681666  0.10147140
   0.32835096  0.32504253  0.10131411
   0.68194751  0.00196504  0.10122288
   0.00512370  0.67892267  0.10132889
   0.11031060  0.38959187  0.33786051
   0.27697986  0.22288220  0.33795714
   0.11035308  0.88963648  0.33793408
   0.27701697  0.72291367  0.33783464
   0.61030461  0.38957690  0.33785316
   0.77697177  0.22289208  0.33784604
   0.61030140  0.88958632  0.33793176
   0.77694016  0.72289205  0.33787408
Direct configuration=    39
   0.00498054  0.00210320  0.10041138
   0.36005749  0.00191692  0.10136523
   0.00510536  0.35713364  0.10153439
   0.65016036  0.64681297  0.10147483
   0.32835473  0.32503353  0.10129558
   0.68198263  0.00196123  0.10122811
   0.00513670  0.67885144  0.10131246
   0.11029194  0.38959136  0.33786429
   0.27696874  0.22290716  0.33797213
   0.11033582  0.88963456  0.33793775
   0.27700708  0.72293691  0.33784410
   0.61029104  0.38957485  0.33785351
   0.77695957  0.22291132  0.33785961
   0.61028769  0.88959257  0.33793893
   0.77692987  0.72291680  0.33788704
Direct configuration=    40
   0.00500743  0.00210758  0.10037689
   0.36005589  0.00192099  0.10136265
   0.00512062  0.35712016  0.10153934
   0.65016424  0.64680998  0.10147761
   0.32835778  0.32502623  0.10128055
   0.68201110  0.00195813  0.10123235
   0.00514725  0.67879368  0.10129913
   0.11027681  0.38959094  0.33786736
   0.27695973  0.22292740  0.33798429
   0.11032182  0.88963300  0.33794072
   0.27699907  0.72295575  0.33785177
   0.61028004  0.38957318  0.33785379
   0.77694967  0.22292691  0.33787062
   0.61027657  0.88959764  0.33794474
   0.77692153  0.72293687  0.33789754
Direct configuration=    41
   0.00502613  0.00207838  0.10036369
   0.36008337  0.00192344  0.10136225
   0.00513126  0.35709798  0.10153591
   0.65016467  0.64680923  0.10147529
   0.32835919  0.32502147  0.10126700
   0.68202502  0.00195098  0.10123714
   0.00515117  0.67878761  0.10128698
   0.11027520  0.38960435  0.33787076
   0.27694936  0.22292633  0.33799286
   0.11031702  0.88965208  0.33794161
   0.27698646  0.72296320  0.33785618
   0.61026596  0.38959113  0.33785304
   0.77694492  0.22294452  0.33788048
   0.61026049  0.88958967  0.33795173
   0.77690934  0.72293808  0.33790441
Direct configuration=    42
   0.00506822  0.00201267  0.10033400
   0.36014519  0.00192894  0.10136135
   0.00515519  0.35704806  0.10152821
   0.65016564  0.64680755  0.10147008
   0.32836235  0.32501076  0.10123652
   0.68205632  0.00193491  0.10124791
   0.00516000  0.67877395  0.10125963
   0.11027158  0.38963452  0.33787842
   0.27692603  0.22292392  0.33801214
   0.11030622  0.88969502  0.33794360
   0.27695810  0.72297997  0.33786613
   0.61023428  0.38963152  0.33785133
   0.77693421  0.22298412  0.33790269
   0.61022433  0.88957173  0.33796746
   0.77688190  0.72294080  0.33791986
Direct configuration=    43
   0.00508059  0.00198982  0.10032716
   0.36016595  0.00192893  0.10136062
   0.00516210  0.35703473  0.10152388
   0.65016584  0.64680506  0.10146698
   0.32836615  0.32500755  0.10122768
   0.68206578  0.00192943  0.10125111
   0.00516421  0.67877036  0.10125168
   0.11026186  0.38963936  0.33788226
   0.27691931  0.22293446  0.33801626
   0.11029628  0.88969684  0.33794546
   0.27695136  0.72298641  0.33786853
   0.61022875  0.38963391  0.33785280
   0.77692404  0.22298488  0.33790830
   0.61022052  0.88958667  0.33797331
   0.77687683  0.72295005  0.33792328
Direct configuration=    44
   0.00511769  0.00192124  0.10030667
   0.36022820  0.00192887  0.10135843
   0.00518282  0.35699474  0.10151091
   0.65016643  0.64679762  0.10145768
   0.32837757  0.32499793  0.10120118
   0.68209413  0.00191300  0.10126071
   0.00517684  0.67875956  0.10122781
   0.11023270  0.38965387  0.33789376
   0.27689914  0.22296610  0.33802860
   0.11026646  0.88970228  0.33795106
   0.27693112  0.72300576  0.33787574
   0.61021217  0.38964110  0.33785723
   0.77689354  0.22298715  0.33792515
   0.61020912  0.88963147  0.33799087
   0.77686161  0.72297777  0.33793354
Direct configuration=    45
   0.00519191  0.00178408  0.10026568
   0.36035271  0.00192876  0.10135404
   0.00522428  0.35691477  0.10148495
   0.65016763  0.64678272  0.10143909
   0.32840041  0.32497870  0.10114818
   0.68215084  0.00188015  0.10127990
   0.00520209  0.67873796  0.10118008
   0.11017439  0.38968290  0.33791678
   0.27685881  0.22302936  0.33805329
   0.11020682  0.88971317  0.33796224
   0.27689064  0.72304444  0.33789015
   0.61017900  0.38965546  0.33786608
   0.77683254  0.22299169  0.33795883
   0.61018630  0.88972107  0.33802597
   0.77683119  0.72303321  0.33795407
Direct configuration=    46
   0.00514009  0.00187985  0.10029430
   0.36026578  0.00192884  0.10135711
   0.00519533  0.35697061  0.10150307
   0.65016679  0.64679312  0.10145207
   0.32838447  0.32499213  0.10118519
   0.68211125  0.00190309  0.10126650
   0.00518446  0.67875304  0.10121341
   0.11021511  0.38966263  0.33790071
   0.27688697  0.22298519  0.33803605
   0.11024846  0.88970557  0.33795443
   0.27691890  0.72301743  0.33788008
   0.61020216  0.38964543  0.33785990
   0.77687513  0.22298852  0.33793531
   0.61020223  0.88965851  0.33800146
   0.77685243  0.72299450  0.33793974
Direct configuration=    47
   0.00515162  0.00187155  0.10029157
   0.36027444  0.00192368  0.10135370
   0.00520143  0.35696778  0.10149537
   0.65016907  0.64678403  0.10144581
   0.32839418  0.32498510  0.10117946
   0.68212639  0.00189848  0.10126718
   0.00519570  0.67873289  0.10120813
   0.11020128  0.38966761  0.33790745
   0.27687847  0.22299350  0.33803556
   0.11024183  0.88971208  0.33795982
   0.27691445  0.72302545  0.33788233
   0.61019720  0.38965040  0.33786733
   0.77686918  0.22299735  0.33793736
   0.61019379  0.88966559  0.33800780
   0.77684054  0.72300294  0.33794045
Direct configuration=    48
   0.00518621  0.00184665  0.10028339
   0.36030043  0.00190819  0.10134350
   0.00521971  0.35695930  0.10147228
   0.65017592  0.64675676  0.10142701
   0.32842331  0.32496402  0.10116226
   0.68217181  0.00188467  0.10126921
   0.00522944  0.67867244  0.10119228
   0.11015979  0.38968256  0.33792769
   0.27685295  0.22301845  0.33803410
   0.11022193  0.88973162  0.33797600
   0.27690108  0.72304953  0.33788907
   0.61018234  0.38966532  0.33788963
   0.77685131  0.22302385  0.33794349
   0.61016846  0.88968683  0.33802684
   0.77680487  0.72302826  0.33794260
Direct configuration=    49
   0.00520317  0.00183444  0.10027938
   0.36031317  0.00190060  0.10133849
   0.00522867  0.35695514  0.10146096
   0.65017927  0.64674339  0.10141779
   0.32843758  0.32495369  0.10115383
   0.68219408  0.00187790  0.10127020
   0.00524597  0.67864280  0.10118452
   0.11013946  0.38968988  0.33793760
   0.27684044  0.22303067  0.33803338
   0.11021218  0.88974120  0.33798393
   0.27689452  0.72306133  0.33789237
   0.61017506  0.38967263  0.33790055
   0.77684255  0.22303684  0.33794649
   0.61015604  0.88969725  0.33803617
   0.77678739  0.72304068  0.33794366
Direct configuration=    50
   0.00521326  0.00182953  0.10027888
   0.36032181  0.00188731  0.10133250
   0.00523833  0.35694370  0.10145075
   0.65019318  0.64673128  0.10140899
   0.32845067  0.32493903  0.10114855
   0.68220711  0.00186902  0.10126749
   0.00526208  0.67863346  0.10117934
   0.11014201  0.38970582  0.33794374
   0.27683029  0.22303486  0.33803472
   0.11020057  0.88975484  0.33798930
   0.27687661  0.72306706  0.33789823
   0.61015781  0.38969002  0.33790884