Lattice                                 
           1
     4.174242    2.410000    0.000000
    -4.174242    2.410000    0.000000
     0.000000    0.000000   15.000000
   B    C 
     4    11
Direct configuration=     1
   0.00415361  0.00267210  0.12034134
   0.35695335  0.00285503  0.09748893
   0.00423858  0.35550699  0.09749256
   0.65142295  0.65006557  0.09747688
   0.32808646  0.32671938  0.10030508
   0.68027775  0.00278085  0.10027562
   0.00416530  0.67883808  0.10026559
   0.08333267  0.41666633  0.33646667
   0.24999967  0.24999933  0.33646667
   0.08333267  0.91666633  0.33646667
   0.24999967  0.74999933  0.33646667
   0.58333267  0.41666633  0.33646667
   0.74999967  0.24999933  0.33646667
   0.58333267  0.91666633  0.33646667
   0.74999967  0.74999933  0.33646667
Direct configuration=     2
   0.00414519  0.00267702  0.11929777
   0.35587301  0.00282629  0.09776740
   0.00413753  0.35462943  0.09782765
   0.65242220  0.65090540  0.09779869
   0.32529780  0.32369880  0.10029671
   0.68343855  0.00285574  0.10032043
   0.00417449  0.68167220  0.10027212
   0.08331812  0.41678061  0.33646173
   0.25018374  0.25027071  0.33655638
   0.08349913  0.91678994  0.33644823
   0.25029630  0.74995503  0.33643463
   0.58328209  0.41664423  0.33642024
   0.74993204  0.24999947  0.33646019
   0.58309310  0.91661968  0.33653464
   0.74953404  0.74977611  0.33648254
Direct configuration=     3
   0.00414965  0.00267442  0.11985016
   0.35644486  0.00284150  0.09762000
   0.00419102  0.35509395  0.09765028
   0.65189327  0.65046086  0.09762834
   0.32677391  0.32529767  0.10030114
   0.68176545  0.00281610  0.10029671
   0.00416963  0.68017202  0.10026866
   0.08332582  0.41672012  0.33646434
   0.25008631  0.25012706  0.33650889
   0.08341102  0.91672451  0.33645799
   0.25013929  0.74997848  0.33645159
   0.58330886  0.41665593  0.33644482
   0.74996784  0.24999940  0.33646362
   0.58321991  0.91664438  0.33649866
   0.74978051  0.74989427  0.33647414
Direct configuration=     4
   0.00415178  0.00270132  0.11891984
   0.35688505  0.00280242  0.09788548
   0.00415762  0.35550487  0.09797346
   0.65155178  0.64994807  0.09793716
   0.32688064  0.32523426  0.10026535
   0.68179321  0.00285096  0.10031246
   0.00418362  0.68011669  0.10024737
   0.08328142  0.41665649  0.33646510
   0.24988905  0.24998860  0.33658249
   0.08321705  0.91664352  0.33645100
   0.24984095  0.75005839  0.33642401
   0.58332132  0.41667715  0.33641229
   0.74997017  0.25002932  0.33645670
   0.58340025  0.91675513  0.33655954
   0.75010343  0.75013348  0.33648710
Direct configuration=     5
   0.00415652  0.00276118  0.11685025
   0.35786429  0.00271549  0.09847605
   0.00408331  0.35641901  0.09869239
   0.65079209  0.64880732  0.09862413
   0.32711806  0.32509320  0.10018575
   0.68185496  0.00292851  0.10034750
   0.00421474  0.67999360  0.10020000
   0.08318266  0.41651494  0.33646677
   0.24945025  0.24968058  0.33674622
   0.08278556  0.91646334  0.33643545
   0.24917726  0.75023615  0.33636265
   0.58334904  0.41672435  0.33633993
   0.74997536  0.25009587  0.33644133
   0.58380144  0.91700152  0.33669496
   0.75082180  0.75066562  0.33651594
Direct configuration=     6
   0.00416025  0.00276561  0.11659683
   0.35796603  0.00270460  0.09853871
   0.00408520  0.35650520  0.09876802
   0.65071736  0.64869586  0.09869648
   0.32718179  0.32512597  0.10018786
   0.68181180  0.00292602  0.10036185
   0.00422135  0.67994012  0.10020567
   0.08318378  0.41655759  0.33646798
   0.24949819  0.24972649  0.33675962
   0.08283619  0.91652024  0.33643625
   0.24926314  0.75022734  0.33635838
   0.58332381  0.41674127  0.33633590
   0.74996374  0.25010033  0.33644031
   0.58371608  0.91697169  0.33670680
   0.75069864  0.75059232  0.33651868
Direct configuration=     7
   0.00417144  0.00277891  0.11583659
   0.35827123  0.00267195  0.09872667
   0.00409088  0.35676378  0.09899489
   0.65049318  0.64836147  0.09891353
   0.32737298  0.32522428  0.10019421
   0.68168233  0.00291855  0.10040489
   0.00424119  0.67977968  0.10022265
   0.08318713  0.41668555  0.33647161
   0.24964201  0.24986424  0.33679980
   0.08298807  0.91669095  0.33643865
   0.24952075  0.75020091  0.33634558
   0.58324811  0.41679204  0.33632379
   0.74992888  0.25011369  0.33643727
   0.58345999  0.91688222  0.33674231
   0.75032918  0.75037244  0.33652689
Direct configuration=     8
   0.00419383  0.00280551  0.11431610
   0.35888163  0.00260663  0.09910260
   0.00410223  0.35728095  0.09944864
   0.65004481  0.64769271  0.09934762
   0.32775536  0.32542090  0.10020690
   0.68142339  0.00290361  0.10049098
   0.00428086  0.67945880  0.10025663
   0.08319384  0.41694147  0.33647886
   0.24992964  0.25013972  0.33688016
   0.08329184  0.91703237  0.33644345
   0.25003599  0.75014805  0.33631998
   0.58309671  0.41689358  0.33629957
   0.74985917  0.25014042  0.33643118
   0.58294780  0.91670326  0.33681333
   0.74959024  0.74993267  0.33654331
Direct configuration=     9
   0.00419659  0.00280879  0.11412842
   0.35895697  0.00259857  0.09914901
   0.00410363  0.35734478  0.09950465
   0.64998946  0.64761016  0.09940120
   0.32780256  0.32544517  0.10020846
   0.68139143  0.00290177  0.10050161
   0.00428576  0.67941920  0.10026082
   0.08319467  0.41697306  0.33647976
   0.24996515  0.25017373  0.33689008
   0.08332934  0.91707451  0.33644405
   0.25009959  0.75014152  0.33631682
   0.58307802  0.41690611  0.33629658
   0.74985056  0.25014372  0.33643043
   0.58288458  0.91668117  0.33682210
   0.74949903  0.74987839  0.33654534
Direct configuration=    10
   0.00421536  0.00279613  0.11371074
   0.35895416  0.00258103  0.09921301
   0.00414355  0.35731147  0.09957639
   0.65001865  0.64762373  0.09947079
   0.32787264  0.32552058  0.10026304
   0.68131511  0.00285462  0.10056702
   0.00430831  0.67934687  0.10031856
   0.08318494  0.41695284  0.33648519
   0.24996161  0.25027559  0.33688413
   0.08330815  0.91701372  0.33645511
   0.25007501  0.75016059  0.33632480
   0.58308386  0.41685442  0.33630964
   0.74980441  0.25015829  0.33643353
   0.58291201  0.91671634  0.33682000
   0.74946955  0.74993445  0.33654739
Direct configuration=    11
   0.00427165  0.00275813  0.11245770
   0.35894573  0.00252841  0.09940500
   0.00426333  0.35721154  0.09979160
   0.65010620  0.64766441  0.09967956
   0.32808290  0.32574679  0.10042677
   0.68108617  0.00271318  0.10076324
   0.00437598  0.67912989  0.10049179
   0.08315575  0.41689218  0.33650148
   0.24995100  0.25058116  0.33686626
   0.08324457  0.91683136  0.33648830
   0.25000129  0.75021782  0.33634876
   0.58310139  0.41669933  0.33634881
   0.74966595  0.25020199  0.33644283
   0.58299430  0.91682184  0.33681371
   0.74938113  0.75010264  0.33655353
Direct configuration=    12
   0.00438423  0.00268214  0.10995161
   0.35892886  0.00242316  0.09978900
   0.00450289  0.35701167  0.10022201
   0.65028130  0.64774578  0.10009709
   0.32850342  0.32619920  0.10075422
   0.68062828  0.00243030  0.10115568
   0.00451131  0.67869593  0.10083825
   0.08309739  0.41677087  0.33653405
   0.24992977  0.25119230  0.33683053
   0.08311742  0.91646664  0.33655468
   0.24985384  0.75033226  0.33639668
   0.58313643  0.41638915  0.33642715
   0.74938904  0.25028938  0.33646144
   0.58315889  0.91703285  0.33680112
   0.74920427  0.75043903  0.33656581
Direct configuration=    13
   0.00440556  0.00266156  0.10953568
   0.35892532  0.00240739  0.09985109
   0.00454202  0.35698607  0.10028647
   0.65030304  0.64776173  0.10016093
   0.32854993  0.32625098  0.10081456
   0.68058431  0.00238604  0.10122281
   0.00453451  0.67863736  0.10090077
   0.08305938  0.41680422  0.33653892
   0.24988710  0.25109361  0.33682025
   0.08308024  0.91653218  0.33656636
   0.24981840  0.75032653  0.33640935
   0.58311602  0.41646686  0.33644287
   0.74941578  0.25028534  0.33646709
   0.58314449  0.91706533  0.33679346
   0.74926123  0.75043546  0.33656870
Direct configuration=    14
   0.00446955  0.00259981  0.10828788
   0.35891467  0.00236010  0.10003736
   0.00465944  0.35690928  0.10047985
   0.65036825  0.64780960  0.10035245
   0.32868945  0.32640629  0.10099559
   0.68045238  0.00225327  0.10142420
   0.00460413  0.67846163  0.10108835
   0.08294535  0.41690428  0.33655352
   0.24975911  0.25079755  0.33678942
   0.08296870  0.91672878  0.33660141
   0.24971209  0.75030934  0.33644735
   0.58305480  0.41669997  0.33649002
   0.74949598  0.25027321  0.33648405
   0.58310131  0.91716278  0.33677049
   0.74943211  0.75042477  0.33657739
Direct configuration=    15
   0.00459755  0.00247630  0.10579230
   0.35889339  0.00226551  0.10040991
   0.00489427  0.35675569  0.10086660
   0.65049868  0.64790533  0.10073550
   0.32896850  0.32671692  0.10135763
   0.68018853  0.00198771  0.10182699
   0.00474337  0.67811018  0.10146350
   0.08271729  0.41710440  0.33658272
   0.24950312  0.25020542  0.33672776
   0.08274562  0.91712200  0.33667149
   0.24949946  0.75027497  0.33652337
   0.58293236  0.41716619  0.33658432
   0.74965639  0.25024896  0.33651795
   0.58301494  0.91735769  0.33672454
   0.74977388  0.75040340  0.33659476
Direct configuration=    16
   0.00453644  0.00253527  0.10698379
   0.35890355  0.00231067  0.10023204
   0.00478215  0.35682902  0.10068195
   0.65043641  0.64785963  0.10055262
   0.32883527  0.32656862  0.10118477
   0.68031450  0.00211450  0.10163468
   0.00467689  0.67827798  0.10128439
   0.08282617  0.41700886  0.33656878
   0.24962534  0.25048812  0.33675720
   0.08285213  0.91693426  0.33663803
   0.24960098  0.75029138  0.33648708
   0.58299082  0.41694359  0.33653930
   0.74957980  0.25026054  0.33650176
   0.58305617  0.91726463  0.33674648
   0.74961071  0.75041360  0.33658647
Direct configuration=    17
   0.00454004  0.00251880  0.10694694
   0.35897062  0.00231424  0.10025260
   0.00476664  0.35690111  0.10069046
   0.65036346  0.64779502  0.10056471
   0.32877893  0.32648719  0.10118507
   0.68041066  0.00214095  0.10162536
   0.00467447  0.67832006  0.10128279
   0.08286897  0.41702336  0.33656677
   0.24961405  0.25043031  0.33675509
   0.08290447  0.91700443  0.33663618
   0.24962689  0.75033364  0.33649587
   0.58296093  0.41698765  0.33654042
   0.74958878  0.25030988  0.33650799
   0.58298124  0.91715458  0.33673850
   0.74957721  0.75037944  0.33659058
Direct configuration=    18
   0.00454985  0.00247395  0.10684661
   0.35915322  0.00232395  0.10030858
   0.00472440  0.35709738  0.10071364
   0.65016487  0.64761914  0.10059761
   0.32862554  0.32626551  0.10118589
   0.68067244  0.00221298  0.10159997
   0.00466787  0.67843463  0.10127843
   0.08298548  0.41706285  0.33656132
   0.24958332  0.25027292  0.33674933
   0.08304696  0.91719546  0.33663115
   0.24969742  0.75044870  0.33651980
   0.58287956  0.41710758  0.33654347
   0.74961320  0.25044422  0.33652496
   0.58277721  0.91685496  0.33671678
   0.74948600  0.75028644  0.33660179
Direct configuration=    19
   0.00455469  0.00244969  0.10681820
   0.35927435  0.00233032  0.10034141
   0.00469731  0.35719411  0.10072252
   0.65004714  0.64751181  0.10061342
   0.32856807  0.32616771  0.10118139
   0.68078482  0.00225985  0.10157479
   0.00466141  0.67848640  0.10126989
   0.08298169  0.41706263  0.33655920
   0.24959225  0.25032417  0.33674548
   0.08300843  0.91714749  0.33662819
   0.24966697  0.75043563  0.33653245
   0.58287635  0.41707977  0.33654541
   0.74958867  0.25041903  0.33653406
   0.58281550  0.91691252  0.33670569
   0.74950969  0.75031955  0.33660724
Direct configuration=    20
   0.00456432  0.00240145  0.10676171
   0.35951518  0.00234299  0.10040671
   0.00464346  0.35738643  0.10074018
   0.64981306  0.64729840  0.10064485
   0.32845380  0.32597325  0.10117244
   0.68100825  0.00235304  0.10152473
   0.00464857  0.67858933  0.10125291
   0.08297416  0.41706220  0.33655500
   0.24961000  0.25042607  0.33673781
   0.08293183  0.91705211  0.33662229
   0.24960644  0.75040963  0.33655760
   0.58286997  0.41702447  0.33654928
   0.74953989  0.25036893  0.33655214
   0.58289162  0.91702697  0.33668362
   0.74955679  0.75038539  0.33661807
Direct configuration=    21
   0.00457059  0.00238939  0.10674490
   0.35956648  0.00234626  0.10043116
   0.00463468  0.35737944  0.10074244
   0.64978422  0.64726867  0.10065333
   0.32848373  0.32598622  0.10117173
   0.68099247  0.00237172  0.10150260
   0.00464514  0.67857449  0.10124826
   0.08291459  0.41706039  0.33655759
   0.24959263  0.25040568  0.33673307
   0.08293399  0.91708194  0.33662349
   0.24962440  0.75039633  0.33656241
   0.58289891  0.41704167  0.33655355
   0.74956428  0.25037132  0.33655521
   0.58288881  0.91705823  0.33668131
   0.74953243  0.75036892  0.33661830
Direct configuration=    22
   0.00457550  0.00237994  0.10673173
   0.35960666  0.00234882  0.10045032
   0.00462781  0.35737396  0.10074421
   0.64976163  0.64724539  0.10065997
   0.32850718  0.32599638  0.10117118
   0.68098010  0.00238635  0.10148527
   0.00464245  0.67856287  0.10124461
   0.08286793  0.41705898  0.33655962
   0.24957903  0.25038971  0.33672935
   0.08293568  0.91710530  0.33662442
   0.24963846  0.75038592  0.33656617
   0.58292157  0.41705514  0.33655689
   0.74958338  0.25037320  0.33655762
   0.58288662  0.91708271  0.33667950
   0.74951334  0.75035601  0.33661847
Direct configuration=    23
   0.00458587  0.00236526  0.10670788
   0.35962269  0.00235265  0.10047900
   0.00462402  0.35733536  0.10074388
   0.64977052  0.64724937  0.10066774
   0.32854557  0.32601980  0.10117421
   0.68095802  0.00239646  0.10145837
   0.00464064  0.67853200  0.10124223
   0.08287825  0.41705962  0.33656444
   0.24957448  0.25040291  0.33672393
   0.08293791  0.91710633  0.33662713
   0.24963265  0.75040582  0.33657017
   0.58290931  0.41705436  0.33656282
   0.74957162  0.25039077  0.33656019
   0.58287332  0.91706297  0.33667971
   0.74950243  0.75036697  0.33661762
Direct configuration=    24
   0.00460655  0.00233599  0.10666033
   0.35965464  0.00236027  0.10053617
   0.00461647  0.35725842  0.10074323
   0.64978826  0.64725731  0.10068323
   0.32862212  0.32606648  0.10118027
   0.68091401  0.00241661  0.10140476
   0.00463705  0.67847046  0.10123749
   0.08289883  0.41706091  0.33657405
   0.24956543  0.25042922  0.33671313
   0.08294235  0.91710839  0.33663252
   0.24962107  0.75044551  0.33657816
   0.58288488  0.41705282  0.33657464
   0.74954818  0.25042581  0.33656531
   0.58284682  0.91702364  0.33668014
   0.74948068  0.75038881  0.33661591
Direct configuration=    25
   0.00461774  0.00232118  0.10663192
   0.35964229  0.00236200  0.10056073
   0.00461824  0.35722712  0.10074084
   0.64981498  0.64727791  0.10068830
   0.32862828  0.32606049  0.10118714
   0.68093037  0.00241478  0.10138202
   0.00463997  0.67845293  0.10123905
   0.08290275  0.41707867  0.33657818
   0.24956498  0.25043415  0.33671026
   0.08292514  0.91711213  0.33663464
   0.24960516  0.75044251  0.33658183
   0.58286773  0.41706305  0.33657912
   0.74953545  0.25041711  0.33656821
   0.58284462  0.91704249  0.33668124
   0.74948962  0.75039416  0.33661586
Direct configuration=    26
   0.00464862  0.00228032  0.10655358
   0.35960825  0.00236677  0.10062846
   0.00462310  0.35714080  0.10073422
   0.64988869  0.64733472  0.10070231
   0.32864529  0.32604398  0.10120609
   0.68097548  0.00240973  0.10131931
   0.00464803  0.67840458  0.10124334
   0.08291358  0.41712763  0.33658957
   0.24956374  0.25044772  0.33670236
   0.08287769  0.91712243  0.33664047
   0.24956128  0.75043425  0.33659197
   0.58282044  0.41709126  0.33659144
   0.74950033  0.25039312  0.33657620
   0.58283857  0.91709447  0.33668429
   0.74951425  0.75040889  0.33661572
Direct configuration=    27
   0.00466475  0.00226306  0.10650392
   0.35959952  0.00236034  0.10065216
   0.00463653  0.35713065  0.10072815
   0.64991386  0.64734320  0.10070435
   0.32863264  0.32601559  0.10122240
   0.68101785  0.00238853  0.10129763
   0.00466192  0.67839586  0.10125307
   0.08286886  0.41711963  0.33659321
   0.24953817  0.25045223  0.33670477
   0.08287698  0.91714019  0.33664174
   0.24956304  0.75044961  0.33659704
   0.58283480  0.41709890  0.33659401
   0.74950656  0.25042090  0.33658156
   0.58282801  0.91710382  0.33668704
   0.74948385  0.75041817  0.33661827
Direct configuration=    28
   0.00468560  0.00224075  0.10643972
   0.35958824  0.00235201  0.10068280
   0.00465388  0.35711754  0.10072030
   0.64994641  0.64735415  0.10070700
   0.32861629  0.32597890  0.10124349
   0.68107264  0.00236112  0.10126960
   0.00467986  0.67838458  0.10126565
   0.08281104  0.41710929  0.33659793
   0.24950511  0.25045805  0.33670789
   0.08287606  0.91716315  0.33664339
   0.24956531  0.75046946  0.33660360
   0.58285336  0.41710877  0.33659734
   0.74951462  0.25045682  0.33658849
   0.58281435  0.91711591  0.33669059
   0.74944454  0.75043017  0.33662156
Direct configuration=    29
   0.00470268  0.00223079  0.10637285
   0.35963712  0.00232994  0.10069431
   0.00468076  0.35713868  0.10071391
   0.64993193  0.64730417  0.10070518
   0.32862855  0.32596951  0.10126622
   0.68107807  0.00232508  0.10125873
   0.00470497  0.67837747  0.10128306
   0.08281314  0.41712850  0.33660031
   0.24949927  0.25048524  0.33671759
   0.08286232  0.91717102  0.33664418
   0.24955153  0.75048596  0.33660829
   0.58282782  0.41711855  0.33659698
   0.74948856  0.25046786  0.33659488
   0.58279520  0.91712273  0.33669580
   0.74942544  0.75044517  0.33662705
Direct configuration=    30
   0.00475392  0.00220092  0.10617223
   0.35978374  0.00226371  0.10072883
   0.00476140  0.35720213  0.10069473
   0.64988847  0.64715420  0.10069975
   0.32866532  0.32594136  0.10133439
   0.68109435  0.00221698  0.10122612
   0.00478028  0.67835613  0.10133530
   0.08281942  0.41718614  0.33660746
   0.24948175  0.25056680  0.33674670
   0.08282108  0.91719461  0.33664657
   0.24951017  0.75053544  0.33662234
   0.58275119  0.41714792  0.33659591
   0.74941037  0.25050097  0.33661406
   0.58273774  0.91714319  0.33671141
   0.74936815  0.75049016  0.33664352
Direct configuration=    31
   0.00477520  0.00219150  0.10607517
   0.35983675  0.00222490  0.10073233
   0.00479423  0.35719635  0.10070168
   0.64989189  0.64709444  0.10070499
   0.32870354  0.32592579  0.10135229
   0.68109736  0.00218746  0.10122304
   0.00481152  0.67834295  0.10135057
   0.08275518  0.41721030  0.33661399
   0.24943176  0.25052337  0.33675852
   0.08277895  0.91724429  0.33665339
   0.24946778  0.75053660  0.33662445
   0.58274369  0.41720157  0.33659988
   0.74942184  0.25051554  0.33661782
   0.58272908  0.91720216  0.33672228
   0.74938855  0.75050346  0.33664893
Direct configuration=    32
   0.00477984  0.00218945  0.10605401
   0.35984831  0.00221644  0.10073309
   0.00480138  0.35719509  0.10070320
   0.64989264  0.64708141  0.10070613
   0.32871187  0.32592240  0.10135619
   0.68109802  0.00218103  0.10122237
   0.00481833  0.67834008  0.10135390
   0.08274118  0.41721557  0.33661541
   0.24942087  0.25051390  0.33676110
   0.08276977  0.91725512  0.33665488
   0.24945854  0.75053685  0.33662490
   0.58274205  0.41721326  0.33660075
   0.74942434  0.25051871  0.33661865
   0.58272719  0.91721501  0.33672465
   0.74939300  0.75050635  0.33665010
Direct configuration=    33
   0.00479655  0.00217980  0.10597555
   0.35986782  0.00218488  0.10073186
   0.00482367  0.35717392  0.10071807
   0.64991701  0.64705218  0.10071592
   0.32874523  0.32590110  0.10136118
   0.68111217  0.00216752  0.10122448
   0.00484047  0.67832295  0.10135928
   0.08271115  0.41722295  0.33662203
   0.24939106  0.25052519  0.33676886
   0.08274968  0.91727131  0.33666295
   0.24943363  0.75055899  0.33662536
   0.58273221  0.41722911  0.33660647
   0.74941234  0.25054556  0.33661973
   0.58271473  0.91723375  0.33673396
   0.74937961  0.75053147  0.33665364
Direct configuration=    34
   0.00484665  0.00215085  0.10574019
   0.35992635  0.00209018  0.10072817
   0.00489054  0.35711040  0.10076268
   0.64999012  0.64696449  0.10074528
   0.32884531  0.32583722  0.10137614
   0.68115464  0.00212698  0.10123080
   0.00490687  0.67827155  0.10137542
   0.08262109  0.41724509  0.33664188
   0.24930164  0.25055905  0.33679213
   0.08268942  0.91731988  0.33668716
   0.24935891  0.75062540  0.33662674
   0.58270268  0.41727667  0.33662365
   0.74937632  0.25062612  0.33662298
   0.58267736  0.91728999  0.33676187
   0.74933943  0.75060681  0.33666423
Direct configuration=    35
   0.00494686  0.00209296  0.10526945
   0.36004341  0.00190078  0.10072079
   0.00502427  0.35698335  0.10085191
   0.65013636  0.64678910  0.10080400
   0.32904547  0.32570944  0.10140605
   0.68123957  0.00204591  0.10124343
   0.00503967  0.67816877  0.10140768
   0.08244095  0.41728938  0.33668158
   0.24912279  0.25062676  0.33683868
   0.08256890  0.91741703  0.33673560
   0.24920948  0.75075822  0.33662951
   0.58264362  0.41737177  0.33665801
   0.74930430  0.25078723  0.33662949
   0.58260262  0.91740246  0.33681771
   0.74925908  0.75075748  0.33668543
Direct configuration=    36
   0.00495480  0.00208686  0.10523488
   0.36005015  0.00188810  0.10072094
   0.00503406  0.35697596  0.10085907
   0.65014821  0.64677827  0.10080898
   0.32905865  0.32569913  0.10140719
   0.68124855  0.00203898  0.10124429
   0.00504925  0.67815891  0.10140912
   0.08243656  0.41729979  0.33668416
   0.24911779  0.25063872  0.33684205
   0.08256121  0.91742427  0.33673884
   0.24920304  0.75076579  0.33663040
   0.58263228  0.41737909  0.33666044
   0.74929273  0.25079323  0.33663049
   0.58259221  0.91740936  0.33682109
   0.74924783  0.75076420  0.33668740
Direct configuration=    37
   0.00497863  0.00206856  0.10513115
   0.36007037  0.00185005  0.10072137
   0.00506344  0.35695377  0.10088055
   0.65018378  0.64674577  0.10082392
   0.32909819  0.32566819  0.10141061
   0.68127548  0.00201821  0.10124685
   0.00507800  0.67812932  0.10141344
   0.08242341  0.41733101  0.33669190
   0.24910281  0.25067460  0.33685215
   0.08253816  0.91744599  0.33674855
   0.24918374  0.75078849  0.33663307
   0.58259825  0.41740103  0.33666771
   0.74925803  0.25081124  0.33663349
   0.58256097  0.91743007  0.33683125
   0.74921408  0.75078437  0.33669333
Direct configuration=    38
   0.00502629  0.00203195  0.10492369
   0.36011082  0.00177397  0.10072224
   0.00512219  0.35690939  0.10092351
   0.65025491  0.64668076  0.10085380
   0.32917729  0.32560632  0.10141744
   0.68132934  0.00197667  0.10125198
   0.00513549  0.67807015  0.10142207
   0.08239710  0.41739345  0.33670738
   0.24907284  0.25074636  0.33687236
   0.08249206  0.91748942  0.33676797
   0.24914515  0.75083389  0.33663841
   0.58253019  0.41744493  0.33668226
   0.74918863  0.25084725  0.33663948
   0.58249848  0.91747147  0.33685156
   0.74914657  0.75082469  0.33670519
Direct configuration=    39
   0.00512160  0.00195874  0.10450876
   0.36019171  0.00162179  0.10072398
   0.00523970  0.35682063  0.10100944
   0.65039718  0.64655075  0.10091355
   0.32933547  0.32548257  0.10143111
   0.68143707  0.00189359  0.10126223
   0.00525046  0.67795181  0.10143933
   0.08234448  0.41751832  0.33673835
   0.24901290  0.25088988  0.33691276
   0.08239985  0.91757628  0.33680681
   0.24906795  0.75092469  0.33664910
   0.58239407  0.41753273  0.33671135
   0.74904983  0.25091927  0.33665147
   0.58237351  0.91755428  0.33689218
   0.74901155  0.75090535  0.33672890
Direct configuration=    40
   0.00531222  0.00181232  0.10367892
   0.36035350  0.00131744  0.10072746
   0.00547471  0.35664311  0.10118130
   0.65068171  0.64629073  0.10103305
   0.32965184  0.32523507  0.10145845
   0.68165254  0.00172743  0.10128274
   0.00548041  0.67771512  0.10147385
   0.08223923  0.41776808  0.33680027
   0.24889302  0.25117691  0.33699357
   0.08221542  0.91775000  0.33688450
   0.24891357  0.75110628  0.33667048
   0.58212184  0.41770831  0.33676954
   0.74877224  0.25106331  0.33667545
   0.58212357  0.91771990  0.33697343
   0.74874152  0.75106666  0.33677632
Direct configuration=    41
   0.00520071  0.00189797  0.10416434
   0.36025887  0.00149547  0.10072543
   0.00533724  0.35674695  0.10108077
   0.65051527  0.64644283  0.10096315
   0.32946678  0.32537985  0.10144246
   0.68152650  0.00182463  0.10127074
   0.00534590  0.67785357  0.10145366
   0.08230079  0.41762198  0.33676405
   0.24896314  0.25100901  0.33694630
   0.08232330  0.91764838  0.33683906
   0.24900388  0.75100006  0.33665798
   0.58228108  0.41760560  0.33673551
   0.74893462  0.25097905  0.33666142
   0.58226977  0.91762302  0.33692590
   0.74889947  0.75097230  0.33674858
Direct configuration=    42
   0.00522310  0.00186707  0.10410564
   0.36027312  0.00149090  0.10073813
   0.00535590  0.35675162  0.10109590
   0.65053214  0.64643453  0.10097775
   0.32947197  0.32536064  0.10143410
   0.68155876  0.00179525  0.10126909
   0.00536248  0.67782213  0.10144636
   0.08228874  0.41765198  0.33676372
   0.24895535  0.25101462  0.33695140
   0.08230613  0.91767519  0.33683925
   0.24899385  0.75100581  0.33666951
   0.58225662  0.41763313  0.33673773
   0.74891902  0.25098137  0.33667109
   0.58224592  0.91764263  0.33692198
   0.74888423  0.75097380  0.33675769
Direct configuration=    43
   0.00529027  0.00177437  0.10392954
   0.36031587  0.00147720  0.10077623
   0.00541190  0.35676563  0.10114128
   0.65058274  0.64640962  0.10102155
   0.32948755  0.32530302  0.10140904
   0.68165553  0.00170712  0.10126414
   0.00541221  0.67772782  0.10142448
   0.08225257  0.41774195  0.33676274
   0.24893196  0.25103147  0.33696668
   0.08225463  0.91775562  0.33683984
   0.24896378  0.75102308  0.33670409
   0.58218324  0.41771570  0.33674439
   0.74887222  0.25098830  0.33670009
   0.58217435  0.91770146  0.33691021
   0.74883851  0.75097830  0.33678504
Direct configuration=    44
   0.00542460  0.00158898  0.10357735
   0.36040137  0.00144981  0.10085244
   0.00552389  0.35679366  0.10123204
   0.65068394  0.64635980  0.10110916
   0.32951870  0.32518778  0.10135892
   0.68184907  0.00153087  0.10125424
   0.00551167  0.67753920  0.10138071
   0.08218024  0.41792189  0.33676076
   0.24888519  0.25106517  0.33699724
   0.08215163  0.91791649  0.33684101
   0.24890363  0.75105761  0.33677327
   0.58203647  0.41788084  0.33675772
   0.74877863  0.25100217  0.33675808
   0.58203122  0.91781911  0.33688666
   0.74874707  0.75098729  0.33683973
Direct configuration=    45
   0.00533226  0.00171643  0.10381946
   0.36034259  0.00146864  0.10080005
   0.00544690  0.35677439  0.10116965
   0.65061437  0.64639405  0.10104893
   0.32949728  0.32526700  0.10139338
   0.68171602  0.00165203  0.10126104
   0.00544330  0.67766887  0.10141080
   0.08222997  0.41779819  0.33676212
   0.24891734  0.25104201  0.33697623
   0.08222244  0.91780590  0.33684021
   0.24894498  0.75103387  0.33672571
   0.58213736  0.41776731  0.33674856
   0.74884297  0.25099264  0.33671821
   0.58212961  0.91773823  0.33690285
   0.74880993  0.75098111  0.33680213
Direct configuration=    46
   0.00537001  0.00166879  0.10374003
   0.36038870  0.00147213  0.10082730
   0.00547366  0.35676090  0.10118964
   0.65062334  0.64637615  0.10107165
   0.32950244  0.32525239  0.10137542
   0.68174768  0.00160606  0.10125840
   0.00546695  0.67763481  0.10139471
   0.08220099  0.41779682  0.33676138
   0.24888006  0.25107015  0.33697926
   0.08220182  0.91781287  0.33683919
   0.24891164  0.75107147  0.33674565
   0.58212866  0.41777327  0.33675306
   0.74882293  0.25103403  0.33673435
   0.58211827  0.91774867  0.33689385
   0.74879018  0.75102216  0.33681543
Direct configuration=    47
   0.00546893  0.00154398  0.10353191
   0.36050950  0.00148126  0.10089868
   0.00554375  0.35672553  0.10124202
   0.65064682  0.64632927  0.10113118
   0.32951596  0.32521409  0.10132839
   0.68183063  0.00148562  0.10125147
   0.00552891  0.67754557  0.10135257
   0.08212509  0.41779324  0.33675944
   0.24878239  0.25114389  0.33698721
   0.08214780  0.91783114  0.33683652
   0.24882428  0.75116998  0.33679788
   0.58210587  0.41778887  0.33676484
   0.74877042  0.25114249  0.33677664
   0.58208856  0.91777602  0.33687029
   0.74873843  0.75112971  0.33685027
Direct configuration=    48
   0.00549434  0.00152612  0.10348942
   0.36057457  0.00148347  0.10092052
   0.00555639  0.35666554  0.10124613
   0.65063267  0.64630108  0.10114122
   0.32953216  0.32522474  0.10131744
   0.68181591  0.00147235  0.10125497
   0.00554391  0.67755214  0.10134304
   0.08210693  0.41780636  0.33676519
   0.24876999  0.25115966  0.33697994
   0.08213159  0.91784333  0.33684055
   0.24881107  0.75117602  0.33680440
   0.58209487  0.41779903  0.33677358
   0.74875805  0.25115042  0.33678110
   0.58207873  0.91779935  0.33687080
   0.74872615  0.75114104  0.33685104
Direct configuration=    49
   0.00555855  0.00148099  0.10338205
   0.36073903  0.00148905  0.10097571
   0.00558832  0.35651393  0.10125651
   0.65059690  0.64622985  0.10116658
   0.32957309  0.32525166  0.10128977
   0.68177872  0.00143883  0.10126379
   0.00558183  0.67756876  0.10131897
   0.08206103  0.41783952  0.33677973
   0.24873867  0.25119951  0.33696157
   0.08209063  0.91787414  0.33685073
   0.24877769  0.75119127  0.33682085
   0.58206707  0.41782470  0.33679564
   0.74872680  0.25117047  0.33679237
   0.58205389  0.91785831  0.33687208
   0.74869511  0.75116969  0.33685297
Direct configuration=    50
   0.00557633  0.00145664  0.10334798
   0.36075287  0.00148429  0.10099463
   0.00559128  0.35649223  0.10124878
   0.65060666  0.64622866  0.10116775
   0.32958029  0.32523699  0.10128600
   0.68180674  0.00144041  0.10127590
   0.00559562  0.67754479  0.10131659
   0.08206251  0.41786327  0.33678954
   0.24873579  0.25120257  0.33695107
   0.08208577  0.91789572  0.33685745
   0.24877411  0.75120594  0.33681920
   0.58204309  0.41784839  0.33680568