 ----------------------------------------------------
    OOO  PPPP  EEEEE N   N M   M PPPP
   O   O P   P E     NN  N MM MM P   P
   O   O PPPP  EEEEE N N N M M M PPPP   -- VERSION
   O   O P     E     N  NN M   M P
    OOO  P     EEEEE N   N M   M P
 ----------------------------------------------------
 running   48 mpi-ranks, with    1 threads/rank
 distrk:  each k-point on   48 cores,    1 groups
 distr:  one band on    1 cores,   48 groups
 vasp.6.3.2 27Jun22 (build Dec 22 2022 13:13:19) complex                        
  
 POSCAR found type information on POSCAR B C 
 POSCAR found :  2 types and      15 ions
 Reading from existing POTCAR
 -----------------------------------------------------------------------------
|                                                                             |
|           W    W    AA    RRRRR   N    N  II  N    N   GGGG   !!!           |
|           W    W   A  A   R    R  NN   N  II  NN   N  G    G  !!!           |
|           W    W  A    A  R    R  N N  N  II  N N  N  G       !!!           |
|           W WW W  AAAAAA  RRRRR   N  N N  II  N  N N  G  GGG   !            |
|           WW  WW  A    A  R   R   N   NN  II  N   NN  G    G                |
|           W    W  A    A  R    R  N    N  II  N    N   GGGG   !!!           |
|                                                                             |
|     You use a magnetic or noncollinear calculation, but did not specify     |
|     the initial magnetic moment with the MAGMOM tag. Note that a            |
|     default of 1 will be used for all atoms. This ferromagnetic setup       |
|     may break the symmetry of the crystal, in particular it may rule        |
|     out finding an antiferromagnetic solution. Thence, we recommend         |
|     setting the initial magnetic moment manually or verifying carefully     |
|     that this magnetic setup is desired.                                    |
|                                                                             |
 -----------------------------------------------------------------------------

 scaLAPACK will be used
 Reading from existing POTCAR
 LDA part: xc-table for Pade appr. of Perdew
 POSCAR found type information on POSCAR B C 
 POSCAR found :  2 types and      15 ions
 POSCAR, INCAR and KPOINTS ok, starting setup
 FFT: planning ... GRIDC
 FFT: planning ... GRID_SOFT
 FFT: planning ... GRID
 WAVECAR not read
 entering main loop
       N       E                     dE             d eps       ncg     rms          rms(c)
DAV:   1     0.202143986214E+03    0.20214E+03   -0.25643E+04 14208   0.859E+02
DAV:   2    -0.116266085426E+03   -0.31841E+03   -0.31703E+03 20160   0.162E+02
DAV:   3    -0.129343788240E+03   -0.13078E+02   -0.13060E+02 26832   0.431E+01
DAV:   4    -0.129365708450E+03   -0.21920E-01   -0.21919E-01 20688   0.176E+00
DAV:   5    -0.129365764523E+03   -0.56073E-04   -0.56074E-04 25776   0.840E-02    0.244E+01
DAV:   6    -0.920157024165E+02    0.37350E+02   -0.72143E+01 25680   0.255E+01    0.138E+01
DAV:   7    -0.100452556659E+03   -0.84369E+01   -0.98643E+00 21504   0.101E+01    0.808E+00
DAV:   8    -0.110493494343E+03   -0.10041E+02   -0.89007E+00 24288   0.899E+00    0.435E+00
DAV:   9    -0.117128782147E+03   -0.66353E+01   -0.37711E+00 19776   0.602E+00    0.277E+00
DAV:  10    -0.123496812407E+03   -0.63680E+01   -0.83341E+00 23856   0.704E+00    0.161E+00
DAV:  11    -0.125295573519E+03   -0.17988E+01   -0.30443E+00 24432   0.387E+00    0.102E+00
DAV:  12    -0.125424249531E+03   -0.12868E+00   -0.21723E-01 20496   0.127E+00    0.491E-01
DAV:  13    -0.125451365700E+03   -0.27116E-01   -0.21805E-02 17520   0.525E-01    0.199E-01
DAV:  14    -0.125475402358E+03   -0.24037E-01   -0.60087E-03 20976   0.268E-01    0.867E-02
DAV:  15    -0.125483480522E+03   -0.80782E-02   -0.32570E-03 18432   0.154E-01    0.461E-02
DAV:  16    -0.125485565191E+03   -0.20847E-02   -0.66378E-04 16992   0.801E-02    0.229E-02
DAV:  17    -0.125486857489E+03   -0.12923E-02   -0.17583E-04 15456   0.503E-02    0.179E-02
DAV:  18    -0.125487544433E+03   -0.68694E-03   -0.86762E-05 16176   0.368E-02    0.128E-02
DAV:  19    -0.125488013846E+03   -0.46941E-03   -0.43130E-05 20400   0.242E-02    0.762E-03
DAV:  20    -0.125488064920E+03   -0.51074E-04   -0.22548E-05 21216   0.177E-02    0.471E-03
DAV:  21    -0.125488090615E+03   -0.25696E-04   -0.66519E-06 20928   0.952E-03    0.232E-03
DAV:  22    -0.125488110683E+03   -0.20068E-04   -0.21497E-06 21120   0.550E-03    0.146E-03
DAV:  23    -0.125488127811E+03   -0.17128E-04   -0.18515E-06 21360   0.409E-03    0.774E-04
DAV:  24    -0.125488131530E+03   -0.37194E-05   -0.38934E-07 21408   0.222E-03    0.395E-04
DAV:  25    -0.125488132552E+03   -0.10225E-05   -0.12215E-07 22656   0.114E-03    0.196E-04
DAV:  26    -0.125488133094E+03   -0.54146E-06   -0.31542E-08 22272   0.591E-04
   1 F= -.12707548E+03 E0= -.12707470E+03  d E =-.127075E+03  mag=    -0.0000
 curvature:   0.00 expect dE= 0.000E+00 dE for cont linesearch  0.000E+00
 trial: gam= 0.00000 g(F)=  0.298E-01 g(S)=  0.000E+00 ort = 0.000E+00 (trialstep = 0.100E+01)
 search vector abs. value=  0.298E-01
 bond charge predicted
       N       E                     dE             d eps       ncg     rms          rms(c)
DAV:   1    -0.125499353709E+03   -0.11221E-01   -0.31267E+00 14208   0.540E+00    0.480E-01
DAV:   2    -0.125491179472E+03    0.81742E-02   -0.62846E-02 26016   0.690E-01    0.212E-01
DAV:   3    -0.125490286766E+03    0.89271E-03   -0.50549E-03 20832   0.193E-01    0.835E-02
DAV:   4    -0.125490251370E+03    0.35396E-04   -0.58706E-04 27456   0.667E-02    0.214E-02
DAV:   5    -0.125490254860E+03   -0.34902E-05   -0.16132E-05 24144   0.123E-02    0.813E-03
DAV:   6    -0.125490255008E+03   -0.14746E-06   -0.21434E-06 22800   0.435E-03
   2 F= -.12707690E+03 E0= -.12707611E+03  d E =-.141490E-02  mag=    -0.0000
 trial-energy change:   -0.001415  1 .order   -0.001449   -0.029757    0.026860
 step:   0.5256(harm=  0.5256)  dis= 0.00753  next Energy=  -127.083303 (dE=-0.782E-02)
 bond charge predicted
       N       E                     dE             d eps       ncg     rms          rms(c)
DAV:   1    -0.125498375105E+03   -0.81202E-02   -0.70341E-01 14208   0.256E+00    0.228E-01
DAV:   2    -0.125496500933E+03    0.18742E-02   -0.14146E-02 25680   0.326E-01    0.100E-01
DAV:   3    -0.125496305684E+03    0.19525E-03   -0.11211E-03 21936   0.917E-02    0.402E-02
DAV:   4    -0.125496298576E+03    0.71074E-05   -0.13222E-04 23616   0.316E-02    0.984E-03
DAV:   5    -0.125496299275E+03   -0.69919E-06   -0.41435E-06 19392   0.620E-03
   3 F= -.12708327E+03 E0= -.12708249E+03  d E =-.779011E-02  mag=    -0.0000
 curvature:  -0.26 expect dE=-0.255E-02 dE for cont linesearch -0.673E-09
 trial: gam= 0.32543 g(F)=  0.969E-02 g(S)=  0.000E+00 ort = 0.873E-05 (trialstep = 0.905E+00)
 search vector abs. value=  0.128E-01
 bond charge predicted
       N       E                     dE             d eps       ncg     rms          rms(c)
