       N       E                     dE             d eps       ncg     rms          rms(c)
DAV:   1     0.201787209919E+03    0.20179E+03   -0.25594E+04 14208   0.858E+02
DAV:   2    -0.115976407020E+03   -0.31776E+03   -0.31631E+03 20256   0.162E+02
DAV:   3    -0.128999626937E+03   -0.13023E+02   -0.13008E+02 27072   0.429E+01
DAV:   4    -0.129019445066E+03   -0.19818E-01   -0.19816E-01 19872   0.168E+00
DAV:   5    -0.129019506536E+03   -0.61470E-04   -0.61470E-04 26064   0.902E-02    0.242E+01
DAV:   6    -0.918566855354E+02    0.37163E+02   -0.73139E+01 25440   0.256E+01    0.137E+01
DAV:   7    -0.100301893091E+03   -0.84452E+01   -0.96349E+00 21648   0.997E+00    0.805E+00
DAV:   8    -0.110395602025E+03   -0.10094E+02   -0.88896E+00 23616   0.898E+00    0.432E+00
DAV:   9    -0.117139352285E+03   -0.67438E+01   -0.39074E+00 19488   0.612E+00    0.276E+00
DAV:  10    -0.123479992061E+03   -0.63406E+01   -0.81844E+00 23184   0.708E+00    0.159E+00
DAV:  11    -0.125258003423E+03   -0.17780E+01   -0.28048E+00 26064   0.383E+00    0.986E-01
DAV:  12    -0.125414648319E+03   -0.15664E+00   -0.22162E-01 20256   0.136E+00    0.462E-01
DAV:  13    -0.125441616621E+03   -0.26968E-01   -0.22606E-02 17760   0.551E-01    0.187E-01
DAV:  14    -0.125464179138E+03   -0.22563E-01   -0.59935E-03 20976   0.283E-01    0.831E-02
DAV:  15    -0.125471596831E+03   -0.74177E-02   -0.30906E-03 18624   0.157E-01    0.434E-02
DAV:  16    -0.125473539349E+03   -0.19425E-02   -0.62401E-04 17328   0.810E-02    0.218E-02
DAV:  17    -0.125474762888E+03   -0.12235E-02   -0.16422E-04 14784   0.515E-02    0.166E-02
DAV:  18    -0.125475485332E+03   -0.72244E-03   -0.80833E-05 15936   0.374E-02    0.120E-02
DAV:  19    -0.125475901905E+03   -0.41657E-03   -0.39065E-05 19728   0.243E-02    0.707E-03
DAV:  20    -0.125475960469E+03   -0.58564E-04   -0.21468E-05 21792   0.177E-02    0.431E-03
DAV:  21    -0.125475979325E+03   -0.18856E-04   -0.58725E-06 21360   0.961E-03    0.215E-03
DAV:  22    -0.125476000198E+03   -0.20874E-04   -0.21885E-06 21552   0.555E-03    0.136E-03
DAV:  23    -0.125476014560E+03   -0.14362E-04   -0.16554E-06 21744   0.398E-03    0.715E-04
DAV:  24    -0.125476017468E+03   -0.29079E-05   -0.32713E-07 23760   0.216E-03    0.375E-04
DAV:  25    -0.125476018414E+03   -0.94602E-06   -0.11526E-07 22848   0.115E-03    0.185E-04
DAV:  26    -0.125476018904E+03   -0.49049E-06   -0.27808E-08 22224   0.573E-04    0.794E-05
DAV:  27    -0.125476019108E+03   -0.20353E-06   -0.80653E-09 22512   0.252E-04    0.476E-05
DAV:  28    -0.125476019222E+03   -0.11433E-06   -0.29338E-09 21504   0.142E-04    0.155E-05
DAV:  29    -0.125476019269E+03   -0.46941E-07   -0.80878E-10 22752   0.674E-05    0.696E-06
DAV:  30    -0.125476019274E+03   -0.49358E-08   -0.77965E-11 23280   0.205E-05
   1 F= -.12706307E+03 E0= -.12706229E+03  d E =-.127063E+03  mag=     0.0000
       N       E                     dE             d eps       ncg     rms          rms(c)
DAV:   1    -0.125488769978E+03   -0.12751E-01   -0.39336E+00 14208   0.607E+00    0.534E-01
DAV:   2    -0.125478405007E+03    0.10365E-01   -0.77499E-02 25920   0.782E-01    0.235E-01
DAV:   3    -0.125477271318E+03    0.11337E-02   -0.63919E-03 21936   0.221E-01    0.921E-02
DAV:   4    -0.125477219274E+03    0.52044E-04   -0.72917E-04 26016   0.761E-02    0.241E-02
DAV:   5    -0.125477222888E+03   -0.36138E-05   -0.21992E-05 26400   0.146E-02    0.846E-03
DAV:   6    -0.125477222858E+03    0.29646E-07   -0.35001E-06 20208   0.555E-03    0.383E-03
DAV:   7    -0.125477223257E+03   -0.39948E-06   -0.66116E-07 24768   0.236E-03    0.116E-03
DAV:   8    -0.125477223747E+03   -0.48923E-06   -0.10859E-07 20880   0.106E-03    0.414E-04
DAV:   9    -0.125477224156E+03   -0.40967E-06   -0.20177E-08 22320   0.428E-04    0.179E-04
DAV:  10    -0.125477224736E+03   -0.58007E-06   -0.38779E-08 22272   0.455E-04    0.141E-04
DAV:  11    -0.125477225022E+03   -0.28601E-06   -0.12193E-08 23856   0.247E-04    0.956E-05
DAV:  12    -0.125477225232E+03   -0.20955E-06   -0.76664E-09 21936   0.162E-04    0.508E-05
DAV:  13    -0.125477225310E+03   -0.78472E-07   -0.19988E-09 23520   0.771E-05    0.294E-05
DAV:  14    -0.125477225337E+03   -0.26776E-07   -0.31745E-10 24624   0.318E-05    0.157E-05
DAV:  15    -0.125477225362E+03   -0.25134E-07   -0.55920E-10 23040   0.388E-05    0.712E-06
DAV:  16    -0.125477225369E+03   -0.62455E-08   -0.10195E-10 24576   0.192E-05
   2 F= -.12706360E+03 E0= -.12706282E+03  d E =-.527579E-03  mag=     0.0000
       N       E                     dE             d eps       ncg     rms          rms(c)
DAV:   1    -0.125488272549E+03   -0.11047E-01   -0.95779E-01 14208   0.299E+00    0.264E-01
DAV:   2    -0.125485705059E+03    0.25675E-02   -0.18871E-02 25536   0.384E-01    0.115E-01
DAV:   3    -0.125485437209E+03    0.26785E-03   -0.15334E-03 24000   0.109E-01    0.460E-02
DAV:   4    -0.125485424716E+03    0.12494E-04   -0.17355E-04 22944   0.370E-02    0.117E-02
DAV:   5    -0.125485425496E+03   -0.78084E-06   -0.60163E-06 25632   0.756E-03    0.376E-03
DAV:   6    -0.125485425525E+03   -0.28947E-07   -0.13180E-06 20160   0.328E-03    0.116E-03
DAV:   7    -0.125485425698E+03   -0.17299E-06   -0.83198E-08 24384   0.904E-04    0.533E-04
DAV:   8    -0.125485425892E+03   -0.19391E-06   -0.15372E-08 21168   0.357E-04    0.216E-04
DAV:   9    -0.125485426103E+03   -0.21033E-06   -0.70500E-09 21600   0.197E-04    0.827E-05
DAV:  10    -0.125485426389E+03   -0.28678E-06   -0.15251E-08 20736   0.225E-04    0.639E-05
DAV:  11    -0.125485426555E+03   -0.16608E-06   -0.71285E-09 22224   0.145E-04    0.417E-05
DAV:  12    -0.125485426669E+03   -0.11326E-06   -0.40925E-09 21936   0.102E-04    0.262E-05
DAV:  13    -0.125485426726E+03   -0.57335E-07   -0.11526E-09 21552   0.595E-05    0.126E-05
DAV:  14    -0.125485426744E+03   -0.18381E-07   -0.24494E-10 25296   0.274E-05    0.686E-06
DAV:  15    -0.125485426752E+03   -0.79772E-08   -0.13933E-10 22176   0.209E-05
   3 F= -.12707213E+03 E0= -.12707135E+03  d E =-.905683E-02  mag=    -0.0000
       N       E                     dE             d eps       ncg     rms          rms(c)
DAV:   1    -0.125492359363E+03   -0.69326E-02   -0.33472E-01 14208   0.203E+00    0.120E-01
DAV:   2    -0.125492421445E+03   -0.62082E-04   -0.21210E-03 26976   0.187E-01    0.699E-02
DAV:   3    -0.125492420028E+03    0.14173E-05   -0.20953E-04 20352   0.520E-02    0.175E-02
DAV:   4    -0.125492421245E+03   -0.12170E-05   -0.33117E-05 27072   0.211E-02    0.664E-03
DAV:   5    -0.125492421606E+03   -0.36103E-06   -0.12457E-06 21696   0.466E-03    0.295E-03
DAV:   6    -0.125492421563E+03    0.43090E-07   -0.79688E-07 21552   0.318E-03    0.661E-04
DAV:   7    -0.125492421729E+03   -0.16609E-06   -0.22810E-07 23088   0.163E-03    0.423E-04
DAV:   8    -0.125492422013E+03   -0.28345E-06   -0.11261E-07 21744   0.105E-03    0.177E-04
DAV:   9    -0.125492422174E+03   -0.16138E-06   -0.21195E-08 24096   0.454E-04    0.117E-04
DAV:  10    -0.125492422287E+03   -0.11347E-06   -0.46925E-09 23184   0.190E-04    0.639E-05
DAV:  11    -0.125492422434E+03   -0.14666E-06   -0.36224E-09 23856   0.124E-04    0.420E-05
DAV:  12    -0.125492422669E+03   -0.23542E-06   -0.65096E-09 20256   0.144E-04    0.228E-05
DAV:  13    -0.125492422776E+03   -0.10702E-06   -0.21358E-09 22752   0.846E-05    0.175E-05
DAV:  14    -0.125492422821E+03   -0.44888E-07   -0.73925E-10 21456   0.548E-05    0.880E-06
DAV:  15    -0.125492422830E+03   -0.86411E-08   -0.15540E-10 24912   0.248E-05
   4 F= -.12707899E+03 E0= -.12707821E+03  d E =-.686329E-02  mag=    -0.0000
       N       E                     dE             d eps       ncg     rms          rms(c)
DAV:   1    -0.125501138861E+03   -0.87160E-02   -0.27903E+00 14208   0.585E+00    0.343E-01
DAV:   2    -0.125501782332E+03   -0.64347E-03   -0.18065E-02 27936   0.544E-01    0.200E-01
DAV:   3    -0.125501756450E+03    0.25882E-04   -0.17437E-03 22176   0.149E-01    0.499E-02
DAV:   4    -0.125501767619E+03   -0.11169E-04   -0.26403E-04 27840   0.594E-02    0.192E-02
DAV:   5    -0.125501771514E+03   -0.38949E-05   -0.91255E-06 22848   0.127E-02    0.841E-03
DAV:   6    -0.125501771393E+03    0.12040E-06   -0.58055E-06 24480   0.852E-03    0.179E-03
DAV:   7    -0.125501772080E+03   -0.68646E-06   -0.13598E-06 22176   0.401E-03    0.108E-03
DAV:   8    -0.125501772936E+03   -0.85583E-06   -0.70136E-07 23232   0.260E-03    0.448E-04
DAV:   9    -0.125501773612E+03   -0.67637E-06   -0.14828E-07 23088   0.120E-03    0.260E-04
DAV:  10    -0.125501774107E+03   -0.49470E-06   -0.33904E-08 25632   0.502E-04    0.172E-04
DAV:  11    -0.125501774541E+03   -0.43446E-06   -0.15003E-08 23520   0.265E-04    0.107E-04
DAV:  12    -0.125501774978E+03   -0.43676E-06   -0.17416E-08 24864   0.243E-04    0.544E-05
DAV:  13    -0.125501775241E+03   -0.26323E-06   -0.82705E-09 22608   0.161E-04    0.401E-05
DAV:  14    -0.125501775419E+03   -0.17828E-06   -0.47217E-09 23088   0.134E-04    0.227E-05
DAV:  15    -0.125501775484E+03   -0.64757E-07   -0.12985E-09 21312   0.744E-05    0.104E-05
DAV:  16    -0.125501775492E+03   -0.81336E-08   -0.14513E-10 26400   0.276E-05
   5 F= -.12708794E+03 E0= -.12708716E+03  d E =-.158171E-01  mag=    -0.0000
       N       E                     dE             d eps       ncg     rms          rms(c)
DAV:   1    -0.125504006605E+03   -0.22311E-02   -0.35392E-02 14208   0.705E-01    0.409E-02
DAV:   2    -0.125504009632E+03   -0.30272E-05   -0.28809E-04 28416   0.728E-02    0.229E-02
DAV:   3    -0.125504007840E+03    0.17921E-05   -0.27618E-05 19872   0.198E-02    0.694E-03
DAV:   4    -0.125504008161E+03   -0.32084E-06   -0.47256E-06 22608   0.795E-03    0.278E-03
DAV:   5    -0.125504008312E+03   -0.15112E-06   -0.19054E-07 22464   0.179E-03    0.112E-03
DAV:   6    -0.125504008307E+03    0.47039E-08   -0.81351E-08 22848   0.109E-03
   6 F= -.12709014E+03 E0= -.12708936E+03  d E =-.219744E-02  mag=    -0.0000
       N       E                     dE             d eps       ncg     rms          rms(c)
DAV:   1    -0.125509078640E+03   -0.50703E-02   -0.31920E-01 14208   0.212E+00    0.122E-01
DAV:   2    -0.125509111169E+03   -0.32530E-04   -0.25909E-03 27264   0.218E-01    0.684E-02
DAV:   3    -0.125509091223E+03    0.19946E-04   -0.25305E-04 21264   0.600E-02    0.208E-02
DAV:   4    -0.125509092788E+03   -0.15650E-05   -0.42103E-05 25056   0.236E-02    0.837E-03
DAV:   5    -0.125509093648E+03   -0.85978E-06   -0.14682E-06 21216   0.510E-03    0.338E-03
DAV:   6    -0.125509093474E+03    0.17416E-06   -0.79589E-07 21888   0.343E-03    0.684E-04
DAV:   7    -0.125509093394E+03    0.79958E-07   -0.17170E-07 22512   0.150E-03    0.432E-04
DAV:   8    -0.125509093359E+03    0.34596E-07   -0.64177E-08 21408   0.838E-04    0.251E-04
DAV:   9    -0.125509093374E+03   -0.15146E-07   -0.22668E-08 25008   0.491E-04    0.126E-04
DAV:  10    -0.125509093457E+03   -0.82257E-07   -0.68458E-09 21888   0.270E-04    0.633E-05
DAV:  11    -0.125509093570E+03   -0.11351E-06   -0.39875E-09 21408   0.160E-04    0.422E-05
DAV:  12    -0.125509093648E+03   -0.77356E-07   -0.20136E-09 21552   0.877E-05    0.192E-05
DAV:  13    -0.125509093684E+03   -0.35941E-07   -0.60628E-10 22176   0.478E-05    0.145E-05
DAV:  14    -0.125509093700E+03   -0.16821E-07   -0.34256E-10 21456   0.325E-05    0.854E-06
DAV:  15    -0.125509093705E+03   -0.45993E-08   -0.97174E-11 24432   0.175E-05
   7 F= -.12709511E+03 E0= -.12709433E+03  d E =-.716788E-02  mag=     0.0000
       N       E                     dE             d eps       ncg     rms          rms(c)
DAV:   1    -0.125512023313E+03   -0.29296E-02   -0.12810E+00 14208   0.424E+00    0.244E-01
DAV:   2    -0.125512178411E+03   -0.15510E-03   -0.10593E-02 27936   0.440E-01    0.136E-01
DAV:   3    -0.125512095374E+03    0.83037E-04   -0.99745E-04 21312   0.119E-01    0.416E-02
DAV:   4    -0.125512101398E+03   -0.60236E-05   -0.16694E-04 26496   0.470E-02    0.167E-02
DAV:   5    -0.125512104904E+03   -0.35062E-05   -0.52122E-06 20832   0.969E-03    0.673E-03
DAV:   6    -0.125512104332E+03    0.57213E-06   -0.30041E-06 22656   0.662E-03    0.131E-03
DAV:   7    -0.125512104140E+03    0.19150E-06   -0.57254E-07 22080   0.276E-03    0.769E-04
DAV:   8    -0.125512104028E+03    0.11263E-06   -0.29428E-07 23328   0.176E-03    0.285E-04
DAV:   9    -0.125512104060E+03   -0.32776E-07   -0.54603E-08 23904   0.784E-04    0.184E-04
DAV:  10    -0.125512104151E+03   -0.90575E-07   -0.13457E-08 23568   0.362E-04    0.123E-04
DAV:  11    -0.125512104258E+03   -0.10736E-06   -0.48251E-09 21216   0.184E-04    0.747E-05
DAV:  12    -0.125512104454E+03   -0.19556E-06   -0.63497E-09 19104   0.147E-04    0.295E-05
DAV:  13    -0.125512104540E+03   -0.86174E-07   -0.24763E-09 22608   0.814E-05    0.226E-05
DAV:  14    -0.125512104576E+03   -0.35970E-07   -0.90110E-10 20352   0.535E-05    0.137E-05
DAV:  15    -0.125512104584E+03   -0.82919E-08   -0.21739E-10 25440   0.264E-05
   8 F= -.12709785E+03 E0= -.12709709E+03  d E =-.990778E-02  mag=     0.0000
       N       E                     dE             d eps       ncg     rms          rms(c)
DAV:   1    -0.125512254174E+03   -0.14960E-03   -0.57520E-02 14208   0.896E-01    0.516E-02
DAV:   2    -0.125512260201E+03   -0.60271E-05   -0.48133E-04 27072   0.937E-02    0.289E-02
DAV:   3    -0.125512257125E+03    0.30757E-05   -0.45169E-05 18624   0.255E-02    0.888E-03
DAV:   4    -0.125512257566E+03   -0.44088E-06   -0.78261E-06 26304   0.102E-02    0.356E-03
DAV:   5    -0.125512257741E+03   -0.17555E-06   -0.23252E-07 21024   0.203E-03    0.142E-03
DAV:   6    -0.125512257707E+03    0.33953E-07   -0.12580E-07 24336   0.135E-03    0.280E-04
DAV:   7    -0.125512257699E+03    0.80472E-08   -0.22471E-08 22608   0.553E-04
   9 F= -.12709807E+03 E0= -.12709730E+03  d E =-.101228E-01  mag=     0.0000
       N       E                     dE             d eps       ncg     rms          rms(c)
DAV:   1    -0.125514135034E+03   -0.18773E-02   -0.66433E-02 14208   0.862E-01    0.487E-02
DAV:   2    -0.125514146246E+03   -0.11213E-04   -0.35557E-04 28128   0.697E-02    0.290E-02
DAV:   3    -0.125514144418E+03    0.18284E-05   -0.43652E-05 17280   0.206E-02    0.467E-03
DAV:   4    -0.125514144652E+03   -0.23431E-06   -0.30927E-06 21216   0.665E-03    0.237E-03
DAV:   5    -0.125514144492E+03    0.16040E-06   -0.38601E-07 21984   0.233E-03    0.725E-04
DAV:   6    -0.125514144403E+03    0.88697E-07   -0.11856E-07 26304   0.119E-03    0.318E-04
DAV:   7    -0.125514144392E+03    0.11213E-07   -0.56108E-08 21456   0.720E-04    0.249E-04
DAV:   8    -0.125514144433E+03   -0.41195E-07   -0.31404E-08 22800   0.522E-04    0.141E-04
DAV:   9    -0.125514144513E+03   -0.79986E-07   -0.74213E-09 19488   0.259E-04    0.701E-05
DAV:  10    -0.125514144604E+03   -0.91140E-07   -0.41699E-09 20688   0.154E-04    0.387E-05
DAV:  11    -0.125514144672E+03   -0.67480E-07   -0.21532E-09 20688   0.830E-05    0.210E-05
DAV:  12    -0.125514144697E+03   -0.25709E-07   -0.63831E-10 22896   0.462E-05    0.145E-05
DAV:  13    -0.125514144710E+03   -0.12440E-07   -0.33807E-10 20928   0.311E-05    0.854E-06
DAV:  14    -0.125514144715E+03   -0.49049E-08   -0.16983E-10 23232   0.203E-05
  10 F= -.12709985E+03 E0= -.12709907E+03  d E =-.177825E-02  mag=     0.0000
       N       E                     dE             d eps       ncg     rms          rms(c)
DAV:   1    -0.125518372686E+03   -0.42280E-02   -0.59849E-01 14208   0.259E+00    0.145E-01
DAV:   2    -0.125518486408E+03   -0.11372E-03   -0.31111E-03 27936   0.208E-01    0.867E-02
DAV:   3    -0.125518462234E+03    0.24175E-04   -0.40397E-04 20736   0.624E-02    0.133E-02
DAV:   4    -0.125518462729E+03   -0.49516E-06   -0.25269E-05 22368   0.195E-02    0.706E-03
DAV:   5    -0.125518461382E+03    0.13462E-05   -0.32357E-06 21696   0.683E-03    0.215E-03
DAV:   6    -0.125518460749E+03    0.63321E-06   -0.10448E-06 26016   0.355E-03    0.896E-04
DAV:   7    -0.125518460870E+03   -0.12091E-06   -0.94228E-07 22176   0.290E-03    0.533E-04
DAV:   8    -0.125518461513E+03   -0.64249E-06   -0.16541E-07 18288   0.126E-03    0.303E-04
DAV:   9    -0.125518462337E+03   -0.82415E-06   -0.68491E-08 19248   0.736E-04    0.184E-04
DAV:  10    -0.125518462673E+03   -0.33624E-06   -0.10191E-08 23856   0.263E-04    0.114E-04
DAV:  11    -0.125518463163E+03   -0.49035E-06   -0.18114E-08 17952   0.213E-04    0.527E-05
DAV:  12    -0.125518463329E+03   -0.16525E-06   -0.45529E-09 22944   0.111E-04    0.346E-05
DAV:  13    -0.125518463410E+03   -0.80850E-07   -0.30336E-09 20064   0.886E-05    0.195E-05
DAV:  14    -0.125518463425E+03   -0.15310E-07   -0.42764E-10 25680   0.475E-05    0.101E-05
DAV:  15    -0.125518463430E+03   -0.52469E-08   -0.10877E-10 21744   0.259E-05
  11 F= -.12710384E+03 E0= -.12710306E+03  d E =-.577444E-02  mag=    -0.0000
       N       E                     dE             d eps       ncg     rms          rms(c)
DAV:   1    -0.125521181447E+03   -0.27180E-02   -0.23946E+00 14208   0.518E+00    0.286E-01
DAV:   2    -0.125521699605E+03   -0.51816E-03   -0.12138E-02 26784   0.412E-01    0.172E-01
DAV:   3    -0.125521606885E+03    0.92720E-04   -0.16584E-03 21120   0.127E-01    0.246E-02
DAV:   4    -0.125521605628E+03    0.12567E-05   -0.99081E-05 22944   0.391E-02    0.140E-02
DAV:   5    -0.125521601048E+03    0.45795E-05   -0.12296E-05 22272   0.136E-02    0.424E-03
DAV:   6    -0.125521599305E+03    0.17437E-05   -0.36539E-06 25536   0.685E-03    0.173E-03
DAV:   7    -0.125521600108E+03   -0.80360E-06   -0.35139E-06 22464   0.567E-03    0.101E-03
DAV:   8    -0.125521602349E+03   -0.22408E-05   -0.55617E-07 18624   0.237E-03    0.608E-04
DAV:   9    -0.125521605091E+03   -0.27420E-05   -0.24861E-07 18480   0.146E-03    0.395E-04
DAV:  10    -0.125521606282E+03   -0.11903E-05   -0.47235E-08 22800   0.602E-04    0.226E-04
DAV:  11    -0.125521607972E+03   -0.16908E-05   -0.69030E-08 19104   0.443E-04    0.102E-04
DAV:  12    -0.125521608477E+03   -0.50436E-06   -0.13124E-08 23328   0.222E-04    0.696E-05
DAV:  13    -0.125521608751E+03   -0.27449E-06   -0.98012E-09 20496   0.207E-04    0.399E-05
DAV:  14    -0.125521608813E+03   -0.62037E-07   -0.21109E-09 24288   0.141E-04    0.205E-05
DAV:  15    -0.125521608836E+03   -0.22299E-07   -0.54361E-10 21792   0.737E-05    0.118E-05
DAV:  16    -0.125521608845E+03   -0.96670E-08   -0.19717E-10 24144   0.514E-05
  12 F= -.12710636E+03 E0= -.12710562E+03  d E =-.829290E-02  mag=     0.0000
       N       E                     dE             d eps       ncg     rms          rms(c)
DAV:   1    -0.125523495199E+03   -0.18864E-02   -0.11026E-01 14208   0.119E+00    0.629E-02
DAV:   2    -0.125523517149E+03   -0.21950E-04   -0.66757E-04 26880   0.105E-01    0.377E-02
DAV:   3    -0.125523511388E+03    0.57609E-05   -0.83831E-05 17760   0.321E-02    0.730E-03
DAV:   4    -0.125523511534E+03   -0.14626E-06   -0.90793E-06 22464   0.116E-02    0.368E-03
DAV:   5    -0.125523511478E+03    0.56215E-07   -0.43206E-07 22752   0.275E-03    0.157E-03
DAV:   6    -0.125523511318E+03    0.15960E-06   -0.21572E-07 24000   0.175E-03    0.361E-04
DAV:   7    -0.125523511354E+03   -0.35491E-07   -0.87042E-08 23280   0.989E-04    0.276E-04
DAV:   8    -0.125523511533E+03   -0.17947E-06   -0.62568E-08 19968   0.750E-04    0.160E-04
DAV:   9    -0.125523511681E+03   -0.14757E-06   -0.12658E-08 21888   0.352E-04    0.108E-04
DAV:  10    -0.125523511838E+03   -0.15703E-06   -0.58682E-09 20304   0.193E-04    0.555E-05
DAV:  11    -0.125523511973E+03   -0.13487E-06   -0.37258E-09 21744   0.108E-04    0.293E-05
DAV:  12    -0.125523512046E+03   -0.73253E-07   -0.19943E-09 20784   0.789E-05    0.174E-05
DAV:  13    -0.125523512069E+03   -0.22994E-07   -0.54165E-10 23424   0.557E-05    0.126E-05
DAV:  14    -0.125523512080E+03   -0.10636E-07   -0.32611E-10 20832   0.403E-05    0.536E-06
DAV:  15    -0.125523512082E+03   -0.18499E-08   -0.38541E-11 25632   0.212E-05
  13 F= -.12710814E+03 E0= -.12710737E+03  d E =-.177509E-02  mag=     0.0000
       N       E                     dE             d eps       ncg     rms          rms(c)
DAV:   1    -0.125525978390E+03   -0.24663E-02   -0.92770E-01 14208   0.346E+00    0.182E-01
DAV:   2    -0.125526176155E+03   -0.19777E-03   -0.55278E-03 25440   0.303E-01    0.109E-01
DAV:   3    -0.125526119766E+03    0.56389E-04   -0.71934E-04 20976   0.939E-02    0.208E-02
DAV:   4    -0.125526119486E+03    0.27954E-06   -0.75337E-05 23520   0.337E-02    0.107E-02
DAV:   5    -0.125526119233E+03    0.25352E-06   -0.33462E-06 22848   0.779E-03    0.460E-03
DAV:   6    -0.125526118344E+03    0.88871E-06   -0.18028E-06 24240   0.510E-03    0.101E-03
DAV:   7    -0.125526118753E+03   -0.40924E-06   -0.72959E-07 23280   0.286E-03    0.763E-04
DAV:   8    -0.125526120102E+03   -0.13481E-05   -0.52269E-07 19872   0.218E-03    0.366E-04
DAV:   9    -0.125526121378E+03   -0.12763E-05   -0.13070E-07 21744   0.109E-03    0.250E-04
DAV:  10    -0.125526122049E+03   -0.67133E-06   -0.22187E-08 21600   0.396E-04    0.163E-04
DAV:  11    -0.125526122772E+03   -0.72320E-06   -0.19799E-08 20688   0.240E-04    0.781E-05
DAV:  12    -0.125526123171E+03   -0.39861E-06   -0.10487E-08 20688   0.166E-04    0.458E-05
DAV:  13    -0.125526123328E+03   -0.15743E-06   -0.39634E-09 21648   0.113E-04    0.317E-05
DAV:  14    -0.125526123378E+03   -0.49966E-07   -0.12663E-09 22416   0.764E-05    0.149E-05
DAV:  15    -0.125526123391E+03   -0.12595E-07   -0.21284E-10 23184   0.378E-05    0.946E-06
DAV:  16    -0.125526123396E+03   -0.49195E-08   -0.57305E-11 22992   0.209E-05
  14 F= -.12711037E+03 E0= -.12710959E+03  d E =-.401308E-02  mag=    -0.0000
       N       E                     dE             d eps       ncg     rms          rms(c)
DAV:   1    -0.125526133784E+03   -0.10393E-04   -0.55922E-04 14400   0.850E-02    0.444E-03
DAV:   2    -0.125526133893E+03   -0.10905E-06   -0.35665E-06 25296   0.766E-03    0.269E-03
DAV:   3    -0.125526133901E+03   -0.81673E-08   -0.43384E-07 20016   0.232E-03    0.522E-04
DAV:   4    -0.125526133902E+03   -0.87221E-09   -0.46066E-08 24576   0.828E-04
  15 F= -.12711037E+03 E0= -.12710959E+03  d E =-.401440E-02  mag=    -0.0000
       N       E                     dE             d eps       ncg     rms          rms(c)
DAV:   1    -0.125526340172E+03   -0.20627E-03   -0.30335E-03 17568   0.233E-01    0.136E-02
DAV:   2    -0.125526337378E+03    0.27936E-05   -0.38122E-05 21408   0.259E-02    0.690E-03
DAV:   3    -0.125526336654E+03    0.72406E-06   -0.48230E-06 21408   0.854E-03    0.230E-03
DAV:   4    -0.125526336667E+03   -0.12416E-07   -0.60012E-07 18528   0.291E-03    0.104E-03
DAV:   5    -0.125526336688E+03   -0.20999E-07   -0.34021E-08 22848   0.754E-04    0.364E-04
DAV:   6    -0.125526336689E+03   -0.16817E-08   -0.69067E-09 22752   0.325E-04
  16 F= -.12711056E+03 E0= -.12710978E+03  d E =-.189054E-03  mag=    -0.0000
       N       E                     dE             d eps       ncg     rms          rms(c)
DAV:   1    -0.125526576363E+03   -0.23968E-03   -0.17154E-02 17472   0.554E-01    0.323E-02
DAV:   2    -0.125526560695E+03    0.15667E-04   -0.21570E-04 24576   0.615E-02    0.164E-02
DAV:   3    -0.125526556287E+03    0.44080E-05   -0.25391E-05 23136   0.196E-02    0.541E-03
DAV:   4    -0.125526556299E+03   -0.11708E-07   -0.32041E-06 21120   0.675E-03    0.241E-03
DAV:   5    -0.125526556388E+03   -0.89180E-07   -0.16427E-07 21984   0.167E-03    0.861E-04
DAV:   6    -0.125526556381E+03    0.65884E-08   -0.38640E-08 22272   0.774E-04
  17 F= -.12711075E+03 E0= -.12710997E+03  d E =-.374934E-03  mag=    -0.0000
       N       E                     dE             d eps       ncg     rms          rms(c)
DAV:   1    -0.125526708356E+03   -0.15197E-03   -0.31930E-03 14208   0.226E-01    0.110E-02
DAV:   2    -0.125526706981E+03    0.13750E-05   -0.26193E-05 21696   0.207E-02    0.604E-03
DAV:   3    -0.125526706569E+03    0.41175E-06   -0.30034E-06 23232   0.643E-03    0.195E-03
DAV:   4    -0.125526706602E+03   -0.32773E-07   -0.32445E-07 20832   0.222E-03    0.721E-04
DAV:   5    -0.125526706593E+03    0.88467E-08   -0.17882E-08 20832   0.571E-04
  18 F= -.12711088E+03 E0= -.12711010E+03  d E =-.135236E-03  mag=     0.0000
       N       E                     dE             d eps       ncg     rms          rms(c)
DAV:   1    -0.125526874863E+03   -0.16826E-03   -0.16375E-02 14208   0.511E-01    0.250E-02
DAV:   2    -0.125526868197E+03    0.66668E-05   -0.13456E-04 18816   0.469E-02    0.137E-02
DAV:   3    -0.125526865905E+03    0.22921E-05   -0.15512E-05 23808   0.147E-02    0.442E-03
DAV:   4    -0.125526865981E+03   -0.76083E-07   -0.17105E-06 20928   0.504E-03    0.164E-03
DAV:   5    -0.125526865909E+03    0.72056E-07   -0.90409E-08 21504   0.128E-03    0.538E-04
DAV:   6    -0.125526865880E+03    0.28370E-07   -0.26827E-08 24240   0.685E-04    0.173E-04
DAV:   7    -0.125526865931E+03   -0.50425E-07   -0.14834E-08 19968   0.464E-04    0.131E-04
DAV:   8    -0.125526866020E+03   -0.88950E-07   -0.99104E-09 18960   0.350E-04    0.979E-05
DAV:   9    -0.125526866141E+03   -0.12114E-06   -0.94356E-09 18816   0.277E-04    0.453E-05
DAV:  10    -0.125526866227E+03   -0.85809E-07   -0.34952E-09 20496   0.144E-04    0.243E-05
DAV:  11    -0.125526866310E+03   -0.83574E-07   -0.22705E-09 20304   0.115E-04    0.156E-05
DAV:  12    -0.125526866352E+03   -0.41761E-07   -0.90974E-10 21840   0.954E-05    0.100E-05
DAV:  13    -0.125526866372E+03   -0.20280E-07   -0.49724E-10 20448   0.508E-05    0.494E-06
DAV:  14    -0.125526866377E+03   -0.46221E-08   -0.11152E-10 23520   0.223E-05
  19 F= -.12711101E+03 E0= -.12711023E+03  d E =-.261090E-03  mag=     0.0000
       N       E                     dE             d eps       ncg     rms          rms(c)
DAV:   1    -0.125526941045E+03   -0.74673E-04   -0.26407E-03 14448   0.204E-01    0.115E-02
DAV:   2    -0.125526938667E+03    0.23776E-05   -0.35721E-05 24048   0.232E-02    0.609E-03
DAV:   3    -0.125526938075E+03    0.59220E-06   -0.37557E-06 20688   0.708E-03    0.199E-03
DAV:   4    -0.125526938096E+03   -0.21251E-07   -0.47894E-07 20832   0.254E-03    0.786E-04
DAV:   5    -0.125526938103E+03   -0.63137E-08   -0.23253E-08 22512   0.628E-04
  20 F= -.12711107E+03 E0= -.12711028E+03  d E =-.555161E-04  mag=     0.0000
       N       E                     dE             d eps       ncg     rms          rms(c)
DAV:   1    -0.125526963893E+03   -0.25797E-04   -0.14364E-03 14688   0.150E-01    0.849E-03
DAV:   2    -0.125526962615E+03    0.12782E-05   -0.19491E-05 22080   0.171E-02    0.450E-03
DAV:   3    -0.125526962306E+03    0.30851E-06   -0.21292E-06 20016   0.532E-03    0.148E-03
DAV:   4    -0.125526962315E+03   -0.86711E-08   -0.26723E-07 20880   0.189E-03    0.596E-04
DAV:   5    -0.125526962316E+03   -0.14052E-08   -0.13830E-08 23232   0.484E-04
  21 F= -.12711108E+03 E0= -.12711030E+03  d E =-.677459E-04  mag=    -0.0000
       N       E                     dE             d eps       ncg     rms          rms(c)
DAV:   1    -0.125527022616E+03   -0.60301E-04   -0.16645E-03 14784   0.169E-01    0.866E-03
DAV:   2    -0.125527021771E+03    0.84557E-06   -0.19194E-05 19584   0.178E-02    0.466E-03
DAV:   3    -0.125527021548E+03    0.22239E-06   -0.19547E-06 24432   0.532E-03    0.164E-03
DAV:   4    -0.125527021579E+03   -0.30998E-07   -0.23039E-07 16032   0.182E-03    0.620E-04
DAV:   5    -0.125527021598E+03   -0.18994E-07   -0.15949E-08 21312   0.518E-04    0.214E-04
DAV:   6    -0.125527021604E+03   -0.59763E-08   -0.23489E-09 23184   0.194E-04
  22 F= -.12711111E+03 E0= -.12711032E+03  d E =-.278828E-04  mag=     0.0000
       N       E                     dE             d eps       ncg     rms          rms(c)
DAV:   1    -0.125527045139E+03   -0.23540E-04   -0.58683E-04 15168   0.100E-01    0.515E-03
DAV:   2    -0.125527044821E+03    0.31784E-06   -0.67257E-06 21984   0.105E-02    0.276E-03
DAV:   3    -0.125527044754E+03    0.66721E-07   -0.65063E-07 23520   0.307E-03    0.964E-04
DAV:   4    -0.125527044770E+03   -0.15943E-07   -0.80713E-08 18864   0.108E-03    0.357E-04
DAV:   5    -0.125527044777E+03   -0.65029E-08   -0.49582E-09 23952   0.289E-04
  23 F= -.12711111E+03 E0= -.12711033E+03  d E =-.323932E-04  mag=     0.0000
       N       E                     dE             d eps       ncg     rms          rms(c)
DAV:   1    -0.125527130345E+03   -0.85575E-04   -0.15774E-03 14208   0.157E-01    0.745E-03
DAV:   2    -0.125527130369E+03   -0.23975E-07   -0.13671E-05 19440   0.153E-02    0.436E-03
DAV:   3    -0.125527130278E+03    0.90748E-07   -0.12195E-06 23088   0.410E-03    0.125E-03
DAV:   4    -0.125527130304E+03   -0.26358E-07   -0.13818E-07 23520   0.137E-03    0.471E-04
DAV:   5    -0.125527130310E+03   -0.53169E-08   -0.62656E-09 23904   0.300E-04
  24 F= -.12711114E+03 E0= -.12711036E+03  d E =-.285956E-04  mag=    -0.0000
       N       E                     dE             d eps       ncg     rms          rms(c)
DAV:   1    -0.125527292439E+03   -0.16214E-03   -0.87312E-03 14208   0.369E-01    0.175E-02
DAV:   2    -0.125527292752E+03   -0.31291E-06   -0.76032E-05 25392   0.358E-02    0.103E-02
DAV:   3    -0.125527291917E+03    0.83491E-06   -0.60584E-06 24624   0.902E-03    0.289E-03
DAV:   4    -0.125527292029E+03   -0.11125E-06   -0.69911E-07 24864   0.313E-03    0.106E-03
DAV:   5    -0.125527292047E+03   -0.18616E-07   -0.35398E-08 23088   0.694E-04    0.372E-04
DAV:   6    -0.125527292048E+03   -0.87311E-09   -0.99865E-09 24816   0.374E-04
  25 F= -.12711117E+03 E0= -.12711039E+03  d E =-.564315E-04  mag=    -0.0000
       N       E                     dE             d eps       ncg     rms          rms(c)
DAV:   1    -0.125527366452E+03   -0.74405E-04   -0.11589E-03 14208   0.137E-01    0.634E-03
DAV:   2    -0.125527366492E+03   -0.39887E-07   -0.10457E-05 17328   0.138E-02    0.382E-03
DAV:   3    -0.125527366414E+03    0.77806E-07   -0.12152E-06 19632   0.419E-03    0.107E-03
DAV:   4    -0.125527366425E+03   -0.10766E-07   -0.16961E-07 21408   0.152E-03    0.548E-04
DAV:   5    -0.125527366439E+03   -0.13390E-07   -0.85855E-09 22224   0.371E-04    0.197E-04
DAV:   6    -0.125527366450E+03   -0.11222E-07   -0.26961E-09 22512   0.194E-04    0.745E-05
DAV:   7    -0.125527366458E+03   -0.84492E-08   -0.64132E-10 22704   0.106E-04
  26 F= -.12711119E+03 E0= -.12711041E+03  d E =-.217641E-04  mag=    -0.0000
       N       E                     dE             d eps       ncg     rms          rms(c)
DAV:   1    -0.125527535749E+03   -0.16930E-03   -0.86518E-03 14208   0.373E-01    0.173E-02
DAV:   2    -0.125527536366E+03   -0.61678E-06   -0.79273E-05 26592   0.377E-02    0.105E-02
DAV:   3    -0.125527535509E+03    0.85678E-06   -0.79091E-06 23040   0.105E-02    0.277E-03
DAV:   4    -0.125527535538E+03   -0.28239E-07   -0.11126E-06 22080   0.392E-03    0.139E-03
DAV:   5    -0.125527535563E+03   -0.25894E-07   -0.52002E-08 22512   0.916E-04    0.536E-04
DAV:   6    -0.125527535566E+03   -0.29158E-08   -0.17497E-08 24096   0.460E-04
  27 F= -.12711121E+03 E0= -.12711043E+03  d E =-.468982E-04  mag=    -0.0000
       N       E                     dE             d eps       ncg     rms          rms(c)
DAV:   1    -0.125527650296E+03   -0.11473E-03   -0.24172E-03 14208   0.194E-01    0.883E-03
DAV:   2    -0.125527650784E+03   -0.48796E-06   -0.19958E-05 16368   0.186E-02    0.542E-03
DAV:   3    -0.125527650776E+03    0.79035E-08   -0.14960E-06 17712   0.456E-03    0.137E-03
DAV:   4    -0.125527650825E+03   -0.48894E-07   -0.19274E-07 20256   0.159E-03    0.490E-04
DAV:   5    -0.125527650841E+03   -0.15399E-07   -0.15337E-08 22848   0.451E-04    0.169E-04
DAV:   6    -0.125527650855E+03   -0.14370E-07   -0.42436E-09 22848   0.260E-04    0.719E-05
DAV:   7    -0.125527650868E+03   -0.12795E-07   -0.15797E-09 22512   0.172E-04    0.507E-05
DAV:   8    -0.125527650895E+03   -0.26979E-07   -0.22897E-09 19104   0.156E-04    0.334E-05
DAV:   9    -0.125527650915E+03   -0.20485E-07   -0.70099E-10 20928   0.736E-05    0.184E-05
DAV:  10    -0.125527650933E+03   -0.17834E-07   -0.50093E-10 20688   0.572E-05    0.103E-05
DAV:  11    -0.125527650940E+03   -0.72168E-08   -0.13877E-10 23424   0.422E-05
  28 F= -.12711125E+03 E0= -.12711046E+03  d E =-.315838E-04  mag=    -0.0000
       N       E                     dE             d eps       ncg     rms          rms(c)
DAV:   1    -0.125527956226E+03   -0.30529E-03   -0.21748E-02 14208   0.583E-01    0.265E-02
DAV:   2    -0.125527962187E+03   -0.59612E-05   -0.18276E-04 20352   0.560E-02    0.163E-02
DAV:   3    -0.125527961279E+03    0.90853E-06   -0.12594E-05 26400   0.128E-02    0.406E-03
DAV:   4    -0.125527961484E+03   -0.20540E-06   -0.13742E-06 22848   0.438E-03    0.140E-03
DAV:   5    -0.125527961484E+03   -0.29922E-09   -0.11597E-07 24000   0.119E-03    0.477E-04
DAV:   6    -0.125527961465E+03    0.19856E-07   -0.26952E-08 24288   0.590E-04    0.158E-04
DAV:   7    -0.125527961468E+03   -0.38708E-08   -0.11057E-08 19968   0.361E-04
  29 F= -.12711130E+03 E0= -.12711052E+03  d E =-.909445E-04  mag=     0.0000
       N       E                     dE             d eps       ncg     rms          rms(c)
DAV:   1    -0.125528403034E+03   -0.44157E-03   -0.87009E-02 14208   0.117E+00    0.530E-02
DAV:   2    -0.125528428098E+03   -0.25064E-04   -0.72324E-04 25632   0.111E-01    0.327E-02
DAV:   3    -0.125528422118E+03    0.59802E-05   -0.47043E-05 26688   0.242E-02    0.793E-03
DAV:   4    -0.125528422726E+03   -0.60802E-06   -0.52716E-06 23568   0.864E-03    0.272E-03
DAV:   5    -0.125528422711E+03    0.15164E-07   -0.49381E-07 25104   0.243E-03    0.932E-04
DAV:   6    -0.125528422683E+03    0.27383E-07   -0.11035E-07 23808   0.122E-03    0.327E-04
DAV:   7    -0.125528422752E+03   -0.68899E-07   -0.45405E-08 18624   0.804E-04    0.211E-04
DAV:   8    -0.125528422861E+03   -0.10924E-06   -0.24012E-08 25104   0.613E-04    0.154E-04
DAV:   9    -0.125528423016E+03   -0.15428E-06   -0.11989E-08 18960   0.388E-04    0.842E-05
DAV:  10    -0.125528423193E+03   -0.17719E-06   -0.83067E-09 20352   0.251E-04    0.468E-05
DAV:  11    -0.125528423318E+03   -0.12473E-06   -0.30893E-09 20880   0.159E-04    0.297E-05
DAV:  12    -0.125528423385E+03   -0.67478E-07   -0.17710E-09 22464   0.142E-04    0.187E-05
DAV:  13    -0.125528423421E+03   -0.35529E-07   -0.75140E-10 20688   0.793E-05    0.111E-05
DAV:  14    -0.125528423436E+03   -0.15378E-07   -0.32876E-10 21504   0.407E-05    0.579E-06
DAV:  15    -0.125528423439E+03   -0.26675E-08   -0.48523E-11 22944   0.204E-05
  30 F= -.12711127E+03 E0= -.12711048E+03  d E =-.512499E-04  mag=     0.0000
       N       E                     dE             d eps       ncg     rms          rms(c)
DAV:   1    -0.125528119310E+03    0.30413E-03   -0.40982E-02 14208   0.800E-01    0.364E-02
DAV:   2    -0.125528131214E+03   -0.11904E-04   -0.34562E-04 25920   0.767E-02    0.225E-02
DAV:   3    -0.125528128855E+03    0.23594E-05   -0.21831E-05 21792   0.167E-02    0.554E-03
DAV:   4    -0.125528129120E+03   -0.26538E-06   -0.27536E-06 24864   0.612E-03    0.186E-03
DAV:   5    -0.125528129060E+03    0.59796E-07   -0.23501E-07 22272   0.166E-03    0.638E-04
DAV:   6    -0.125528129010E+03    0.50334E-07   -0.49055E-08 25824   0.804E-04    0.217E-04
DAV:   7    -0.125528129033E+03   -0.22966E-07   -0.20246E-08 19536   0.475E-04    0.126E-04
DAV:   8    -0.125528129103E+03   -0.69975E-07   -0.74651E-09 21696   0.264E-04    0.952E-05
DAV:   9    -0.125528129194E+03   -0.91626E-07   -0.44382E-09 20400   0.171E-04    0.558E-05
DAV:  10    -0.125528129296E+03   -0.10159E-06   -0.38194E-09 19056   0.131E-04    0.298E-05
DAV:  11    -0.125528129391E+03   -0.94527E-07   -0.24201E-09 20016   0.803E-05    0.159E-05
DAV:  12    -0.125528129476E+03   -0.85323E-07   -0.19498E-09 19968   0.730E-05    0.973E-06
DAV:  13    -0.125528129497E+03   -0.20913E-07   -0.30554E-10 23040   0.362E-05    0.672E-06
DAV:  14    -0.125528129504E+03   -0.70941E-08   -0.13789E-10 21024   0.251E-05
  31 F= -.12711132E+03 E0= -.12711053E+03  d E =-.101534E-03  mag=    -0.0000
       N       E                     dE             d eps       ncg     rms          rms(c)
DAV:   1    -0.125528337897E+03   -0.20840E-03   -0.90374E-03 14208   0.382E-01    0.173E-02
DAV:   2    -0.125528341072E+03   -0.31754E-05   -0.86509E-05 22752   0.390E-02    0.110E-02
DAV:   3    -0.125528340685E+03    0.38723E-06   -0.64726E-06 24480   0.949E-03    0.246E-03
DAV:   4    -0.125528340781E+03   -0.96430E-07   -0.76000E-07 16704   0.324E-03    0.977E-04
DAV:   5    -0.125528340806E+03   -0.24975E-07   -0.65650E-08 25104   0.913E-04    0.330E-04
DAV:   6    -0.125528340806E+03    0.40745E-09   -0.91250E-09 21792   0.365E-04
  32 F= -.12711136E+03 E0= -.12711058E+03  d E =-.411665E-04  mag=     0.0000
       N       E                     dE             d eps       ncg     rms          rms(c)
DAV:   1    -0.125528473756E+03   -0.13295E-03   -0.49942E-03 14208   0.284E-01    0.129E-02
DAV:   2    -0.125528475311E+03   -0.15559E-05   -0.46523E-05 20736   0.287E-02    0.814E-03
DAV:   3    -0.125528475138E+03    0.17372E-06   -0.36564E-06 22512   0.719E-03    0.183E-03
DAV:   4    -0.125528475203E+03   -0.65746E-07   -0.44953E-07 17664   0.246E-03    0.733E-04
DAV:   5    -0.125528475225E+03   -0.21989E-07   -0.36682E-08 24768   0.678E-04    0.249E-04
DAV:   6    -0.125528475234E+03   -0.81891E-08   -0.51900E-09 21552   0.285E-04
  33 F= -.12711136E+03 E0= -.12711058E+03  d E =-.491814E-04  mag=    -0.0000
       N       E                     dE             d eps       ncg     rms          rms(c)
DAV:   1    -0.125528563754E+03   -0.88528E-04   -0.13458E-03 14208   0.146E-01    0.636E-03
DAV:   2    -0.125528564231E+03   -0.47746E-06   -0.12367E-05 15744   0.146E-02    0.406E-03
DAV:   3    -0.125528564289E+03   -0.58488E-07   -0.84239E-07 16896   0.344E-03    0.102E-03
DAV:   4    -0.125528564327E+03   -0.37297E-07   -0.11087E-07 17616   0.118E-03    0.353E-04
DAV:   5    -0.125528564342E+03   -0.15657E-07   -0.10639E-08 22656   0.357E-04    0.118E-04
DAV:   6    -0.125528564351E+03   -0.82428E-08   -0.13179E-09 22032   0.169E-04
  34 F= -.12711139E+03 E0= -.12711061E+03  d E =-.207079E-04  mag=    -0.0000
       N       E                     dE             d eps       ncg     rms          rms(c)
DAV:   1    -0.125528818768E+03   -0.25443E-03   -0.12112E-02 14208   0.438E-01    0.191E-02
DAV:   2    -0.125528823601E+03   -0.48334E-05   -0.11096E-04 17472   0.435E-02    0.122E-02
DAV:   3    -0.125528823619E+03   -0.17752E-07   -0.74200E-06 24864   0.998E-03    0.299E-03
DAV:   4    -0.125528823789E+03   -0.17042E-06   -0.80722E-07 14640   0.330E-03    0.102E-03
DAV:   5    -0.125528823828E+03   -0.39014E-07   -0.94686E-08 24720   0.104E-03    0.303E-04
DAV:   6    -0.125528823838E+03   -0.95188E-08   -0.84637E-09 21504   0.362E-04
  35 F= -.12711144E+03 E0= -.12711066E+03  d E =-.750739E-04  mag=     0.0000
       N       E                     dE             d eps       ncg     rms          rms(c)
DAV:   1    -0.125529287706E+03   -0.46388E-03   -0.48450E-02 14208   0.876E-01    0.382E-02
DAV:   2    -0.125529308234E+03   -0.20528E-04   -0.44288E-04 19680   0.869E-02    0.244E-02
DAV:   3    -0.125529307050E+03    0.11843E-05   -0.28532E-05 26016   0.193E-02    0.586E-03
DAV:   4    -0.125529307565E+03   -0.51542E-06   -0.31228E-06 14880   0.654E-03    0.199E-03
DAV:   5    -0.125529307668E+03   -0.10285E-06   -0.37468E-07 24192   0.209E-03    0.603E-04
DAV:   6    -0.125529307692E+03   -0.24427E-07   -0.36363E-08 18528   0.786E-04    0.224E-04
DAV:   7    -0.125529307720E+03   -0.27411E-07   -0.96201E-09 25152   0.445E-04    0.127E-04
DAV:   8    -0.125529307751E+03   -0.31089E-07   -0.37942E-09 22272   0.272E-04    0.660E-05
DAV:   9    -0.125529307813E+03   -0.62561E-07   -0.25325E-09 20208   0.152E-04    0.364E-05
DAV:  10    -0.125529307880E+03   -0.66454E-07   -0.24509E-09 20256   0.135E-04    0.285E-05
DAV:  11    -0.125529307925E+03   -0.44961E-07   -0.12012E-09 20544   0.121E-04    0.212E-05
DAV:  12    -0.125529307952E+03   -0.27034E-07   -0.68276E-10 22032   0.952E-05    0.100E-05
DAV:  13    -0.125529307967E+03   -0.15267E-07   -0.23955E-10 20160   0.401E-05    0.564E-06
DAV:  14    -0.125529307973E+03   -0.56489E-08   -0.82484E-11 23616   0.233E-05
  36 F= -.12711151E+03 E0= -.12711073E+03  d E =-.149536E-03  mag=     0.0000
       N       E                     dE             d eps       ncg     rms          rms(c)
DAV:   1    -0.125530055720E+03   -0.74775E-03   -0.19376E-01 14208   0.175E+00    0.764E-02
DAV:   2    -0.125530143352E+03   -0.87632E-04   -0.17841E-03 21024   0.174E-01    0.489E-02
DAV:   3    -0.125530135418E+03    0.79339E-05   -0.11330E-04 25920   0.383E-02    0.117E-02
DAV:   4    -0.125530137003E+03   -0.15851E-05   -0.12336E-05 17232   0.130E-02    0.397E-03
DAV:   5    -0.125530137227E+03   -0.22429E-06   -0.14211E-06 26592   0.400E-03    0.120E-03
DAV:   6    -0.125530137238E+03   -0.11178E-07   -0.12642E-07 21168   0.137E-03    0.419E-04
DAV:   7    -0.125530137276E+03   -0.37607E-07   -0.28724E-08 22080   0.584E-04    0.159E-04
DAV:   8    -0.125530137346E+03   -0.69682E-07   -0.45802E-09 21936   0.215E-04    0.110E-04
DAV:   9    -0.125530137472E+03   -0.12655E-06   -0.61967E-09 21936   0.192E-04    0.710E-05
DAV:  10    -0.125530137595E+03   -0.12228E-06   -0.39362E-09 19248   0.135E-04    0.489E-05
DAV:  11    -0.125530137728E+03   -0.13346E-06   -0.27292E-09 18576   0.888E-05    0.264E-05
DAV:  12    -0.125530137806E+03   -0.78181E-07   -0.13286E-09 20592   0.604E-05    0.134E-05
DAV:  13    -0.125530137827E+03   -0.20957E-07   -0.18935E-10 24048   0.353E-05    0.950E-06
DAV:  14    -0.125530137842E+03   -0.15192E-07   -0.24748E-10 20688   0.346E-05    0.410E-06
DAV:  15    -0.125530137845E+03   -0.25966E-08   -0.41067E-11 24672   0.169E-05
  37 F= -.12711153E+03 E0= -.12711074E+03  d E =-.161845E-03  mag=    -0.0000
       N       E                     dE             d eps       ncg     rms          rms(c)
DAV:   1    -0.125529786090E+03    0.35175E-03   -0.36270E-02 14208   0.758E-01    0.330E-02
DAV:   2    -0.125529801780E+03   -0.15690E-04   -0.33509E-04 24192   0.753E-02    0.212E-02
DAV:   3    -0.125529800803E+03    0.97716E-06   -0.20127E-05 19776   0.160E-02    0.503E-03
DAV:   4    -0.125529801186E+03   -0.38252E-06   -0.26297E-06 18720   0.588E-03    0.168E-03
DAV:   5    -0.125529801240E+03   -0.54276E-07   -0.27467E-07 22368   0.174E-03    0.529E-04
DAV:   6    -0.125529801228E+03    0.11919E-07   -0.26273E-08 23616   0.625E-04    0.182E-04
DAV:   7    -0.125529801233E+03   -0.50559E-08   -0.56885E-09 21456   0.256E-04
  38 F= -.12711154E+03 E0= -.12711076E+03  d E =-.178681E-03  mag=     0.0000
       N       E                     dE             d eps       ncg     rms          rms(c)
DAV:   1    -0.125530048979E+03   -0.24775E-03   -0.11674E-02 14208   0.439E-01    0.195E-02
DAV:   2    -0.125530052951E+03   -0.39724E-05   -0.11568E-04 19296   0.455E-02    0.122E-02
DAV:   3    -0.125530052685E+03    0.26567E-06   -0.95083E-06 26112   0.115E-02    0.356E-03
DAV:   4    -0.125530052759E+03   -0.73871E-07   -0.14411E-06 15696   0.440E-03    0.156E-03
DAV:   5    -0.125530052832E+03   -0.73089E-07   -0.90977E-08 23520   0.121E-03    0.526E-04
DAV:   6    -0.125530052835E+03   -0.28058E-08   -0.18681E-08 22416   0.463E-04
  39 F= -.12711160E+03 E0= -.12711082E+03  d E =-.570922E-04  mag=     0.0000
       N       E                     dE             d eps       ncg     rms          rms(c)
DAV:   1    -0.125530244517E+03   -0.19168E-03   -0.95834E-03 14208   0.398E-01    0.176E-02
DAV:   2    -0.125530247665E+03   -0.31487E-05   -0.95577E-05 19968   0.413E-02    0.111E-02
DAV:   3    -0.125530247421E+03    0.24420E-06   -0.79406E-06 26304   0.105E-02    0.324E-03
DAV:   4    -0.125530247482E+03   -0.60350E-07   -0.11702E-06 16944   0.397E-03    0.142E-03
DAV:   5    -0.125530247527E+03   -0.45295E-07   -0.73830E-08 22944   0.109E-03    0.480E-04
DAV:   6    -0.125530247529E+03   -0.20664E-08   -0.16481E-08 21792   0.444E-04
  40 F= -.12711162E+03 E0= -.12711084E+03  d E =-.754387E-04  mag=     0.0000
       N       E                     dE             d eps       ncg     rms          rms(c)
DAV:   1    -0.125530440179E+03   -0.19265E-03   -0.76035E-03 14208   0.361E-01    0.157E-02
DAV:   2    -0.125530441999E+03   -0.18199E-05   -0.69495E-05 20448   0.355E-02    0.975E-03
DAV:   3    -0.125530441811E+03    0.18753E-06   -0.51647E-06 23808   0.857E-03    0.273E-03
DAV:   4    -0.125530441916E+03   -0.10484E-06   -0.66333E-07 16320   0.301E-03    0.997E-04
DAV:   5    -0.125530441947E+03   -0.30559E-07   -0.48217E-08 21408   0.837E-04    0.352E-04
DAV:   6    -0.125530441958E+03   -0.11366E-07   -0.11468E-08 22368   0.412E-04    0.128E-04
DAV:   7    -0.125530441970E+03   -0.11730E-07   -0.24956E-09 21840   0.234E-04    0.716E-05
DAV:   8    -0.125530441990E+03   -0.20354E-07   -0.13631E-09 22128   0.141E-04    0.440E-05
DAV:   9    -0.125530442022E+03   -0.31885E-07   -0.12425E-09 18768   0.994E-05    0.279E-05
DAV:  10    -0.125530442060E+03   -0.37652E-07   -0.14905E-09 20496   0.960E-05    0.171E-05
DAV:  11    -0.125530442075E+03   -0.14870E-07   -0.38910E-10 21984   0.746E-05    0.117E-05
DAV:  12    -0.125530442087E+03   -0.12009E-07   -0.23211E-10 20688   0.471E-05    0.614E-06
DAV:  13    -0.125530442093E+03   -0.59554E-08   -0.87904E-11 22848   0.214E-05
  41 F= -.12711166E+03 E0= -.12711088E+03  d E =-.424590E-04  mag=     0.0000
       N       E                     dE             d eps       ncg     rms          rms(c)
DAV:   1    -0.125530564838E+03   -0.12275E-03   -0.42911E-03 14208   0.271E-01    0.118E-02
DAV:   2    -0.125530565860E+03   -0.10217E-05   -0.39802E-05 15360   0.268E-02    0.732E-03
DAV:   3    -0.125530565866E+03   -0.59081E-08   -0.31405E-06 25248   0.679E-03    0.213E-03
DAV:   4    -0.125530565931E+03   -0.64901E-07   -0.37003E-07 17280   0.225E-03    0.787E-04
DAV:   5    -0.125530565946E+03   -0.15212E-07   -0.25634E-08 24576   0.602E-04    0.267E-04
DAV:   6    -0.125530565943E+03    0.26557E-08   -0.55852E-09 23520   0.259E-04
  42 F= -.12711167E+03 E0= -.12711089E+03  d E =-.520215E-04  mag=    -0.0000
       N       E                     dE             d eps       ncg     rms          rms(c)
DAV:   1    -0.125530673685E+03   -0.10774E-03   -0.29229E-03 14208   0.225E-01    0.101E-02
DAV:   2    -0.125530674031E+03   -0.34593E-06   -0.26623E-05 19584   0.220E-02    0.627E-03
DAV:   3    -0.125530673746E+03    0.28506E-06   -0.24677E-06 22752   0.608E-03    0.150E-03
DAV:   4    -0.125530673776E+03   -0.29898E-07   -0.27661E-07 19872   0.199E-03    0.642E-04
DAV:   5    -0.125530673783E+03   -0.76307E-08   -0.19039E-08 22992   0.509E-04
  43 F= -.12711169E+03 E0= -.12711090E+03  d E =-.156849E-04  mag=     0.0000
       N       E                     dE             d eps       ncg     rms          rms(c)
DAV:   1    -0.125530699048E+03   -0.25272E-04   -0.20786E-04 14208   0.600E-02    0.269E-03
DAV:   2    -0.125530699071E+03   -0.23740E-07   -0.19263E-06 18528   0.594E-03    0.167E-03
DAV:   3    -0.125530699062E+03    0.96197E-08   -0.17286E-07 16032   0.164E-03    0.409E-04
DAV:   4    -0.125530699072E+03   -0.10531E-07   -0.24225E-08 22992   0.585E-04    0.177E-04
DAV:   5    -0.125530699082E+03   -0.96616E-08   -0.20182E-09 21264   0.190E-04
  44 F= -.12711169E+03 E0= -.12711090E+03  d E =-.164411E-04  mag=    -0.0000
       N       E                     dE             d eps       ncg     rms          rms(c)
DAV:   1    -0.125530804854E+03   -0.10578E-03   -0.28750E-03 14208   0.223E-01    0.946E-03
DAV:   2    -0.125530805256E+03   -0.40151E-06   -0.25758E-05 15552   0.215E-02    0.596E-03
DAV:   3    -0.125530805088E+03    0.16748E-06   -0.22856E-06 19536   0.582E-03    0.166E-03
DAV:   4    -0.125530805120E+03   -0.31570E-07   -0.28080E-07 18624   0.197E-03    0.696E-04
DAV:   5    -0.125530805132E+03   -0.12290E-07   -0.17785E-08 18384   0.557E-04    0.212E-04
DAV:   6    -0.125530805137E+03   -0.45120E-08   -0.58573E-09 20112   0.348E-04
  45 F= -.12711170E+03 E0= -.12711092E+03  d E =-.162801E-04  mag=    -0.0000
       N       E                     dE             d eps       ncg     rms          rms(c)
DAV:   1    -0.125530877243E+03   -0.72111E-04   -0.16754E-03 14208   0.170E-01    0.722E-03
DAV:   2    -0.125530877451E+03   -0.20783E-06   -0.14971E-05 15072   0.165E-02    0.455E-03
DAV:   3    -0.125530877366E+03    0.85313E-07   -0.13464E-06 18864   0.449E-03    0.127E-03
DAV:   4    -0.125530877389E+03   -0.23473E-07   -0.16915E-07 20064   0.155E-03    0.536E-04
DAV:   5    -0.125530877401E+03   -0.12053E-07   -0.12041E-08 19968   0.489E-04    0.168E-04
DAV:   6    -0.125530877408E+03   -0.72669E-08   -0.58998E-09 20640   0.370E-04
  46 F= -.12711171E+03 E0= -.12711093E+03  d E =-.200208E-04  mag=    -0.0000
       N       E                     dE             d eps       ncg     rms          rms(c)
DAV:   1    -0.125530963309E+03   -0.85908E-04   -0.26304E-03 14208   0.216E-01    0.908E-03
DAV:   2    -0.125530963451E+03   -0.14147E-06   -0.23178E-05 16896   0.207E-02    0.565E-03
DAV:   3    -0.125530963217E+03    0.23347E-06   -0.22377E-06 19104   0.574E-03    0.149E-03
DAV:   4    -0.125530963259E+03   -0.41478E-07   -0.26574E-07 19920   0.192E-03    0.644E-04
DAV:   5    -0.125530963275E+03   -0.16044E-07   -0.13564E-08 22224   0.475E-04    0.222E-04
DAV:   6    -0.125530963282E+03   -0.74915E-08   -0.42612E-09 23472   0.301E-04
  47 F= -.12711172E+03 E0= -.12711094E+03  d E =-.110464E-04  mag=    -0.0000
       N       E                     dE             d eps       ncg     rms          rms(c)
DAV:   1    -0.125530997442E+03   -0.34167E-04   -0.51214E-04 14208   0.953E-02    0.400E-03
DAV:   2    -0.125530997457E+03   -0.14435E-07   -0.45405E-06 14688   0.918E-03    0.249E-03
DAV:   3    -0.125530997427E+03    0.29468E-07   -0.44502E-07 15168   0.259E-03    0.666E-04
DAV:   4    -0.125530997441E+03   -0.14448E-07   -0.57754E-08 24144   0.890E-04    0.295E-04
DAV:   5    -0.125530997449E+03   -0.72205E-08   -0.27064E-09 22560   0.226E-04
  48 F= -.12711172E+03 E0= -.12711094E+03  d E =-.121968E-04  mag=     0.0000
       N       E                     dE             d eps       ncg     rms          rms(c)
DAV:   1    -0.125531070632E+03   -0.73190E-04   -0.22535E-03 14208   0.200E-01    0.865E-03
DAV:   2    -0.125531070623E+03    0.85056E-08   -0.20558E-05 17088   0.196E-02    0.539E-03
DAV:   3    -0.125531070311E+03    0.31246E-06   -0.22757E-06 18384   0.580E-03    0.131E-03
DAV:   4    -0.125531070342E+03   -0.31502E-07   -0.25437E-07 20496   0.190E-03    0.616E-04
DAV:   5    -0.125531070354E+03   -0.11359E-07   -0.12378E-08 22800   0.469E-04    0.218E-04
DAV:   6    -0.125531070358E+03   -0.39163E-08   -0.39130E-09 21600   0.316E-04
  49 F= -.12711173E+03 E0= -.12711094E+03  d E =-.711634E-05  mag=     0.0000
       N       E                     dE             d eps       ncg     rms          rms(c)
DAV:   1    -0.125531079360E+03   -0.90064E-05   -0.41159E-05 15216   0.270E-02    0.117E-03
DAV:   2    -0.125531079359E+03    0.77216E-09   -0.38079E-07 21360   0.266E-03    0.729E-04
DAV:   3    -0.125531079356E+03    0.30495E-08   -0.40606E-08 25296   0.762E-04
  50 F= -.12711173E+03 E0= -.12711094E+03  d E =-.722035E-05  mag=     0.0000
       N       E                     dE             d eps       ncg     rms          rms(c)
DAV:   1    -0.125531145235E+03   -0.65875E-04   -0.15014E-03 14208   0.164E-01    0.653E-03
DAV:   2    -0.125531145444E+03   -0.20956E-06   -0.13216E-05 14208   0.153E-02    0.429E-03
DAV:   3    -0.125531145364E+03    0.80060E-07   -0.11522E-06 18432   0.409E-03    0.119E-03
DAV:   4    -0.125531145390E+03   -0.25275E-07   -0.13070E-07 19248   0.133E-03    0.455E-04
DAV:   5    -0.125531145398E+03   -0.83000E-08   -0.78765E-09 23472   0.336E-04
  51 F= -.12711173E+03 E0= -.12711095E+03  d E =-.822760E-05  mag=     0.0000
       N       E                     dE             d eps       ncg     rms          rms(c)
DAV:   1    -0.125531306528E+03   -0.16114E-03   -0.10534E-02 14208   0.434E-01    0.172E-02
DAV:   2    -0.125531308268E+03   -0.17401E-05   -0.92745E-05 16032   0.406E-02    0.113E-02
DAV:   3    -0.125531307426E+03    0.84257E-06   -0.80221E-06 26544   0.106E-02    0.311E-03
DAV:   4    -0.125531307521E+03   -0.95382E-07   -0.76326E-07 17904   0.332E-03    0.117E-03
DAV:   5    -0.125531307558E+03   -0.36266E-07   -0.51049E-08 22224   0.866E-04    0.335E-04
DAV:   6    -0.125531307563E+03   -0.57553E-08   -0.76266E-09 23616   0.400E-04
  52 F= -.12711174E+03 E0= -.12711096E+03  d E =-.173515E-04  mag=     0.0000
       N       E                     dE             d eps       ncg     rms          rms(c)
DAV:   1    -0.125531351504E+03   -0.43946E-04   -0.62939E-04 14208   0.106E-01    0.428E-03
DAV:   2    -0.125531351629E+03   -0.12559E-06   -0.58217E-06 14304   0.102E-02    0.284E-03
DAV:   3    -0.125531351601E+03    0.28366E-07   -0.46792E-07 16944   0.268E-03    0.813E-04
DAV:   4    -0.125531351614E+03   -0.12735E-07   -0.56793E-08 17904   0.903E-04    0.306E-04
DAV:   5    -0.125531351619E+03   -0.54615E-08   -0.45303E-09 23712   0.291E-04
  53 F= -.12711175E+03 E0= -.12711097E+03  d E =-.541796E-05  mag=    -0.0000
       N       E                     dE             d eps       ncg     rms          rms(c)
DAV:   1    -0.125531475830E+03   -0.12422E-03   -0.56656E-03 14208   0.319E-01    0.129E-02
DAV:   2    -0.125531477069E+03   -0.12396E-05   -0.51695E-05 15312   0.304E-02    0.853E-03
DAV:   3    -0.125531476642E+03    0.42714E-06   -0.42189E-06 24528   0.791E-03    0.238E-03
DAV:   4    -0.125531476701E+03   -0.59204E-07   -0.42881E-07 17568   0.251E-03    0.879E-04
DAV:   5    -0.125531476721E+03   -0.19811E-07   -0.31089E-08 22944   0.682E-04    0.271E-04
DAV:   6    -0.125531476725E+03   -0.39963E-08   -0.49661E-09 20928   0.347E-04
  54 F= -.12711176E+03 E0= -.12711098E+03  d E =-.146457E-04  mag=    -0.0000
       N       E                     dE             d eps       ncg     rms          rms(c)
DAV:   1    -0.125531520373E+03   -0.43652E-04   -0.78158E-04 14208   0.118E-01    0.477E-03
DAV:   2    -0.125531520527E+03   -0.15418E-06   -0.71859E-06 14208   0.114E-02    0.316E-03
DAV:   3    -0.125531520489E+03    0.37750E-07   -0.58389E-07 17856   0.299E-03    0.898E-04
DAV:   4    -0.125531520504E+03   -0.14566E-07   -0.68841E-08 19632   0.975E-04    0.337E-04
DAV:   5    -0.125531520510E+03   -0.59063E-08   -0.44673E-09 23232   0.252E-04
  55 F= -.12711176E+03 E0= -.12711098E+03  d E =-.153796E-04  mag=     0.0000
       N       E                     dE             d eps       ncg     rms          rms(c)
DAV:   1    -0.125531579315E+03   -0.58811E-04   -0.10358E-03 14208   0.136E-01    0.541E-03
DAV:   2    -0.125531579645E+03   -0.32930E-06   -0.94222E-06 14208   0.129E-02    0.369E-03
DAV:   3    -0.125531579612E+03    0.32800E-07   -0.64948E-07 17424   0.316E-03    0.104E-03
DAV:   4    -0.125531579625E+03   -0.13332E-07   -0.77546E-08 16800   0.104E-03    0.358E-04
DAV:   5    -0.125531579629E+03   -0.38590E-08   -0.71605E-09 21648   0.322E-04
  56 F= -.12711177E+03 E0= -.12711098E+03  d E =-.736469E-05  mag=    -0.0000
       N       E                     dE             d eps       ncg     rms          rms(c)
DAV:   1    -0.125531751836E+03   -0.17221E-03   -0.93219E-03 14208   0.409E-01    0.162E-02
DAV:   2    -0.125531755071E+03   -0.32354E-05   -0.84301E-05 15216   0.386E-02    0.111E-02
DAV:   3    -0.125531754468E+03    0.60279E-06   -0.58937E-06 23760   0.940E-03    0.304E-03
DAV:   4    -0.125531754532E+03   -0.63868E-07   -0.62369E-07 14784   0.299E-03    0.104E-03
DAV:   5    -0.125531754549E+03   -0.16476E-07   -0.63369E-08 21312   0.921E-04    0.342E-04
DAV:   6    -0.125531754552E+03   -0.29622E-08   -0.82522E-09 16992   0.405E-04
  57 F= -.12711179E+03 E0= -.12711100E+03  d E =-.270489E-04  mag=    -0.0000
       N       E                     dE             d eps       ncg     rms          rms(c)
DAV:   1    -0.125532081136E+03   -0.32659E-03   -0.37286E-02 14208   0.818E-01    0.325E-02
DAV:   2    -0.125532094539E+03   -0.13404E-04   -0.33605E-04 15360   0.771E-02    0.222E-02
DAV:   3    -0.125532091628E+03    0.29112E-05   -0.23585E-05 25008   0.188E-02    0.604E-03
DAV:   4    -0.125532091779E+03   -0.15075E-06   -0.24446E-06 14304   0.593E-03    0.206E-03
DAV:   5    -0.125532091825E+03   -0.46438E-07   -0.25424E-07 23328   0.181E-03    0.658E-04
DAV:   6    -0.125532091835E+03   -0.97689E-08   -0.29388E-08 21312   0.655E-04
  58 F= -.12711181E+03 E0= -.12711103E+03  d E =-.539480E-04  mag=    -0.0000
       N       E                     dE             d eps       ncg     rms          rms(c)
DAV:   1    -0.125532675781E+03   -0.58396E-03   -0.14914E-01 14208   0.164E+00    0.650E-02
DAV:   2    -0.125532731706E+03   -0.55925E-04   -0.13435E-03 16224   0.154E-01    0.444E-02
DAV:   3    -0.125532717922E+03    0.13784E-04   -0.93520E-05 26832   0.371E-02    0.120E-02
DAV:   4    -0.125532718225E+03   -0.30291E-06   -0.95055E-06 15936   0.118E-02    0.407E-03
DAV:   5    -0.125532718330E+03   -0.10533E-06   -0.95094E-07 21456   0.352E-03    0.130E-03
DAV:   6    -0.125532718360E+03   -0.29218E-07   -0.11680E-07 22128   0.129E-03    0.384E-04
DAV:   7    -0.125532718384E+03   -0.24476E-07   -0.13451E-08 24576   0.479E-04    0.197E-04
DAV:   8    -0.125532718418E+03   -0.34374E-07   -0.23729E-09 24144   0.196E-04    0.893E-05
DAV:   9    -0.125532718484E+03   -0.65436E-07   -0.21998E-09 19680   0.126E-04    0.521E-05
DAV:  10    -0.125532718590E+03   -0.10580E-06   -0.38882E-09 18144   0.135E-04    0.392E-05
DAV:  11    -0.125532718675E+03   -0.85181E-07   -0.18870E-09 19344   0.957E-05    0.252E-05
DAV:  12    -0.125532718719E+03   -0.43919E-07   -0.70812E-10 21648   0.857E-05    0.159E-05
DAV:  13    -0.125532718745E+03   -0.26536E-07   -0.39864E-10 21984   0.569E-05    0.845E-06
DAV:  14    -0.125532718757E+03   -0.12034E-07   -0.14921E-10 21600   0.283E-05    0.478E-06
DAV:  15    -0.125532718761E+03   -0.36589E-08   -0.49344E-11 22368   0.179E-05
  59 F= -.12711182E+03 E0= -.12711104E+03  d E =-.605528E-04  mag=    -0.0000
       N       E                     dE             d eps       ncg     rms          rms(c)
DAV:   1    -0.125532477660E+03    0.24110E-03   -0.22258E-02 14208   0.632E-01    0.251E-02
DAV:   2    -0.125532486029E+03   -0.83691E-05   -0.20437E-04 22080   0.595E-02    0.173E-02
DAV:   3    -0.125532483942E+03    0.20876E-05   -0.12253E-05 21312   0.130E-02    0.434E-03
DAV:   4    -0.125532484058E+03   -0.11605E-06   -0.17455E-06 17184   0.486E-03    0.150E-03
DAV:   5    -0.125532484107E+03   -0.48874E-07   -0.12530E-07 21216   0.129E-03    0.531E-04
DAV:   6    -0.125532484108E+03   -0.10496E-08   -0.18701E-08 21072   0.502E-04
  60 F= -.12711183E+03 E0= -.12711104E+03  d E =-.655182E-04  mag=    -0.0000
       N       E                     dE             d eps       ncg     rms          rms(c)
DAV:   1    -0.125532513828E+03   -0.29721E-04   -0.26515E-04 14400   0.690E-02    0.273E-03
DAV:   2    -0.125532513930E+03   -0.10210E-06   -0.24337E-06 17664   0.650E-03    0.189E-03
DAV:   3    -0.125532513941E+03   -0.11539E-07   -0.15775E-07 24000   0.150E-03    0.488E-04
DAV:   4    -0.125532513946E+03   -0.47121E-08   -0.17493E-08 17904   0.495E-04
  61 F= -.12711183E+03 E0= -.12711105E+03  d E =-.380764E-05  mag=    -0.0000
       N       E                     dE             d eps       ncg     rms          rms(c)
DAV:   1    -0.125532602276E+03   -0.88335E-04   -0.23890E-03 14208   0.207E-01    0.816E-03
DAV:   2    -0.125532603179E+03   -0.90242E-06   -0.21988E-05 19824   0.195E-02    0.565E-03
DAV:   3    -0.125532603061E+03    0.11825E-06   -0.13562E-06 23136   0.438E-03    0.144E-03
DAV:   4    -0.125532603078E+03   -0.17074E-07   -0.16471E-07 15552   0.151E-03    0.491E-04
DAV:   5    -0.125532603082E+03   -0.44265E-08   -0.14651E-08 27312   0.437E-04
  62 F= -.12711184E+03 E0= -.12711106E+03  d E =-.148564E-04  mag=    -0.0000
       N       E                     dE             d eps       ncg     rms          rms(c)
DAV:   1    -0.125532776559E+03   -0.17348E-03   -0.95558E-03 14208   0.414E-01    0.163E-02
DAV:   2    -0.125532780058E+03   -0.34991E-05   -0.86209E-05 19344   0.388E-02    0.112E-02
DAV:   3    -0.125532779385E+03    0.67297E-06   -0.54869E-06 24288   0.881E-03    0.285E-03
DAV:   4    -0.125532779436E+03   -0.51594E-07   -0.64918E-07 14592   0.300E-03    0.973E-04
DAV:   5    -0.125532779450E+03   -0.14002E-07   -0.60402E-08 24720   0.890E-04    0.337E-04
DAV:   6    -0.125532779452E+03   -0.14916E-08   -0.73960E-09 17328   0.320E-04
  63 F= -.12711186E+03 E0= -.12711108E+03  d E =-.350832E-04  mag=     0.0000
       N       E                     dE             d eps       ncg     rms          rms(c)
DAV:   1    -0.125533115855E+03   -0.33640E-03   -0.38222E-02 14208   0.829E-01    0.327E-02
DAV:   2    -0.125533129744E+03   -0.13889E-04   -0.33840E-04 15744   0.773E-02    0.224E-02
DAV:   3    -0.125533126797E+03    0.29465E-05   -0.23480E-05 24864   0.187E-02    0.596E-03
DAV:   4    -0.125533126949E+03   -0.15127E-06   -0.23928E-06 14640   0.585E-03    0.201E-03
DAV:   5    -0.125533126987E+03   -0.38120E-07   -0.25762E-07 22368   0.180E-03    0.636E-04
DAV:   6    -0.125533126996E+03   -0.88967E-08   -0.29631E-08 22464   0.643E-04
  64 F= -.12711190E+03 E0= -.12711111E+03  d E =-.704638E-04  mag=    -0.0000
       N       E                     dE             d eps       ncg     rms          rms(c)
DAV:   1    -0.125533754095E+03   -0.62711E-03   -0.15289E-01 14208   0.166E+00    0.654E-02
DAV:   2    -0.125533812034E+03   -0.57939E-04   -0.13536E-03 15744   0.154E-01    0.447E-02
DAV:   3    -0.125533798136E+03    0.13898E-04   -0.93175E-05 25728   0.371E-02    0.119E-02
DAV:   4    -0.125533798481E+03   -0.34437E-06   -0.94549E-06 16704   0.117E-02    0.400E-03
DAV:   5    -0.125533798560E+03   -0.79039E-07   -0.97631E-07 20976   0.349E-03    0.127E-03
DAV:   6    -0.125533798588E+03   -0.28585E-07   -0.11591E-07 22992   0.128E-03    0.369E-04
DAV:   7    -0.125533798614E+03   -0.25881E-07   -0.13321E-08 24384   0.443E-04    0.181E-04
DAV:   8    -0.125533798650E+03   -0.36020E-07   -0.19927E-09 23136   0.168E-04    0.878E-05
DAV:   9    -0.125533798720E+03   -0.69833E-07   -0.24370E-09 18912   0.124E-04    0.535E-05
DAV:  10    -0.125533798830E+03   -0.11013E-06   -0.41635E-09 17952   0.135E-04    0.395E-05
DAV:  11    -0.125533798921E+03   -0.90453E-07   -0.18954E-09 19440   0.817E-05    0.234E-05
DAV:  12    -0.125533798970E+03   -0.48916E-07   -0.74319E-10 20976   0.694E-05    0.142E-05
DAV:  13    -0.125533798989E+03   -0.19765E-07   -0.24686E-10 23520   0.469E-05    0.841E-06
DAV:  14    -0.125533799001E+03   -0.11768E-07   -0.15394E-10 20448   0.277E-05    0.422E-06
DAV:  15    -0.125533799004E+03   -0.30786E-08   -0.41947E-11 24192   0.166E-05
  65 F= -.12711194E+03 E0= -.12711116E+03  d E =-.118618E-03  mag=     0.0000
       N       E                     dE             d eps       ncg     rms          rms(c)
DAV:   1    -0.125534867616E+03   -0.10686E-02   -0.61153E-01 14208   0.331E+00    0.131E-01
DAV:   2    -0.125535109340E+03   -0.24172E-03   -0.54697E-03 19200   0.309E-01    0.900E-02
DAV:   3    -0.125535046775E+03    0.62565E-04   -0.35234E-04 25920   0.705E-02    0.228E-02
DAV:   4    -0.125535047174E+03   -0.39931E-06   -0.40363E-05 16704   0.238E-02    0.772E-03
DAV:   5    -0.125535047319E+03   -0.14508E-06   -0.36110E-06 24576   0.686E-03    0.260E-03
DAV:   6    -0.125535047307E+03    0.12003E-07   -0.47542E-07 23712   0.253E-03    0.712E-04
DAV:   7    -0.125535047316E+03   -0.84628E-08   -0.66970E-08 22176   0.952E-04
  66 F= -.12711195E+03 E0= -.12711117E+03  d E =-.121224E-03  mag=     0.0000
       N       E                     dE             d eps       ncg     rms          rms(c)
DAV:   1    -0.125534438006E+03    0.60930E-03   -0.13399E-01 14208   0.155E+00    0.611E-02
DAV:   2    -0.125534492205E+03   -0.54199E-04   -0.12146E-03 21696   0.145E-01    0.423E-02
DAV:   3    -0.125534478801E+03    0.13403E-04   -0.71631E-05 21024   0.314E-02    0.104E-02
DAV:   4    -0.125534479026E+03   -0.22446E-06   -0.10162E-05 17760   0.117E-02    0.357E-03
DAV:   5    -0.125534479117E+03   -0.91309E-07   -0.72767E-07 21936   0.308E-03    0.129E-03
DAV:   6    -0.125534479154E+03   -0.36977E-07   -0.11039E-07 22656   0.121E-03    0.340E-04
DAV:   7    -0.125534479170E+03   -0.15768E-07   -0.13687E-08 21216   0.436E-04    0.143E-04
DAV:   8    -0.125534479174E+03   -0.36607E-08   -0.10144E-09 23424   0.129E-04
  67 F= -.12711196E+03 E0= -.12711118E+03  d E =-.135851E-03  mag=     0.0000
       N       E                     dE             d eps       ncg     rms          rms(c)
DAV:   1    -0.125534849659E+03   -0.37049E-03   -0.47641E-02 14208   0.927E-01    0.363E-02
DAV:   2    -0.125534867469E+03   -0.17810E-04   -0.42120E-04 17808   0.860E-02    0.249E-02
DAV:   3    -0.125534863352E+03    0.41169E-05   -0.27244E-05 24672   0.198E-02    0.635E-03
DAV:   4    -0.125534863542E+03   -0.18949E-06   -0.29482E-06 15936   0.648E-03    0.213E-03
DAV:   5    -0.125534863580E+03   -0.38151E-07   -0.28540E-07 19440   0.190E-03    0.691E-04
DAV:   6    -0.125534863580E+03   -0.91859E-10   -0.34080E-08 24336   0.697E-04
  68 F= -.12711201E+03 E0= -.12711122E+03  d E =-.453012E-04  mag=     0.0000
       N       E                     dE             d eps       ncg     rms          rms(c)
DAV:   1    -0.125535833002E+03   -0.96942E-03   -0.42880E-01 14208   0.278E+00    0.109E-01
DAV:   2    -0.125535997151E+03   -0.16415E-03   -0.37520E-03 18816   0.257E-01    0.748E-02
DAV:   3    -0.125535952828E+03    0.44323E-04   -0.24613E-04 25920   0.594E-02    0.187E-02
DAV:   4    -0.125535953501E+03   -0.67367E-06   -0.26141E-05 16320   0.193E-02    0.634E-03
DAV:   5    -0.125535953585E+03   -0.83436E-07   -0.25678E-06 23280   0.570E-03    0.203E-03
DAV:   6    -0.125535953601E+03   -0.16475E-07   -0.29319E-07 22080   0.204E-03    0.567E-04
DAV:   7    -0.125535953627E+03   -0.25731E-07   -0.38451E-08 21552   0.728E-04    0.233E-04
DAV:   8    -0.125535953677E+03   -0.49911E-07   -0.39017E-09 24720   0.236E-04    0.133E-04
DAV:   9    -0.125535953777E+03   -0.10040E-06   -0.43722E-09 22128   0.167E-04    0.793E-05
DAV:  10    -0.125535953942E+03   -0.16465E-06   -0.75871E-09 17952   0.190E-04    0.588E-05
DAV:  11    -0.125535954104E+03   -0.16231E-06   -0.35694E-09 17808   0.109E-04    0.347E-05
DAV:  12    -0.125535954198E+03   -0.93766E-07   -0.13852E-09 20592   0.792E-05    0.208E-05
DAV:  13    -0.125535954236E+03   -0.38048E-07   -0.37354E-10 22752   0.480E-05    0.129E-05
DAV:  14    -0.125535954263E+03   -0.26914E-07   -0.36065E-10 20256   0.371E-05    0.630E-06
DAV:  15    -0.125535954270E+03   -0.64392E-08   -0.84449E-11 23664   0.203E-05
  69 F= -.12711208E+03 E0= -.12711130E+03  d E =-.120026E-03  mag=    -0.0000
       N       E                     dE             d eps       ncg     rms          rms(c)
DAV:   1    -0.125536480334E+03   -0.52607E-03   -0.96369E-02 14208   0.132E+00    0.515E-02
DAV:   2    -0.125536515411E+03   -0.35077E-04   -0.83986E-04 18816   0.122E-01    0.353E-02
DAV:   3    -0.125536506467E+03    0.89445E-05   -0.53364E-05 25344   0.277E-02    0.906E-03
DAV:   4    -0.125536506810E+03   -0.34344E-06   -0.55262E-06 14592   0.896E-03    0.297E-03
DAV:   5    -0.125536506877E+03   -0.66926E-07   -0.57748E-07 21408   0.269E-03    0.905E-04
DAV:   6    -0.125536506882E+03   -0.49286E-08   -0.60980E-08 21216   0.941E-04
  70 F= -.12711217E+03 E0= -.12711138E+03  d E =-.848680E-04  mag=     0.0000
       N       E                     dE             d eps       ncg     rms          rms(c)
DAV:   1    -0.125537721558E+03   -0.12147E-02   -0.77267E-01 14208   0.374E+00    0.146E-01
DAV:   2    -0.125538005889E+03   -0.28433E-03   -0.66855E-03 17664   0.344E-01    0.998E-02
DAV:   3    -0.125537930168E+03    0.75721E-04   -0.44205E-04 27264   0.801E-02    0.260E-02
DAV:   4    -0.125537931186E+03   -0.10183E-05   -0.41839E-05 16800   0.249E-02    0.850E-03
DAV:   5    -0.125537931280E+03   -0.93632E-07   -0.44542E-06 24192   0.735E-03    0.250E-03
DAV:   6    -0.125537931324E+03   -0.44715E-07   -0.42921E-07 19968   0.254E-03    0.716E-04
DAV:   7    -0.125537931383E+03   -0.58060E-07   -0.55407E-08 24768   0.883E-04    0.251E-04
DAV:   8    -0.125537931475E+03   -0.92609E-07   -0.56230E-09 23520   0.268E-04    0.156E-04
DAV:   9    -0.125537931638E+03   -0.16293E-06   -0.62457E-09 21312   0.192E-04    0.956E-05
DAV:  10    -0.125537931864E+03   -0.22588E-06   -0.83419E-09 18336   0.194E-04    0.712E-05
DAV:  11    -0.125537932086E+03   -0.22222E-06   -0.47252E-09 16992   0.120E-04    0.421E-05
DAV:  12    -0.125537932249E+03   -0.16242E-06   -0.29506E-09 19200   0.961E-05    0.215E-05
DAV:  13    -0.125537932291E+03   -0.42059E-07   -0.36281E-10 24528   0.535E-05    0.154E-05
DAV:  14    -0.125537932325E+03   -0.34787E-07   -0.50636E-10 19920   0.485E-05    0.646E-06
DAV:  15    -0.125537932332E+03   -0.68985E-08   -0.86891E-11 24816   0.216E-05
  71 F= -.12711227E+03 E0= -.12711149E+03  d E =-.187829E-03  mag=    -0.0000
       N       E                     dE             d eps       ncg     rms          rms(c)
DAV:   1    -0.125538593945E+03   -0.66162E-03   -0.20100E-01 14208   0.191E+00    0.740E-02
DAV:   2    -0.125538669539E+03   -0.75594E-04   -0.17329E-03 19008   0.175E-01    0.510E-02
DAV:   3    -0.125538650340E+03    0.19199E-04   -0.10615E-04 26352   0.390E-02    0.131E-02
DAV:   4    -0.125538650955E+03   -0.61455E-06   -0.10557E-05 15360   0.125E-02    0.414E-03
DAV:   5    -0.125538651040E+03   -0.85442E-07   -0.11566E-06 19824   0.375E-03    0.122E-03
DAV:   6    -0.125538651051E+03   -0.10556E-07   -0.11331E-07 22800   0.130E-03    0.352E-04
DAV:   7    -0.125538651054E+03   -0.26639E-08   -0.12893E-08 21264   0.418E-04
  72 F= -.12711233E+03 E0= -.12711155E+03  d E =-.598234E-04  mag=    -0.0000
       N       E                     dE             d eps       ncg     rms          rms(c)
DAV:   1    -0.125539567645E+03   -0.91659E-03   -0.49106E-01 14208   0.299E+00    0.116E-01
DAV:   2    -0.125539749584E+03   -0.18194E-03   -0.41851E-03 15840   0.273E-01    0.793E-02
DAV:   3    -0.125539703779E+03    0.45805E-04   -0.27434E-04 27264   0.639E-02    0.213E-02
DAV:   4    -0.125539704842E+03   -0.10630E-05   -0.23976E-05 16704   0.191E-02    0.667E-03
DAV:   5    -0.125539704902E+03   -0.59805E-07   -0.29873E-06 18720   0.588E-03    0.185E-03
DAV:   6    -0.125539704963E+03   -0.60834E-07   -0.27120E-07 25824   0.204E-03    0.544E-04
DAV:   7    -0.125539705015E+03   -0.52121E-07   -0.25073E-08 23520   0.599E-04    0.192E-04
DAV:   8    -0.125539705085E+03   -0.70776E-07   -0.38328E-09 23712   0.243E-04    0.116E-04
DAV:   9    -0.125539705199E+03   -0.11324E-06   -0.36437E-09 18240   0.169E-04    0.743E-05
DAV:  10    -0.125539705357E+03   -0.15840E-06   -0.47153E-09 17184   0.151E-04    0.512E-05
DAV:  11    -0.125539705513E+03   -0.15583E-06   -0.33539E-09 17520   0.106E-04    0.355E-05
DAV:  12    -0.125539705610E+03   -0.96922E-07   -0.16861E-09 20352   0.968E-05    0.186E-05
DAV:  13    -0.125539705637E+03   -0.27621E-07   -0.34323E-10 24384   0.646E-05    0.120E-05
DAV:  14    -0.125539705657E+03   -0.19753E-07   -0.22413E-10 20928   0.359E-05    0.561E-06
DAV:  15    -0.125539705664E+03   -0.68449E-08   -0.10264E-10 22560   0.221E-05
  73 F= -.12711235E+03 E0= -.12711157E+03  d E =-.862172E-04  mag=    -0.0000
       N       E                     dE             d eps       ncg     rms          rms(c)
DAV:   1    -0.125540168274E+03   -0.46262E-03   -0.10405E-01 14208   0.138E+00    0.530E-02
DAV:   2    -0.125540207971E+03   -0.39697E-04   -0.87008E-04 19008   0.124E-01    0.367E-02
DAV:   3    -0.125540198900E+03    0.90712E-05   -0.52665E-05 24768   0.276E-02    0.926E-03
DAV:   4    -0.125540199268E+03   -0.36883E-06   -0.54243E-06 14352   0.892E-03    0.292E-03
DAV:   5    -0.125540199325E+03   -0.56506E-07   -0.61386E-07 20736   0.277E-03    0.927E-04
DAV:   6    -0.125540199336E+03   -0.10798E-07   -0.63714E-08 20256   0.968E-04    0.250E-04
DAV:   7    -0.125540199337E+03   -0.17426E-08   -0.81327E-09 23616   0.324E-04
  74 F= -.12711240E+03 E0= -.12711162E+03  d E =-.479209E-04  mag=    -0.0000
       N       E                     dE             d eps       ncg     rms          rms(c)
DAV:   1    -0.125541023993E+03   -0.82466E-03   -0.46502E-01 14208   0.291E+00    0.112E-01
DAV:   2    -0.125541202154E+03   -0.17816E-03   -0.38547E-03 16416   0.261E-01    0.773E-02
DAV:   3    -0.125541160291E+03    0.41863E-04   -0.24603E-04 26688   0.604E-02    0.204E-02
DAV:   4    -0.125541161276E+03   -0.98555E-06   -0.22293E-05 16704   0.184E-02    0.631E-03
DAV:   5    -0.125541161319E+03   -0.42250E-07   -0.27760E-06 19392   0.574E-03    0.189E-03
DAV:   6    -0.125541161372E+03   -0.53678E-07   -0.26545E-07 25536   0.201E-03    0.518E-04
DAV:   7    -0.125541161403E+03   -0.30511E-07   -0.28099E-08 24192   0.606E-04    0.173E-04
DAV:   8    -0.125541161454E+03   -0.50818E-07   -0.34165E-09 23088   0.221E-04    0.924E-05
DAV:   9    -0.125541161543E+03   -0.89682E-07   -0.32229E-09 19776   0.165E-04    0.684E-05
DAV:  10    -0.125541161639E+03   -0.95450E-07   -0.25124E-09 18048   0.134E-04    0.465E-05
DAV:  11    -0.125541161753E+03   -0.11451E-06   -0.24346E-09 17616   0.961E-05    0.319E-05
DAV:  12    -0.125541161832E+03   -0.78372E-07   -0.13973E-09 19440   0.800E-05    0.149E-05
DAV:  13    -0.125541161854E+03   -0.22686E-07   -0.25869E-10 24480   0.554E-05    0.104E-05
DAV:  14    -0.125541161868E+03   -0.13541E-07   -0.14898E-10 21504   0.363E-05    0.564E-06
DAV:  15    -0.125541161875E+03   -0.66648E-08   -0.10151E-10 22032   0.218E-05
  75 F= -.12711242E+03 E0= -.12711164E+03  d E =-.689046E-04  mag=    -0.0000
       N       E                     dE             d eps       ncg     rms          rms(c)
DAV:   1    -0.125540863878E+03    0.29799E-03   -0.44161E-02 14208   0.898E-01    0.345E-02
DAV:   2    -0.125540880810E+03   -0.16933E-04   -0.37249E-04 22176   0.806E-02    0.240E-02
DAV:   3    -0.125540876825E+03    0.39854E-05   -0.20725E-05 21072   0.170E-02    0.578E-03
DAV:   4    -0.125540877025E+03   -0.19978E-06   -0.26394E-06 17184   0.606E-03    0.188E-03
DAV:   5    -0.125540877086E+03   -0.61320E-07   -0.22995E-07 20784   0.169E-03    0.643E-04
DAV:   6    -0.125540877093E+03   -0.64001E-08   -0.26776E-08 21408   0.629E-04
  76 F= -.12711243E+03 E0= -.12711165E+03  d E =-.740672E-04  mag=    -0.0000
       N       E                     dE             d eps       ncg     rms          rms(c)
DAV:   1    -0.125541219922E+03   -0.34284E-03   -0.73808E-02 14208   0.116E+00    0.459E-02
DAV:   2    -0.125541245090E+03   -0.25168E-04   -0.60546E-04 19488   0.104E-01    0.314E-02
DAV:   3    -0.125541237903E+03    0.71869E-05   -0.40550E-05 26496   0.241E-02    0.774E-03
DAV:   4    -0.125541238008E+03   -0.10547E-06   -0.45827E-06 16464   0.808E-03    0.270E-03
DAV:   5    -0.125541238071E+03   -0.62608E-07   -0.36315E-07 21312   0.230E-03    0.985E-04
DAV:   6    -0.125541238076E+03   -0.48667E-08   -0.59120E-08 22704   0.898E-04
  77 F= -.12711246E+03 E0= -.12711168E+03  d E =-.322329E-04  mag=    -0.0000
       N       E                     dE             d eps       ncg     rms          rms(c)
DAV:   1    -0.125541210630E+03    0.27441E-04   -0.51955E-04 14400   0.974E-02    0.386E-03
DAV:   2    -0.125541210792E+03   -0.16201E-06   -0.43401E-06 18480   0.879E-03    0.266E-03
DAV:   3    -0.125541210764E+03    0.27821E-07   -0.28065E-07 19344   0.202E-03    0.662E-04
DAV:   4    -0.125541210765E+03   -0.12951E-08   -0.36110E-08 21216   0.708E-04
  78 F= -.12711246E+03 E0= -.12711168E+03  d E =-.325152E-04  mag=     0.0000
       N       E                     dE             d eps       ncg     rms          rms(c)
DAV:   1    -0.125541385403E+03   -0.17464E-03   -0.25923E-02 14208   0.686E-01    0.277E-02
DAV:   2    -0.125541392446E+03   -0.70435E-05   -0.19827E-04 18768   0.597E-02    0.187E-02
DAV:   3    -0.125541389972E+03    0.24739E-05   -0.14611E-05 24864   0.143E-02    0.464E-03
DAV:   4    -0.125541389993E+03   -0.20284E-07   -0.16477E-06 15408   0.463E-03    0.160E-03
DAV:   5    -0.125541390015E+03   -0.22331E-07   -0.12166E-07 23088   0.133E-03    0.603E-04
DAV:   6    -0.125541390018E+03   -0.34179E-08   -0.22052E-08 21360   0.535E-04
  79 F= -.12711249E+03 E0= -.12711171E+03  d E =-.275514E-04  mag=    -0.0000
       N       E                     dE             d eps       ncg     rms          rms(c)
DAV:   1    -0.125541510692E+03   -0.12068E-03   -0.15666E-02 14208   0.534E-01    0.215E-02
DAV:   2    -0.125541515000E+03   -0.43081E-05   -0.12038E-04 19968   0.464E-02    0.146E-02
DAV:   3    -0.125541513533E+03    0.14673E-05   -0.86545E-06 22032   0.110E-02    0.357E-03
DAV:   4    -0.125541513554E+03   -0.21457E-07   -0.10586E-06 16800   0.368E-03    0.124E-03
DAV:   5    -0.125541513572E+03   -0.17823E-07   -0.70978E-08 23856   0.101E-03    0.478E-04
DAV:   6    -0.125541513578E+03   -0.58917E-08   -0.13087E-08 21600   0.417E-04
  80 F= -.12711249E+03 E0= -.12711171E+03  d E =-.331764E-04  mag=    -0.0000
       N       E                     dE             d eps       ncg     rms          rms(c)
DAV:   1    -0.125541641297E+03   -0.12772E-03   -0.24760E-02 14208   0.672E-01    0.269E-02
DAV:   2    -0.125541648970E+03   -0.76732E-05   -0.17796E-04 21984   0.561E-02    0.184E-02
DAV:   3    -0.125541646731E+03    0.22391E-05   -0.12122E-05 22128   0.131E-02    0.430E-03
DAV:   4    -0.125541646732E+03   -0.11742E-08   -0.14939E-06 17040   0.452E-03    0.150E-03
DAV:   5    -0.125541646753E+03   -0.20566E-07   -0.11341E-07 23616   0.133E-03    0.600E-04
DAV:   6    -0.125541646758E+03   -0.58817E-08   -0.17980E-08 22224   0.495E-04
  81 F= -.12711252E+03 E0= -.12711174E+03  d E =-.228747E-04  mag=    -0.0000
       N       E                     dE             d eps       ncg     rms          rms(c)
DAV:   1    -0.125541695109E+03   -0.48357E-04   -0.44900E-03 14208   0.286E-01    0.114E-02
DAV:   2    -0.125541696474E+03   -0.13646E-05   -0.32379E-05 20592   0.239E-02    0.784E-03
DAV:   3    -0.125541696114E+03    0.35980E-06   -0.22150E-06 18960   0.560E-03    0.183E-03
DAV:   4    -0.125541696124E+03   -0.10541E-07   -0.28482E-07 21216   0.197E-03    0.652E-04
DAV:   5    -0.125541696133E+03   -0.83637E-08   -0.17596E-08 22704   0.519E-04
  82 F= -.12711252E+03 E0= -.12711174E+03  d E =-.252166E-04  mag=    -0.0000
       N       E                     dE             d eps       ncg     rms          rms(c)
DAV:   1    -0.125541748187E+03   -0.52063E-04   -0.11458E-02 14208   0.457E-01    0.183E-02
DAV:   2    -0.125541751384E+03   -0.31963E-05   -0.76668E-05 24912   0.366E-02    0.126E-02
DAV:   3    -0.125541750275E+03    0.11090E-05   -0.48189E-06 20160   0.802E-03    0.269E-03
DAV:   4    -0.125541750283E+03   -0.86548E-08   -0.57702E-07 17616   0.275E-03    0.930E-04
DAV:   5    -0.125541750291E+03   -0.76325E-08   -0.34364E-08 21984   0.722E-04
  83 F= -.12711254E+03 E0= -.12711176E+03  d E =-.237161E-04  mag=     0.0000
       N       E                     dE             d eps       ncg     rms          rms(c)
DAV:   1    -0.125541842357E+03   -0.92073E-04   -0.78446E-02 14208   0.120E+00    0.479E-02
DAV:   2    -0.125541864538E+03   -0.22181E-04   -0.52152E-04 25488   0.956E-02    0.328E-02
[...]
DAV:   4    -0.125539259004E+03    0.74408E-07   -0.13854E-05 17472   0.137E-02    0.436E-03
DAV:   5    -0.125539258980E+03    0.24044E-07   -0.11184E-06 25248   0.402E-03    0.188E-03
DAV:   6    -0.125539258955E+03    0.24834E-07   -0.24563E-07 21216   0.171E-03    0.399E-04
DAV:   7    -0.125539258949E+03    0.54097E-08   -0.31339E-08 26112   0.629E-04
 111 F= -.12711499E+03 E0= -.12711421E+03  d E =-.117776E-03  mag=    -0.0000
       N       E                     dE             d eps       ncg     rms          rms(c)
DAV:   1    -0.125539121397E+03    0.13756E-03   -0.82144E-02 14208   0.123E+00    0.483E-02
DAV:   2    -0.125539149344E+03   -0.27946E-04   -0.54213E-04 15264   0.984E-02    0.331E-02
DAV:   3    -0.125539141704E+03    0.76401E-05   -0.33866E-05 16128   0.227E-02    0.790E-03
DAV:   4    -0.125539141812E+03   -0.10833E-06   -0.38162E-06 18816   0.732E-03    0.248E-03
DAV:   5    -0.125539141798E+03    0.14112E-07   -0.34811E-07 22080   0.218E-03    0.101E-03
DAV:   6    -0.125539141814E+03   -0.15750E-07   -0.72741E-08 21936   0.945E-04    0.212E-04
DAV:   7    -0.125539141828E+03   -0.14737E-07   -0.87457E-09 23568   0.330E-04    0.814E-05
DAV:   8    -0.125539141851E+03   -0.22254E-07   -0.10105E-09 21120   0.115E-04    0.498E-05
DAV:   9    -0.125539141883E+03   -0.32657E-07   -0.82658E-10 20736   0.806E-05    0.292E-05
DAV:  10    -0.125539141925E+03   -0.41652E-07   -0.90361E-10 20016   0.669E-05    0.236E-05
DAV:  11    -0.125539141972E+03   -0.46626E-07   -0.88028E-10 19440   0.593E-05    0.126E-05
DAV:  12    -0.125539141994E+03   -0.22001E-07   -0.43871E-10 22896   0.394E-05    0.708E-06
DAV:  13    -0.125539141999E+03   -0.49531E-08   -0.52299E-11 23280   0.184E-05
 112 F= -.12711501E+03 E0= -.12711423E+03  d E =-.134639E-03  mag=    -0.0000
       N       E                     dE             d eps       ncg     rms          rms(c)
DAV:   1    -0.125538873647E+03    0.26835E-03   -0.33514E-01 14208   0.249E+00    0.969E-02
DAV:   2    -0.125538996094E+03   -0.12245E-03   -0.22276E-03 19824   0.199E-01    0.671E-02
DAV:   3    -0.125538964418E+03    0.31676E-04   -0.12303E-04 21024   0.425E-02    0.153E-02
DAV:   4    -0.125538964484E+03   -0.65580E-07   -0.13689E-05 17520   0.139E-02    0.445E-03
DAV:   5    -0.125538964406E+03    0.77319E-07   -0.12251E-06 25824   0.420E-03    0.189E-03
DAV:   6    -0.125538964380E+03    0.26128E-07   -0.24889E-07 22080   0.175E-03    0.395E-04
DAV:   7    -0.125538964378E+03    0.21482E-08   -0.31717E-08 25440   0.627E-04
 113 F= -.12711514E+03 E0= -.12711436E+03  d E =-.130038E-03  mag=     0.0000
       N       E                     dE             d eps       ncg     rms          rms(c)
DAV:   1    -0.125538760232E+03    0.20415E-03   -0.12954E-01 14208   0.155E+00    0.603E-02
DAV:   2    -0.125538806508E+03   -0.46276E-04   -0.85358E-04 17568   0.123E-01    0.417E-02
DAV:   3    -0.125538794658E+03    0.11850E-04   -0.47969E-05 18000   0.268E-02    0.952E-03
DAV:   4    -0.125538794783E+03   -0.12537E-06   -0.54044E-06 18624   0.874E-03    0.286E-03
DAV:   5    -0.125538794768E+03    0.15759E-07   -0.47909E-07 21504   0.260E-03    0.119E-03
DAV:   6    -0.125538794790E+03   -0.21770E-07   -0.95897E-08 20880   0.111E-03    0.243E-04
DAV:   7    -0.125538794813E+03   -0.23053E-07   -0.11557E-08 24000   0.386E-04    0.104E-04
DAV:   8    -0.125538794843E+03   -0.30917E-07   -0.12484E-09 21024   0.124E-04    0.661E-05
DAV:   9    -0.125538794891E+03   -0.47160E-07   -0.13023E-09 21696   0.946E-05    0.348E-05
DAV:  10    -0.125538794948E+03   -0.57141E-07   -0.15636E-09 20064   0.821E-05    0.289E-05
DAV:  11    -0.125538795019E+03   -0.71167E-07   -0.16923E-09 19728   0.732E-05    0.153E-05
DAV:  12    -0.125538795067E+03   -0.48478E-07   -0.93953E-10 20256   0.572E-05    0.836E-06
DAV:  13    -0.125538795077E+03   -0.99199E-08   -0.10089E-10 24768   0.212E-05
 114 F= -.12711516E+03 E0= -.12711438E+03  d E =-.151993E-03  mag=    -0.0000
       N       E                     dE             d eps       ncg     rms          rms(c)
DAV:   1    -0.125538520602E+03    0.27447E-03   -0.27844E-01 14208   0.227E+00    0.877E-02
DAV:   2    -0.125538624522E+03   -0.10392E-03   -0.18691E-03 19872   0.182E-01    0.609E-02
DAV:   3    -0.125538598857E+03    0.25665E-04   -0.95590E-05 20448   0.380E-02    0.141E-02
DAV:   4    -0.125538599206E+03   -0.34852E-06   -0.98626E-06 15552   0.121E-02    0.389E-03
DAV:   5    -0.125538599121E+03    0.84296E-07   -0.10764E-06 25968   0.391E-03    0.157E-03
DAV:   6    -0.125538599110E+03    0.11033E-07   -0.17962E-07 22080   0.154E-03    0.365E-04
DAV:   7    -0.125538599107E+03    0.27503E-08   -0.18312E-08 26880   0.488E-04
 115 F= -.12711528E+03 E0= -.12711450E+03  d E =-.113523E-03  mag=     0.0000
       N       E                     dE             d eps       ncg     rms          rms(c)
DAV:   1    -0.125538386403E+03    0.21271E-03   -0.11627E-01 14208   0.147E+00    0.567E-02
DAV:   2    -0.125538428359E+03   -0.41956E-04   -0.76880E-04 14880   0.117E-01    0.391E-02
DAV:   3    -0.125538418416E+03    0.99425E-05   -0.41599E-05 16608   0.258E-02    0.974E-03
DAV:   4    -0.125538418671E+03   -0.25456E-06   -0.42540E-06 16032   0.797E-03    0.271E-03
DAV:   5    -0.125538418632E+03    0.38582E-07   -0.53554E-07 24336   0.269E-03    0.103E-03
DAV:   6    -0.125538418649E+03   -0.17348E-07   -0.78881E-08 19296   0.103E-03    0.236E-04
DAV:   7    -0.125538418665E+03   -0.15812E-07   -0.71134E-09 24960   0.311E-04    0.103E-04
DAV:   8    -0.125538418687E+03   -0.21585E-07   -0.80498E-10 21264   0.101E-04    0.606E-05
DAV:   9    -0.125538418717E+03   -0.30261E-07   -0.56801E-10 21456   0.651E-05    0.292E-05
DAV:  10    -0.125538418768E+03   -0.50414E-07   -0.11781E-09 19920   0.699E-05    0.251E-05
DAV:  11    -0.125538418823E+03   -0.55882E-07   -0.10351E-09 19488   0.591E-05    0.149E-05
DAV:  12    -0.125538418866E+03   -0.42553E-07   -0.86200E-10 19824   0.533E-05    0.720E-06
DAV:  13    -0.125538418874E+03   -0.77152E-08   -0.82252E-11 24000   0.182E-05
 116 F= -.12711530E+03 E0= -.12711452E+03  d E =-.133277E-03  mag=    -0.0000
       N       E                     dE             d eps       ncg     rms          rms(c)
DAV:   1    -0.125538157142E+03    0.26172E-03   -0.26301E-01 14208   0.221E+00    0.849E-02
DAV:   2    -0.125538251492E+03   -0.94350E-04   -0.17764E-03 20928   0.178E-01    0.590E-02
DAV:   3    -0.125538226013E+03    0.25479E-04   -0.96941E-05 20160   0.377E-02    0.131E-02
DAV:   4    -0.125538226382E+03   -0.36938E-06   -0.99795E-06 16128   0.121E-02    0.395E-03
DAV:   5    -0.125538226348E+03    0.34150E-07   -0.98722E-07 20832   0.372E-03    0.156E-03
DAV:   6    -0.125538226360E+03   -0.12216E-07   -0.16259E-07 18192   0.148E-03    0.315E-04
DAV:   7    -0.125538226360E+03    0.56480E-09   -0.17559E-08 24672   0.481E-04
 117 F= -.12711542E+03 E0= -.12711464E+03  d E =-.120651E-03  mag=     0.0000
       N       E                     dE             d eps       ncg     rms          rms(c)
DAV:   1    -0.125537821457E+03    0.40490E-03   -0.35124E-01 14208   0.255E+00    0.982E-02
DAV:   2    -0.125537944103E+03   -0.12265E-03   -0.23340E-03 14592   0.206E-01    0.676E-02
DAV:   3    -0.125537912455E+03    0.31647E-04   -0.13689E-04 18912   0.466E-02    0.169E-02
DAV:   4    -0.125537913022E+03   -0.56648E-06   -0.12952E-05 16704   0.139E-02    0.490E-03
DAV:   5    -0.125537912854E+03    0.16846E-06   -0.16369E-06 21600   0.466E-03    0.179E-03
DAV:   6    -0.125537912875E+03   -0.21068E-07   -0.22566E-07 21024   0.175E-03    0.374E-04
DAV:   7    -0.125537912886E+03   -0.11711E-07   -0.17609E-08 24576   0.486E-04    0.157E-04
DAV:   8    -0.125537912908E+03   -0.21608E-07   -0.16518E-09 22944   0.155E-04    0.726E-05
DAV:   9    -0.125537912936E+03   -0.28597E-07   -0.54475E-10 21552   0.705E-05    0.374E-05
DAV:  10    -0.125537912973E+03   -0.36275E-07   -0.53589E-10 20928   0.517E-05    0.248E-05
DAV:  11    -0.125537913019E+03   -0.46669E-07   -0.69111E-10 19824   0.498E-05    0.169E-05
DAV:  12    -0.125537913089E+03   -0.69970E-07   -0.15669E-09 18720   0.690E-05    0.110E-05
DAV:  13    -0.125537913104E+03   -0.14850E-07   -0.17538E-10 23424   0.280E-05    0.593E-06
DAV:  14    -0.125537913109E+03   -0.49067E-08   -0.53486E-11 21120   0.163E-05
 118 F= -.12711547E+03 E0= -.12711469E+03  d E =-.169484E-03  mag=    -0.0000
       N       E                     dE             d eps       ncg     rms          rms(c)
DAV:   1    -0.125537603529E+03    0.30958E-03   -0.34297E-01 14208   0.252E+00    0.972E-02
DAV:   2    -0.125537715023E+03   -0.11149E-03   -0.23308E-03 23040   0.204E-01    0.672E-02
DAV:   3    -0.125537679384E+03    0.35638E-04   -0.13518E-04 19968   0.436E-02    0.147E-02
DAV:   4    -0.125537679745E+03   -0.36044E-06   -0.14118E-05 16224   0.142E-02    0.470E-03
DAV:   5    -0.125537679762E+03   -0.17014E-07   -0.12456E-06 21792   0.417E-03    0.181E-03
DAV:   6    -0.125537679791E+03   -0.29473E-07   -0.20940E-07 23328   0.166E-03    0.380E-04
DAV:   7    -0.125537679796E+03   -0.47330E-08   -0.22450E-08 22608   0.542E-04
 119 F= -.12711560E+03 E0= -.12711482E+03  d E =-.134094E-03  mag=     0.0000
       N       E                     dE             d eps       ncg     rms          rms(c)
DAV:   1    -0.125537346748E+03    0.33304E-03   -0.25264E-01 14208   0.216E+00    0.835E-02
DAV:   2    -0.125537425904E+03   -0.79155E-04   -0.16893E-03 15936   0.175E-01    0.571E-02
DAV:   3    -0.125537402012E+03    0.23892E-04   -0.10689E-04 19680   0.405E-02    0.142E-02
DAV:   4    -0.125537402422E+03   -0.41015E-06   -0.98923E-06 15552   0.121E-02    0.426E-03
DAV:   5    -0.125537402369E+03    0.53141E-07   -0.11521E-06 22464   0.391E-03    0.151E-03
DAV:   6    -0.125537402402E+03   -0.32592E-07   -0.16300E-07 22272   0.148E-03    0.319E-04
DAV:   7    -0.125537402414E+03   -0.12703E-07   -0.14061E-08 25008   0.429E-04    0.127E-04
DAV:   8    -0.125537402432E+03   -0.18153E-07   -0.11681E-09 22896   0.132E-04    0.593E-05
DAV:   9    -0.125537402455E+03   -0.22241E-07   -0.37217E-10 21840   0.597E-05    0.293E-05
DAV:  10    -0.125537402478E+03   -0.23764E-07   -0.26203E-10 21456   0.393E-05    0.175E-05
DAV:  11    -0.125537402508E+03   -0.29867E-07   -0.35524E-10 19776   0.380E-05    0.118E-05
DAV:  12    -0.125537402545E+03   -0.36393E-07   -0.76825E-10 18672   0.511E-05    0.827E-06
DAV:  13    -0.125537402552E+03   -0.70113E-08   -0.95410E-11 24000   0.226E-05
 120 F= -.12711564E+03 E0= -.12711486E+03  d E =-.172255E-03  mag=     0.0000
       N       E                     dE             d eps       ncg     rms          rms(c)
DAV:   1    -0.125537024037E+03    0.37851E-03   -0.41600E-01 14208   0.276E+00    0.108E-01
DAV:   2    -0.125537156366E+03   -0.13233E-03   -0.28486E-03 21648   0.225E-01    0.741E-02
DAV:   3    -0.125537112571E+03    0.43795E-04   -0.17518E-04 19776   0.498E-02    0.166E-02
DAV:   4    -0.125537112931E+03   -0.36072E-06   -0.18568E-05 16128   0.162E-02    0.529E-03
DAV:   5    -0.125537112931E+03    0.45839E-09   -0.16414E-06 21120   0.474E-03    0.205E-03
DAV:   6    -0.125537112963E+03   -0.32431E-07   -0.28875E-07 22128   0.192E-03    0.431E-04
DAV:   7    -0.125537112971E+03   -0.76625E-08   -0.32180E-08 24048   0.630E-04
 121 F= -.12711577E+03 E0= -.12711499E+03  d E =-.131736E-03  mag=    -0.0000
       N       E                     dE             d eps       ncg     rms          rms(c)
DAV:   1    -0.125536937074E+03    0.17589E-03   -0.70411E-02 14208   0.114E+00    0.444E-02
DAV:   2    -0.125536958502E+03   -0.21428E-04   -0.47594E-04 14976   0.926E-02    0.303E-02
DAV:   3    -0.125536951963E+03    0.65383E-05   -0.31510E-05 19200   0.219E-02    0.754E-03
DAV:   4    -0.125536952147E+03   -0.18363E-06   -0.29849E-06 15456   0.660E-03    0.232E-03
DAV:   5    -0.125536952169E+03   -0.21667E-07   -0.33457E-07 21504   0.209E-03    0.832E-04
DAV:   6    -0.125536952194E+03   -0.24916E-07   -0.50752E-08 23040   0.812E-04    0.189E-04
DAV:   7    -0.125536952205E+03   -0.11734E-07   -0.43426E-09 24240   0.234E-04    0.829E-05
DAV:   8    -0.125536952218E+03   -0.12324E-07   -0.42808E-10 21984   0.760E-05    0.447E-05
DAV:   9    -0.125536952231E+03   -0.13525E-07   -0.14254E-10 22128   0.373E-05    0.195E-05
DAV:  10    -0.125536952252E+03   -0.20520E-07   -0.25567E-10 19008   0.362E-05    0.109E-05
DAV:  11    -0.125536952268E+03   -0.16415E-07   -0.19304E-10 21264   0.291E-05    0.853E-06
DAV:  12    -0.125536952279E+03   -0.10567E-07   -0.18150E-10 20448   0.265E-05    0.625E-06
DAV:  13    -0.125536952282E+03   -0.31232E-08   -0.43846E-11 23712   0.145E-05
 122 F= -.12711578E+03 E0= -.12711500E+03  d E =-.144434E-03  mag=    -0.0000
       N       E                     dE             d eps       ncg     rms          rms(c)
DAV:   1    -0.125536583239E+03    0.36904E-03   -0.38341E-01 14208   0.265E+00    0.104E-01
DAV:   2    -0.125536713537E+03   -0.13030E-03   -0.26393E-03 21552   0.216E-01    0.718E-02
DAV:   3    -0.125536674168E+03    0.39369E-04   -0.16688E-04 19968   0.483E-02    0.154E-02
DAV:   4    -0.125536674186E+03   -0.18165E-07   -0.19521E-05 16608   0.163E-02    0.517E-03
DAV:   5    -0.125536674234E+03   -0.47661E-07   -0.16161E-06 21744   0.476E-03    0.210E-03
DAV:   6    -0.125536674262E+03   -0.28139E-07   -0.29633E-07 20688   0.194E-03    0.472E-04
DAV:   7    -0.125536674267E+03   -0.52487E-08   -0.34902E-08 24720   0.672E-04
 123 F= -.12711594E+03 E0= -.12711515E+03  d E =-.152125E-03  mag=     0.0000
       N       E                     dE             d eps       ncg     rms          rms(c)
DAV:   1    -0.125535803562E+03    0.87070E-03   -0.10625E+00 14208   0.441E+00    0.173E-01
DAV:   2    -0.125536157922E+03   -0.35436E-03   -0.72150E-03 14784   0.360E-01    0.119E-01
DAV:   3    -0.125536054086E+03    0.10384E-03   -0.47985E-04 18240   0.853E-02    0.288E-02
DAV:   4    -0.125536054765E+03   -0.67864E-06   -0.50313E-05 23232   0.267E-02    0.920E-03
DAV:   5    -0.125536054249E+03    0.51530E-06   -0.43504E-06 17424   0.748E-03    0.350E-03
DAV:   6    -0.125536054273E+03   -0.23583E-07   -0.73246E-07 22080   0.320E-03    0.658E-04
DAV:   7    -0.125536054297E+03   -0.23640E-07   -0.58610E-08 22416   0.900E-04    0.263E-04
DAV:   8    -0.125536054332E+03   -0.35282E-07   -0.44934E-09 24480   0.261E-04    0.135E-04
DAV:   9    -0.125536054379E+03   -0.46704E-07   -0.11391E-09 21168   0.103E-04    0.661E-05
DAV:  10    -0.125536054469E+03   -0.90519E-07   -0.17764E-09 19056   0.966E-05    0.350E-05
DAV:  11    -0.125536054557E+03   -0.87459E-07   -0.14953E-09 20976   0.762E-05    0.244E-05
DAV:  12    -0.125536054670E+03   -0.11325E-06   -0.31478E-09 17904   0.961E-05    0.172E-05
DAV:  13    -0.125536054710E+03   -0.39856E-07   -0.48659E-10 21888   0.454E-05    0.937E-06
DAV:  14    -0.125536054724E+03   -0.14703E-07   -0.15032E-10 21888   0.246E-05    0.550E-06
DAV:  15    -0.125536054729E+03   -0.50968E-08   -0.54340E-11 24048   0.142E-05
 124 F= -.12711603E+03 E0= -.12711525E+03  d E =-.249143E-03  mag=    -0.0000
       N       E                     dE             d eps       ncg     rms          rms(c)
DAV:   1    -0.125535867496E+03    0.18723E-03   -0.12878E-01 14208   0.153E+00    0.601E-02
DAV:   2    -0.125535911700E+03   -0.44204E-04   -0.89244E-04 22896   0.125E-01    0.418E-02
DAV:   3    -0.125535898633E+03    0.13067E-04   -0.56199E-05 19776   0.275E-02    0.856E-03
DAV:   4    -0.125535898620E+03    0.12327E-07   -0.72076E-06 16944   0.972E-03    0.302E-03
DAV:   5    -0.125535898684E+03   -0.63900E-07   -0.51914E-07 20688   0.271E-03    0.127E-03
DAV:   6    -0.125535898701E+03   -0.16768E-07   -0.10320E-07 22944   0.113E-03    0.276E-04
DAV:   7    -0.125535898702E+03   -0.92587E-09   -0.11692E-08 20064   0.391E-04
 125 F= -.12711613E+03 E0= -.12711535E+03  d E =-.100997E-03  mag=    -0.0000
       N       E                     dE             d eps       ncg     rms          rms(c)
DAV:   1    -0.125535069093E+03    0.82961E-03   -0.11590E+00 14208   0.460E+00    0.180E-01
DAV:   2    -0.125535459707E+03   -0.39061E-03   -0.78788E-03 14784   0.375E-01    0.124E-01
DAV:   3    -0.125535347012E+03    0.11269E-03   -0.52801E-04 19296   0.892E-02    0.300E-02
DAV:   4    -0.125535347254E+03   -0.24194E-06   -0.56399E-05 24960   0.279E-02    0.957E-03
DAV:   5    -0.125535346695E+03    0.55887E-06   -0.43268E-06 16320   0.745E-03    0.373E-03
DAV:   6    -0.125535346701E+03   -0.56943E-08   -0.79778E-07 23952   0.334E-03    0.666E-04
DAV:   7    -0.125535346716E+03   -0.15353E-07   -0.58553E-08 20016   0.909E-04    0.260E-04
DAV:   8    -0.125535346750E+03   -0.34130E-07   -0.50618E-09 24624   0.279E-04    0.119E-04
DAV:   9    -0.125535346813E+03   -0.62708E-07   -0.18897E-09 21840   0.121E-04    0.595E-05
DAV:  10    -0.125535346890E+03   -0.76620E-07   -0.12744E-09 19728   0.819E-05    0.394E-05
DAV:  11    -0.125535346984E+03   -0.94197E-07   -0.16535E-09 19680   0.786E-05    0.267E-05
DAV:  12    -0.125535347103E+03   -0.11892E-06   -0.32229E-09 18480   0.962E-05    0.178E-05
DAV:  13    -0.125535347159E+03   -0.55724E-07   -0.79497E-10 20352   0.558E-05    0.976E-06
DAV:  14    -0.125535347176E+03   -0.17139E-07   -0.15432E-10 24480   0.273E-05    0.629E-06
DAV:  15    -0.125535347183E+03   -0.70295E-08   -0.77027E-11 21504   0.167E-05
 126 F= -.12711635E+03 E0= -.12711557E+03  d E =-.321506E-03  mag=     0.0000
       N       E                     dE             d eps       ncg     rms          rms(c)
DAV:   1    -0.125532749312E+03    0.25979E-02   -0.46348E+00 14208   0.920E+00    0.361E-01
DAV:   2    -0.125534343581E+03   -0.15943E-02   -0.31701E-02 15408   0.752E-01    0.248E-01
DAV:   3    -0.125533877393E+03    0.46619E-03   -0.21002E-03 21120   0.177E-01    0.604E-02
DAV:   4    -0.125533876047E+03    0.13452E-05   -0.22121E-04 24336   0.553E-02    0.188E-02
DAV:   5    -0.125533873721E+03    0.23262E-05   -0.17274E-05 22464   0.149E-02    0.738E-03
DAV:   6    -0.125533873650E+03    0.71586E-07   -0.28926E-06 22896   0.640E-03    0.139E-03
DAV:   7    -0.125533873675E+03   -0.25355E-07   -0.25536E-07 22608   0.187E-03    0.592E-04
DAV:   8    -0.125533873732E+03   -0.57312E-07   -0.16698E-08 22896   0.509E-04    0.318E-04
DAV:   9    -0.125533873815E+03   -0.82683E-07   -0.49857E-09 23712   0.226E-04    0.133E-04
DAV:  10    -0.125533873940E+03   -0.12524E-06   -0.59978E-09 23520   0.189E-04    0.690E-05
DAV:  11    -0.125533874090E+03   -0.14957E-06   -0.44683E-09 22464   0.134E-04    0.510E-05
DAV:  12    -0.125533874322E+03   -0.23229E-06   -0.74412E-09 19296   0.147E-04    0.394E-05
DAV:  13    -0.125533874435E+03   -0.11271E-06   -0.21943E-09 21504   0.825E-05    0.214E-05
DAV:  14    -0.125533874518E+03   -0.83062E-07   -0.13200E-09 20448   0.651E-05    0.114E-05
DAV:  15    -0.125533874562E+03   -0.44042E-07   -0.59131E-10 21264   0.498E-05    0.589E-06
DAV:  16    -0.125533874570E+03   -0.78417E-08   -0.70988E-11 24048   0.167E-05
 127 F= -.12711643E+03 E0= -.12711565E+03  d E =-.395669E-03  mag=    -0.0000
       N       E                     dE             d eps       ncg     rms          rms(c)
DAV:   1    -0.125534312427E+03   -0.43787E-03   -0.57747E-01 14208   0.325E+00    0.127E-01
DAV:   2    -0.125534509055E+03   -0.19663E-03   -0.39585E-03 19488   0.264E-01    0.881E-02
DAV:   3    -0.125534451033E+03    0.58021E-04   -0.26285E-04 25344   0.604E-02    0.192E-02
DAV:   4    -0.125534450683E+03    0.35031E-06   -0.28632E-05 15360   0.196E-02    0.637E-03
DAV:   5    -0.125534450741E+03   -0.57828E-07   -0.24316E-06 20400   0.592E-03    0.260E-03
DAV:   6    -0.125534450755E+03   -0.14483E-07   -0.45161E-07 21072   0.240E-03    0.531E-04
DAV:   7    -0.125534450759E+03   -0.34106E-08   -0.54154E-08 22224   0.830E-04
 128 F= -.12711646E+03 E0= -.12711568E+03  d E =-.425500E-03  mag=    -0.0000
