Dielectric                              
           1
     4.374294    2.525500    0.000000
    -4.374294    2.525500    0.000000
     0.000000    0.000000   15.000000
   B 
     8
Direct configuration=     1
   0.66893173  0.00000000  0.10000000
   0.33106727  0.00000000  0.10000000
   0.00000000  0.33106727  0.10000000
   0.00000000  0.66893173  0.10000000
   0.33106727  0.33106727  0.10000000
   0.66893173  0.66893173  0.10000000
   0.66666600  0.33333300  0.09995611
   0.33333300  0.66666600  0.10004389
