  16  16   0  16
  0.1985338E+02  0.4945000E-09  0.4945000E-09  0.1500000E-08  0.5000000E-15
  1.000000000000000E-004
  CAR 
 Lattice                                 
      9.93544326    -21.18919890  301     -0.25762815      1.00000000
    -21.189  0.0000E+00  0.0000E+00  0.0000E+00  0.0000E+00
    -21.085  0.0000E+00  0.0000E+00  0.0000E+00  0.0000E+00
    -20.982  0.0000E+00  0.0000E+00  0.0000E+00  0.0000E+00
    -20.878  0.0000E+00  0.0000E+00  0.0000E+00  0.0000E+00
    -20.774  0.0000E+00  0.0000E+00  0.0000E+00  0.0000E+00
    -20.670  0.0000E+00  0.0000E+00  0.0000E+00  0.0000E+00
    -20.567  0.0000E+00  0.0000E+00  0.0000E+00  0.0000E+00
    -20.463  0.0000E+00  0.0000E+00  0.0000E+00  0.0000E+00
    -20.359  0.2903E-19  0.2903E-19  0.3012E-20  0.3012E-20
    -20.255  0.2933E-14  0.2933E-14  0.3043E-15  0.3043E-15
    -20.152  0.3019E-10  0.3019E-10  0.3132E-11  0.3132E-11
    -20.048  0.4239E-07  0.4239E-07  0.4401E-08  0.4401E-08
    -19.944  0.8831E-05  0.8831E-05  0.9206E-06  0.9206E-06
    -19.840  0.3015E-03  0.3015E-03  0.3220E-04  0.3220E-04
    -19.737  0.2051E-02  0.2051E-02  0.2450E-03  0.2450E-03
    -19.633  0.4262E-02  0.4262E-02  0.6872E-03  0.6872E-03
    -19.529  0.4699E-02  0.4699E-02  0.1175E-02  0.1175E-02
    -19.425  0.5063E-02  0.5063E-02  0.1700E-02  0.1700E-02
    -19.322  0.4368E-02  0.4368E-02  0.2153E-02  0.2153E-02
    -19.218  0.5523E-02  0.5523E-02  0.2726E-02  0.2726E-02
    -19.114  0.4333E-02  0.4333E-02  0.3176E-02  0.3176E-02
    -19.010  0.4541E-02  0.4541E-02  0.3647E-02  0.3647E-02
    -18.907  0.6108E-02  0.6108E-02  0.4280E-02  0.4280E-02
    -18.803  0.3871E-02  0.3871E-02  0.4682E-02  0.4682E-02
    -18.699  0.4229E-02  0.4229E-02  0.5121E-02  0.5121E-02
    -18.595  0.6300E-02  0.6300E-02  0.5774E-02  0.5774E-02
    -18.492  0.5215E-02  0.5215E-02  0.6316E-02  0.6316E-02
    -18.388  0.3022E-02  0.3022E-02  0.6629E-02  0.6629E-02
    -18.284  0.4940E-02  0.4940E-02  0.7142E-02  0.7142E-02
    -18.180  0.6961E-02  0.6961E-02  0.7864E-02  0.7864E-02
    -18.077  0.4581E-02  0.4581E-02  0.8339E-02  0.8339E-02
    -17.973  0.3789E-02  0.3789E-02  0.8732E-02  0.8732E-02
    -17.869  0.3419E-02  0.3419E-02  0.9087E-02  0.9087E-02
    -17.765  0.7177E-02  0.7177E-02  0.9832E-02  0.9832E-02
    -17.662  0.6394E-02  0.6394E-02  0.1049E-01  0.1049E-01
    -17.558  0.3404E-02  0.3404E-02  0.1085E-01  0.1085E-01
    -17.454  0.3629E-02  0.3629E-02  0.1122E-01  0.1122E-01
    -17.350  0.4452E-02  0.4452E-02  0.1169E-01  0.1169E-01
    -17.247  0.6839E-02  0.6839E-02  0.1240E-01  0.1240E-01
    -17.143  0.6587E-02  0.6587E-02  0.1308E-01  0.1308E-01
    -17.039  0.4532E-02  0.4532E-02  0.1355E-01  0.1355E-01
    -16.935  0.2306E-02  0.2306E-02  0.1379E-01  0.1379E-01
    -16.832  0.4220E-02  0.4220E-02  0.1423E-01  0.1423E-01
    -16.728  0.7101E-02  0.7101E-02  0.1496E-01  0.1496E-01
    -16.624  0.6466E-02  0.6466E-02  0.1563E-01  0.1563E-01
    -16.521  0.5350E-02  0.5349E-02  0.1619E-01  0.1619E-01
    -16.417  0.4498E-02  0.4498E-02  0.1666E-01  0.1666E-01
    -16.313  0.2888E-02  0.2888E-02  0.1696E-01  0.1696E-01
    -16.209  0.3095E-02  0.3095E-02  0.1728E-01  0.1728E-01
    -16.106  0.8850E-02  0.8850E-02  0.1819E-01  0.1819E-01
    -16.002  0.8574E-02  0.8574E-02  0.1908E-01  0.1908E-01
    -15.898  0.9232E-02  0.9232E-02  0.2004E-01  0.2004E-01
    -15.794  0.1015E-01  0.1015E-01  0.2110E-01  0.2110E-01
    -15.691  0.1043E-01  0.1043E-01  0.2218E-01  0.2218E-01
    -15.587  0.1001E-01  0.1001E-01  0.2322E-01  0.2322E-01
    -15.483  0.1196E-01  0.1196E-01  0.2446E-01  0.2446E-01
    -15.379  0.1680E-01  0.1680E-01  0.2620E-01  0.2620E-01
    -15.276  0.1373E-01  0.1373E-01  0.2762E-01  0.2762E-01
    -15.172  0.1340E-01  0.1340E-01  0.2901E-01  0.2901E-01
    -15.068  0.1301E-01  0.1301E-01  0.3036E-01  0.3036E-01
    -14.964  0.9761E-02  0.9761E-02  0.3138E-01  0.3138E-01
    -14.861  0.8535E-02  0.8535E-02  0.3226E-01  0.3226E-01
    -14.757  0.9047E-02  0.9047E-02  0.3320E-01  0.3320E-01
    -14.653  0.1097E-01  0.1097E-01  0.3434E-01  0.3434E-01
    -14.549  0.8816E-02  0.8816E-02  0.3525E-01  0.3525E-01
    -14.446  0.1088E-01  0.1088E-01  0.3638E-01  0.3638E-01
    -14.342  0.9474E-02  0.9474E-02  0.3737E-01  0.3737E-01
    -14.238  0.9213E-02  0.9213E-02  0.3832E-01  0.3832E-01
    -14.134  0.1254E-01  0.1254E-01  0.3962E-01  0.3962E-01
    -14.031  0.1342E-01  0.1342E-01  0.4101E-01  0.4101E-01
    -13.927  0.8303E-02  0.8303E-02  0.4188E-01  0.4188E-01
    -13.823  0.5171E-02  0.5171E-02  0.4241E-01  0.4241E-01
    -13.719  0.3328E-02  0.3328E-02  0.4276E-01  0.4276E-01
    -13.616  0.4022E-02  0.4022E-02  0.4317E-01  0.4317E-01
    -13.512  0.7628E-02  0.7628E-02  0.4397E-01  0.4397E-01
    -13.408  0.8741E-02  0.8741E-02  0.4487E-01  0.4487E-01
    -13.304  0.7457E-02  0.7457E-02  0.4565E-01  0.4565E-01
    -13.201  0.6013E-02  0.6013E-02  0.4627E-01  0.4627E-01
    -13.097  0.7884E-02  0.7884E-02  0.4709E-01  0.4709E-01
    -12.993  0.7411E-02  0.7411E-02  0.4786E-01  0.4786E-01
    -12.889  0.5471E-02  0.5471E-02  0.4842E-01  0.4842E-01
    -12.786  0.8537E-02  0.8537E-02  0.4931E-01  0.4931E-01
    -12.682  0.9377E-02  0.9377E-02  0.5028E-01  0.5028E-01
    -12.578  0.1041E-01  0.1041E-01  0.5136E-01  0.5136E-01
    -12.474  0.1405E-01  0.1405E-01  0.5282E-01  0.5282E-01
    -12.371  0.1225E-01  0.1225E-01  0.5409E-01  0.5409E-01
    -12.267  0.1337E-01  0.1337E-01  0.5548E-01  0.5548E-01
    -12.163  0.1334E-01  0.1334E-01  0.5686E-01  0.5686E-01
    -12.059  0.1260E-01  0.1260E-01  0.5817E-01  0.5817E-01
    -11.956  0.1939E-01  0.1939E-01  0.6018E-01  0.6018E-01
    -11.852  0.1770E-01  0.1770E-01  0.6202E-01  0.6202E-01
    -11.748  0.1110E-01  0.1110E-01  0.6317E-01  0.6317E-01
    -11.644  0.9979E-02  0.9979E-02  0.6420E-01  0.6420E-01
    -11.541  0.7922E-02  0.7922E-02  0.6503E-01  0.6503E-01
    -11.437  0.7921E-02  0.7921E-02  0.6585E-01  0.6585E-01
    -11.333  0.5291E-02  0.5291E-02  0.6640E-01  0.6640E-01
    -11.229  0.3655E-02  0.3655E-02  0.6678E-01  0.6678E-01
    -11.126  0.4681E-02  0.4681E-02  0.6726E-01  0.6726E-01
    -11.022  0.5184E-02  0.5184E-02  0.6780E-01  0.6780E-01
    -10.918  0.5583E-02  0.5583E-02  0.6838E-01  0.6838E-01
    -10.814  0.8353E-02  0.8353E-02  0.6925E-01  0.6925E-01
    -10.711  0.1132E-01  0.1132E-01  0.7042E-01  0.7042E-01
    -10.607  0.1030E-01  0.1030E-01  0.7149E-01  0.7149E-01
    -10.503  0.1502E-01  0.1502E-01  0.7305E-01  0.7305E-01
    -10.399  0.1825E-01  0.1825E-01  0.7494E-01  0.7494E-01
    -10.296  0.1230E-01  0.1230E-01  0.7622E-01  0.7622E-01
    -10.192  0.8028E-02  0.8028E-02  0.7705E-01  0.7705E-01
    -10.088  0.5453E-02  0.5453E-02  0.7762E-01  0.7762E-01
     -9.984  0.1214E-01  0.1214E-01  0.7887E-01  0.7887E-01
     -9.881  0.1445E-01  0.1445E-01  0.8037E-01  0.8037E-01
     -9.777  0.9416E-02  0.9416E-02  0.8135E-01  0.8135E-01
     -9.673  0.6708E-02  0.6708E-02  0.8205E-01  0.8205E-01
     -9.569  0.8530E-02  0.8530E-02  0.8293E-01  0.8293E-01
     -9.466  0.1586E-01  0.1586E-01  0.8458E-01  0.8458E-01
     -9.362  0.1519E-01  0.1519E-01  0.8615E-01  0.8615E-01
     -9.258  0.1818E-01  0.1818E-01  0.8804E-01  0.8804E-01
     -9.154  0.1990E-01  0.1990E-01  0.9010E-01  0.9010E-01
     -9.051  0.1185E-01  0.1185E-01  0.9133E-01  0.9133E-01
     -8.947  0.7824E-02  0.7824E-02  0.9215E-01  0.9215E-01
     -8.843  0.1661E-01  0.1661E-01  0.9387E-01  0.9387E-01
     -8.739  0.2192E-01  0.2192E-01  0.9614E-01  0.9614E-01
     -8.636  0.1074E-01  0.1074E-01  0.9726E-01  0.9726E-01
     -8.532  0.8163E-02  0.8163E-02  0.9810E-01  0.9810E-01
     -8.428  0.1563E-01  0.1563E-01  0.9973E-01  0.9973E-01
     -8.324  0.1940E-01  0.1940E-01  0.1017E+00  0.1017E+00
     -8.221  0.1438E-01  0.1438E-01  0.1032E+00  0.1032E+00
     -8.117  0.9874E-02  0.9874E-02  0.1043E+00  0.1043E+00
     -8.013  0.1654E-01  0.1654E-01  0.1060E+00  0.1060E+00
     -7.909  0.1242E-01  0.1242E-01  0.1073E+00  0.1073E+00
     -7.806  0.1689E-01  0.1689E-01  0.1090E+00  0.1090E+00
     -7.702  0.2688E-01  0.2688E-01  0.1118E+00  0.1118E+00
     -7.598  0.1864E-01  0.1864E-01  0.1137E+00  0.1137E+00
     -7.494  0.1272E-01  0.1272E-01  0.1151E+00  0.1151E+00
     -7.391  0.1402E-01  0.1402E-01  0.1165E+00  0.1165E+00
     -7.287  0.1835E-01  0.1835E-01  0.1184E+00  0.1184E+00
     -7.183  0.1933E-01  0.1933E-01  0.1204E+00  0.1204E+00
     -7.079  0.1678E-01  0.1678E-01  0.1222E+00  0.1222E+00
     -6.976  0.1552E-01  0.1552E-01  0.1238E+00  0.1238E+00
     -6.872  0.1823E-01  0.1823E-01  0.1257E+00  0.1257E+00
     -6.768  0.2177E-01  0.2177E-01  0.1279E+00  0.1279E+00
     -6.664  0.2721E-01  0.2721E-01  0.1307E+00  0.1307E+00
     -6.561  0.3121E-01  0.3121E-01  0.1340E+00  0.1340E+00
     -6.457  0.3149E-01  0.3149E-01  0.1372E+00  0.1372E+00
     -6.353  0.2538E-01  0.2538E-01  0.1399E+00  0.1399E+00
     -6.249  0.2220E-01  0.2220E-01  0.1422E+00  0.1422E+00
     -6.146  0.1765E-01  0.1765E-01  0.1440E+00  0.1440E+00
     -6.042  0.1761E-01  0.1761E-01  0.1458E+00  0.1458E+00
     -5.938  0.1628E-01  0.1628E-01  0.1475E+00  0.1475E+00
     -5.834  0.1217E-01  0.1217E-01  0.1488E+00  0.1488E+00
     -5.731  0.1952E-01  0.1952E-01  0.1508E+00  0.1508E+00
     -5.627  0.2056E-01  0.2056E-01  0.1530E+00  0.1530E+00
     -5.523  0.9708E-02  0.9708E-02  0.1540E+00  0.1540E+00
     -5.419  0.7519E-02  0.7519E-02  0.1547E+00  0.1547E+00
     -5.316  0.1576E-01  0.1576E-01  0.1564E+00  0.1564E+00
     -5.212  0.2183E-01  0.2183E-01  0.1586E+00  0.1586E+00
     -5.108  0.1463E-01  0.1463E-01  0.1602E+00  0.1602E+00
     -5.004  0.1088E-01  0.1088E-01  0.1613E+00  0.1613E+00
     -4.901  0.1455E-01  0.1455E-01  0.1628E+00  0.1628E+00
     -4.797  0.1550E-01  0.1550E-01  0.1644E+00  0.1644E+00
     -4.693  0.1320E-01  0.1320E-01  0.1658E+00  0.1658E+00
     -4.589  0.1051E-01  0.1051E-01  0.1669E+00  0.1669E+00
     -4.486  0.1127E-01  0.1127E-01  0.1680E+00  0.1680E+00
     -4.382  0.2013E-01  0.2013E-01  0.1701E+00  0.1701E+00
     -4.278  0.2492E-01  0.2492E-01  0.1727E+00  0.1727E+00
     -4.174  0.1787E-01  0.1787E-01  0.1746E+00  0.1746E+00
     -4.071  0.1470E-01  0.1470E-01  0.1761E+00  0.1761E+00
     -3.967  0.1991E-01  0.1991E-01  0.1782E+00  0.1782E+00
     -3.863  0.2522E-01  0.2522E-01  0.1808E+00  0.1808E+00
     -3.759  0.2540E-01  0.2540E-01  0.1834E+00  0.1834E+00
     -3.656  0.2699E-01  0.2699E-01  0.1862E+00  0.1862E+00
     -3.552  0.2691E-01  0.2691E-01  0.1890E+00  0.1890E+00
     -3.448  0.2075E-01  0.2075E-01  0.1911E+00  0.1911E+00
     -3.344  0.1591E-01  0.1591E-01  0.1928E+00  0.1928E+00
     -3.241  0.1208E-01  0.1208E-01  0.1941E+00  0.1941E+00
     -3.137  0.1097E-01  0.1097E-01  0.1952E+00  0.1952E+00
     -3.033  0.1048E-01  0.1048E-01  0.1963E+00  0.1963E+00
     -2.929  0.1549E-01  0.1549E-01  0.1979E+00  0.1979E+00
     -2.826  0.1498E-01  0.1498E-01  0.1994E+00  0.1994E+00
     -2.722  0.1072E-01  0.1072E-01  0.2006E+00  0.2006E+00
     -2.618  0.8966E-02  0.8966E-02  0.2015E+00  0.2015E+00
     -2.514  0.1147E-01  0.1147E-01  0.2027E+00  0.2027E+00
     -2.411  0.1638E-01  0.1638E-01  0.2044E+00  0.2044E+00
     -2.307  0.1589E-01  0.1589E-01  0.2060E+00  0.2060E+00
     -2.203  0.8592E-02  0.8592E-02  0.2069E+00  0.2069E+00
     -2.099  0.9786E-02  0.9786E-02  0.2079E+00  0.2079E+00
     -1.996  0.7117E-02  0.7117E-02  0.2087E+00  0.2087E+00
     -1.892  0.7248E-02  0.7248E-02  0.2094E+00  0.2094E+00
     -1.788  0.7148E-02  0.7148E-02  0.2102E+00  0.2102E+00
     -1.684  0.8577E-02  0.8577E-02  0.2110E+00  0.2110E+00
     -1.581  0.9693E-02  0.9693E-02  0.2121E+00  0.2121E+00
     -1.477  0.9530E-02  0.9530E-02  0.2130E+00  0.2130E+00
     -1.373  0.8037E-02  0.8037E-02  0.2139E+00  0.2139E+00
     -1.269  0.5355E-02  0.5355E-02  0.2144E+00  0.2144E+00
     -1.166  0.5524E-02  0.5524E-02  0.2150E+00  0.2150E+00
     -1.062  0.5224E-02  0.5224E-02  0.2155E+00  0.2155E+00
     -0.958  0.8274E-02  0.8274E-02  0.2164E+00  0.2164E+00
     -0.854  0.6929E-02  0.6929E-02  0.2171E+00  0.2171E+00
     -0.751  0.3015E-02  0.3015E-02  0.2174E+00  0.2174E+00
     -0.647  0.1215E-02  0.1215E-02  0.2176E+00  0.2176E+00
     -0.543  0.1844E-02  0.1844E-02  0.2178E+00  0.2178E+00
     -0.439  0.3708E-02  0.3708E-02  0.2181E+00  0.2181E+00
     -0.336  0.3338E-02  0.3338E-02  0.2185E+00  0.2185E+00
     -0.232  0.3349E-02  0.3349E-02  0.2188E+00  0.2188E+00
     -0.128  0.3419E-02  0.3419E-02  0.2192E+00  0.2192E+00
     -0.024  0.3480E-02  0.3480E-02  0.2195E+00  0.2195E+00
      0.079  0.2597E-02  0.2597E-02  0.2198E+00  0.2198E+00
      0.183  0.3399E-02  0.3399E-02  0.2202E+00  0.2202E+00
      0.287  0.8190E-02  0.8190E-02  0.2210E+00  0.2210E+00
      0.391  0.1228E-01  0.1228E-01  0.2223E+00  0.2223E+00
      0.494  0.1138E-01  0.1138E-01  0.2235E+00  0.2235E+00
      0.598  0.8381E-02  0.8381E-02  0.2243E+00  0.2243E+00
      0.702  0.3114E-02  0.3114E-02  0.2247E+00  0.2247E+00
      0.806  0.5293E-02  0.5293E-02  0.2252E+00  0.2252E+00
      0.909  0.1194E-01  0.1194E-01  0.2265E+00  0.2265E+00
      1.013  0.8067E-02  0.8067E-02  0.2273E+00  0.2273E+00
      1.117  0.3486E-02  0.3486E-02  0.2277E+00  0.2277E+00
      1.221  0.7294E-02  0.7294E-02  0.2284E+00  0.2284E+00
      1.324  0.1413E-01  0.1413E-01  0.2299E+00  0.2299E+00
      1.428  0.1517E-01  0.1517E-01  0.2315E+00  0.2315E+00
      1.532  0.1298E-01  0.1298E-01  0.2328E+00  0.2328E+00
      1.636  0.1128E-01  0.1128E-01  0.2340E+00  0.2340E+00
      1.739  0.9407E-02  0.9407E-02  0.2349E+00  0.2349E+00
      1.843  0.1007E-01  0.1007E-01  0.2360E+00  0.2360E+00
      1.947  0.1025E-01  0.1025E-01  0.2371E+00  0.2371E+00
      2.051  0.1141E-01  0.1141E-01  0.2382E+00  0.2382E+00
      2.154  0.1412E-01  0.1412E-01  0.2397E+00  0.2397E+00
      2.258  0.7991E-02  0.7991E-02  0.2405E+00  0.2405E+00
      2.362  0.7080E-02  0.7080E-02  0.2413E+00  0.2413E+00
      2.466  0.1110E-01  0.1110E-01  0.2424E+00  0.2424E+00
      2.569  0.8112E-02  0.8112E-02  0.2433E+00  0.2433E+00
      2.673  0.1384E-01  0.1384E-01  0.2447E+00  0.2447E+00
      2.777  0.1347E-01  0.1347E-01  0.2461E+00  0.2461E+00
      2.881  0.1080E-01  0.1080E-01  0.2472E+00  0.2472E+00
      2.984  0.1042E-01  0.1042E-01  0.2483E+00  0.2483E+00
      3.088  0.9731E-02  0.9733E-02  0.2493E+00  0.2493E+00
      3.192  0.1094E-01  0.1094E-01  0.2504E+00  0.2504E+00
      3.296  0.2017E-01  0.2017E-01  0.2525E+00  0.2525E+00
      3.399  0.1998E-01  0.1998E-01  0.2546E+00  0.2546E+00
      3.503  0.1733E-01  0.1733E-01  0.2564E+00  0.2564E+00
      3.607  0.1175E-01  0.1176E-01  0.2576E+00  0.2576E+00
      3.711  0.1549E-01  0.1549E-01  0.2592E+00  0.2592E+00
      3.814  0.2404E-01  0.2404E-01  0.2617E+00  0.2617E+00
      3.918  0.2271E-01  0.2271E-01  0.2641E+00  0.2641E+00
      4.022  0.1942E-01  0.1942E-01  0.2661E+00  0.2661E+00
      4.126  0.1681E-01  0.1681E-01  0.2678E+00  0.2678E+00
      4.229  0.1661E-01  0.1661E-01  0.2696E+00  0.2696E+00
      4.333  0.2098E-01  0.2098E-01  0.2717E+00  0.2717E+00
      4.437  0.2801E-01  0.2801E-01  0.2746E+00  0.2746E+00
      4.541  0.2152E-01  0.2152E-01  0.2769E+00  0.2769E+00
      4.644  0.2021E-01  0.2022E-01  0.2790E+00  0.2790E+00
      4.748  0.2947E-01  0.2948E-01  0.2820E+00  0.2820E+00
      4.852  0.2714E-01  0.2714E-01  0.2848E+00  0.2848E+00
      4.956  0.1985E-01  0.1985E-01  0.2869E+00  0.2869E+00
      5.059  0.1994E-01  0.1995E-01  0.2890E+00  0.2890E+00
      5.163  0.3188E-01  0.3188E-01  0.2923E+00  0.2923E+00
      5.267  0.3185E-01  0.3184E-01  0.2956E+00  0.2956E+00
      5.370  0.2664E-01  0.2664E-01  0.2983E+00  0.2984E+00
      5.474  0.2466E-01  0.2467E-01  0.3009E+00  0.3009E+00
      5.578  0.2425E-01  0.2425E-01  0.3034E+00  0.3034E+00
      5.682  0.2568E-01  0.2567E-01  0.3061E+00  0.3061E+00
      5.785  0.2553E-01  0.2553E-01  0.3087E+00  0.3087E+00
      5.889  0.2302E-01  0.2302E-01  0.3111E+00  0.3111E+00
      5.993  0.2309E-01  0.2309E-01  0.3135E+00  0.3135E+00
      6.097  0.2040E-01  0.2041E-01  0.3156E+00  0.3156E+00
      6.200  0.2157E-01  0.2156E-01  0.3179E+00  0.3179E+00
      6.304  0.1893E-01  0.1893E-01  0.3198E+00  0.3198E+00
      6.408  0.1948E-01  0.1948E-01  0.3219E+00  0.3219E+00
      6.512  0.1980E-01  0.1981E-01  0.3239E+00  0.3239E+00
      6.615  0.2158E-01  0.2158E-01  0.3262E+00  0.3262E+00
      6.719  0.2080E-01  0.2080E-01  0.3283E+00  0.3283E+00
      6.823  0.2581E-01  0.2583E-01  0.3310E+00  0.3310E+00
      6.927  0.2938E-01  0.2938E-01  0.3340E+00  0.3340E+00
      7.030  0.2946E-01  0.2945E-01  0.3371E+00  0.3371E+00
      7.134  0.2599E-01  0.2599E-01  0.3398E+00  0.3398E+00
      7.238  0.2717E-01  0.2717E-01  0.3426E+00  0.3426E+00
      7.342  0.3189E-01  0.3190E-01  0.3459E+00  0.3459E+00
      7.445  0.3707E-01  0.3707E-01  0.3498E+00  0.3498E+00
      7.549  0.2933E-01  0.2932E-01  0.3528E+00  0.3528E+00
      7.653  0.3447E-01  0.3447E-01  0.3564E+00  0.3564E+00
      7.757  0.4025E-01  0.4025E-01  0.3606E+00  0.3606E+00
      7.860  0.3267E-01  0.3267E-01  0.3639E+00  0.3639E+00
      7.964  0.3083E-01  0.3083E-01  0.3671E+00  0.3671E+00
      8.068  0.3140E-01  0.3139E-01  0.3704E+00  0.3704E+00
      8.172  0.2266E-01  0.2265E-01  0.3728E+00  0.3728E+00
      8.275  0.1454E-01  0.1454E-01  0.3743E+00  0.3743E+00
      8.379  0.5708E-02  0.5701E-02  0.3749E+00  0.3749E+00
      8.483  0.1004E-02  0.1003E-02  0.3750E+00  0.3750E+00
      8.587  0.3099E-03  0.3099E-03  0.3750E+00  0.3750E+00
      8.690  0.8759E-04  0.8756E-04  0.3750E+00  0.3750E+00
      8.794  0.4248E-05  0.4245E-05  0.3750E+00  0.3750E+00
      8.898  0.2865E-07  0.2863E-07  0.3750E+00  0.3750E+00
      9.002  0.2493E-10  0.2490E-10  0.3750E+00  0.3750E+00
      9.105  0.2686E-14  0.2683E-14  0.3750E+00  0.3750E+00
      9.209  0.0000E+00  0.0000E+00  0.3750E+00  0.3750E+00
      9.313  0.0000E+00  0.0000E+00  0.3750E+00  0.3750E+00
      9.417  0.0000E+00  0.0000E+00  0.3750E+00  0.3750E+00
      9.520  0.0000E+00  0.0000E+00  0.3750E+00  0.3750E+00
      9.624  0.0000E+00  0.0000E+00  0.3750E+00  0.3750E+00
      9.728  0.0000E+00  0.0000E+00  0.3750E+00  0.3750E+00
      9.832  0.0000E+00  0.0000E+00  0.3750E+00  0.3750E+00
      9.935  0.0000E+00  0.0000E+00  0.3750E+00  0.3750E+00
