  15  15   0   4
  0.2032071E+02  0.4844000E-09  0.4844000E-09  0.1500000E-08  0.5000000E-15
  1.000000000000000E-004
  CAR 
 Lattice                                 
     10.29665844    -21.66455995  301     -0.27553317      1.00000000
    -21.665  0.0000E+00  0.0000E+00  0.0000E+00  0.0000E+00
    -21.558  0.0000E+00  0.0000E+00  0.0000E+00  0.0000E+00
    -21.451  0.0000E+00  0.0000E+00  0.0000E+00  0.0000E+00
    -21.345  0.0000E+00  0.0000E+00  0.0000E+00  0.0000E+00
    -21.238  0.0000E+00  0.0000E+00  0.0000E+00  0.0000E+00
    -21.132  0.0000E+00  0.0000E+00  0.0000E+00  0.0000E+00
    -21.025  0.0000E+00  0.0000E+00  0.0000E+00  0.0000E+00
    -20.919  0.0000E+00  0.0000E+00  0.0000E+00  0.0000E+00
    -20.812  0.0000E+00  0.0000E+00  0.0000E+00  0.0000E+00
    -20.706  0.7739E-15  0.7739E-15  0.8244E-16  0.8244E-16
    -20.599  0.1276E-10  0.1276E-10  0.1360E-11  0.1360E-11
    -20.493  0.2554E-07  0.2554E-07  0.2723E-08  0.2723E-08
    -20.386  0.6821E-05  0.6821E-05  0.7294E-06  0.7294E-06
    -20.280  0.2715E-03  0.2715E-03  0.2965E-04  0.2965E-04
    -20.173  0.1971E-02  0.1971E-02  0.2396E-03  0.2396E-03
    -20.066  0.4143E-02  0.4143E-02  0.6810E-03  0.6810E-03
    -19.960  0.4511E-02  0.4511E-02  0.1162E-02  0.1162E-02
    -19.853  0.4933E-02  0.4933E-02  0.1687E-02  0.1687E-02
    -19.747  0.4147E-02  0.4147E-02  0.2129E-02  0.2129E-02
    -19.640  0.5365E-02  0.5365E-02  0.2700E-02  0.2700E-02
    -19.534  0.4243E-02  0.4243E-02  0.3152E-02  0.3152E-02
    -19.427  0.4202E-02  0.4202E-02  0.3600E-02  0.3600E-02
    -19.321  0.6006E-02  0.6006E-02  0.4240E-02  0.4240E-02
    -19.214  0.3875E-02  0.3875E-02  0.4653E-02  0.4653E-02
    -19.108  0.3796E-02  0.3796E-02  0.5057E-02  0.5057E-02
    -19.001  0.6083E-02  0.6083E-02  0.5705E-02  0.5705E-02
    -18.895  0.5268E-02  0.5268E-02  0.6267E-02  0.6267E-02
    -18.788  0.3025E-02  0.3025E-02  0.6589E-02  0.6589E-02
    -18.682  0.4189E-02  0.4189E-02  0.7035E-02  0.7035E-02
    -18.575  0.6928E-02  0.6928E-02  0.7773E-02  0.7773E-02
    -18.468  0.4665E-02  0.4665E-02  0.8270E-02  0.8270E-02
    -18.362  0.3825E-02  0.3825E-02  0.8678E-02  0.8678E-02
    -18.255  0.2918E-02  0.2918E-02  0.8989E-02  0.8989E-02
    -18.149  0.6399E-02  0.6399E-02  0.9670E-02  0.9670E-02
    -18.042  0.6766E-02  0.6766E-02  0.1039E-01  0.1039E-01
    -17.936  0.3696E-02  0.3696E-02  0.1078E-01  0.1078E-01
    -17.829  0.3183E-02  0.3183E-02  0.1112E-01  0.1112E-01
    -17.723  0.4057E-02  0.4057E-02  0.1156E-01  0.1156E-01
    -17.616  0.5997E-02  0.5997E-02  0.1220E-01  0.1220E-01
    -17.510  0.7038E-02  0.7038E-02  0.1294E-01  0.1294E-01
    -17.403  0.6898E-02  0.6898E-02  0.1368E-01  0.1368E-01
    -17.297  0.8314E-02  0.8314E-02  0.1457E-01  0.1457E-01
    -17.190  0.1044E-01  0.1044E-01  0.1568E-01  0.1568E-01
    -17.083  0.1481E-01  0.1481E-01  0.1726E-01  0.1726E-01
    -16.977  0.1655E-01  0.1655E-01  0.1902E-01  0.1902E-01
    -16.870  0.1926E-01  0.1926E-01  0.2107E-01  0.2107E-01
    -16.764  0.2099E-01  0.2099E-01  0.2331E-01  0.2331E-01
    -16.657  0.1190E-01  0.1190E-01  0.2457E-01  0.2457E-01
    -16.551  0.2927E-02  0.2927E-02  0.2489E-01  0.2489E-01
    -16.444  0.6427E-02  0.6427E-02  0.2557E-01  0.2557E-01
    -16.338  0.8549E-02  0.8549E-02  0.2648E-01  0.2648E-01
    -16.231  0.4723E-02  0.4723E-02  0.2699E-01  0.2699E-01
    -16.125  0.4218E-02  0.4218E-02  0.2743E-01  0.2743E-01
    -16.018  0.3800E-02  0.3800E-02  0.2784E-01  0.2784E-01
    -15.912  0.3956E-02  0.3956E-02  0.2826E-01  0.2826E-01
    -15.805  0.3357E-02  0.3357E-02  0.2862E-01  0.2862E-01
    -15.698  0.7515E-02  0.7515E-02  0.2942E-01  0.2942E-01
    -15.592  0.8538E-02  0.8538E-02  0.3033E-01  0.3033E-01
    -15.485  0.4238E-02  0.4238E-02  0.3078E-01  0.3078E-01
    -15.379  0.3865E-02  0.3865E-02  0.3119E-01  0.3119E-01
    -15.272  0.3337E-02  0.3337E-02  0.3155E-01  0.3155E-01
    -15.166  0.4418E-02  0.4418E-02  0.3202E-01  0.3202E-01
    -15.059  0.6435E-02  0.6435E-02  0.3270E-01  0.3270E-01
    -14.953  0.1270E-01  0.1270E-01  0.3406E-01  0.3406E-01
    -14.846  0.1890E-01  0.1890E-01  0.3607E-01  0.3607E-01
    -14.740  0.1912E-01  0.1912E-01  0.3811E-01  0.3811E-01
    -14.633  0.1589E-01  0.1589E-01  0.3980E-01  0.3980E-01
    -14.527  0.1060E-01  0.1060E-01  0.4093E-01  0.4093E-01
    -14.420  0.8293E-02  0.8293E-02  0.4181E-01  0.4181E-01
    -14.313  0.1314E-01  0.1314E-01  0.4321E-01  0.4321E-01
    -14.207  0.1620E-01  0.1620E-01  0.4494E-01  0.4494E-01
    -14.100  0.1328E-01  0.1328E-01  0.4635E-01  0.4635E-01
    -13.994  0.1058E-01  0.1058E-01  0.4748E-01  0.4748E-01
    -13.887  0.1423E-01  0.1423E-01  0.4900E-01  0.4900E-01
    -13.781  0.1904E-01  0.1904E-01  0.5103E-01  0.5103E-01
    -13.674  0.1780E-01  0.1780E-01  0.5292E-01  0.5292E-01
    -13.568  0.1709E-01  0.1709E-01  0.5474E-01  0.5474E-01
    -13.461  0.9596E-02  0.9596E-02  0.5577E-01  0.5577E-01
    -13.355  0.5855E-02  0.5855E-02  0.5639E-01  0.5639E-01
    -13.248  0.3526E-02  0.3526E-02  0.5677E-01  0.5677E-01
    -13.142  0.3582E-02  0.3582E-02  0.5715E-01  0.5715E-01
    -13.035  0.6323E-02  0.6323E-02  0.5782E-01  0.5782E-01
    -12.928  0.7310E-02  0.7310E-02  0.5860E-01  0.5860E-01
    -12.822  0.4885E-02  0.4885E-02  0.5912E-01  0.5912E-01
    -12.715  0.6231E-02  0.6231E-02  0.5978E-01  0.5978E-01
    -12.609  0.7299E-02  0.7299E-02  0.6056E-01  0.6056E-01
    -12.502  0.5709E-02  0.5709E-02  0.6117E-01  0.6117E-01
    -12.396  0.5585E-02  0.5585E-02  0.6176E-01  0.6176E-01
    -12.289  0.3645E-02  0.3645E-02  0.6215E-01  0.6215E-01
    -12.183  0.5202E-02  0.5202E-02  0.6271E-01  0.6271E-01
    -12.076  0.8477E-02  0.8477E-02  0.6361E-01  0.6361E-01
    -11.970  0.4248E-02  0.4248E-02  0.6406E-01  0.6406E-01
    -11.863  0.3067E-02  0.3067E-02  0.6439E-01  0.6439E-01
    -11.757  0.3436E-02  0.3436E-02  0.6476E-01  0.6476E-01
    -11.650  0.5050E-02  0.5050E-02  0.6529E-01  0.6529E-01
    -11.544  0.7070E-02  0.7070E-02  0.6605E-01  0.6605E-01
    -11.437  0.4701E-02  0.4701E-02  0.6655E-01  0.6655E-01
    -11.330  0.1838E-02  0.1838E-02  0.6674E-01  0.6674E-01
    -11.224  0.3930E-02  0.3930E-02  0.6716E-01  0.6716E-01
    -11.117  0.5827E-02  0.5827E-02  0.6778E-01  0.6778E-01
    -11.011  0.5300E-02  0.5300E-02  0.6835E-01  0.6835E-01
    -10.904  0.6844E-02  0.6844E-02  0.6908E-01  0.6908E-01
    -10.798  0.7488E-02  0.7488E-02  0.6987E-01  0.6987E-01
    -10.691  0.3254E-02  0.3254E-02  0.7022E-01  0.7022E-01
    -10.585  0.8019E-02  0.8019E-02  0.7108E-01  0.7108E-01
    -10.478  0.1391E-01  0.1391E-01  0.7256E-01  0.7256E-01
    -10.372  0.1515E-01  0.1515E-01  0.7417E-01  0.7417E-01
    -10.265  0.1528E-01  0.1528E-01  0.7580E-01  0.7580E-01
    -10.159  0.1594E-01  0.1594E-01  0.7750E-01  0.7750E-01
    -10.052  0.1710E-01  0.1710E-01  0.7932E-01  0.7932E-01
     -9.945  0.1580E-01  0.1580E-01  0.8100E-01  0.8100E-01
     -9.839  0.1060E-01  0.1060E-01  0.8213E-01  0.8213E-01
     -9.732  0.1032E-01  0.1032E-01  0.8323E-01  0.8323E-01
     -9.626  0.1329E-01  0.1329E-01  0.8465E-01  0.8465E-01
     -9.519  0.1115E-01  0.1115E-01  0.8583E-01  0.8583E-01
     -9.413  0.1636E-01  0.1636E-01  0.8758E-01  0.8758E-01
     -9.306  0.1973E-01  0.1973E-01  0.8968E-01  0.8968E-01
     -9.200  0.1362E-01  0.1362E-01  0.9113E-01  0.9113E-01
     -9.093  0.9030E-02  0.9030E-02  0.9209E-01  0.9209E-01
     -8.987  0.6755E-02  0.6755E-02  0.9281E-01  0.9281E-01
     -8.880  0.1683E-01  0.1683E-01  0.9461E-01  0.9461E-01
     -8.774  0.2130E-01  0.2130E-01  0.9688E-01  0.9688E-01
     -8.667  0.1287E-01  0.1287E-01  0.9825E-01  0.9825E-01
     -8.560  0.8278E-02  0.8278E-02  0.9913E-01  0.9913E-01
     -8.454  0.1212E-01  0.1212E-01  0.1004E+00  0.1004E+00
     -8.347  0.1889E-01  0.1889E-01  0.1024E+00  0.1024E+00
     -8.241  0.1730E-01  0.1730E-01  0.1043E+00  0.1043E+00
     -8.134  0.1331E-01  0.1331E-01  0.1057E+00  0.1057E+00
     -8.028  0.1739E-01  0.1739E-01  0.1075E+00  0.1075E+00
     -7.921  0.2287E-01  0.2287E-01  0.1100E+00  0.1100E+00
     -7.815  0.2451E-01  0.2451E-01  0.1126E+00  0.1126E+00
     -7.708  0.1934E-01  0.1934E-01  0.1147E+00  0.1147E+00
     -7.602  0.1151E-01  0.1151E-01  0.1159E+00  0.1159E+00
     -7.495  0.6797E-02  0.6797E-02  0.1166E+00  0.1166E+00
     -7.389  0.1581E-01  0.1581E-01  0.1183E+00  0.1183E+00
     -7.282  0.1901E-01  0.1901E-01  0.1203E+00  0.1203E+00
     -7.175  0.1341E-01  0.1341E-01  0.1217E+00  0.1217E+00
     -7.069  0.1107E-01  0.1107E-01  0.1229E+00  0.1229E+00
     -6.962  0.1532E-01  0.1532E-01  0.1246E+00  0.1246E+00
     -6.856  0.1816E-01  0.1816E-01  0.1265E+00  0.1265E+00
     -6.749  0.1907E-01  0.1907E-01  0.1285E+00  0.1285E+00
     -6.643  0.2245E-01  0.2245E-01  0.1309E+00  0.1309E+00
     -6.536  0.1991E-01  0.1991E-01  0.1330E+00  0.1330E+00
     -6.430  0.2151E-01  0.2151E-01  0.1353E+00  0.1353E+00
     -6.323  0.1783E-01  0.1783E-01  0.1372E+00  0.1372E+00
     -6.217  0.1801E-01  0.1801E-01  0.1391E+00  0.1391E+00
     -6.110  0.2566E-01  0.2566E-01  0.1419E+00  0.1419E+00
     -6.004  0.2522E-01  0.2522E-01  0.1446E+00  0.1446E+00
     -5.897  0.3036E-01  0.3036E-01  0.1478E+00  0.1478E+00
     -5.790  0.2666E-01  0.2666E-01  0.1506E+00  0.1506E+00
     -5.684  0.1924E-01  0.1924E-01  0.1527E+00  0.1527E+00
     -5.577  0.2106E-01  0.2106E-01  0.1549E+00  0.1549E+00
     -5.471  0.3244E-01  0.3244E-01  0.1584E+00  0.1584E+00
     -5.364  0.3418E-01  0.3418E-01  0.1620E+00  0.1620E+00
     -5.258  0.2074E-01  0.2074E-01  0.1642E+00  0.1642E+00
     -5.151  0.1626E-01  0.1626E-01  0.1660E+00  0.1660E+00
     -5.045  0.1078E-01  0.1078E-01  0.1671E+00  0.1671E+00
     -4.938  0.1030E-01  0.1030E-01  0.1682E+00  0.1682E+00
     -4.832  0.1361E-01  0.1361E-01  0.1697E+00  0.1697E+00
     -4.725  0.1163E-01  0.1163E-01  0.1709E+00  0.1709E+00
     -4.619  0.8055E-02  0.8055E-02  0.1718E+00  0.1718E+00
     -4.512  0.8644E-02  0.8644E-02  0.1727E+00  0.1727E+00
     -4.406  0.1540E-01  0.1540E-01  0.1743E+00  0.1743E+00
     -4.299  0.2412E-01  0.2412E-01  0.1769E+00  0.1769E+00
     -4.192  0.2240E-01  0.2240E-01  0.1793E+00  0.1793E+00
     -4.086  0.1722E-01  0.1722E-01  0.1811E+00  0.1811E+00
     -3.979  0.1885E-01  0.1885E-01  0.1831E+00  0.1831E+00
     -3.873  0.2462E-01  0.2462E-01  0.1857E+00  0.1857E+00
     -3.766  0.1950E-01  0.1950E-01  0.1878E+00  0.1878E+00
     -3.660  0.1929E-01  0.1929E-01  0.1899E+00  0.1899E+00
     -3.553  0.1991E-01  0.1991E-01  0.1920E+00  0.1920E+00
     -3.447  0.1647E-01  0.1647E-01  0.1938E+00  0.1938E+00
     -3.340  0.1247E-01  0.1247E-01  0.1951E+00  0.1951E+00
     -3.234  0.1259E-01  0.1259E-01  0.1964E+00  0.1964E+00
     -3.127  0.1789E-01  0.1789E-01  0.1983E+00  0.1983E+00
     -3.021  0.1772E-01  0.1772E-01  0.2002E+00  0.2002E+00
     -2.914  0.1235E-01  0.1235E-01  0.2015E+00  0.2015E+00
     -2.807  0.1234E-01  0.1234E-01  0.2029E+00  0.2029E+00
     -2.701  0.8582E-02  0.8582E-02  0.2038E+00  0.2038E+00
     -2.594  0.9438E-02  0.9438E-02  0.2048E+00  0.2048E+00
     -2.488  0.1627E-01  0.1627E-01  0.2065E+00  0.2065E+00
     -2.381  0.1776E-01  0.1776E-01  0.2084E+00  0.2084E+00
     -2.275  0.5668E-02  0.5668E-02  0.2090E+00  0.2090E+00
     -2.168  0.5232E-02  0.5232E-02  0.2096E+00  0.2096E+00
     -2.062  0.9450E-02  0.9450E-02  0.2106E+00  0.2106E+00
     -1.955  0.9263E-02  0.9263E-02  0.2116E+00  0.2116E+00
     -1.849  0.1047E-01  0.1047E-01  0.2127E+00  0.2127E+00
     -1.742  0.1099E-01  0.1099E-01  0.2138E+00  0.2138E+00
     -1.636  0.1033E-01  0.1033E-01  0.2149E+00  0.2149E+00
     -1.529  0.8773E-02  0.8773E-02  0.2159E+00  0.2159E+00
     -1.422  0.3821E-02  0.3821E-02  0.2163E+00  0.2163E+00
     -1.316  0.3931E-02  0.3931E-02  0.2167E+00  0.2167E+00
     -1.209  0.4611E-02  0.4611E-02  0.2172E+00  0.2172E+00
     -1.103  0.3082E-02  0.3082E-02  0.2175E+00  0.2175E+00
     -0.996  0.4838E-02  0.4838E-02  0.2180E+00  0.2180E+00
     -0.890  0.4450E-02  0.4450E-02  0.2185E+00  0.2185E+00
     -0.783  0.1144E-02  0.1144E-02  0.2186E+00  0.2186E+00
     -0.677  0.1047E-03  0.1047E-03  0.2186E+00  0.2186E+00
     -0.570  0.2303E-05  0.2303E-05  0.2186E+00  0.2186E+00
     -0.464  0.7936E-05  0.7936E-05  0.2186E+00  0.2186E+00
     -0.357  0.2454E-03  0.2454E-03  0.2187E+00  0.2187E+00
     -0.251  0.1046E-02  0.1046E-02  0.2188E+00  0.2188E+00
     -0.144  0.6731E-03  0.6731E-03  0.2189E+00  0.2189E+00
     -0.037  0.6326E-04  0.6326E-04  0.2189E+00  0.2189E+00
      0.069  0.7776E-06  0.7776E-06  0.2189E+00  0.2189E+00
      0.176  0.2645E-05  0.2645E-05  0.2189E+00  0.2189E+00
      0.282  0.2056E-03  0.2056E-03  0.2189E+00  0.2189E+00
      0.389  0.2087E-02  0.2087E-02  0.2191E+00  0.2191E+00
      0.495  0.3112E-02  0.3112E-02  0.2194E+00  0.2194E+00
      0.602  0.1226E-02  0.1226E-02  0.2196E+00  0.2196E+00
      0.708  0.3867E-02  0.3867E-02  0.2200E+00  0.2200E+00
      0.815  0.7107E-02  0.7107E-02  0.2207E+00  0.2207E+00
      0.921  0.1188E-01  0.1188E-01  0.2220E+00  0.2220E+00
      1.028  0.2355E-01  0.2355E-01  0.2245E+00  0.2245E+00
      1.134  0.1833E-01  0.1833E-01  0.2265E+00  0.2265E+00
      1.241  0.4370E-02  0.4370E-02  0.2269E+00  0.2269E+00
      1.348  0.9615E-03  0.9615E-03  0.2270E+00  0.2270E+00
      1.454  0.4024E-02  0.4024E-02  0.2275E+00  0.2275E+00
      1.561  0.1370E-01  0.1370E-01  0.2289E+00  0.2289E+00
      1.667  0.2059E-01  0.2059E-01  0.2311E+00  0.2311E+00
      1.774  0.1494E-01  0.1494E-01  0.2327E+00  0.2327E+00
      1.880  0.9880E-02  0.9880E-02  0.2338E+00  0.2338E+00
      1.987  0.8640E-02  0.8640E-02  0.2347E+00  0.2347E+00
      2.093  0.9931E-02  0.9931E-02  0.2357E+00  0.2357E+00
      2.200  0.7128E-02  0.7128E-02  0.2365E+00  0.2365E+00
      2.306  0.8924E-02  0.8924E-02  0.2374E+00  0.2374E+00
      2.413  0.6487E-02  0.6487E-02  0.2381E+00  0.2381E+00
      2.519  0.5814E-02  0.5814E-02  0.2388E+00  0.2388E+00
      2.626  0.1346E-01  0.1346E-01  0.2402E+00  0.2402E+00
      2.733  0.1037E-01  0.1037E-01  0.2413E+00  0.2413E+00
      2.839  0.5071E-02  0.5071E-02  0.2418E+00  0.2418E+00
      2.946  0.6288E-02  0.6288E-02  0.2425E+00  0.2425E+00
      3.052  0.9833E-02  0.9833E-02  0.2436E+00  0.2436E+00
      3.159  0.1224E-01  0.1224E-01  0.2449E+00  0.2449E+00
      3.265  0.9615E-02  0.9615E-02  0.2459E+00  0.2459E+00
      3.372  0.1064E-01  0.1064E-01  0.2470E+00  0.2470E+00
      3.478  0.8200E-02  0.8200E-02  0.2479E+00  0.2479E+00
      3.585  0.1599E-01  0.1599E-01  0.2496E+00  0.2496E+00
      3.691  0.2406E-01  0.2406E-01  0.2522E+00  0.2522E+00
      3.798  0.2416E-01  0.2416E-01  0.2547E+00  0.2547E+00
      3.904  0.2208E-01  0.2208E-01  0.2571E+00  0.2571E+00
      4.011  0.2154E-01  0.2154E-01  0.2594E+00  0.2594E+00
      4.117  0.2612E-01  0.2612E-01  0.2622E+00  0.2622E+00
      4.224  0.2667E-01  0.2667E-01  0.2650E+00  0.2650E+00
      4.331  0.2317E-01  0.2317E-01  0.2675E+00  0.2675E+00
      4.437  0.2415E-01  0.2415E-01  0.2700E+00  0.2700E+00
      4.544  0.2337E-01  0.2337E-01  0.2725E+00  0.2725E+00
      4.650  0.1912E-01  0.1912E-01  0.2746E+00  0.2746E+00
      4.757  0.2600E-01  0.2600E-01  0.2773E+00  0.2773E+00
      4.863  0.2842E-01  0.2842E-01  0.2804E+00  0.2804E+00
      4.970  0.2192E-01  0.2192E-01  0.2827E+00  0.2827E+00
      5.076  0.2389E-01  0.2389E-01  0.2852E+00  0.2852E+00
      5.183  0.2604E-01  0.2604E-01  0.2880E+00  0.2880E+00
      5.289  0.2125E-01  0.2125E-01  0.2903E+00  0.2903E+00
      5.396  0.2143E-01  0.2143E-01  0.2926E+00  0.2926E+00
      5.502  0.2377E-01  0.2377E-01  0.2951E+00  0.2951E+00
      5.609  0.2843E-01  0.2843E-01  0.2981E+00  0.2981E+00
      5.716  0.2206E-01  0.2206E-01  0.3005E+00  0.3005E+00
      5.822  0.2153E-01  0.2153E-01  0.3028E+00  0.3028E+00
      5.929  0.2009E-01  0.2009E-01  0.3049E+00  0.3049E+00
      6.035  0.2145E-01  0.2145E-01  0.3072E+00  0.3072E+00
      6.142  0.1645E-01  0.1645E-01  0.3090E+00  0.3090E+00
      6.248  0.1651E-01  0.1651E-01  0.3107E+00  0.3107E+00
      6.355  0.2291E-01  0.2291E-01  0.3132E+00  0.3132E+00
      6.461  0.2358E-01  0.2358E-01  0.3157E+00  0.3157E+00
      6.568  0.2558E-01  0.2558E-01  0.3184E+00  0.3184E+00
      6.674  0.2574E-01  0.2574E-01  0.3211E+00  0.3211E+00
      6.781  0.3397E-01  0.3397E-01  0.3247E+00  0.3247E+00
      6.887  0.2889E-01  0.2889E-01  0.3278E+00  0.3278E+00
      6.994  0.2499E-01  0.2499E-01  0.3305E+00  0.3305E+00
      7.101  0.2532E-01  0.2532E-01  0.3332E+00  0.3332E+00
      7.207  0.2165E-01  0.2165E-01  0.3355E+00  0.3355E+00
      7.314  0.1754E-01  0.1754E-01  0.3374E+00  0.3374E+00
      7.420  0.2179E-01  0.2179E-01  0.3397E+00  0.3397E+00
      7.527  0.2329E-01  0.2329E-01  0.3422E+00  0.3422E+00
      7.633  0.2125E-01  0.2125E-01  0.3444E+00  0.3444E+00
      7.740  0.2610E-01  0.2610E-01  0.3472E+00  0.3472E+00
      7.846  0.3158E-01  0.3158E-01  0.3506E+00  0.3506E+00
      7.953  0.3185E-01  0.3185E-01  0.3540E+00  0.3540E+00
      8.059  0.3154E-01  0.3154E-01  0.3573E+00  0.3573E+00
      8.166  0.3257E-01  0.3257E-01  0.3608E+00  0.3608E+00
      8.272  0.2772E-01  0.2772E-01  0.3638E+00  0.3637E+00
      8.379  0.3470E-01  0.3470E-01  0.3674E+00  0.3674E+00
      8.486  0.3503E-01  0.3504E-01  0.3712E+00  0.3712E+00
      8.592  0.1834E-01  0.1834E-01  0.3731E+00  0.3731E+00
      8.699  0.9613E-02  0.9614E-02  0.3742E+00  0.3742E+00
      8.805  0.4582E-02  0.4582E-02  0.3746E+00  0.3746E+00
      8.912  0.2734E-02  0.2734E-02  0.3749E+00  0.3749E+00
      9.018  0.5758E-03  0.5759E-03  0.3750E+00  0.3750E+00
      9.125  0.2162E-04  0.2163E-04  0.3750E+00  0.3750E+00
      9.231  0.1098E-06  0.1098E-06  0.3750E+00  0.3750E+00
      9.338  0.6554E-10  0.6555E-10  0.3750E+00  0.3750E+00
      9.444  0.4338E-14  0.4339E-14  0.3750E+00  0.3750E+00
      9.551  0.0000E+00  0.0000E+00  0.3750E+00  0.3750E+00
      9.657  0.0000E+00  0.0000E+00  0.3750E+00  0.3750E+00
      9.764  0.0000E+00  0.0000E+00  0.3750E+00  0.3750E+00
      9.871  0.0000E+00  0.0000E+00  0.3750E+00  0.3750E+00
      9.977  0.0000E+00  0.0000E+00  0.3750E+00  0.3750E+00
     10.084  0.0000E+00  0.0000E+00  0.3750E+00  0.3750E+00
     10.190  0.0000E+00  0.0000E+00  0.3750E+00  0.3750E+00
     10.297  0.0000E+00  0.0000E+00  0.3750E+00  0.3750E+00
