<?xml version="1.0" encoding="ISO-8859-1"?>
<modeling>
 <generator>
  <i name="program" type="string">vasp </i>
  <i name="version" type="string">6.3.2  </i>
  <i name="subversion" type="string">27Jun22 (build Dec 22 2022 13:13:19) complex                          parallel </i>
  <i name="platform" type="string">LinuxIFC </i>
  <i name="date" type="string">2023 08 22 </i>
  <i name="time" type="string">23:25:34 </i>
 </generator>
 <incar>
  <i type="string" name="SYSTEM">Lattice</i>
  <i type="int" name="ISTART">     0</i>
  <i type="string" name="PREC">Accurate</i>
  <i type="string" name="ALGO">Normal</i>
  <i type="int" name="ISPIN">     2</i>
  <i type="int" name="ICHARG">     2</i>
  <i type="int" name="NELM">    64</i>
  <i type="int" name="IBRION">     2</i>
  <i name="EDIFF">      0.00000100</i>
  <i name="EDIFFG">     -0.00100000</i>
  <i type="int" name="NSW">   128</i>
  <i type="int" name="ISIF">     2</i>
  <i name="ENCUT">    450.00000000</i>
  <i name="POTIM">      0.50000000</i>
  <i type="int" name="ISMEAR">     0</i>
  <i name="SIGMA">      0.10000000</i>
  <i type="logical" name="LWAVE"> F  </i>
  <i type="logical" name="LCHARG"> F  </i>
  <i type="string" name="GGA">PE</i>
  <i type="int" name="IVDW">    12</i>
 </incar>
 <primitive_cell>
  <structure name="primitive_cell" >
   <crystal>
    <varray name="basis" >
     <v>       4.19502706       2.42200000       0.00000000 </v>
     <v>      -4.19502706       2.42200000       0.00000000 </v>
     <v>       0.00000000       0.00000000      15.00000000 </v>
    </varray>
    <i name="volume">    304.81066588 </i>
    <varray name="rec_basis" >
     <v>       0.11918874       0.20644096       0.00000000 </v>
     <v>      -0.11918874       0.20644096       0.00000000 </v>
     <v>       0.00000000       0.00000000       0.06666667 </v>
    </varray>
   </crystal>
   <varray name="positions" >
    <v>       0.00415361       0.00267210       0.12034134 </v>
    <v>       0.35695335       0.00285503       0.09748893 </v>
    <v>       0.00423858       0.35550699       0.09749256 </v>
    <v>       0.65142295       0.65006557       0.09747688 </v>
    <v>       0.32808646       0.32671938       0.10030508 </v>
    <v>       0.68027775       0.00278085       0.10027562 </v>
    <v>       0.00416530       0.67883808       0.10026559 </v>
    <v>       0.16666600       0.33333300       0.33720000 </v>
    <v>       0.33333300       0.16666600       0.33720000 </v>
    <v>       0.16666600       0.83333300       0.33720000 </v>
    <v>       0.33333300       0.66666600       0.33720000 </v>
    <v>       0.66666600       0.33333300       0.33720000 </v>
    <v>       0.83333300       0.16666600       0.33720000 </v>
    <v>       0.66666600       0.83333300       0.33720000 </v>
    <v>       0.83333300       0.66666600       0.33720000 </v>
   </varray>
  </structure>
  <varray name="primitive_index" >
   <v type="int" >        1 </v>
   <v type="int" >        2 </v>
   <v type="int" >        3 </v>
   <v type="int" >        4 </v>
   <v type="int" >        5 </v>
   <v type="int" >        6 </v>
   <v type="int" >        7 </v>
   <v type="int" >        8 </v>
   <v type="int" >        9 </v>
   <v type="int" >       10 </v>
   <v type="int" >       11 </v>
   <v type="int" >       12 </v>
   <v type="int" >       13 </v>
   <v type="int" >       14 </v>
   <v type="int" >       15 </v>
  </varray>
 </primitive_cell>
 <kpoints>
  <generation param="Gamma">
   <v type="int" name="divisions">      12       12        1 </v>
   <v name="usershift">      0.00000000       0.00000000       0.00000000 </v>
   <v name="genvec1">      0.08333333      -0.00000000       0.00000000 </v>
   <v name="genvec2">     -0.00000000       0.08333333       0.00000000 </v>
   <v name="genvec3">      0.00000000       0.00000000       1.00000000 </v>
   <v name="shift">      0.00000000       0.00000000       0.00000000 </v>
  </generation>
  <varray name="kpointlist" >
   <v>       0.00000000       0.00000000       0.00000000 </v>
   <v>       0.08333333      -0.00000000       0.00000000 </v>
   <v>      -0.00000000       0.08333333       0.00000000 </v>
   <v>      -0.08333333       0.08333333       0.00000000 </v>
   <v>       0.16666667      -0.00000000       0.00000000 </v>
   <v>      -0.00000000       0.16666667       0.00000000 </v>
   <v>      -0.16666667       0.16666667       0.00000000 </v>
   <v>       0.25000000      -0.00000000       0.00000000 </v>
   <v>      -0.00000000       0.25000000       0.00000000 </v>
   <v>      -0.25000000       0.25000000       0.00000000 </v>
   <v>       0.33333333      -0.00000000       0.00000000 </v>
   <v>      -0.00000000       0.33333333       0.00000000 </v>
   <v>      -0.33333333       0.33333333       0.00000000 </v>
   <v>       0.41666667      -0.00000000       0.00000000 </v>
   <v>      -0.00000000       0.41666667       0.00000000 </v>
   <v>      -0.41666667       0.41666667       0.00000000 </v>
   <v>       0.50000000      -0.00000000       0.00000000 </v>
   <v>      -0.00000000       0.50000000       0.00000000 </v>
   <v>       0.50000000       0.50000000       0.00000000 </v>
   <v>       0.08333333       0.08333333       0.00000000 </v>
   <v>      -0.08333333       0.16666667       0.00000000 </v>
   <v>      -0.16666667       0.08333333       0.00000000 </v>
   <v>       0.16666667       0.08333333       0.00000000 </v>
   <v>      -0.08333333       0.25000000       0.00000000 </v>
   <v>      -0.25000000       0.16666667       0.00000000 </v>
   <v>      -0.16666667       0.25000000       0.00000000 </v>
   <v>       0.08333333       0.16666667       0.00000000 </v>
   <v>       0.25000000      -0.08333333       0.00000000 </v>
   <v>       0.25000000       0.08333333       0.00000000 </v>
   <v>      -0.08333333       0.33333333       0.00000000 </v>
   <v>      -0.33333333       0.25000000       0.00000000 </v>
   <v>      -0.25000000       0.33333333       0.00000000 </v>
   <v>       0.08333333       0.25000000       0.00000000 </v>
   <v>       0.33333333      -0.08333333       0.00000000 </v>
   <v>       0.33333333       0.08333333       0.00000000 </v>
   <v>      -0.08333333       0.41666667       0.00000000 </v>
   <v>      -0.41666667       0.33333333       0.00000000 </v>
   <v>      -0.33333333       0.41666667       0.00000000 </v>
   <v>       0.08333333       0.33333333       0.00000000 </v>
   <v>       0.41666667      -0.08333333       0.00000000 </v>
   <v>       0.41666667       0.08333333       0.00000000 </v>
   <v>      -0.08333333       0.50000000       0.00000000 </v>
   <v>       0.50000000       0.41666667       0.00000000 </v>
   <v>      -0.41666667       0.50000000       0.00000000 </v>
   <v>       0.08333333       0.41666667       0.00000000 </v>
   <v>       0.50000000      -0.08333333       0.00000000 </v>
   <v>       0.16666667       0.16666667       0.00000000 </v>
   <v>      -0.16666667       0.33333333       0.00000000 </v>
   <v>      -0.33333333       0.16666667       0.00000000 </v>
   <v>       0.25000000       0.16666667       0.00000000 </v>
   <v>      -0.16666667       0.41666667       0.00000000 </v>
   <v>      -0.41666667       0.25000000       0.00000000 </v>
   <v>      -0.25000000       0.41666667       0.00000000 </v>
   <v>       0.16666667       0.25000000       0.00000000 </v>
   <v>       0.41666667      -0.16666667       0.00000000 </v>
   <v>       0.33333333       0.16666667       0.00000000 </v>
   <v>      -0.16666667       0.50000000       0.00000000 </v>
   <v>       0.50000000       0.33333333       0.00000000 </v>
   <v>      -0.33333333       0.50000000       0.00000000 </v>
   <v>       0.16666667       0.33333333       0.00000000 </v>
   <v>       0.50000000      -0.16666667       0.00000000 </v>
   <v>       0.41666667       0.16666667       0.00000000 </v>
   <v>      -0.16666667      -0.41666667       0.00000000 </v>
   <v>       0.41666667       0.41666667       0.00000000 </v>
   <v>       0.25000000       0.25000000       0.00000000 </v>
   <v>      -0.25000000       0.50000000       0.00000000 </v>
   <v>       0.50000000       0.25000000       0.00000000 </v>
   <v>       0.33333333       0.25000000       0.00000000 </v>
   <v>      -0.25000000      -0.41666667       0.00000000 </v>
   <v>       0.41666667       0.33333333       0.00000000 </v>
   <v>      -0.33333333      -0.41666667       0.00000000 </v>
   <v>       0.25000000       0.33333333       0.00000000 </v>
   <v>      -0.41666667      -0.25000000       0.00000000 </v>
   <v>       0.33333333       0.33333333       0.00000000 </v>
  </varray>
  <varray name="weights" >
   <v>       0.00694444 </v>
   <v>       0.01388889 </v>
   <v>       0.01388889 </v>
   <v>       0.01388889 </v>
   <v>       0.01388889 </v>
   <v>       0.01388889 </v>
   <v>       0.01388889 </v>
   <v>       0.01388889 </v>
   <v>       0.01388889 </v>
   <v>       0.01388889 </v>
   <v>       0.01388889 </v>
   <v>       0.01388889 </v>
   <v>       0.01388889 </v>
   <v>       0.01388889 </v>
   <v>       0.01388889 </v>
   <v>       0.01388889 </v>
   <v>       0.00694444 </v>
   <v>       0.00694444 </v>
   <v>       0.00694444 </v>
   <v>       0.01388889 </v>
   <v>       0.01388889 </v>
   <v>       0.01388889 </v>
   <v>       0.01388889 </v>
   <v>       0.01388889 </v>
   <v>       0.01388889 </v>
   <v>       0.01388889 </v>
   <v>       0.01388889 </v>
   <v>       0.01388889 </v>
   <v>       0.01388889 </v>
   <v>       0.01388889 </v>
   <v>       0.01388889 </v>
   <v>       0.01388889 </v>
   <v>       0.01388889 </v>
   <v>       0.01388889 </v>
   <v>       0.01388889 </v>
   <v>       0.01388889 </v>
   <v>       0.01388889 </v>
   <v>       0.01388889 </v>
   <v>       0.01388889 </v>
   <v>       0.01388889 </v>
   <v>       0.01388889 </v>
   <v>       0.01388889 </v>
   <v>       0.01388889 </v>
   <v>       0.01388889 </v>
   <v>       0.01388889 </v>
   <v>       0.01388889 </v>
   <v>       0.01388889 </v>
   <v>       0.01388889 </v>
   <v>       0.01388889 </v>
   <v>       0.01388889 </v>
   <v>       0.01388889 </v>
   <v>       0.01388889 </v>
   <v>       0.01388889 </v>
   <v>       0.01388889 </v>
   <v>       0.01388889 </v>
   <v>       0.01388889 </v>
   <v>       0.01388889 </v>
   <v>       0.01388889 </v>
   <v>       0.01388889 </v>
   <v>       0.01388889 </v>
   <v>       0.01388889 </v>
   <v>       0.01388889 </v>
   <v>       0.01388889 </v>
   <v>       0.01388889 </v>
   <v>       0.01388889 </v>
   <v>       0.01388889 </v>
   <v>       0.01388889 </v>
   <v>       0.01388889 </v>
   <v>       0.01388889 </v>
   <v>       0.01388889 </v>
   <v>       0.01388889 </v>
   <v>       0.01388889 </v>
   <v>       0.01388889 </v>
   <v>       0.01388889 </v>
  </varray>
 </kpoints>
 <parameters>
  <separator name="general" >
   <i type="string" name="SYSTEM">Lattice</i>
   <i type="logical" name="LCOMPAT"> F  </i>
  </separator>
  <separator name="electronic" >
   <i type="string" name="PREC">accura</i>
   <i name="ENMAX">    450.00000000</i>
   <i name="ENAUG">    644.87300000</i>
   <i name="EDIFF">      0.00000100</i>
   <i type="int" name="IALGO">    38</i>
   <i type="int" name="IWAVPR">    11</i>
   <i type="int" name="NBANDS">    48</i>
   <i type="int" name="NBANDSLOW">    -1</i>
   <i type="int" name="NBANDSHIGH">    -1</i>
   <i name="NELECT">     56.00000000</i>
   <i type="int" name="TURBO">     0</i>
   <i type="int" name="IRESTART">     0</i>
   <i type="int" name="NREBOOT">     0</i>
   <i type="int" name="NMIN">     0</i>
   <i name="EREF">      0.00000000</i>
   <separator name="electronic smearing" >
    <i type="int" name="ISMEAR">     0</i>
    <i name="SIGMA">      0.10000000</i>
    <i name="KSPACING">      0.50000000</i>
    <i type="logical" name="KGAMMA"> T  </i>
    <i type="logical" name="KBLOWUP"> T  </i>
   </separator>
   <separator name="electronic projectors" >
    <i type="logical" name="LREAL"> F  </i>
    <v name="ROPT">      0.00000000      0.00000000</v>
    <i type="int" name="LMAXPAW">  -100</i>
    <i type="int" name="LMAXMIX">     2</i>
    <i type="logical" name="NLSPLINE"> F  </i>
   </separator>
   <separator name="electronic startup" >
    <i type="int" name="ISTART">     0</i>
    <i type="int" name="ICHARG">     2</i>
    <i type="int" name="INIWAV">     1</i>
   </separator>
   <separator name="electronic spin" >
    <i type="int" name="ISPIN">     2</i>
    <i type="logical" name="LNONCOLLINEAR"> F  </i>
    <v name="MAGMOM">      1.00000000      1.00000000      1.00000000      1.00000000      1.00000000      1.00000000      1.00000000      1.00000000      1.00000000      1.00000000      1.00000000      1.00000000      1.00000000      1.00000000      1.00000000</v>
    <i name="NUPDOWN">     -1.00000000</i>
    <i type="logical" name="LSORBIT"> F  </i>
    <v name="SAXIS">      0.00000000      0.00000000      1.00000000</v>
    <i type="logical" name="LSPIRAL"> F  </i>
    <v name="QSPIRAL">      0.00000000      0.00000000      0.00000000</v>
    <i type="logical" name="LZEROZ"> F  </i>
   </separator>
   <separator name="electronic exchange-correlation" >
    <i type="logical" name="LASPH"> F  </i>
    <i type="logical" name="LMETAGGA"> F  </i>
   </separator>
   <separator name="electronic convergence" >
    <i type="int" name="NELM">    64</i>
    <i type="int" name="NELMDL">    -5</i>
    <i type="int" name="NELMIN">     2</i>
    <i name="ENINI">    450.00000000</i>
    <separator name="electronic convergence detail" >
     <i type="logical" name="LDIAG"> T  </i>
     <i type="logical" name="LSUBROT"> F  </i>
     <i name="WEIMIN">      0.00100000</i>
     <i name="EBREAK">      0.00000001</i>
     <i name="DEPER">      0.30000000</i>
     <i type="int" name="NRMM">     4</i>
     <i name="TIME">      0.40000000</i>
    </separator>
   </separator>
   <separator name="electronic mixer" >
    <i name="AMIX">      0.40000000</i>
    <i name="BMIX">      1.00000000</i>
    <i name="AMIN">      0.10000000</i>
    <i name="AMIX_MAG">      1.60000000</i>
    <i name="BMIX_MAG">      1.00000000</i>
    <separator name="electronic mixer details" >
     <i type="int" name="IMIX">     4</i>
     <i type="logical" name="MIXFIRST"> F  </i>
     <i type="int" name="MAXMIX">   -45</i>
     <i name="WC">    100.00000000</i>
     <i type="int" name="INIMIX">     1</i>
     <i type="int" name="MIXPRE">     1</i>
     <i type="int" name="MREMOVE">     5</i>
    </separator>
   </separator>
   <separator name="electronic dipolcorrection" >
    <i type="logical" name="LDIPOL"> F  </i>
    <i type="logical" name="LMONO"> F  </i>
    <i type="int" name="IDIPOL">     0</i>
    <i name="EPSILON">      1.00000000</i>
    <v name="DIPOL">   -100.00000000   -100.00000000   -100.00000000</v>
    <i name="EFIELD">      0.00000000</i>
   </separator>
  </separator>
  <separator name="grids" >
   <i type="int" name="NGX">    36</i>
   <i type="int" name="NGY">    36</i>
   <i type="int" name="NGZ">   108</i>
   <i type="int" name="NGXF">    72</i>
   <i type="int" name="NGYF">    72</i>
   <i type="int" name="NGZF">   216</i>
   <i type="logical" name="ADDGRID"> F  </i>
  </separator>
  <separator name="ionic" >
   <i type="int" name="NSW">   128</i>
   <i type="int" name="IBRION">     2</i>
   <i type="int" name="MDALGO">     0</i>
   <i type="int" name="ISIF">     2</i>
   <i name="PSTRESS">      0.00000000</i>
   <i name="EDIFFG">     -0.00100000</i>
   <i type="int" name="NFREE">     1</i>
   <i name="POTIM">      0.50000000</i>
   <i name="SMASS">     -3.00000000</i>
   <i name="SCALEE">      1.00000000</i>
  </separator>
  <separator name="ionic md" >
   <i name="TEBEG">      0.00010000</i>
   <i name="TEEND">      0.00010000</i>
   <i type="int" name="NBLOCK">     1</i>
   <i type="int" name="KBLOCK">   128</i>
   <i type="int" name="NPACO">   256</i>
   <i name="APACO">     10.00000000</i>
  </separator>
  <separator name="symmetry" >
   <i type="int" name="ISYM">     2</i>
   <i name="SYMPREC">      0.00001000</i>
  </separator>
  <separator name="dos" >
   <i type="int" name="LORBIT">     0</i>
   <v name="RWIGS">     -1.00000000     -1.00000000</v>
   <i type="int" name="NEDOS">   301</i>
   <i name="EMIN">     10.00000000</i>
   <i name="EMAX">    -10.00000000</i>
   <i name="EFERMI">      0.00000000</i>
  </separator>
  <separator name="writing" >
   <i type="int" name="NWRITE">     2</i>
   <i type="logical" name="LWAVE"> F  </i>
   <i type="logical" name="LDOWNSAMPLE"> F  </i>
   <i type="logical" name="LCHARG"> F  </i>
   <i type="logical" name="LPARD"> F  </i>
   <i type="logical" name="LVTOT"> F  </i>
   <i type="logical" name="LVHAR"> F  </i>
   <i type="logical" name="LELF"> F  </i>
   <i type="logical" name="LOPTICS"> F  </i>
   <v name="STM">      0.00000000      0.00000000      0.00000000      0.00000000      0.00000000      0.00000000      0.00000000</v>
  </separator>
  <separator name="performance" >
   <i type="int" name="NPAR">    48</i>
   <i type="int" name="NSIM">     4</i>
   <i type="int" name="NBLK">    -1</i>
   <i type="logical" name="LPLANE"> T  </i>
   <i type="logical" name="LSCALAPACK"> T  </i>
   <i type="logical" name="LSCAAWARE"> F  </i>
   <i type="logical" name="LSCALU"> F  </i>
   <i type="logical" name="LASYNC"> F  </i>
   <i type="logical" name="LORBITALREAL"> F  </i>
  </separator>
  <separator name="miscellaneous" >
   <i type="int" name="IDIOT">     3</i>
   <i type="int" name="PHON_NSTRUCT">    -1</i>
   <i type="logical" name="LMUSIC"> F  </i>
   <v name="POMASS">     10.81100000     12.01100000</v>
   <v name="DARWINR">      0.00000000      0.00000000</v>
   <v name="DARWINV">      1.00000000      1.00000000</v>
   <i type="logical" name="LCORR"> T  </i>
  </separator>
  <i type="logical" name="GGA_COMPAT"> T  </i>
  <i type="logical" name="LBERRY"> F  </i>
  <i type="int" name="ICORELEVEL">     0</i>
  <i type="logical" name="LDAU"> F  </i>
  <i type="int" name="I_CONSTRAINED_M">     0</i>
  <separator name="electronic exchange-correlation" >
   <i type="string" name="GGA">PE</i>
   <i type="int" name="VOSKOWN">     0</i>
   <i type="logical" name="LHFCALC"> F  </i>
   <i type="string" name="PRECFOCK"></i>
   <i type="logical" name="LSYMGRAD"> F  </i>
   <i type="logical" name="LHFONE"> F  </i>
   <i type="logical" name="LRHFCALC"> F  </i>
   <i type="logical" name="LTHOMAS"> F  </i>
   <i type="logical" name="LMODELHF"> F  </i>
   <i type="logical" name="LFOCKACE"> F  </i>
   <i name="ENCUT4O">     -1.00000000</i>
   <i type="int" name="EXXOEP">     0</i>
   <i type="int" name="FOURORBIT">     0</i>
   <i name="AEXX">      0.00000000</i>
   <i name="HFALPHA">      0.00000000</i>
   <i name="MCALPHA">      0.00000000</i>
   <i name="ALDAX">      1.00000000</i>
   <i name="AGGAX">      1.00000000</i>
   <i name="ALDAC">      1.00000000</i>
   <i name="AGGAC">      1.00000000</i>
   <i type="int" name="NKREDX">     1</i>
   <i type="int" name="NKREDY">     1</i>
   <i type="int" name="NKREDZ">     1</i>
   <i type="logical" name="SHIFTRED"> F  </i>
   <i type="logical" name="ODDONLY"> F  </i>
   <i type="logical" name="EVENONLY"> F  </i>
   <i type="int" name="LMAXFOCK">     0</i>
   <i type="int" name="NMAXFOCKAE">     0</i>
   <i type="logical" name="LFOCKAEDFT"> F  </i>
   <i name="HFSCREEN">      0.00000000</i>
   <i name="HFSCREENC">      0.00000000</i>
   <i type="int" name="NBANDSGWLOW">     0</i>
  </separator>
  <separator name="vdW DFT" >
   <i type="logical" name="LUSE_VDW"> F  </i>
   <i name="Zab_VDW">     -0.84910000</i>
   <i name="PARAM1">      0.12340000</i>
   <i name="PARAM2">      1.00000000</i>
   <i name="PARAM3">      0.00000000</i>
  </separator>
  <separator name="model GW" >
   <i type="int" name="MODEL_GW">     0</i>
   <i name="MODEL_EPS0">     12.19242664</i>
   <i name="MODEL_ALPHA">      1.00000000</i>
  </separator>
  <separator name="linear response parameters" >
   <i type="logical" name="LEPSILON"> F  </i>
   <i type="logical" name="LRPA"> F  </i>
   <i type="logical" name="LNABLA"> F  </i>
   <i type="logical" name="LVEL"> F  </i>
   <i name="CSHIFT">      0.10000000</i>
   <i name="OMEGAMAX">     -1.00000000</i>
   <i name="DEG_THRESHOLD">      0.00200000</i>
   <i name="RTIME">     -0.10000000</i>
   <i name="WPLASMAI">      0.00000000</i>
   <v name="DFIELD">      0.00000000      0.00000000      0.00000000</v>
   <v name="WPLASMA">      0.00000000      0.00000000      0.00000000      0.00000000      0.00000000      0.00000000      0.00000000      0.00000000      0.00000000</v>
  </separator>
  <separator name="orbital magnetization" >
   <i type="logical" name="NUCIND"> F  </i>
   <v name="MAGPOS">      0.00000000      0.00000000      0.00000000</v>
   <i type="logical" name="LNICSALL"> T  </i>
   <i type="logical" name="ORBITALMAG"> F  </i>
   <i type="logical" name="LMAGBLOCH"> F  </i>
   <i type="logical" name="LCHIMAG"> F  </i>
   <i type="logical" name="LGAUGE"> T  </i>
   <i type="int" name="MAGATOM">     0</i>
   <v name="MAGDIPOL">      0.00000000      0.00000000      0.00000000</v>
   <v name="AVECCONST">      0.00000000      0.00000000      0.00000000</v>
  </separator>
  <separator name="response functions" >
   <i type="logical" name="LFINITE_TEMPERATURE"> F  </i>
   <i type="logical" name="LADDER"> F  </i>
   <i type="logical" name="LRPAFORCE"> F  </i>
   <i type="logical" name="LFXC"> F  </i>
   <i type="logical" name="LHARTREE"> T  </i>
   <i type="int" name="IBSE">     0</i>
   <v type="int" name="KPOINT">    -1     0     0     0</v>
   <i type="logical" name="LTCTC"> F  </i>
   <i type="logical" name="LTCTE"> F  </i>
   <i type="logical" name="LTETE"> F  </i>
   <i type="logical" name="LTRIPLET"> F  </i>
   <i type="logical" name="LFXCEPS"> F  </i>
   <i type="logical" name="LFXHEG"> F  </i>
   <i type="int" name="NATURALO">     2</i>
   <i type="logical" name="LHOLEGF"> F  </i>
   <i type="logical" name="L2ORDER"> F  </i>
   <i type="logical" name="LDMP1"> F  </i>
   <i type="logical" name="LMP2LT"> F  </i>
   <i type="logical" name="LSMP2LT"> F  </i>
   <i type="logical" name="LGWLF"> F  </i>
   <i name="ENCUTGW">     -2.00000000</i>
   <i name="ENCUTGWSOFT">     -2.00000000</i>
   <i name="ENCUTLF">     -1.00000000</i>
   <i type="logical" name="LESF_SPLINES"> F  </i>
   <i type="int" name="LMAXMP2">    -1</i>
   <i name="SCISSOR">      0.00000000</i>
   <i type="int" name="NOMEGA">     0</i>
   <i type="int" name="NOMEGAR">     0</i>
   <i type="int" name="NBANDSGW">    -1</i>
   <i type="int" name="NBANDSO">    -1</i>
   <i type="int" name="NBANDSV">    -1</i>
   <i type="int" name="NELMGW">     1</i>
   <i type="int" name="NELMHF">     1</i>
   <i type="int" name="DIM">     3</i>
   <i type="int" name="IESPILON">     4</i>
   <i type="int" name="ANTIRES">     0</i>
   <i name="OMEGAMAX">    -30.00000000</i>
   <i name="OMEGAMIN">    -30.00000000</i>
   <i name="OMEGATL">   -200.00000000</i>
   <i type="int" name="OMEGAGRID">     0</i>
   <i name="CSHIFT">     -0.10000000</i>
   <i type="logical" name="LSELFENERGY"> F  </i>
   <i type="logical" name="LSPECTRAL"> F  </i>
   <i type="logical" name="LSPECTRALGW"> F  </i>
   <i type="logical" name="LSINGLES"> F  </i>
   <i type="logical" name="LFERMIGW"> F  </i>
   <i type="logical" name="ODDONLYGW"> F  </i>
   <i type="logical" name="EVENONLYGW"> F  </i>
   <i type="int" name="NKREDLFX">     1</i>
   <i type="int" name="NKREDLFY">     1</i>
   <i type="int" name="NKREDLFZ">     1</i>
   <i type="int" name="MAXMEM">  2800</i>
   <i type="int" name="TELESCOPE">     0</i>
   <i type="int" name="NTAUPAR">    -1</i>
   <i type="int" name="NOMEGAPAR">    -1</i>
   <i name="DAMP_NEWTON">      0.80000001</i>
   <i name="LAMBDA">      1.00000000</i>
  </separator>
  <separator name="External order field" >
   <i name="OFIELD_KAPPA">      0.00000000</i>
   <v name="OFIELD_K">      0.00000000      0.00000000      0.00000000</v>
   <i name="OFIELD_Q6_NEAR">      0.00000000</i>
   <i name="OFIELD_Q6_FAR">      0.00000000</i>
   <i name="OFIELD_A">      0.00000000</i>
  </separator>
  <separator name="optional k-points parameters" >
   <i type="int" name="KPOINTS_OPT_MODE">     1</i>
   <i type="logical" name="LKPOINTS_OPT"> F  </i>
  </separator>
  <separator name="solvation model" >
   <i type="logical" name="LSOL"> F  </i>
  </separator>
 </parameters>
 <atominfo>
  <atoms>      15 </atoms>
  <types>       2 </types>
  <array name="atoms" >
   <dimension dim="1">ion</dimension>
   <field type="string">element</field>
   <field type="int">atomtype</field>
   <set>
    <rc><c>B </c><c>   1</c></rc>
    <rc><c>B </c><c>   1</c></rc>
    <rc><c>B </c><c>   1</c></rc>
    <rc><c>B </c><c>   1</c></rc>
    <rc><c>C </c><c>   2</c></rc>
    <rc><c>C </c><c>   2</c></rc>
    <rc><c>C </c><c>   2</c></rc>
    <rc><c>C </c><c>   2</c></rc>
    <rc><c>C </c><c>   2</c></rc>
    <rc><c>C </c><c>   2</c></rc>
    <rc><c>C </c><c>   2</c></rc>
    <rc><c>C </c><c>   2</c></rc>
    <rc><c>C </c><c>   2</c></rc>
    <rc><c>C </c><c>   2</c></rc>
    <rc><c>C </c><c>   2</c></rc>
   </set>
  </array>
  <array name="atomtypes" >
   <dimension dim="1">type</dimension>
   <field type="int">atomspertype</field>
   <field type="string">element</field>
   <field>mass</field>
   <field>valence</field>
   <field type="string">pseudopotential</field>
   <set>
    <rc><c>   4</c><c>B </c><c>     10.81100000</c><c>      3.00000000</c><c>  PAW_PBE B 06Sep2000                   </c></rc>
    <rc><c>  11</c><c>C </c><c>     12.01100000</c><c>      4.00000000</c><c>  PAW_PBE C 08Apr2002                   </c></rc>
   </set>
  </array>
 </atominfo>
 <structure name="initialpos" >
  <crystal>
   <varray name="basis" >
    <v>       4.19502706       2.42200000       0.00000000 </v>
    <v>      -4.19502706       2.42200000       0.00000000 </v>
    <v>       0.00000000       0.00000000      15.00000000 </v>
   </varray>
   <i name="volume">    304.81066588 </i>
   <varray name="rec_basis" >
    <v>       0.11918874       0.20644096       0.00000000 </v>
    <v>      -0.11918874       0.20644096       0.00000000 </v>
    <v>       0.00000000       0.00000000       0.06666667 </v>
   </varray>
  </crystal>
  <varray name="positions" >
   <v>       0.00415361       0.00267210       0.12034134 </v>
   <v>       0.35695335       0.00285503       0.09748893 </v>
   <v>       0.00423858       0.35550699       0.09749256 </v>
   <v>       0.65142295       0.65006557       0.09747688 </v>
   <v>       0.32808646       0.32671938       0.10030508 </v>
   <v>       0.68027775       0.00278085       0.10027562 </v>
   <v>       0.00416530       0.67883808       0.10026559 </v>
   <v>       0.16666600       0.33333300       0.33720000 </v>
   <v>       0.33333300       0.16666600       0.33720000 </v>
   <v>       0.16666600       0.83333300       0.33720000 </v>
   <v>       0.33333300       0.66666600       0.33720000 </v>
   <v>       0.66666600       0.33333300       0.33720000 </v>
   <v>       0.83333300       0.16666600       0.33720000 </v>
   <v>       0.66666600       0.83333300       0.33720000 </v>
   <v>       0.83333300       0.66666600       0.33720000 </v>
  </varray>
 </structure>
 <calculation>
  <scstep>
   <time name="dav">    5.49    5.55</time>
   <time name="total">    5.54    5.60</time>
   <energy>
    <i name="alphaZ">     58.35522451 </i>
    <i name="ewald">   4693.03854387 </i>
    <i name="hartreedc">  -6249.06082804 </i>
    <i name="XCdc">    175.12685203 </i>
    <i name="pawpsdc">   1365.87943566 </i>
    <i name="pawaedc">  -1368.52100941 </i>
    <i name="eentropy">     -0.01617567 </i>
    <i name="bandstr">   -374.97641636 </i>
    <i name="atom">   1903.26342058 </i>
    <i name="e_fr_energy">    203.08904719 </i>
    <i name="e_wo_entrp">    203.10522285 </i>
    <i name="e_0_energy">    203.09713502 </i>
   </energy>
  </scstep>
  <scstep>
   <time name="dav">    7.93    8.00</time>
   <time name="total">    7.93    8.00</time>
   <energy>
    <i name="e_fr_energy">   -116.49089257 </i>
    <i name="e_wo_entrp">   -116.48977939 </i>
    <i name="e_0_energy">   -116.49033598 </i>
   </energy>
  </scstep>
  <scstep>
   <time name="dav">   11.34   11.42</time>
   <time name="total">   11.34   11.43</time>
   <energy>
    <i name="e_fr_energy">   -129.41028994 </i>
    <i name="e_wo_entrp">   -129.40716809 </i>
    <i name="e_0_energy">   -129.40872901 </i>
   </energy>
  </scstep>
  <scstep>
   <time name="dav">    7.92    7.98</time>
   <time name="total">    7.92    7.99</time>
   <energy>
    <i name="e_fr_energy">   -129.43178113 </i>
    <i name="e_wo_entrp">   -129.42867469 </i>
    <i name="e_0_energy">   -129.43022791 </i>
   </energy>
  </scstep>
  <scstep>
   <time name="dav">   10.86   10.93</time>
   <time name="total">   11.12   11.20</time>
   <energy>
    <i name="e_fr_energy">   -129.43184865 </i>
    <i name="e_wo_entrp">   -129.42874205 </i>
    <i name="e_0_energy">   -129.43029535 </i>
   </energy>
  </scstep>
  <scstep>
   <time name="dav">   10.72   10.79</time>
   <time name="total">   11.02   11.10</time>
   <energy>
    <i name="e_fr_energy">    -92.04300902 </i>
    <i name="e_wo_entrp">    -92.03624511 </i>
    <i name="e_0_energy">    -92.03962707 </i>
   </energy>
  </scstep>
  <scstep>
   <time name="dav">    9.14    9.20</time>
   <time name="total">    9.43    9.51</time>
   <energy>
    <i name="e_fr_energy">   -100.47905723 </i>
    <i name="e_wo_entrp">   -100.47318387 </i>
    <i name="e_0_energy">   -100.47612055 </i>
   </energy>
  </scstep>
  <scstep>
   <time name="dav">    9.76    9.83</time>
   <time name="total">   10.06   10.14</time>
   <energy>
    <i name="e_fr_energy">   -110.49045212 </i>
    <i name="e_wo_entrp">   -110.49041452 </i>
    <i name="e_0_energy">   -110.49043332 </i>
   </energy>
  </scstep>
  <scstep>
   <time name="dav">    7.95    8.00</time>
   <time name="total">    8.24    8.30</time>
   <energy>
    <i name="e_fr_energy">   -117.17075303 </i>
    <i name="e_wo_entrp">   -117.17074884 </i>
    <i name="e_0_energy">   -117.17075094 </i>
   </energy>
  </scstep>
  <scstep>
   <time name="dav">    9.77    9.84</time>
   <time name="total">   10.07   10.14</time>
   <energy>
    <i name="e_fr_energy">   -123.48892274 </i>
    <i name="e_wo_entrp">   -123.48831055 </i>
    <i name="e_0_energy">   -123.48861664 </i>
   </energy>
  </scstep>
  <scstep>
   <time name="dav">   10.02   10.08</time>
   <time name="total">   10.31   10.39</time>
   <energy>
    <i name="e_fr_energy">   -125.30423604 </i>
    <i name="e_wo_entrp">   -125.30304665 </i>
    <i name="e_0_energy">   -125.30364135 </i>
   </energy>
  </scstep>
  <scstep>
   <time name="dav">    8.07    8.12</time>
   <time name="total">    8.36    8.42</time>
   <energy>
    <i name="e_fr_energy">   -125.42583335 </i>
    <i name="e_wo_entrp">   -125.42436065 </i>
    <i name="e_0_energy">   -125.42509700 </i>
   </energy>
  </scstep>
  <scstep>
   <time name="dav">    6.86    7.17</time>
   <time name="total">    7.16    7.47</time>
   <energy>
    <i name="e_fr_energy">   -125.45241097 </i>
    <i name="e_wo_entrp">   -125.45085045 </i>
    <i name="e_0_energy">   -125.45163071 </i>
   </energy>
  </scstep>
  <scstep>
   <time name="dav">    8.56    8.62</time>
   <time name="total">    8.85    8.92</time>
   <energy>
    <i name="e_fr_energy">   -125.47641168 </i>
    <i name="e_wo_entrp">   -125.47484536 </i>
    <i name="e_0_energy">   -125.47562852 </i>
   </energy>
  </scstep>
  <scstep>
   <time name="dav">    7.49    7.54</time>
   <time name="total">    7.78    7.84</time>
   <energy>
    <i name="e_fr_energy">   -125.48450490 </i>
    <i name="e_wo_entrp">   -125.48293774 </i>
    <i name="e_0_energy">   -125.48372132 </i>
   </energy>
  </scstep>
  <scstep>
   <time name="dav">    7.09    7.15</time>
   <time name="total">    7.38    7.45</time>
   <energy>
    <i name="e_fr_energy">   -125.48658061 </i>
    <i name="e_wo_entrp">   -125.48501341 </i>
    <i name="e_0_energy">   -125.48579701 </i>
   </energy>
  </scstep>
  <scstep>
   <time name="dav">    5.85    5.90</time>
   <time name="total">    6.14    6.19</time>
   <energy>
    <i name="e_fr_energy">   -125.48787530 </i>
    <i name="e_wo_entrp">   -125.48630812 </i>
    <i name="e_0_energy">   -125.48709171 </i>
   </energy>
  </scstep>
  <scstep>
   <time name="dav">    6.19    6.23</time>
   <time name="total">    6.48    6.53</time>
   <energy>
    <i name="e_fr_energy">   -125.48856089 </i>
    <i name="e_wo_entrp">   -125.48699373 </i>
    <i name="e_0_energy">   -125.48777731 </i>
   </energy>
  </scstep>
  <scstep>
   <time name="dav">    7.59    7.63</time>
   <time name="total">    7.88    7.94</time>
   <energy>
    <i name="e_fr_energy">   -125.48903072 </i>
    <i name="e_wo_entrp">   -125.48746354 </i>
    <i name="e_0_energy">   -125.48824713 </i>
   </energy>
  </scstep>
  <scstep>
   <time name="dav">    8.78    8.83</time>
   <time name="total">    9.07    9.13</time>
   <energy>
    <i name="e_fr_energy">   -125.48908094 </i>
    <i name="e_wo_entrp">   -125.48751374 </i>
    <i name="e_0_energy">   -125.48829734 </i>
   </energy>
  </scstep>
  <scstep>
   <time name="dav">    7.97    8.02</time>
   <time name="total">    8.26    8.32</time>
   <energy>
    <i name="e_fr_energy">   -125.48910713 </i>
    <i name="e_wo_entrp">   -125.48753994 </i>
    <i name="e_0_energy">   -125.48832353 </i>
   </energy>
  </scstep>
  <scstep>
   <time name="dav">    9.00    9.05</time>
   <time name="total">    9.29    9.36</time>
   <energy>
    <i name="e_fr_energy">   -125.48912715 </i>
    <i name="e_wo_entrp">   -125.48755996 </i>
    <i name="e_0_energy">   -125.48834355 </i>
   </energy>
  </scstep>
  <scstep>
   <time name="dav">    8.18    8.23</time>
   <time name="total">    8.47    8.53</time>
   <energy>
    <i name="e_fr_energy">   -125.48914439 </i>
    <i name="e_wo_entrp">   -125.48757719 </i>
    <i name="e_0_energy">   -125.48836079 </i>
   </energy>
  </scstep>
  <scstep>
   <time name="dav">    8.85    8.91</time>
   <time name="total">    9.14    9.21</time>
   <energy>
    <i name="e_fr_energy">   -125.48914809 </i>
    <i name="e_wo_entrp">   -125.48758089 </i>
    <i name="e_0_energy">   -125.48836449 </i>
   </energy>
  </scstep>
  <scstep>
   <time name="dav">    9.26    9.32</time>
   <time name="total">    9.55    9.62</time>
   <energy>
    <i name="e_fr_energy">   -125.48914910 </i>
    <i name="e_wo_entrp">   -125.48758191 </i>
    <i name="e_0_energy">   -125.48836551 </i>
   </energy>
  </scstep>
  <scstep>
   <time name="dav">    8.26    8.31</time>
   <time name="total">    8.29    8.35</time>
   <energy>
    <i name="alphaZ">     58.35522451 </i>
    <i name="ewald">   4693.03854387 </i>
    <i name="hartreedc">  -6451.27638055 </i>
    <i name="XCdc">    180.52873008 </i>
    <i name="pawpsdc">   5748.65524577 </i>
    <i name="pawaedc">  -5753.07124360 </i>
    <i name="eentropy">     -0.00156719 </i>
    <i name="bandstr">   -504.98112311 </i>
    <i name="atom">   1903.26342058 </i>
    <i name="e_fr_energy">   -125.48914964 </i>
    <i name="e_wo_entrp">   -125.48758245 </i>
    <i name="e_0_energy">   -125.48836604 </i>
   </energy>
  </scstep>
  <structure>
   <crystal>
    <varray name="basis" >
     <v>       4.19502706       2.42200000       0.00000000 </v>
     <v>      -4.19502706       2.42200000       0.00000000 </v>
     <v>       0.00000000       0.00000000      15.00000000 </v>
    </varray>
    <i name="volume">    304.81066588 </i>
    <varray name="rec_basis" >
     <v>       0.11918874       0.20644096       0.00000000 </v>
     <v>      -0.11918874       0.20644096       0.00000000 </v>
     <v>       0.00000000       0.00000000       0.06666667 </v>
    </varray>
   </crystal>
   <varray name="positions" >
    <v>       0.00415361       0.00267210       0.12034134 </v>
    <v>       0.35695335       0.00285503       0.09748893 </v>
    <v>       0.00423858       0.35550699       0.09749256 </v>
    <v>       0.65142295       0.65006557       0.09747688 </v>
    <v>       0.32808646       0.32671938       0.10030508 </v>
    <v>       0.68027775       0.00278085       0.10027562 </v>
    <v>       0.00416530       0.67883808       0.10026559 </v>
    <v>       0.16666600       0.33333300       0.33720000 </v>
    <v>       0.33333300       0.16666600       0.33720000 </v>
    <v>       0.16666600       0.83333300       0.33720000 </v>
    <v>       0.33333300       0.66666600       0.33720000 </v>
    <v>       0.66666600       0.33333300       0.33720000 </v>
    <v>       0.83333300       0.16666600       0.33720000 </v>
    <v>       0.66666600       0.83333300       0.33720000 </v>
    <v>       0.83333300       0.66666600       0.33720000 </v>
   </varray>
  </structure>
  <varray name="forces" >
   <v>      -0.00413139       0.00552001      -0.42013927 </v>
   <v>      -0.08674681      -0.05530307       0.11107245 </v>
   <v>       0.08634570      -0.05422643       0.11083958 </v>
   <v>       0.00274436       0.10090868       0.11343398 </v>
   <v>       0.00312172      -0.33652152       0.00497366 </v>
   <v>       0.28980886       0.16943660       0.00824309 </v>
   <v>      -0.29068175       0.17158379       0.00938660 </v>
   <v>      -0.01419105       0.00090088       0.01897803 </v>
   <v>       0.01399204       0.00106031       0.01930179 </v>
   <v>       0.00833716       0.01078765       0.01983472 </v>
   <v>      -0.00037375       0.00040668      -0.02681794 </v>
   <v>       0.00060633       0.00018572      -0.02682292 </v>
   <v>      -0.00836005       0.01053377       0.01979745 </v>
   <v>       0.00561815      -0.01253796       0.01910413 </v>
   <v>      -0.00608953      -0.01273511       0.01881463 </v>
  </varray>
  <varray name="stress" >
   <v>      -4.70196660       0.00981069      -0.01567916 </v>
   <v>       0.00981072      -4.69427324      -0.01576239 </v>
   <v>      -0.01567914      -0.01576237      -1.70796273 </v>
  </varray>
  <energy>
   <i name="e_fr_energy">   -127.07709561 </i>
   <i name="e_wo_entrp">   -127.07552842 </i>
   <i name="e_0_energy">   -127.07631202 </i>
  </energy>
  <time name="totalsc">  229.80  231.84</time>
 </calculation>
 <calculation>
  <scstep>
   <time name="dav">    5.46    5.50</time>
   <time name="total">    5.75    5.80</time>
   <energy>
    <i name="alphaZ">     58.35522451 </i>
    <i name="ewald">   4695.92444412 </i>
    <i name="hartreedc">  -6452.79942905 </i>
    <i name="XCdc">    180.60766999 </i>
    <i name="pawpsdc">   5748.66203144 </i>
    <i name="pawaedc">  -5753.07803109 </i>
    <i name="eentropy">     -0.00156719 </i>
    <i name="bandstr">   -506.43354764 </i>
    <i name="atom">   1903.26342058 </i>
    <i name="e_fr_energy">   -125.49978433 </i>
    <i name="e_wo_entrp">   -125.49821714 </i>
    <i name="e_0_energy">   -125.49900073 </i>
   </energy>
  </scstep>
  <scstep>
   <time name="dav">   10.75   10.81</time>
   <time name="total">   11.04   11.11</time>
   <energy>
    <i name="e_fr_energy">   -125.49195027 </i>
    <i name="e_wo_entrp">   -125.49038308 </i>
    <i name="e_0_energy">   -125.49116668 </i>
   </energy>
  </scstep>
  <scstep>
   <time name="dav">    8.02    8.06</time>
   <time name="total">    8.31    8.37</time>
   <energy>
    <i name="e_fr_energy">   -125.49109165 </i>
    <i name="e_wo_entrp">   -125.48952446 </i>
    <i name="e_0_energy">   -125.49030805 </i>
   </energy>
  </scstep>
  <scstep>
   <time name="dav">   11.44   11.51</time>
   <time name="total">   11.73   11.81</time>
   <energy>
    <i name="e_fr_energy">   -125.49105894 </i>
    <i name="e_wo_entrp">   -125.48949174 </i>
    <i name="e_0_energy">   -125.49027534 </i>
   </energy>
  </scstep>
  <scstep>
   <time name="dav">    9.91    9.97</time>
   <time name="total">   10.20   10.27</time>
   <energy>
    <i name="e_fr_energy">   -125.49106229 </i>
    <i name="e_wo_entrp">   -125.48949510 </i>
    <i name="e_0_energy">   -125.49027869 </i>
   </energy>
  </scstep>
  <scstep>
   <time name="dav">    9.10    9.15</time>
   <time name="total">    9.14    9.20</time>
   <energy>
    <i name="alphaZ">     58.35522451 </i>
    <i name="ewald">   4695.92444412 </i>
    <i name="hartreedc">  -6453.49273498 </i>
    <i name="XCdc">    180.62327333 </i>
    <i name="pawpsdc">   5774.57481778 </i>
    <i name="pawaedc">  -5778.99924723 </i>
    <i name="eentropy">     -0.00156719 </i>
    <i name="bandstr">   -505.73869339 </i>
    <i name="atom">   1903.26342058 </i>
    <i name="e_fr_energy">   -125.49106248 </i>
    <i name="e_wo_entrp">   -125.48949529 </i>
    <i name="e_0_energy">   -125.49027889 </i>
   </energy>
  </scstep>
  <structure>
   <crystal>
    <varray name="basis" >
     <v>       4.19502706       2.42200000       0.00000000 </v>
     <v>      -4.19502706       2.42200000       0.00000000 </v>
     <v>       0.00000000       0.00000000      15.00000000 </v>
    </varray>
    <i name="volume">    304.81066588 </i>
    <varray name="rec_basis" >
     <v>       0.11918874       0.20644096       0.00000000 </v>
     <v>      -0.11918874       0.20644096       0.00000000 </v>
     <v>       0.00000000       0.00000000       0.06666667 </v>
    </varray>
   </crystal>
   <varray name="positions" >
    <v>       0.00418483       0.00275083       0.11899010 </v>
    <v>       0.35590378       0.00280305       0.09784616 </v>
    <v>       0.00419501       0.35447045       0.09784904 </v>
    <v>       0.65244371       0.65105477       0.09784170 </v>
    <v>       0.32475291       0.32334992       0.10032107 </v>
    <v>       0.68363161       0.00280192       0.10030213 </v>
    <v>       0.00420273       0.68221834       0.10029578 </v>
    <v>       0.16659337       0.33342357       0.33726104 </v>
    <v>       0.33342401       0.16659611       0.33726208 </v>
    <v>       0.16682138       0.83339250       0.33726379 </v>
    <v>       0.33333490       0.66667220       0.33711375 </v>
    <v>       0.66667134       0.33333136       0.33711373 </v>
    <v>       0.83338984       0.16681898       0.33726367 </v>
    <v>       0.66657344       0.83317583       0.33726144 </v>
    <v>       0.83317115       0.66657418       0.33726051 </v>
   </varray>
  </structure>
  <varray name="forces" >
   <v>      -0.00147827      -0.00065630      -0.19892800 </v>
   <v>       0.23691934       0.13540469       0.06460563 </v>
   <v>      -0.23805951       0.13727236       0.06443367 </v>
   <v>       0.00126399      -0.26773320       0.06625510 </v>
   <v>       0.00038365       0.55138798      -0.02089560 </v>
   <v>      -0.47565816      -0.27707792      -0.01859290 </v>
   <v>       0.47709456      -0.27724176      -0.01816187 </v>
   <v>       0.05415053      -0.00278690       0.01007913 </v>
   <v>      -0.05403059      -0.00328719       0.01016570 </v>
   <v>      -0.03112137      -0.04360883       0.01025947 </v>
   <v>       0.00126251      -0.00209330       0.00027858 </v>
   <v>      -0.00251837      -0.00133881       0.00028167 </v>
   <v>       0.03070423      -0.04269257       0.01021838 </v>
   <v>      -0.02357169       0.04689565       0.01002373 </v>
   <v>       0.02465915       0.04755610       0.00997731 </v>
  </varray>
  <varray name="stress" >
   <v>      -2.14263222       0.00160653      -0.01112353 </v>
   <v>       0.00160653      -2.15934543      -0.02558449 </v>
   <v>      -0.01112350      -0.02558448      -1.32746254 </v>
  </varray>
  <energy>
   <i name="e_fr_energy">   -127.07832269 </i>
   <i name="e_wo_entrp">   -127.07675550 </i>
   <i name="e_0_energy">   -127.07753910 </i>
  </energy>
  <time name="totalsc">   60.85   61.27</time>
 </calculation>
 <calculation>
  <scstep>
   <time name="dav">    5.49    5.53</time>
   <time name="total">    5.78    5.83</time>
   <energy>
    <i name="alphaZ">     58.35522451 </i>
    <i name="ewald">   4694.51695718 </i>
    <i name="hartreedc">  -6452.74191236 </i>
    <i name="XCdc">    180.58459835 </i>
    <i name="pawpsdc">   5774.59170501 </i>
    <i name="pawaedc">  -5779.01610672 </i>
    <i name="eentropy">     -0.00156719 </i>
    <i name="bandstr">   -505.05126231 </i>
    <i name="atom">   1903.26342058 </i>
    <i name="e_fr_energy">   -125.49894297 </i>
    <i name="e_wo_entrp">   -125.49737578 </i>
    <i name="e_0_energy">   -125.49815937 </i>
   </energy>
  </scstep>
  <scstep>
   <time name="dav">   10.35   10.41</time>
   <time name="total">   10.64   10.71</time>
   <energy>
    <i name="e_fr_energy">   -125.49712689 </i>
    <i name="e_wo_entrp">   -125.49555970 </i>
    <i name="e_0_energy">   -125.49634329 </i>
   </energy>
  </scstep>
  <scstep>
   <time name="dav">    8.68    8.73</time>
   <time name="total">    8.97    9.03</time>
   <energy>
    <i name="e_fr_energy">   -125.49693767 </i>
    <i name="e_wo_entrp">   -125.49537047 </i>
    <i name="e_0_energy">   -125.49615407 </i>
   </energy>
  </scstep>
  <scstep>
   <time name="dav">    9.64    9.69</time>
   <time name="total">    9.93   10.00</time>
   <energy>
    <i name="e_fr_energy">   -125.49693090 </i>
    <i name="e_wo_entrp">   -125.49536371 </i>
    <i name="e_0_energy">   -125.49614730 </i>
   </energy>
  </scstep>
  <scstep>
   <time name="dav">    8.15    8.20</time>
   <time name="total">    8.18    8.23</time>
   <energy>
    <i name="alphaZ">     58.35522451 </i>
    <i name="ewald">   4694.51695718 </i>
    <i name="hartreedc">  -6452.43141664 </i>
    <i name="XCdc">    180.57722842 </i>
    <i name="pawpsdc">   5761.73623122 </i>
    <i name="pawaedc">  -5766.15636161 </i>
    <i name="eentropy">     -0.00156719 </i>
    <i name="bandstr">   -505.35664803 </i>
    <i name="atom">   1903.26342058 </i>
    <i name="e_fr_energy">   -125.49693158 </i>
    <i name="e_wo_entrp">   -125.49536439 </i>
    <i name="e_0_energy">   -125.49614799 </i>
   </energy>
  </scstep>
  <structure>
   <crystal>
    <varray name="basis" >
     <v>       4.19502706       2.42200000       0.00000000 </v>
     <v>      -4.19502706       2.42200000       0.00000000 </v>
     <v>       0.00000000       0.00000000      15.00000000 </v>
    </varray>
    <i name="volume">    304.81066588 </i>
    <varray name="rec_basis" >
     <v>       0.11918874       0.20644096       0.00000000 </v>
     <v>      -0.11918874       0.20644096       0.00000000 </v>
     <v>       0.00000000       0.00000000       0.06666667 </v>
    </varray>
   </crystal>
   <varray name="positions" >
    <v>       0.00416994       0.00271329       0.11963447 </v>
    <v>       0.35640430       0.00282784       0.09767581 </v>
    <v>       0.00421578       0.35496475       0.09767905 </v>
    <v>       0.65195693       0.65058304       0.09766773 </v>
    <v>       0.32634261       0.32495674       0.10031345 </v>
    <v>       0.68203223       0.00279187       0.10028949 </v>
    <v>       0.00418488       0.68060637       0.10028138 </v>
    <v>       0.16662801       0.33338038       0.33723193 </v>
    <v>       0.33338061       0.16662944       0.33723247 </v>
    <v>       0.16674728       0.83336412       0.33723337 </v>
    <v>       0.33333399       0.66666924       0.33715488 </v>
    <v>       0.66666879       0.33333214       0.33715487 </v>
    <v>       0.83336273       0.16674603       0.33723331 </v>
    <v>       0.66661758       0.83325078       0.33723214 </v>
    <v>       0.83324833       0.66661797       0.33723165 </v>
   </varray>
  </structure>
  <varray name="forces" >
   <v>      -0.00284258       0.00246509      -0.30308383 </v>
   <v>       0.08541197       0.04602034       0.08658172 </v>
   <v>      -0.08624583       0.04751190       0.08638121 </v>
   <v>       0.00198633      -0.09523760       0.08857565 </v>
   <v>       0.00173536       0.12596653      -0.00874227 </v>
   <v>      -0.10906219      -0.06310776      -0.00600673 </v>
   <v>       0.10948399      -0.06222779      -0.00526165 </v>
   <v>       0.02147114      -0.00111125       0.01431711 </v>
   <v>      -0.02150333      -0.00129678       0.01451832 </v>
   <v>      -0.01232517      -0.01755048       0.01482069 </v>
   <v>       0.00047725      -0.00090099      -0.01270542 </v>
   <v>      -0.00102379      -0.00061347      -0.01270615 </v>
   <v>       0.01209307      -0.01719167       0.01478094 </v>
   <v>      -0.00953727       0.01850982       0.01434653 </v>
   <v>       0.00988105       0.01876411       0.01418389 </v>
  </varray>
  <varray name="stress" >
   <v>      -3.47524895       0.00533578      -0.01340115 </v>
   <v>       0.00533579      -3.48225970      -0.02051270 </v>
   <v>      -0.01340112      -0.02051270      -1.48901388 </v>
  </varray>
  <energy>
   <i name="e_fr_energy">   -127.08451484 </i>
   <i name="e_wo_entrp">   -127.08294765 </i>
   <i name="e_0_energy">   -127.08373125 </i>
  </energy>
  <time name="totalsc">   48.18   48.52</time>
 </calculation>
 <calculation>
  <scstep>
   <time name="dav">    5.46    5.49</time>
   <time name="total">    5.75    5.80</time>
   <energy>
    <i name="alphaZ">     58.35522451 </i>
    <i name="ewald">   4694.00592027 </i>
    <i name="hartreedc">  -6451.64561477 </i>
    <i name="XCdc">    180.59695948 </i>
    <i name="pawpsdc">   5761.69816110 </i>
    <i name="pawaedc">  -5766.11829601 </i>
    <i name="eentropy">     -0.00156719 </i>
    <i name="bandstr">   -505.65887609 </i>
    <i name="atom">   1903.26342058 </i>
    <i name="e_fr_energy">   -125.50466813 </i>
    <i name="e_wo_entrp">   -125.50310093 </i>
    <i name="e_0_energy">   -125.50388453 </i>
   </energy>
  </scstep>
  <scstep>
   <time name="dav">   11.76   11.83</time>
   <time name="total">   12.05   12.13</time>
   <energy>
    <i name="e_fr_energy">   -125.50475127 </i>
    <i name="e_wo_entrp">   -125.50318408 </i>
    <i name="e_0_energy">   -125.50396768 </i>
   </energy>
  </scstep>
  <scstep>
   <time name="dav">    8.56    8.61</time>
   <time name="total">    8.85    8.92</time>
   <energy>
    <i name="e_fr_energy">   -125.50474701 </i>
    <i name="e_wo_entrp">   -125.50317981 </i>
    <i name="e_0_energy">   -125.50396341 </i>
   </energy>
  </scstep>
  <scstep>
   <time name="dav">   11.10   11.16</time>
   <time name="total">   11.39   11.47</time>
   <energy>
    <i name="e_fr_energy">   -125.50474859 </i>
    <i name="e_wo_entrp">   -125.50318140 </i>
    <i name="e_0_energy">   -125.50396500 </i>
   </energy>
  </scstep>
  <scstep>
   <time name="dav">    8.80    8.86</time>
   <time name="total">    8.83    8.89</time>
   <energy>
    <i name="alphaZ">     58.35522451 </i>
    <i name="ewald">   4694.00592027 </i>
    <i name="hartreedc">  -6451.63115811 </i>
    <i name="XCdc">    180.59585192 </i>
    <i name="pawpsdc">   5767.45927826 </i>
    <i name="pawaedc">  -5771.88140882 </i>
    <i name="eentropy">     -0.00156719 </i>
    <i name="bandstr">   -505.67031031 </i>
    <i name="atom">   1903.26342058 </i>
    <i name="e_fr_energy">   -125.50474890 </i>
    <i name="e_wo_entrp">   -125.50318171 </i>
    <i name="e_0_energy">   -125.50396531 </i>
   </energy>
  </scstep>
  <structure>
   <crystal>
    <varray name="basis" >
     <v>       4.19502706       2.42200000       0.00000000 </v>
     <v>      -4.19502706       2.42200000       0.00000000 </v>
     <v>       0.00000000       0.00000000      15.00000000 </v>
    </varray>
    <i name="volume">    304.81066588 </i>
    <varray name="rec_basis" >
     <v>       0.11918874       0.20644096       0.00000000 </v>
     <v>      -0.11918874       0.20644096       0.00000000 </v>
     <v>       0.00000000       0.00000000       0.06666667 </v>
    </varray>
   </crystal>
   <varray name="positions" >
    <v>       0.00418668       0.00277377       0.11834954 </v>
    <v>       0.35695006       0.00278267       0.09803429 </v>
    <v>       0.00418223       0.35553217       0.09803672 </v>
    <v>       0.65141377       0.65000980       0.09803427 </v>
    <v>       0.32649197       0.32507734       0.10029278 </v>
    <v>       0.68189697       0.00279689       0.10027992 </v>
    <v>       0.00420491       0.68048473       0.10027508 </v>
    <v>       0.16670801       0.33328571       0.33729179 </v>
    <v>       0.33328423       0.16670875       0.33729324 </v>
    <v>       0.16657141       0.83328787       0.33729552 </v>
    <v>       0.33332893       0.66666049       0.33709218 </v>
    <v>       0.66665953       0.33333145       0.33709217 </v>
    <v>       0.83328771       0.16657388       0.33729531 </v>
    <v>       0.66670711       0.83342026       0.33729221 </v>
    <v>       0.83342050       0.66670823       0.33729097 </v>
   </varray>
  </structure>
  <varray name="forces" >
   <v>       0.00004943      -0.00046136      -0.27289729 </v>
   <v>       0.05131925       0.02975818       0.05015949 </v>
   <v>      -0.05128398       0.03086440       0.05008872 </v>
   <v>       0.00060821      -0.05728126       0.05100951 </v>
   <v>      -0.00043091       0.11552096       0.02032279 </v>
   <v>      -0.09825182      -0.05862860       0.02198543 </v>
   <v>       0.09841330      -0.05847442       0.02231096 </v>
   <v>      -0.05080895      -0.00197868       0.00622543 </v>
   <v>       0.05064145      -0.00173501       0.00622941 </v>
   <v>       0.02573822       0.04377732       0.00618424 </v>
   <v>      -0.00161493       0.00114432       0.00995404 </v>
   <v>       0.00224775       0.00057479       0.00995828 </v>
   <v>      -0.02567163       0.04298295       0.00615485 </v>
   <v>       0.02648974      -0.04279779       0.00614382 </v>
   <v>      -0.02744515      -0.04326580       0.00617031 </v>
  </varray>
  <varray name="stress" >
   <v>      -3.03785920       0.00148908      -0.00829085 </v>
   <v>       0.00148909      -3.03335885      -0.02455151 </v>
   <v>      -0.00829084      -0.02455150      -1.49818095 </v>
  </varray>
  <energy>
   <i name="e_fr_energy">   -127.09204811 </i>
   <i name="e_wo_entrp">   -127.09048092 </i>
   <i name="e_0_energy">   -127.09126452 </i>
  </energy>
  <time name="totalsc">   51.56   51.92</time>
 </calculation>
 <calculation>
  <scstep>
   <time name="dav">    5.46    5.50</time>
   <time name="total">    5.76    5.80</time>
   <energy>
    <i name="alphaZ">     58.35522451 </i>
    <i name="ewald">   4691.84148011 </i>
    <i name="hartreedc">  -6448.79047508 </i>
    <i name="XCdc">    180.64465828 </i>
    <i name="pawpsdc">   5767.50955047 </i>
    <i name="pawaedc">  -5771.93170399 </i>
    <i name="eentropy">     -0.00156714 </i>
    <i name="bandstr">   -506.40691896 </i>
    <i name="atom">   1903.26342058 </i>
    <i name="e_fr_energy">   -125.51633123 </i>
    <i name="e_wo_entrp">   -125.51476409 </i>
    <i name="e_0_energy">   -125.51554766 </i>
   </energy>
  </scstep>
  <scstep>
   <time name="dav">   11.37   11.43</time>
   <time name="total">   11.66   11.73</time>
   <energy>
    <i name="e_fr_energy">   -125.51725876 </i>
    <i name="e_wo_entrp">   -125.51569161 </i>
    <i name="e_0_energy">   -125.51647518 </i>
   </energy>
  </scstep>
  <scstep>
   <time name="dav">    8.27    8.33</time>
   <time name="total">    8.57    8.64</time>
   <energy>
    <i name="e_fr_energy">   -125.51720618 </i>
    <i name="e_wo_entrp">   -125.51563904 </i>
    <i name="e_0_energy">   -125.51642261 </i>
   </energy>
  </scstep>
  <scstep>
   <time name="dav">   11.79   11.86</time>
   <time name="total">   12.08   12.17</time>
   <energy>
    <i name="e_fr_energy">   -125.51722306 </i>
    <i name="e_wo_entrp">   -125.51565591 </i>
    <i name="e_0_energy">   -125.51643948 </i>
   </energy>
  </scstep>
  <scstep>
   <time name="dav">    8.44    8.49</time>
   <time name="total">    8.73    8.79</time>
   <energy>
    <i name="e_fr_energy">   -125.51722606 </i>
    <i name="e_wo_entrp">   -125.51565892 </i>
    <i name="e_0_energy">   -125.51644249 </i>
   </energy>
  </scstep>
  <scstep>
   <time name="dav">   10.32   10.38</time>
   <time name="total">   10.35   10.42</time>
   <energy>
    <i name="alphaZ">     58.35522451 </i>
    <i name="ewald">   4691.84148011 </i>
    <i name="hartreedc">  -6448.73858666 </i>
    <i name="XCdc">    180.64114272 </i>
    <i name="pawpsdc">   5781.83802034 </i>
    <i name="pawaedc">  -5786.26531152 </i>
    <i name="eentropy">     -0.00156715 </i>
    <i name="bandstr">   -506.45104919 </i>
    <i name="atom">   1903.26342058 </i>
    <i name="e_fr_energy">   -125.51722626 </i>
    <i name="e_wo_entrp">   -125.51565912 </i>
    <i name="e_0_energy">   -125.51644269 </i>
   </energy>
  </scstep>
  <structure>
   <crystal>
    <varray name="basis" >
     <v>       4.19502706       2.42200000       0.00000000 </v>
     <v>      -4.19502706       2.42200000       0.00000000 </v>
     <v>       0.00000000       0.00000000      15.00000000 </v>
    </varray>
    <i name="volume">    304.81066588 </i>
    <varray name="rec_basis" >
     <v>       0.11918874       0.20644096       0.00000000 </v>
     <v>      -0.11918874       0.20644096       0.00000000 </v>
     <v>       0.00000000       0.00000000       0.06666667 </v>
    </varray>
   </crystal>
   <varray name="positions" >
    <v>       0.00423689       0.00295522       0.11449472 </v>
    <v>       0.35858733       0.00264715       0.09910973 </v>
    <v>       0.00408155       0.35723444       0.09910974 </v>
    <v>       0.64978428       0.64829007       0.09913392 </v>
    <v>       0.32694005       0.32543913       0.10023079 </v>
    <v>       0.68149121       0.00281195       0.10025122 </v>
    <v>       0.00426497       0.68011980       0.10025617 </v>
    <v>       0.16694803       0.33300168       0.33747139 </v>
    <v>       0.33299509       0.16694670       0.33747552 </v>
    <v>       0.16604378       0.83305909       0.33748198 </v>
    <v>       0.33331372       0.66663424       0.33690409 </v>
    <v>       0.66663175       0.33332938       0.33690405 </v>
    <v>       0.83306263       0.16605743       0.33748131 </v>
    <v>       0.66697573       0.83392870       0.33747243 </v>
    <v>       0.83393699       0.66697902       0.33746894 </v>
   </varray>
  </structure>
  <varray name="forces" >
   <v>       0.00922802      -0.01004757      -0.21548048 </v>
   <v>      -0.07295978      -0.03236081      -0.04855156 </v>
   <v>       0.07478676      -0.03224804      -0.04818426 </v>
   <v>      -0.00331084       0.08188101      -0.05100876 </v>
   <v>      -0.00629177       0.06404772       0.10747389 </v>
   <v>      -0.04741957      -0.03430394       0.10606888 </v>
   <v>       0.04632902      -0.03589738       0.10530894 </v>
   <v>      -0.26985581      -0.00289608      -0.01790986 </v>
   <v>       0.26925523      -0.00135449      -0.01848516 </v>
   <v>       0.14237309       0.22873573      -0.01959784 </v>
   <v>      -0.00785850       0.00725065       0.07800988 </v>
   <v>       0.01200187       0.00411162       0.07802957 </v>
   <v>      -0.14135372       0.22439203      -0.01960749 </v>
   <v>       0.13407098      -0.22928272      -0.01833013 </v>
   <v>      -0.13899498      -0.23202772      -0.01773561 </v>
  </varray>
  <varray name="stress" >
   <v>      -1.83294469      -0.00719968       0.00352679 </v>
   <v>      -0.00719967      -1.80816540      -0.03201722 </v>
   <v>       0.00352678      -0.03201725      -1.56690572 </v>
  </varray>
  <energy>
   <i name="e_fr_energy">   -127.10368343 </i>
   <i name="e_wo_entrp">   -127.10211628 </i>
   <i name="e_0_energy">   -127.10289985 </i>
  </energy>
  <time name="totalsc">   61.82   62.26</time>
 </calculation>
 <calculation>
  <scstep>
   <time name="dav">    5.49    5.52</time>
   <time name="total">    5.78    5.82</time>
   <energy>
    <i name="alphaZ">     58.35522451 </i>
    <i name="ewald">   4691.54291040 </i>
    <i name="hartreedc">  -6448.34728253 </i>
    <i name="XCdc">    180.64713045 </i>
    <i name="pawpsdc">   5781.83826162 </i>
    <i name="pawaedc">  -5786.26555194 </i>
    <i name="eentropy">     -0.00156719 </i>
    <i name="bandstr">   -506.55342347 </i>
    <i name="atom">   1903.26342058 </i>
    <i name="e_fr_energy">   -125.52087758 </i>
    <i name="e_wo_entrp">   -125.51931039 </i>
    <i name="e_0_energy">   -125.52009399 </i>
   </energy>
  </scstep>
  <scstep>
   <time name="dav">   10.94   11.01</time>
   <time name="total">   11.24   11.31</time>
   <energy>
    <i name="e_fr_energy">   -125.52086638 </i>
    <i name="e_wo_entrp">   -125.51929919 </i>
    <i name="e_0_energy">   -125.52008278 </i>
   </energy>
  </scstep>
  <scstep>
   <time name="dav">    8.21    8.27</time>
   <time name="total">    8.50    8.57</time>
   <energy>
    <i name="e_fr_energy">   -125.52083913 </i>
    <i name="e_wo_entrp">   -125.51927195 </i>
    <i name="e_0_energy">   -125.52005554 </i>
   </energy>
  </scstep>
  <scstep>
   <time name="dav">   10.87   10.93</time>
   <time name="total">   11.16   11.23</time>
   <energy>
    <i name="e_fr_energy">   -125.52084019 </i>
    <i name="e_wo_entrp">   -125.51927300 </i>
    <i name="e_0_energy">   -125.52005660 </i>
   </energy>
  </scstep>
  <scstep>
   <time name="dav">    8.86    8.91</time>
   <time name="total">    8.89    8.94</time>
   <energy>
    <i name="alphaZ">     58.35522451 </i>
    <i name="ewald">   4691.54291040 </i>
    <i name="hartreedc">  -6448.35603065 </i>
    <i name="XCdc">    180.64631183 </i>
    <i name="pawpsdc">   5783.49712885 </i>
    <i name="pawaedc">  -5787.92507127 </i>
    <i name="eentropy">     -0.00156719 </i>
    <i name="bandstr">   -506.54316771 </i>
    <i name="atom">   1903.26342058 </i>
    <i name="e_fr_energy">   -125.52084065 </i>
    <i name="e_wo_entrp">   -125.51927347 </i>
    <i name="e_0_energy">   -125.52005706 </i>
   </energy>
  </scstep>
  <structure>
   <crystal>
    <varray name="basis" >
     <v>       4.19502706       2.42200000       0.00000000 </v>
     <v>      -4.19502706       2.42200000       0.00000000 </v>
     <v>       0.00000000       0.00000000      15.00000000 </v>
    </varray>
    <i name="volume">    304.81066588 </i>
    <varray name="rec_basis" >
     <v>       0.11918874       0.20644096       0.00000000 </v>
     <v>      -0.11918874       0.20644096       0.00000000 </v>
     <v>       0.00000000       0.00000000       0.06666667 </v>
    </varray>
   </crystal>
   <varray name="positions" >
    <v>       0.00423762       0.00296010       0.11386716 </v>
    <v>       0.35871628       0.00264124       0.09923840 </v>
    <v>       0.00408202       0.35737117       0.09923823 </v>
    <v>       0.64966366       0.64816197       0.09926490 </v>
    <v>       0.32708220       0.32557890       0.10026809 </v>
    <v>       0.68135327       0.00280488       0.10029254 </v>
    <v>       0.00426122       0.67998625       0.10029852 </v>
    <v>       0.16677148       0.33316445       0.33748869 </v>
    <v>       0.33315873       0.16677237       0.33749295 </v>
    <v>       0.16638172       0.83322112       0.33749951 </v>
    <v>       0.33331520       0.66664618       0.33691127 </v>
    <v>       0.66664249       0.33332537       0.33691124 </v>
    <v>       0.83322020       0.16639039       0.33749878 </v>
    <v>       0.66681218       0.83359372       0.33748963 </v>
    <v>       0.83359574       0.66681590       0.33748608 </v>
   </varray>
  </structure>
  <varray name="forces" >
   <v>       0.00924023      -0.00941168      -0.20278636 </v>
   <v>      -0.07859748      -0.03505913      -0.05164459 </v>
   <v>       0.08068446      -0.03559699      -0.05122488 </v>
   <v>      -0.00380783       0.08703073      -0.05440705 </v>
   <v>      -0.00640346       0.04272039       0.10743069 </v>
   <v>      -0.03011513      -0.02331962       0.10561579 </v>
   <v>       0.02935043      -0.02532251       0.10475793 </v>
   <v>      -0.12644672       0.00423219      -0.01888664 </v>
   <v>       0.12596948       0.00524337      -0.01948713 </v>
   <v>       0.07100229       0.10281047      -0.02060017 </v>
   <v>      -0.00327847       0.00395499       0.07989333 </v>
   <v>       0.00556381       0.00223433       0.07991269 </v>
   <v>      -0.07049446       0.10074956      -0.02060153 </v>
   <v>       0.05665111      -0.10946062      -0.01929178 </v>
   <v>      -0.05931827      -0.11080548      -0.01868032 </v>
  </varray>
  <varray name="stress" >
   <v>      -1.69049048      -0.00900602       0.00320911 </v>
   <v>      -0.00900601      -1.69642373      -0.03006649 </v>
   <v>       0.00320911      -0.03006645      -1.57014213 </v>
  </varray>
  <energy>
   <i name="e_fr_energy">   -127.10714492 </i>
   <i name="e_wo_entrp">   -127.10557774 </i>
   <i name="e_0_energy">   -127.10636133 </i>
  </energy>
  <time name="totalsc">   50.27   50.62</time>
 </calculation>
 <calculation>
  <scstep>
   <time name="dav">    5.47    5.50</time>
   <time name="total">    5.75    5.80</time>
   <energy>
    <i name="alphaZ">     58.35522451 </i>
    <i name="ewald">   4690.90909427 </i>
    <i name="hartreedc">  -6447.55632017 </i>
    <i name="XCdc">    180.65725494 </i>
    <i name="pawpsdc">   5783.63535920 </i>
    <i name="pawaedc">  -5788.06330838 </i>
    <i name="eentropy">     -0.00156714 </i>
    <i name="bandstr">   -506.72319632 </i>
    <i name="atom">   1903.26342058 </i>
    <i name="e_fr_energy">   -125.52403852 </i>
    <i name="e_wo_entrp">   -125.52247137 </i>
    <i name="e_0_energy">   -125.52325494 </i>
   </energy>
  </scstep>
  <scstep>
   <time name="dav">   10.88   10.94</time>
   <time name="total">   11.17   11.24</time>
   <energy>
    <i name="e_fr_energy">   -125.52399671 </i>
    <i name="e_wo_entrp">   -125.52242956 </i>
    <i name="e_0_energy">   -125.52321313 </i>
   </energy>
  </scstep>
  <scstep>
   <time name="dav">    8.66    8.72</time>
   <time name="total">    8.95    9.02</time>
   <energy>
    <i name="e_fr_energy">   -125.52389411 </i>
    <i name="e_wo_entrp">   -125.52232696 </i>
    <i name="e_0_energy">   -125.52311054 </i>
   </energy>
  </scstep>
  <scstep>
   <time name="dav">   10.30   10.36</time>
   <time name="total">   10.60   10.66</time>
   <energy>
    <i name="e_fr_energy">   -125.52389832 </i>
    <i name="e_wo_entrp">   -125.52233117 </i>
    <i name="e_0_energy">   -125.52311475 </i>
   </energy>
  </scstep>
  <scstep>
   <time name="dav">    8.85    8.90</time>
   <time name="total">    8.89    8.95</time>
   <energy>
    <i name="alphaZ">     58.35522451 </i>
    <i name="ewald">   4690.90909427 </i>
    <i name="hartreedc">  -6447.60848201 </i>
    <i name="XCdc">    180.65632534 </i>
    <i name="pawpsdc">   5786.89339211 </i>
    <i name="pawaedc">  -5791.32264234 </i>
    <i name="eentropy">     -0.00156716 </i>
    <i name="bandstr">   -506.66866435 </i>
    <i name="atom">   1903.26342058 </i>
    <i name="e_fr_energy">   -125.52389905 </i>
    <i name="e_wo_entrp">   -125.52233189 </i>
    <i name="e_0_energy">   -125.52311547 </i>
   </energy>
  </scstep>
  <structure>
   <crystal>
    <varray name="basis" >
     <v>       4.19502706       2.42200000       0.00000000 </v>
     <v>      -4.19502706       2.42200000       0.00000000 </v>
     <v>       0.00000000       0.00000000      15.00000000 </v>
    </varray>
    <i name="volume">    304.81066588 </i>
    <varray name="rec_basis" >
     <v>       0.11918874       0.20644096       0.00000000 </v>
     <v>      -0.11918874       0.20644096       0.00000000 </v>
     <v>       0.00000000       0.00000000       0.06666667 </v>
    </varray>
   </crystal>
   <varray name="positions" >
    <v>       0.00423905       0.00296960       0.11264330 </v>
    <v>       0.35896775       0.00262970       0.09948933 </v>
    <v>       0.00408293       0.35763782       0.09948881 </v>
    <v>       0.64942845       0.64791217       0.09952034 </v>
    <v>       0.32735943       0.32585149       0.10034081 </v>
    <v>       0.68108424       0.00279109       0.10037311 </v>
    <v>       0.00425389       0.67972581       0.10038112 </v>
    <v>       0.16642719       0.33348188       0.33752243 </v>
    <v>       0.33347785       0.16643238       0.33752693 </v>
    <v>       0.16704074       0.83353709       0.33753370 </v>
    <v>       0.33331808       0.66666948       0.33692529 </v>
    <v>       0.66666344       0.33331754       0.33692527 </v>
    <v>       0.83352749       0.16703972       0.33753284 </v>
    <v>       0.66649323       0.83294044       0.33752319 </v>
    <v>       0.83293024       0.66649779       0.33751953 </v>
   </varray>
  </structure>
  <varray name="forces" >
   <v>       0.00924465      -0.00813489      -0.18110564 </v>
   <v>      -0.09209366      -0.04174006      -0.05709059 </v>
   <v>       0.09466772      -0.04356565      -0.05657637 </v>
   <v>      -0.00476316       0.09990731      -0.06042756 </v>
   <v>      -0.00658348      -0.00129421       0.10767925 </v>
   <v>       0.00574731      -0.00067796       0.10509548 </v>
   <v>      -0.00588448      -0.00350188       0.10405065 </v>
   <v>       0.14822541       0.01904704      -0.02076618 </v>
   <v>      -0.14848076       0.01902447      -0.02141674 </v>
   <v>      -0.06502866      -0.13888252      -0.02253003 </v>
   <v>       0.00574980      -0.00252919       0.08359916 </v>
   <v>      -0.00710492      -0.00145564       0.08361616 </v>
   <v>       0.06464671      -0.13662999      -0.02250860 </v>
   <v>      -0.09278270       0.11961189      -0.02112987 </v>
   <v>       0.09444023       0.12082128      -0.02048912 </v>
  </varray>
  <varray name="stress" >
   <v>      -1.37464911      -0.01198298       0.00258144 </v>
   <v>      -0.01198297      -1.44255805      -0.02639982 </v>
   <v>       0.00258144      -0.02639982      -1.59999286 </v>
  </varray>
  <energy>
   <i name="e_fr_energy">   -127.10988986 </i>
   <i name="e_wo_entrp">   -127.10832270 </i>
   <i name="e_0_energy">   -127.10910628 </i>
  </energy>
  <time name="totalsc">   50.06   50.40</time>
 </calculation>
 <calculation>
  <scstep>
   <time name="dav">    5.48    5.52</time>
   <time name="total">    5.77    5.82</time>
   <energy>
    <i name="alphaZ">     58.35522451 </i>
    <i name="ewald">   4690.78484906 </i>
    <i name="hartreedc">  -6447.37004540 </i>
    <i name="XCdc">    180.66381221 </i>
    <i name="pawpsdc">   5787.17446430 </i>
    <i name="pawaedc">  -5791.60371978 </i>
    <i name="eentropy">     -0.00156718 </i>
    <i name="bandstr">   -506.79275275 </i>
    <i name="atom">   1903.26342058 </i>
    <i name="e_fr_energy">   -125.52631445 </i>
    <i name="e_wo_entrp">   -125.52474727 </i>
    <i name="e_0_energy">   -125.52553086 </i>
   </energy>
  </scstep>
  <scstep>
   <time name="dav">   10.10   10.16</time>
   <time name="total">   10.39   10.46</time>
   <energy>
    <i name="e_fr_energy">   -125.52634032 </i>
    <i name="e_wo_entrp">   -125.52477314 </i>
    <i name="e_0_energy">   -125.52555673 </i>
   </energy>
  </scstep>
  <scstep>
   <time name="dav">    7.82    7.88</time>
   <time name="total">    8.11    8.17</time>
   <energy>
    <i name="e_fr_energy">   -125.52633847 </i>
    <i name="e_wo_entrp">   -125.52477129 </i>
    <i name="e_0_energy">   -125.52555488 </i>
   </energy>
  </scstep>
  <scstep>
   <time name="dav">   10.28   10.34</time>
   <time name="total">   10.32   10.38</time>
   <energy>
    <i name="alphaZ">     58.35522451 </i>
    <i name="ewald">   4690.78484906 </i>
    <i name="hartreedc">  -6447.45420445 </i>
    <i name="XCdc">    180.66304537 </i>
    <i name="pawpsdc">   5789.68126952 </i>
    <i name="pawaedc">  -5794.11137500 </i>
    <i name="eentropy">     -0.00156718 </i>
    <i name="bandstr">   -506.70700092 </i>
    <i name="atom">   1903.26342058 </i>
    <i name="e_fr_energy">   -125.52633852 </i>
    <i name="e_wo_entrp">   -125.52477134 </i>
    <i name="e_0_energy">   -125.52555493 </i>
   </energy>
  </scstep>
  <structure>
   <crystal>
    <varray name="basis" >
     <v>       4.19502706       2.42200000       0.00000000 </v>
     <v>      -4.19502706       2.42200000       0.00000000 </v>
     <v>       0.00000000       0.00000000      15.00000000 </v>
    </varray>
    <i name="volume">    304.81066588 </i>
    <varray name="rec_basis" >
     <v>       0.11918874       0.20644096       0.00000000 </v>
     <v>      -0.11918874       0.20644096       0.00000000 </v>
     <v>       0.00000000       0.00000000       0.06666667 </v>
    </varray>
   </crystal>
   <varray name="positions" >
    <v>       0.00423460       0.00294942       0.11194449 </v>
    <v>       0.35891477       0.00264514       0.09957667 </v>
    <v>       0.00410376       0.35758608       0.09957629 </v>
    <v>       0.64949342       0.64798020       0.09960788 </v>
    <v>       0.32748400       0.32598779       0.10043987 </v>
    <v>       0.68095912       0.00277708       0.10047443 </v>
    <v>       0.00423767       0.67959978       0.10048279 </v>
    <v>       0.16645319       0.33351293       0.33752640 </v>
    <v>       0.33350941       0.16646070       0.33753064 </v>
    <v>       0.16703480       0.83350344       0.33753685 </v>
    <v>       0.33332093       0.66666998       0.33698169 </v>
    <v>       0.66666335       0.33331862       0.33698169 </v>
    <v>       0.83349338       0.16703365       0.33753593 </v>
    <v>       0.66646054       0.83294320       0.33752686 </v>
    <v>       0.83293106       0.66646598       0.33752352 </v>
   </varray>
  </structure>
  <varray name="forces" >
   <v>       0.00769127      -0.00587921      -0.15873393 </v>
   <v>      -0.06993129      -0.02977679      -0.04601448 </v>
   <v>       0.07257472      -0.03254395      -0.04551329 </v>
   <v>      -0.00491067       0.07346115      -0.04935133 </v>
   <v>      -0.00564642      -0.00986398       0.08982822 </v>
   <v>       0.01026580       0.00438829       0.08696994 </v>
   <v>      -0.00970150       0.00119063       0.08590434 </v>
   <v>       0.14885623       0.00418163      -0.01806289 </v>
   <v>      -0.14880901       0.00349071      -0.01864592 </v>
   <v>      -0.07626536      -0.12858436      -0.01962264 </v>
   <v>       0.00435185      -0.00378367       0.07446162 </v>
   <v>      -0.00647969      -0.00211780       0.07447317 </v>
   <v>       0.07566073      -0.12626048      -0.01958865 </v>
   <v>      -0.07680487       0.12537081      -0.01833222 </v>
   <v>       0.07914821       0.12672701      -0.01777193 </v>
  </varray>
  <varray name="stress" >
   <v>      -1.21396677      -0.01060209       0.00081621 </v>
   <v>      -0.01060210      -1.26460692      -0.02312210 </v>
   <v>       0.00081623      -0.02312213      -1.58204392 </v>
  </varray>
  <energy>
   <i name="e_fr_energy">   -127.11210944 </i>
   <i name="e_wo_entrp">   -127.11054226 </i>
   <i name="e_0_energy">   -127.11132585 </i>
  </energy>
  <time name="totalsc">   39.27   39.54</time>
 </calculation>
 <calculation>
  <scstep>
   <time name="dav">    5.48    5.51</time>
   <time name="total">    5.77    5.81</time>
   <energy>
    <i name="alphaZ">     58.35522451 </i>
    <i name="ewald">   4690.22163573 </i>
    <i name="hartreedc">  -6446.59049440 </i>
    <i name="XCdc">    180.68260038 </i>
    <i name="pawpsdc">   5789.72131155 </i>
    <i name="pawaedc">  -5794.15141888 </i>
    <i name="eentropy">     -0.00156718 </i>
    <i name="bandstr">   -507.03225725 </i>
    <i name="atom">   1903.26342058 </i>
    <i name="e_fr_energy">   -125.53154497 </i>
    <i name="e_wo_entrp">   -125.52997779 </i>
    <i name="e_0_energy">   -125.53076138 </i>
   </energy>
  </scstep>
  <scstep>
   <time name="dav">   11.69   11.75</time>
   <time name="total">   11.98   12.06</time>
   <energy>
    <i name="e_fr_energy">   -125.53178105 </i>
    <i name="e_wo_entrp">   -125.53021387 </i>
    <i name="e_0_energy">   -125.53099746 </i>
   </energy>
  </scstep>
  <scstep>
   <time name="dav">    8.31    8.36</time>
   <time name="total">    8.60    8.67</time>
   <energy>
    <i name="e_fr_energy">   -125.53176107 </i>
    <i name="e_wo_entrp">   -125.53019389 </i>
    <i name="e_0_energy">   -125.53097748 </i>
   </energy>
  </scstep>
  <scstep>
   <time name="dav">    9.74    9.80</time>
   <time name="total">   10.03   10.11</time>
   <energy>
    <i name="e_fr_energy">   -125.53176097 </i>
    <i name="e_wo_entrp">   -125.53019379 </i>
    <i name="e_0_energy">   -125.53097738 </i>
   </energy>
  </scstep>
  <scstep>
   <time name="dav">    9.00    9.05</time>
   <time name="total">    9.29    9.35</time>
   <energy>
    <i name="e_fr_energy">   -125.53175873 </i>
    <i name="e_wo_entrp">   -125.53019155 </i>
    <i name="e_0_energy">   -125.53097514 </i>
   </energy>
  </scstep>
  <scstep>
   <time name="dav">   10.28   10.33</time>
   <time name="total">   10.31   10.37</time>
   <energy>
    <i name="alphaZ">     58.35522451 </i>
    <i name="ewald">   4690.22163573 </i>
    <i name="hartreedc">  -6446.89402512 </i>
    <i name="XCdc">    180.68021047 </i>
    <i name="pawpsdc">   5796.28416068 </i>
    <i name="pawaedc">  -5800.71648559 </i>
    <i name="eentropy">     -0.00156719 </i>
    <i name="bandstr">   -506.72433229 </i>
    <i name="atom">   1903.26342058 </i>
    <i name="e_fr_energy">   -125.53175823 </i>
    <i name="e_wo_entrp">   -125.53019104 </i>
    <i name="e_0_energy">   -125.53097463 </i>
   </energy>
  </scstep>
  <structure>
   <crystal>
    <varray name="basis" >
     <v>       4.19502706       2.42200000       0.00000000 </v>
     <v>      -4.19502706       2.42200000       0.00000000 </v>
     <v>       0.00000000       0.00000000      15.00000000 </v>
    </varray>
    <i name="volume">    304.81066588 </i>
    <varray name="rec_basis" >
     <v>       0.11918874       0.20644096       0.00000000 </v>
     <v>      -0.11918874       0.20644096       0.00000000 </v>
     <v>       0.00000000       0.00000000       0.06666667 </v>
    </varray>
   </crystal>
   <varray name="positions" >
    <v>       0.00422124       0.00288889       0.10984803 </v>
    <v>       0.35875581       0.00269147       0.09983869 </v>
    <v>       0.00416626       0.35743085       0.09983872 </v>
    <v>       0.64968834       0.64818431       0.09987049 </v>
    <v>       0.32785771       0.32639671       0.10073706 </v>
    <v>       0.68058375       0.00273506       0.10077839 </v>
    <v>       0.00418900       0.67922171       0.10078782 </v>
    <v>       0.16653120       0.33360609       0.33753832 </v>
    <v>       0.33360408       0.16654564       0.33754176 </v>
    <v>       0.16701698       0.83340252       0.33754628 </v>
    <v>       0.33332946       0.66667148       0.33715090 </v>
    <v>       0.66666306       0.33332187       0.33715095 </v>
    <v>       0.83339108       0.16701541       0.33754521 </v>
    <v>       0.66636249       0.83295145       0.33753787 </v>
    <v>       0.83293354       0.66637054       0.33753550 </v>
   </varray>
  </structure>
  <varray name="forces" >
   <v>       0.00297555       0.00100382      -0.10120954 </v>
   <v>      -0.00996197       0.00236100      -0.01132734 </v>
   <v>       0.01307458      -0.00324058      -0.01087033 </v>
   <v>      -0.00537214       0.00176601      -0.01465091 </v>
   <v>      -0.00303388      -0.04309410       0.03797663 </v>
   <v>       0.03049985       0.02318117       0.03436312 </v>
   <v>      -0.02787370       0.01892383       0.03329209 </v>
   <v>       0.15361071      -0.03816193      -0.00997940 </v>
   <v>      -0.15265457      -0.04082612      -0.01035954 </v>
   <v>      -0.10958280      -0.10143600      -0.01096211 </v>
   <v>       0.00021506      -0.00755765       0.04720484 </v>
   <v>      -0.00465159      -0.00412392       0.04720128 </v>
[...]
   <time name="dav">    9.08    9.14</time>
   <time name="total">    9.37    9.44</time>
   <energy>
    <i name="e_fr_energy">   -125.53750201 </i>
    <i name="e_wo_entrp">   -125.53593508 </i>
    <i name="e_0_energy">   -125.53671855 </i>
   </energy>
  </scstep>
  <scstep>
   <time name="dav">    9.24    9.29</time>
   <time name="total">    9.28    9.33</time>
   <energy>
    <i name="alphaZ">     58.35522451 </i>
    <i name="ewald">   4686.80929356 </i>
    <i name="hartreedc">  -6443.97166964 </i>
    <i name="XCdc">    180.70778797 </i>
    <i name="pawpsdc">   5806.60736145 </i>
    <i name="pawaedc">  -5811.04314057 </i>
    <i name="eentropy">     -0.00156693 </i>
    <i name="bandstr">   -506.26421366 </i>
    <i name="atom">   1903.26342058 </i>
    <i name="e_fr_energy">   -125.53750275 </i>
    <i name="e_wo_entrp">   -125.53593582 </i>
    <i name="e_0_energy">   -125.53671929 </i>
   </energy>
  </scstep>
  <structure>
   <crystal>
    <varray name="basis" >
     <v>       4.19502706       2.42200000       0.00000000 </v>
     <v>      -4.19502706       2.42200000       0.00000000 </v>
     <v>       0.00000000       0.00000000      15.00000000 </v>
    </varray>
    <i name="volume">    304.81066588 </i>
    <varray name="rec_basis" >
     <v>       0.11918874       0.20644096       0.00000000 </v>
     <v>      -0.11918874       0.20644096       0.00000000 </v>
     <v>       0.00000000       0.00000000       0.06666667 </v>
    </varray>
   </crystal>
   <varray name="positions" >
    <v>       0.00423163       0.00280135       0.10398909 </v>
    <v>       0.35870928       0.00283413       0.10065461 </v>
    <v>       0.00431650       0.35733566       0.10065621 </v>
    <v>       0.64977153       0.64832340       0.10068346 </v>
    <v>       0.32830437       0.32693097       0.10148046 </v>
    <v>       0.68010396       0.00270107       0.10153404 </v>
    <v>       0.00412552       0.67869048       0.10154493 </v>
    <v>       0.16662944       0.33296091       0.33758011 </v>
    <v>       0.33294223       0.16662905       0.33758134 </v>
    <v>       0.16634671       0.83334846       0.33758146 </v>
    <v>       0.33327053       0.66663200       0.33761233 </v>
    <v>       0.66662600       0.33329926       0.33761244 </v>
    <v>       0.83333985       0.16636263       0.33758010 </v>
    <v>       0.66698263       0.83359629       0.33757761 </v>
    <v>       0.83359382       0.66698833       0.33757783 </v>
   </varray>
  </structure>
  <varray name="forces" >
   <v>      -0.00263063       0.00213581       0.00060516 </v>
   <v>       0.07376795       0.03956200       0.07431297 </v>
   <v>      -0.07410167       0.03370639       0.07438269 </v>
   <v>      -0.00282820      -0.08618293       0.07158178 </v>
   <v>       0.00440092      -0.07065977      -0.07777963 </v>
   <v>       0.05058851       0.04166464      -0.08257808 </v>
   <v>      -0.04896298       0.04050776      -0.08355804 </v>
   <v>      -0.15257056       0.07165537       0.01205169 </v>
   <v>       0.15159177       0.07615833       0.01219896 </v>
   <v>       0.12542703       0.07286896       0.01268818 </v>
   <v>       0.00844604       0.00929082      -0.02572876 </v>
   <v>      -0.00349911       0.00345264      -0.02576311 </v>
   <v>      -0.12442043       0.07138188       0.01277028 </v>
   <v>      -0.01376321      -0.15269649       0.01252801 </v>
   <v>       0.00855458      -0.15284540       0.01228791 </v>
  </varray>
  <varray name="stress" >
   <v>       0.06213988      -0.00661636      -0.00484969 </v>
   <v>      -0.00661638      -0.04659637      -0.01169235 </v>
   <v>      -0.00484969      -0.01169230      -1.73106472 </v>
  </varray>
  <energy>
   <i name="e_fr_energy">   -127.12084971 </i>
   <i name="e_wo_entrp">   -127.11928278 </i>
   <i name="e_0_energy">   -127.12006625 </i>
  </energy>
  <time name="totalsc">  106.57  107.33</time>
 </calculation>
 <calculation>
  <scstep>
   <time name="dav">    5.46    5.49</time>
   <time name="total">    5.75    5.79</time>
   <energy>
    <i name="alphaZ">     58.35522451 </i>
    <i name="ewald">   4687.24637030 </i>
    <i name="hartreedc">  -6444.44354767 </i>
    <i name="XCdc">    180.70614214 </i>
    <i name="pawpsdc">   5806.61404904 </i>
    <i name="pawaedc">  -5811.04982652 </i>
    <i name="eentropy">     -0.00156716 </i>
    <i name="bandstr">   -506.22799912 </i>
    <i name="atom">   1903.26342058 </i>
    <i name="e_fr_energy">   -125.53773390 </i>
    <i name="e_wo_entrp">   -125.53616674 </i>
    <i name="e_0_energy">   -125.53695032 </i>
   </energy>
  </scstep>
  <scstep>
   <time name="dav">   11.63   11.70</time>
   <time name="total">   11.92   12.00</time>
   <energy>
    <i name="e_fr_energy">   -125.53773208 </i>
    <i name="e_wo_entrp">   -125.53616493 </i>
    <i name="e_0_energy">   -125.53694850 </i>
   </energy>
  </scstep>
  <scstep>
   <time name="dav">    8.61    8.66</time>
   <time name="total">    8.91    8.97</time>
   <energy>
    <i name="e_fr_energy">   -125.53772548 </i>
    <i name="e_wo_entrp">   -125.53615833 </i>
    <i name="e_0_energy">   -125.53694191 </i>
   </energy>
  </scstep>
  <scstep>
   <time name="dav">   10.58   10.65</time>
   <time name="total">   10.87   10.95</time>
   <energy>
    <i name="e_fr_energy">   -125.53772581 </i>
    <i name="e_wo_entrp">   -125.53615866 </i>
    <i name="e_0_energy">   -125.53694224 </i>
   </energy>
  </scstep>
  <scstep>
   <time name="dav">    9.14    9.20</time>
   <time name="total">    9.17    9.23</time>
   <energy>
    <i name="alphaZ">     58.35522451 </i>
    <i name="ewald">   4687.24637030 </i>
    <i name="hartreedc">  -6444.39482765 </i>
    <i name="XCdc">    180.70559419 </i>
    <i name="pawpsdc">   5805.80196476 </i>
    <i name="pawaedc">  -5810.23749065 </i>
    <i name="eentropy">     -0.00156715 </i>
    <i name="bandstr">   -506.27641512 </i>
    <i name="atom">   1903.26342058 </i>
    <i name="e_fr_energy">   -125.53772624 </i>
    <i name="e_wo_entrp">   -125.53615909 </i>
    <i name="e_0_energy">   -125.53694266 </i>
   </energy>
  </scstep>
  <structure>
   <crystal>
    <varray name="basis" >
     <v>       4.19502706       2.42200000       0.00000000 </v>
     <v>      -4.19502706       2.42200000       0.00000000 </v>
     <v>       0.00000000       0.00000000      15.00000000 </v>
    </varray>
    <i name="volume">    304.81066588 </i>
    <varray name="rec_basis" >
     <v>       0.11918874       0.20644096       0.00000000 </v>
     <v>      -0.11918874       0.20644096       0.00000000 </v>
     <v>       0.00000000       0.00000000       0.06666667 </v>
    </varray>
   </crystal>
   <varray name="positions" >
    <v>       0.00422056       0.00279135       0.10448632 </v>
    <v>       0.35862828       0.00281920       0.10056750 </v>
    <v>       0.00430896       0.35727142       0.10056888 </v>
    <v>       0.64986305       0.64840372       0.10059758 </v>
    <v>       0.32839414       0.32701560       0.10143599 </v>
    <v>       0.68002310       0.00268613       0.10148995 </v>
    <v>       0.00411542       0.67862335       0.10150104 </v>
    <v>       0.16664668       0.33320907       0.33757475 </v>
    <v>       0.33319628       0.16665486       0.33757616 </v>
    <v>       0.16653611       0.83330435       0.33757659 </v>
    <v>       0.33329321       0.66664468       0.33757561 </v>
    <v>       0.66663689       0.33330795       0.33757574 </v>
    <v>       0.83329407       0.16654657       0.33757522 </v>
    <v>       0.66673902       0.83340876       0.33757231 </v>
    <v>       0.83339824       0.66674698       0.33757234 </v>
   </varray>
  </structure>
  <varray name="forces" >
   <v>      -0.00392565       0.00614157      -0.00426672 </v>
   <v>       0.07614244       0.04282130       0.07147732 </v>
   <v>      -0.07504221       0.03526441       0.07161667 </v>
   <v>      -0.00385895      -0.09306524       0.06855398 </v>
   <v>       0.00373276      -0.09177322      -0.07344169 </v>
   <v>       0.06476585       0.05207651      -0.07826633 </v>
   <v>      -0.06157236       0.04928853      -0.07929324 </v>
   <v>      -0.05727154       0.01393514       0.01033060 </v>
   <v>       0.05741823       0.01513552       0.01043411 </v>
   <v>       0.03530696       0.03623156       0.01084692 </v>
   <v>       0.00354437       0.00203617      -0.02011402 </v>
   <v>      -0.00276095      -0.00000948      -0.02014910 </v>
   <v>      -0.03537911       0.03612323       0.01092978 </v>
   <v>       0.00655923      -0.05247519       0.01076689 </v>
   <v>      -0.00765906      -0.05173083       0.01057485 </v>
  </varray>
  <varray name="stress" >
   <v>      -0.04897966      -0.00472013      -0.00543364 </v>
   <v>      -0.00472012      -0.09393242      -0.01079074 </v>
   <v>      -0.00543362      -0.01079073      -1.73039643 </v>
  </varray>
  <energy>
   <i name="e_fr_energy">   -127.12122905 </i>
   <i name="e_wo_entrp">   -127.11966190 </i>
   <i name="e_0_energy">   -127.12044547 </i>
  </energy>
  <time name="totalsc">   51.30   51.66</time>
 </calculation>
 <calculation>
  <scstep>
   <time name="dav">    5.45    5.48</time>
   <time name="total">    5.74    5.79</time>
   <energy>
    <i name="alphaZ">     58.35522451 </i>
    <i name="ewald">   4686.51830333 </i>
    <i name="hartreedc">  -6443.61900449 </i>
    <i name="XCdc">    180.70808785 </i>
    <i name="pawpsdc">   5805.88224852 </i>
    <i name="pawaedc">  -5810.31778011 </i>
    <i name="eentropy">     -0.00156718 </i>
    <i name="bandstr">   -506.32814363 </i>
    <i name="atom">   1903.26342058 </i>
    <i name="e_fr_energy">   -125.53921063 </i>
    <i name="e_wo_entrp">   -125.53764345 </i>
    <i name="e_0_energy">   -125.53842704 </i>
   </energy>
  </scstep>
  <scstep>
   <time name="dav">    9.69    9.75</time>
   <time name="total">    9.98   10.06</time>
   <energy>
    <i name="e_fr_energy">   -125.53917362 </i>
    <i name="e_wo_entrp">   -125.53760644 </i>
    <i name="e_0_energy">   -125.53839003 </i>
   </energy>
  </scstep>
  <scstep>
   <time name="dav">    9.51    9.56</time>
   <time name="total">    9.79    9.86</time>
   <energy>
    <i name="e_fr_energy">   -125.53917033 </i>
    <i name="e_wo_entrp">   -125.53760314 </i>
    <i name="e_0_energy">   -125.53838674 </i>
   </energy>
  </scstep>
  <scstep>
   <time name="dav">    8.53    8.58</time>
   <time name="total">    8.56    8.62</time>
   <energy>
    <i name="alphaZ">     58.35522451 </i>
    <i name="ewald">   4686.51830333 </i>
    <i name="hartreedc">  -6443.62008351 </i>
    <i name="XCdc">    180.71103027 </i>
    <i name="pawpsdc">   5806.74380176 </i>
    <i name="pawaedc">  -5811.17967242 </i>
    <i name="eentropy">     -0.00156719 </i>
    <i name="bandstr">   -506.32962855 </i>
    <i name="atom">   1903.26342058 </i>
    <i name="e_fr_energy">   -125.53917123 </i>
    <i name="e_wo_entrp">   -125.53760404 </i>
    <i name="e_0_energy">   -125.53838763 </i>
   </energy>
  </scstep>
  <structure>
   <crystal>
    <varray name="basis" >
     <v>       4.19502706       2.42200000       0.00000000 </v>
     <v>      -4.19502706       2.42200000       0.00000000 </v>
     <v>       0.00000000       0.00000000      15.00000000 </v>
    </varray>
    <i name="volume">    304.81066588 </i>
    <varray name="rec_basis" >
     <v>       0.11918874       0.20644096       0.00000000 </v>
     <v>      -0.11918874       0.20644096       0.00000000 </v>
     <v>       0.00000000       0.00000000       0.06666667 </v>
    </varray>
   </crystal>
   <varray name="positions" >
    <v>       0.00424277       0.00283066       0.10416603 </v>
    <v>       0.35901990       0.00282419       0.10071318 </v>
    <v>       0.00428212       0.35762030       0.10071488 </v>
    <v>       0.64943139       0.64799663       0.10073878 </v>
    <v>       0.32798584       0.32659365       0.10137114 </v>
    <v>       0.68042517       0.00275318       0.10141875 </v>
    <v>       0.00417570       0.67899857       0.10142842 </v>
    <v>       0.16656074       0.33323624       0.33759123 </v>
    <v>       0.33322476       0.16656787       0.33759265 </v>
    <v>       0.16663820       0.83339443       0.33759341 </v>
    <v>       0.33329485       0.66663661       0.33757339 </v>
    <v>       0.66662370       0.33330866       0.33757347 </v>
    <v>       0.83338462       0.16665186       0.33759215 </v>
    <v>       0.66670235       0.83330688       0.33758930 </v>
    <v>       0.83330188       0.66671429       0.33758921 </v>
   </varray>
  </structure>
  <varray name="forces" >
   <v>       0.00092279      -0.00429856      -0.01059020 </v>
   <v>       0.04164105       0.02102611       0.04965313 </v>
   <v>      -0.04339308       0.01893417       0.04966929 </v>
   <v>      -0.00107834      -0.04459946       0.04737244 </v>
   <v>       0.00309120      -0.00853753      -0.04969594 </v>
   <v>       0.00594823       0.00862271      -0.05386025 </v>
   <v>      -0.00692000       0.00963204      -0.05474261 </v>
   <v>      -0.00815270       0.02904216       0.00897380 </v>
   <v>       0.00718530       0.02983194       0.00907626 </v>
   <v>       0.03169884      -0.01152194       0.00944784 </v>
   <v>      -0.00170132       0.00270082      -0.01665505 </v>
   <v>       0.00367587       0.00230957      -0.01667496 </v>
   <v>      -0.03102545      -0.01273364       0.00950038 </v>
   <v>      -0.02150495      -0.01939975       0.00934810 </v>
   <v>       0.01961256      -0.02100864       0.00917776 </v>
  </varray>
  <varray name="stress" >
   <v>       0.07437344       0.00012782      -0.00424312 </v>
   <v>       0.00012783       0.09071308      -0.01407450 </v>
   <v>      -0.00424313      -0.01407450      -1.73964521 </v>
  </varray>
  <energy>
   <i name="e_fr_energy">   -127.12257354 </i>
   <i name="e_wo_entrp">   -127.12100635 </i>
   <i name="e_0_energy">   -127.12178995 </i>
  </energy>
  <time name="totalsc">   38.76   39.09</time>
 </calculation>
 <calculation>
  <scstep>
   <time name="dav">    5.47    5.51</time>
   <time name="total">    5.76    5.81</time>
   <energy>
    <i name="alphaZ">     58.35522451 </i>
    <i name="ewald">   4685.87168793 </i>
    <i name="hartreedc">  -6442.93226764 </i>
    <i name="XCdc">    180.71309108 </i>
    <i name="pawpsdc">   5806.80716416 </i>
    <i name="pawaedc">  -5811.24304620 </i>
    <i name="eentropy">     -0.00156708 </i>
    <i name="bandstr">   -506.37336970 </i>
    <i name="atom">   1903.26342058 </i>
    <i name="e_fr_energy">   -125.53966236 </i>
    <i name="e_wo_entrp">   -125.53809528 </i>
    <i name="e_0_energy">   -125.53887882 </i>
   </energy>
  </scstep>
  <scstep>
   <time name="dav">    9.07    9.11</time>
   <time name="total">    9.35    9.41</time>
   <energy>
    <i name="e_fr_energy">   -125.53963534 </i>
    <i name="e_wo_entrp">   -125.53806826 </i>
    <i name="e_0_energy">   -125.53885180 </i>
   </energy>
  </scstep>
  <scstep>
   <time name="dav">    8.24    8.29</time>
   <time name="total">    8.53    8.59</time>
   <energy>
    <i name="e_fr_energy">   -125.53963324 </i>
    <i name="e_wo_entrp">   -125.53806614 </i>
    <i name="e_0_energy">   -125.53884969 </i>
   </energy>
  </scstep>
  <scstep>
   <time name="dav">    8.78    8.83</time>
   <time name="total">    8.81    8.86</time>
   <energy>
    <i name="alphaZ">     58.35522451 </i>
    <i name="ewald">   4685.87168793 </i>
    <i name="hartreedc">  -6442.93003635 </i>
    <i name="XCdc">    180.71565605 </i>
    <i name="pawpsdc">   5807.51783423 </i>
    <i name="pawaedc">  -5811.95401241 </i>
    <i name="eentropy">     -0.00156710 </i>
    <i name="bandstr">   -506.37784133 </i>
    <i name="atom">   1903.26342058 </i>
    <i name="e_fr_energy">   -125.53963391 </i>
    <i name="e_wo_entrp">   -125.53806681 </i>
    <i name="e_0_energy">   -125.53885036 </i>
   </energy>
  </scstep>
  <structure>
   <crystal>
    <varray name="basis" >
     <v>       4.19502706       2.42200000       0.00000000 </v>
     <v>      -4.19502706       2.42200000       0.00000000 </v>
     <v>       0.00000000       0.00000000      15.00000000 </v>
    </varray>
    <i name="volume">    304.81066588 </i>
    <varray name="rec_basis" >
     <v>       0.11918874       0.20644096       0.00000000 </v>
     <v>      -0.11918874       0.20644096       0.00000000 </v>
     <v>       0.00000000       0.00000000       0.06666667 </v>
    </varray>
   </crystal>
   <varray name="positions" >
    <v>       0.00426227       0.00286519       0.10388470 </v>
    <v>       0.35936390       0.00282857       0.10084115 </v>
    <v>       0.00425855       0.35792676       0.10084313 </v>
    <v>       0.64905223       0.64763905       0.10086281 </v>
    <v>       0.32762721       0.32622302       0.10131419 </v>
    <v>       0.68077835       0.00281207       0.10135621 </v>
    <v>       0.00422865       0.67932814       0.10136462 </v>
    <v>       0.16648525       0.33326010       0.33760570 </v>
    <v>       0.33324978       0.16649146       0.33760714 </v>
    <v>       0.16672787       0.83347355       0.33760819 </v>
    <v>       0.33329630       0.66662952       0.33757143 </v>
    <v>       0.66661212       0.33330928       0.33757147 </v>
    <v>       0.83346415       0.16674433       0.33760702 </v>
    <v>       0.66667015       0.83321738       0.33760422 </v>
    <v>       0.83321725       0.66668558       0.33760402 </v>
   </varray>
  </structure>
  <varray name="forces" >
   <v>       0.00521564      -0.01360029      -0.01614041 </v>
   <v>       0.01134486       0.00183091       0.03034893 </v>
   <v>      -0.01567758       0.00460325       0.03028429 </v>
   <v>       0.00139230      -0.00207202       0.02860427 </v>
   <v>       0.00256737       0.06508923      -0.02886057 </v>
   <v>      -0.04596555      -0.02971629      -0.03249847 </v>
   <v>       0.04134272      -0.02535976      -0.03325014 </v>
   <v>       0.03470593       0.04213082       0.00784974 </v>
   <v>      -0.03666583       0.04256570       0.00795131 </v>
   <v>       0.02847326      -0.05319392       0.00828681 </v>
   <v>      -0.00630981       0.00328862      -0.01353414 </v>
   <v>       0.00932100       0.00435851      -0.01354101 </v>
   <v>      -0.02715127      -0.05536250       0.00831346 </v>
   <v>      -0.04586367       0.00955488       0.00816862 </v>
   <v>       0.04327064       0.00588285       0.00801730 </v>
  </varray>
  <varray name="stress" >
   <v>       0.18114611       0.00540053      -0.00337671 </v>
   <v>       0.00540056       0.25336366      -0.01630710 </v>
   <v>      -0.00337672      -0.01630712      -1.74958086 </v>
  </varray>
  <energy>
   <i name="e_fr_energy">   -127.12294801 </i>
   <i name="e_wo_entrp">   -127.12138091 </i>
   <i name="e_0_energy">   -127.12216446 </i>
  </energy>
  <time name="totalsc">   37.14   37.40</time>
 </calculation>
 <calculation>
  <scstep>
   <time name="dav">    6.26    6.30</time>
   <time name="total">    6.55    6.60</time>
   <energy>
    <i name="alphaZ">     58.35522451 </i>
    <i name="ewald">   4684.97358091 </i>
    <i name="hartreedc">  -6442.07021167 </i>
    <i name="XCdc">    180.71322844 </i>
    <i name="pawpsdc">   5807.56634100 </i>
    <i name="pawaedc">  -5812.00252896 </i>
    <i name="eentropy">     -0.00156699 </i>
    <i name="bandstr">   -506.33748295 </i>
    <i name="atom">   1903.26342058 </i>
    <i name="e_fr_energy">   -125.53999514 </i>
    <i name="e_wo_entrp">   -125.53842815 </i>
    <i name="e_0_energy">   -125.53921164 </i>
   </energy>
  </scstep>
  <scstep>
   <time name="dav">    8.18    8.24</time>
   <time name="total">    8.47    8.54</time>
   <energy>
    <i name="e_fr_energy">   -125.53996124 </i>
    <i name="e_wo_entrp">   -125.53839422 </i>
    <i name="e_0_energy">   -125.53917773 </i>
   </energy>
  </scstep>
  <scstep>
