Lattice                                 
           1
     4.195027    2.422000    0.000000
    -4.195027    2.422000    0.000000
     0.000000    0.000000   15.000000
   B    C 
     4    11
Direct configuration=     1
   0.00415361  0.00267210  0.12034134
   0.35695335  0.00285503  0.09748893
   0.00423858  0.35550699  0.09749256
   0.65142295  0.65006557  0.09747688
   0.32808646  0.32671938  0.10030508
   0.68027775  0.00278085  0.10027562
   0.00416530  0.67883808  0.10026559
   0.16666600  0.33333300  0.33720000
   0.33333300  0.16666600  0.33720000
   0.16666600  0.83333300  0.33720000
   0.33333300  0.66666600  0.33720000
   0.66666600  0.33333300  0.33720000
   0.83333300  0.16666600  0.33720000
   0.66666600  0.83333300  0.33720000
   0.83333300  0.66666600  0.33720000
Direct configuration=     2
   0.00418483  0.00275083  0.11899010
   0.35590378  0.00280305  0.09784616
   0.00419501  0.35447045  0.09784904
   0.65244371  0.65105477  0.09784170
   0.32475291  0.32334992  0.10032107
   0.68363161  0.00280192  0.10030213
   0.00420273  0.68221834  0.10029578
   0.16659337  0.33342357  0.33726104
   0.33342401  0.16659611  0.33726208
   0.16682138  0.83339250  0.33726379
   0.33333490  0.66667220  0.33711375
   0.66667134  0.33333136  0.33711373
   0.83338984  0.16681898  0.33726367
   0.66657344  0.83317583  0.33726144
   0.83317115  0.66657418  0.33726051
Direct configuration=     3
   0.00416994  0.00271329  0.11963447
   0.35640430  0.00282784  0.09767581
   0.00421578  0.35496475  0.09767905
   0.65195693  0.65058304  0.09766773
   0.32634261  0.32495674  0.10031345
   0.68203223  0.00279187  0.10028949
   0.00418488  0.68060637  0.10028138
   0.16662801  0.33338038  0.33723193
   0.33338061  0.16662944  0.33723247
   0.16674728  0.83336412  0.33723337
   0.33333399  0.66666924  0.33715488
   0.66666879  0.33333214  0.33715487
   0.83336273  0.16674603  0.33723331
   0.66661758  0.83325078  0.33723214
   0.83324833  0.66661797  0.33723165
