 ----------------------------------------------------
    OOO  PPPP  EEEEE N   N M   M PPPP
   O   O P   P E     NN  N MM MM P   P
   O   O PPPP  EEEEE N N N M M M PPPP   -- VERSION
   O   O P     E     N  NN M   M P
    OOO  P     EEEEE N   N M   M P
 ----------------------------------------------------
 running   48 mpi-ranks, with    1 threads/rank
 distrk:  each k-point on   48 cores,    1 groups
 distr:  one band on    1 cores,   48 groups
 vasp.6.3.2 27Jun22 (build Dec 22 2022 13:13:19) complex                        
  
 POSCAR found type information on POSCAR B C 
 POSCAR found :  2 types and      16 ions
 Reading from existing POTCAR
 -----------------------------------------------------------------------------
|                                                                             |
|           W    W    AA    RRRRR   N    N  II  N    N   GGGG   !!!           |
|           W    W   A  A   R    R  NN   N  II  NN   N  G    G  !!!           |
|           W    W  A    A  R    R  N N  N  II  N N  N  G       !!!           |
|           W WW W  AAAAAA  RRRRR   N  N N  II  N  N N  G  GGG   !            |
|           WW  WW  A    A  R   R   N   NN  II  N   NN  G    G                |
|           W    W  A    A  R    R  N    N  II  N    N   GGGG   !!!           |
|                                                                             |
|     You use a magnetic or noncollinear calculation, but did not specify     |
|     the initial magnetic moment with the MAGMOM tag. Note that a            |
|     default of 1 will be used for all atoms. This ferromagnetic setup       |
|     may break the symmetry of the crystal, in particular it may rule        |
|     out finding an antiferromagnetic solution. Thence, we recommend         |
|     setting the initial magnetic moment manually or verifying carefully     |
|     that this magnetic setup is desired.                                    |
|                                                                             |
 -----------------------------------------------------------------------------

 scaLAPACK will be used
 Reading from existing POTCAR
 LDA part: xc-table for Pade appr. of Perdew
 POSCAR found type information on POSCAR B C 
 POSCAR found :  2 types and      16 ions
 POSCAR, INCAR and KPOINTS ok, starting setup
 FFT: planning ... GRIDC
 FFT: planning ... GRID_SOFT
 FFT: planning ... GRID
 WAVECAR not read
 entering main loop
       N       E                     dE             d eps       ncg     rms          rms(c)
DAV:   1     0.260308041696E+03    0.26031E+03   -0.28790E+04 14208   0.966E+02
DAV:   2    -0.130982621629E+03   -0.39129E+03   -0.39082E+03 21840   0.181E+02
DAV:   3    -0.146381819656E+03   -0.15399E+02   -0.15374E+02 25248   0.496E+01
DAV:   4    -0.146425672931E+03   -0.43853E-01   -0.43842E-01 22512   0.247E+00
DAV:   5    -0.146425739051E+03   -0.66120E-04   -0.66119E-04 23328   0.983E-02    0.254E+01
DAV:   6    -0.107230029179E+03    0.39196E+02   -0.66871E+01 23904   0.266E+01    0.148E+01
DAV:   7    -0.113783537112E+03   -0.65535E+01   -0.10375E+01 22848   0.112E+01    0.864E+00
DAV:   8    -0.123441566515E+03   -0.96580E+01   -0.85415E+00 25056   0.928E+00    0.459E+00
DAV:   9    -0.131621144998E+03   -0.81796E+01   -0.47723E+00 17376   0.758E+00    0.297E+00
DAV:  10    -0.138282151087E+03   -0.66610E+01   -0.84164E+00 22224   0.749E+00    0.170E+00
DAV:  11    -0.139845657995E+03   -0.15635E+01   -0.17775E+00 21456   0.356E+00    0.116E+00
DAV:  12    -0.140218830866E+03   -0.37317E+00   -0.42667E-01 20544   0.200E+00    0.433E-01
DAV:  13    -0.140270213369E+03   -0.51383E-01   -0.37621E-02 19296   0.823E-01    0.185E-01
DAV:  14    -0.140287138588E+03   -0.16925E-01   -0.65354E-03 20256   0.318E-01    0.941E-02
DAV:  15    -0.140295062315E+03   -0.79237E-02   -0.49895E-03 16944   0.194E-01    0.465E-02
DAV:  16    -0.140296373959E+03   -0.13116E-02   -0.45869E-04 15456   0.934E-02    0.267E-02
DAV:  17    -0.140298041709E+03   -0.16677E-02   -0.26041E-04 15888   0.662E-02    0.186E-02
DAV:  18    -0.140298992012E+03   -0.95030E-03   -0.94956E-05 16128   0.449E-02    0.132E-02
DAV:  19    -0.140299509268E+03   -0.51726E-03   -0.50622E-05 18192   0.338E-02    0.869E-03
DAV:  20    -0.140299624860E+03   -0.11559E-03   -0.25196E-05 17616   0.230E-02    0.450E-03
DAV:  21    -0.140299648759E+03   -0.23899E-04   -0.80918E-06 19248   0.137E-02    0.255E-03
DAV:  22    -0.140299659288E+03   -0.10529E-04   -0.29186E-06 22224   0.735E-03    0.189E-03
DAV:  23    -0.140299666618E+03   -0.73299E-05   -0.13324E-06 20208   0.444E-03    0.822E-04
DAV:  24    -0.140299669853E+03   -0.32356E-05   -0.35035E-07 20208   0.214E-03    0.482E-04
DAV:  25    -0.140299671163E+03   -0.13097E-05   -0.81637E-08 20976   0.109E-03    0.266E-04
DAV:  26    -0.140299671980E+03   -0.81665E-06   -0.59959E-08 18384   0.841E-04
   1 F= -.14218818E+03 E0= -.14218712E+03  d E =-.142188E+03  mag=     0.0000
 curvature:   0.00 expect dE= 0.000E+00 dE for cont linesearch  0.000E+00
 trial: gam= 0.00000 g(F)=  0.181E+00 g(S)=  0.000E+00 ort = 0.000E+00 (trialstep = 0.100E+01)
 search vector abs. value=  0.181E+00
 bond charge predicted
       N       E                     dE             d eps       ncg     rms          rms(c)
DAV:   1    -0.140205826053E+03    0.93845E-01   -0.29452E+01 14208   0.184E+01    0.158E+00
DAV:   2    -0.140130332087E+03    0.75494E-01   -0.51988E-01 22896   0.253E+00    0.760E-01
DAV:   3    -0.140123226119E+03    0.71060E-02   -0.73623E-02 24432   0.853E-01    0.328E-01
DAV:   4    -0.140123037878E+03    0.18824E-03   -0.72573E-03 19296   0.267E-01    0.130E-01
DAV:   5    -0.140123046092E+03   -0.82141E-05   -0.55332E-04 19632   0.900E-02    0.252E-02
DAV:   6    -0.140123049461E+03   -0.33688E-05   -0.83456E-05 20112   0.336E-02    0.145E-02
DAV:   7    -0.140123067316E+03   -0.17855E-04   -0.17080E-05 20928   0.141E-02    0.448E-03
DAV:   8    -0.140123081071E+03   -0.13754E-04   -0.20097E-06 19392   0.445E-03    0.225E-03
DAV:   9    -0.140123108251E+03   -0.27180E-04   -0.35111E-06 17328   0.426E-03    0.144E-03
DAV:  10    -0.140123118723E+03   -0.10473E-04   -0.77909E-07 21312   0.192E-03    0.130E-03
DAV:  11    -0.140123130183E+03   -0.11459E-04   -0.13263E-06 16512   0.210E-03    0.658E-04
DAV:  12    -0.140123134248E+03   -0.40655E-05   -0.40102E-07 17664   0.108E-03    0.369E-04
DAV:  13    -0.140123134982E+03   -0.73364E-06   -0.38918E-08 20592   0.404E-04
   2 F= -.14201883E+03 E0= -.14201730E+03  d E =0.169349E+00  mag=    -0.0000
 trial-energy change:    0.169349  1 .order    0.166081   -0.181181    0.513343
 step:   0.2555(harm=  0.2609)  dis= 0.00973  next Energy=  -142.211272 (dE=-0.231E-01)
 bond charge predicted
       N       E                     dE             d eps       ncg     rms          rms(c)
DAV:   1    -0.140364533922E+03   -0.24140E+00   -0.16204E+01 14208   0.134E+01    0.117E+00
DAV:   2    -0.140324993544E+03    0.39540E-01   -0.27943E-01 23520   0.191E+00    0.566E-01
DAV:   3    -0.140320411433E+03    0.45821E-02   -0.47895E-02 22656   0.667E-01    0.228E-01
DAV:   4    -0.140320227901E+03    0.18353E-03   -0.51806E-03 19968   0.224E-01    0.103E-01
DAV:   5    -0.140320204899E+03    0.23002E-04   -0.41303E-04 18528   0.774E-02    0.185E-02
DAV:   6    -0.140320198816E+03    0.60828E-05   -0.77066E-05 19776   0.308E-02    0.978E-03
DAV:   7    -0.140320205352E+03   -0.65360E-05   -0.87888E-06 23376   0.103E-02    0.274E-03
DAV:   8    -0.140320211576E+03   -0.62238E-05   -0.70872E-07 22848   0.273E-03    0.185E-03
DAV:   9    -0.140320225250E+03   -0.13675E-04   -0.10626E-06 22272   0.245E-03    0.859E-04
DAV:  10    -0.140320233204E+03   -0.79540E-05   -0.43641E-07 18384   0.140E-03    0.788E-04
DAV:  11    -0.140320240530E+03   -0.73256E-05   -0.43161E-07 15936   0.117E-03    0.350E-04
DAV:  12    -0.140320243762E+03   -0.32325E-05   -0.20520E-07 15360   0.696E-04    0.305E-04
DAV:  13    -0.140320244251E+03   -0.48857E-06   -0.91801E-09 23760   0.216E-04
   3 F= -.14221124E+03 E0= -.14221002E+03  d E =-.230566E-01  mag=    -0.0000
 curvature:  -0.13 expect dE=-0.600E-04 dE for cont linesearch -0.257E-07
 ZBRENT: interpolating
 opt :   0.2552  next Energy=  -142.211237 (dE=-0.231E-01)
 bond charge predicted
       N       E                     dE             d eps       ncg     rms          rms(c)
DAV:   1    -0.140320246989E+03   -0.32271E-05   -0.21297E-06 16752   0.492E-03    0.439E-04
DAV:   2    -0.140320247044E+03   -0.54824E-07   -0.41198E-08 26208   0.709E-04
   4 F= -.14221124E+03 E0= -.14221002E+03  d E =-.230570E-01  mag=    -0.0000
 curvature:  -0.13 expect dE=-0.585E-04 dE for cont linesearch -0.319E-09
 trial: gam= 0.00265 g(F)=  0.459E-03 g(S)=  0.000E+00 ort =-0.213E-04 (trialstep = 0.851E+00)
 search vector abs. value=  0.460E-03
 bond charge predicted
       N       E                     dE             d eps       ncg     rms          rms(c)
DAV:   1    -0.140320484487E+03   -0.23750E-03   -0.28630E-02 14208   0.711E-01    0.328E-02
DAV:   2    -0.140320488940E+03   -0.44534E-05   -0.17349E-04 26496   0.583E-02    0.208E-02
DAV:   3    -0.140320490865E+03   -0.19247E-05   -0.20806E-05 15984   0.175E-02    0.425E-03
DAV:   4    -0.140320490953E+03   -0.87950E-07   -0.31981E-06 23376   0.657E-03
   5 F= -.14221149E+03 E0= -.14221028E+03  d E =-.250919E-03  mag=    -0.0000
 trial-energy change:   -0.000251  1 .order   -0.000250   -0.000390   -0.000111
 step:   1.1876(harm=  1.1876)  dis= 0.00204  next Energy=  -142.211510 (dE=-0.272E-03)
 bond charge predicted
       N       E                     dE             d eps       ncg     rms          rms(c)
DAV:   1    -0.140320509075E+03   -0.18209E-04   -0.44876E-03 14208   0.282E-01    0.132E-02
DAV:   2    -0.140320509707E+03   -0.63225E-06   -0.28192E-05 24768   0.235E-02    0.845E-03
DAV:   3    -0.140320510384E+03   -0.67698E-06   -0.33244E-06 16416   0.706E-03
   6 F= -.14221151E+03 E0= -.14221031E+03  d E =-.273273E-03  mag=    -0.0000
 curvature:  -0.60 expect dE=-0.886E-04 dE for cont linesearch -0.373E-08
 trial: gam= 0.32824 g(F)=  0.149E-03 g(S)=  0.000E+00 ort =-0.170E-05 (trialstep = 0.918E+00)
 search vector abs. value=  0.197E-03
 bond charge predicted
       N       E                     dE             d eps       ncg     rms          rms(c)
DAV:   1    -0.140320438416E+03    0.71291E-04   -0.17542E-02 15936   0.549E-01    0.325E-02
DAV:   2    -0.140320430749E+03    0.76674E-05   -0.28519E-04 17952   0.692E-02    0.190E-02
DAV:   3    -0.140320430433E+03    0.31594E-06   -0.37647E-05 19104   0.225E-02    0.912E-03
DAV:   4    -0.140320430512E+03   -0.78928E-07   -0.10219E-05 20928   0.972E-03    0.476E-03
DAV:   5    -0.140320430525E+03   -0.13632E-07   -0.16148E-06 18096   0.486E-03
   7 F= -.14221147E+03 E0= -.14221027E+03  d E =0.428872E-04  mag=     0.0000
 trial-energy change:    0.000043  1 .order    0.000042   -0.000136    0.000221
 step:   0.3500(harm=  0.3500)  dis= 0.00041  next Energy=  -142.211537 (dE=-0.260E-04)
 bond charge predicted
       N       E                     dE             d eps       ncg     rms          rms(c)
DAV:   1    -0.140320524160E+03   -0.93648E-04   -0.66999E-03 14784   0.339E-01    0.199E-02
DAV:   2    -0.140320521475E+03    0.26850E-05   -0.11134E-04 15840   0.435E-02    0.117E-02
DAV:   3    -0.140320521481E+03   -0.57671E-08   -0.16070E-05 15168   0.146E-02    0.566E-03
DAV:   4    -0.140320521625E+03   -0.14369E-06   -0.44778E-06 18816   0.641E-03
   8 F= -.14221154E+03 E0= -.14221034E+03  d E =-.255325E-04  mag=     0.0000
 curvature:  -0.23 expect dE=-0.374E-05 dE for cont linesearch -0.154E-07
 ZBRENT: interpolating
 opt :   0.3417  next Energy=  -142.211536 (dE=-0.255E-04)
 bond charge predicted
       N       E                     dE             d eps       ncg     rms          rms(c)
DAV:   1    -0.140320522097E+03   -0.61655E-06   -0.10128E-06 14976   0.460E-03    0.733E-04
DAV:   2    -0.140320522135E+03   -0.37952E-07   -0.32794E-08 23136   0.729E-04
   9 F= -.14221154E+03 E0= -.14221034E+03  d E =-.257067E-04  mag=     0.0000
 curvature:  -0.23 expect dE=-0.332E-05 dE for cont linesearch -0.125E-07
 ZBRENT: interpolating
 opt :   0.3457  next Energy=  -142.211537 (dE=-0.257E-04)
 bond charge predicted
       N       E                     dE             d eps       ncg     rms          rms(c)
DAV:   1    -0.140320522074E+03    0.23652E-07   -0.27973E-07 15840   0.222E-03    0.122E-04
DAV:   2    -0.140320522102E+03   -0.28501E-07   -0.29413E-09 22176   0.225E-04
  10 F= -.14221154E+03 E0= -.14221034E+03  d E =-.258342E-04  mag=     0.0000
 curvature:  -0.12 expect dE=-0.178E-05 dE for cont linesearch -0.109E-08
 trial: gam= 0.09391 g(F)=  0.149E-04 g(S)=  0.000E+00 ort = 0.135E-05 (trialstep = 0.804E+00)
 search vector abs. value=  0.169E-04
 bond charge predicted
       N       E                     dE             d eps       ncg     rms          rms(c)
DAV:   1    -0.140320509572E+03    0.12502E-04   -0.69486E-04 15264   0.113E-01    0.673E-03
DAV:   2    -0.140320509353E+03    0.21892E-06   -0.60166E-06 14208   0.101E-02
  11 F= -.14221154E+03 E0= -.14221034E+03  d E =-.576224E-05  mag=     0.0000
 trial-energy change:   -0.000006  1 .order   -0.000006   -0.000012   -0.000001
 step:   0.8485(harm=  0.8485)  dis= 0.00042  next Energy=  -142.211543 (dE=-0.639E-05)
 bond charge predicted
       N       E                     dE             d eps       ncg     rms          rms(c)
DAV:   1    -0.140320508789E+03    0.78286E-06   -0.18259E-06 17184   0.619E-03    0.104E-03
DAV:   2    -0.140320508765E+03    0.24302E-07   -0.77375E-08 20064   0.966E-04
  12 F= -.14221154E+03 E0= -.14221034E+03  d E =-.620239E-05  mag=    -0.0000
 curvature:  -0.48 expect dE=-0.122E-04 dE for cont linesearch -0.425E-08
 trial: gam= 1.75595 g(F)=  0.256E-04 g(S)=  0.000E+00 ort =-0.389E-06 (trialstep = 0.180E+00)
 search vector abs. value=  0.765E-04
 bond charge predicted
       N       E                     dE             d eps       ncg     rms          rms(c)
DAV:   1    -0.140320501048E+03    0.77404E-05   -0.16283E-04 15360   0.552E-02    0.332E-03
DAV:   2    -0.140320500906E+03    0.14263E-06   -0.14750E-06 16032   0.523E-03
  13 F= -.14221155E+03 E0= -.14221035E+03  d E =-.289544E-05  mag=    -0.0000
 trial-energy change:   -0.000003  1 .order   -0.000003   -0.000004   -0.000002
 step:   0.2951(harm=  0.2951)  dis= 0.00030  next Energy=  -142.211547 (dE=-0.368E-05)
 bond charge predicted
       N       E                     dE             d eps       ncg     rms          rms(c)
DAV:   1    -0.140320494666E+03    0.63820E-05   -0.63267E-05 14208   0.347E-02    0.223E-03
DAV:   2    -0.140320494570E+03    0.96258E-07   -0.51014E-07 18048   0.309E-03
  14 F= -.14221155E+03 E0= -.14221035E+03  d E =-.344358E-05  mag=    -0.0000
 curvature:  -0.45 expect dE=-0.166E-06 dE for cont linesearch -0.116E-08
 ZBRENT: interpolating
 opt :   0.2901  next Energy=  -142.211546 (dE=-0.344E-05)
 bond charge predicted
       N       E                     dE             d eps       ncg     rms          rms(c)
DAV:   1    -0.140320495009E+03   -0.34252E-06   -0.30901E-07 14208   0.229E-03    0.226E-04
DAV:   2    -0.140320495010E+03   -0.10905E-08   -0.15535E-08 26496   0.488E-04
  15 F= -.14221155E+03 E0= -.14221035E+03  d E =-.358339E-05  mag=    -0.0000
 curvature:  -0.43 expect dE=-0.157E-06 dE for cont linesearch -0.623E-09
 ZBRENT: interpolating
 opt :   0.2757  next Energy=  -142.211547 (dE=-0.359E-05)
 bond charge predicted
       N       E                     dE             d eps       ncg     rms          rms(c)
DAV:   1    -0.140320495869E+03   -0.86023E-06   -0.10140E-06 15408   0.437E-03    0.274E-04
DAV:   2    -0.140320495870E+03   -0.10805E-08   -0.88230E-09 15360   0.400E-04
  16 F= -.14221155E+03 E0= -.14221035E+03  d E =-.358223E-05  mag=    -0.0000
 curvature:  -1.71 expect dE=-0.822E-06 dE for cont linesearch -0.203E-07
 ZBRENT: interpolating
 opt :   0.2864  next Energy=  -142.211547 (dE=-0.358E-05)
 bond charge predicted
       N       E                     dE             d eps       ncg     rms          rms(c)
DAV:   1    -0.140320495250E+03    0.61942E-06   -0.60335E-07 15888   0.334E-03    0.174E-04
DAV:   2    -0.140320495255E+03   -0.56616E-08   -0.66080E-09 20304   0.341E-04
  17 F= -.14221155E+03 E0= -.14221035E+03  d E =-.360607E-05  mag=     0.0000
 curvature:  -0.05 expect dE=-0.204E-07 dE for cont linesearch -0.704E-11
 ZBRENT: interpolating
 opt :   0.2872  next Energy=  -142.211547 (dE=-0.361E-05)
 bond charge predicted
       N       E                     dE             d eps       ncg     rms          rms(c)
DAV:   1    -0.140320495210E+03    0.39458E-07   -0.32274E-09 16752   0.259E-04    0.692E-05
DAV:   2    -0.140320495215E+03   -0.42464E-08   -0.60270E-11 22128   0.323E-05
  18 F= -.14221155E+03 E0= -.14221035E+03  d E =-.361739E-05  mag=     0.0000
 curvature:  -0.33 expect dE=-0.126E-06 dE for cont linesearch -0.683E-13
 trial: gam=-0.03273 g(F)=  0.383E-06 g(S)=  0.000E+00 ort =-0.399E-08 (trialstep = 0.201E+00)
 search vector abs. value=  0.466E-06
 bond charge predicted
       N       E                     dE             d eps       ncg     rms          rms(c)
DAV:   1    -0.140320491894E+03    0.33166E-05   -0.23039E-06 16992   0.643E-03    0.336E-04
DAV:   2    -0.140320491891E+03    0.23974E-08   -0.26207E-08 15744   0.679E-04
  19 F= -.14221155E+03 E0= -.14221035E+03  d E =-.653504E-07  mag=    -0.0000
 trial-energy change:   -0.000000  1 .order   -0.000000   -0.000000   -0.000000
 step:   0.5897(harm=  0.5897)  dis= 0.00003  next Energy=  -142.211547 (dE=-0.113E-06)
 reached required accuracy - stopping structural energy minimisation
