Lattice                                 
           1
     4.334457    2.502500    0.000000
    -4.334457    2.502500    0.000000
     0.000000    0.000000   15.000000
   B    C 
     2    14
Direct configuration=     1
   0.33833034  0.66916432  0.10000000
   0.67165522  0.33584146  0.10000000
   0.16373946  0.31999962  0.10000000
   0.32250218  0.16126397  0.10000000
   0.16376430  0.84376384  0.10000000
   0.84623863  0.16123684  0.10000000
   0.68749850  0.84373000  0.10000000
   0.84626736  0.68499594  0.10000000
   0.16666600  0.33333300  0.32880000
   0.33333300  0.16666600  0.32880000
   0.16666600  0.83333300  0.32880000
   0.33333300  0.66666600  0.32880000
   0.66666600  0.33333300  0.32880000
   0.83333300  0.16666600  0.32880000
   0.66666600  0.83333300  0.32880000
   0.83333300  0.66666600  0.32880000
Direct configuration=     2
   0.33832900  0.66916339  0.10014447
   0.67167801  0.33581145  0.10014447
   0.16811955  0.32877235  0.09995182
   0.33126811  0.16564304  0.09995146
   0.16815119  0.83936610  0.09995184
   0.84184205  0.16561962  0.09995228
   0.67874922  0.83937526  0.09995247
   0.84186806  0.67624927  0.09995227
   0.16636395  0.33272505  0.32886659
   0.33272466  0.16636297  0.32886719
   0.16636400  0.83363670  0.32886659
   0.33332691  0.66666410  0.32860175
   0.66666153  0.33332969  0.32860175
   0.83363653  0.16636461  0.32886525
   0.66727273  0.83363528  0.32886452
   0.83363650  0.66727313  0.32886527
Direct configuration=     3
   0.33833000  0.66916408  0.10003691
   0.67166104  0.33583379  0.10003691
   0.16485858  0.32224105  0.09998769
   0.32474188  0.16238282  0.09998760
   0.16488515  0.84264022  0.09998769
   0.84511531  0.16235664  0.09998781
   0.68526306  0.84261737  0.09998786
   0.84514334  0.68276117  0.09998780
   0.16658883  0.33317767  0.32881701
   0.33317757  0.16658858  0.32881717
   0.16658884  0.83341060  0.32881701
   0.33333144  0.66666552  0.32874935
   0.66666486  0.33333216  0.32874935
   0.83341055  0.16658899  0.32881667
   0.66682102  0.83341023  0.32881648
   0.83341054  0.66682112  0.32881668
Direct configuration=     4
   0.33833000  0.66916408  0.10003687
   0.67166103  0.33583380  0.10003687
   0.16485741  0.32223872  0.09998770
   0.32473955  0.16238165  0.09998761
   0.16488398  0.84264139  0.09998771
   0.84511648  0.16235547  0.09998782
   0.68526539  0.84261852  0.09998787
   0.84514451  0.68276350  0.09998782
   0.16658891  0.33317783  0.32881700
   0.33317773  0.16658866  0.32881715
   0.16658892  0.83341052  0.32881700
   0.33333145  0.66666552  0.32874940
   0.66666486  0.33333216  0.32874940
   0.83341047  0.16658907  0.32881665
   0.66682086  0.83341015  0.32881647
   0.83341046  0.66682096  0.32881666
Direct configuration=     5
   0.33833506  0.66916458  0.10013424
   0.67166588  0.33583066  0.10013423
   0.16485302  0.32222930  0.09995571
   0.32473099  0.16237188  0.09995536
   0.16487183  0.84264203  0.09995571
   0.84513125  0.16235880  0.09995622
   0.68527037  0.84263123  0.09995636
   0.84514775  0.68277246  0.09995622
   0.16655602  0.33311356  0.32885994
   0.33311291  0.16655614  0.32886049
   0.16655602  0.83344216  0.32885994
   0.33333038  0.66666487  0.32862011
   0.66666368  0.33333167  0.32862010
   0.83344159  0.16655672  0.32885869
   0.66688363  0.83344166  0.32885800
   0.83344161  0.66688426  0.32885869
Direct configuration=     6
   0.33833707  0.66916477  0.10017274
   0.67166780  0.33582942  0.10017273
   0.16485129  0.32222558  0.09994305
   0.32472761  0.16236802  0.09994261
   0.16486703  0.84264229  0.09994306
   0.84513709  0.16236012  0.09994372
   0.68527233  0.84263626  0.09994390
   0.84514903  0.68277600  0.09994372
   0.16654302  0.33308815  0.32887692
   0.33308728  0.16654328  0.32887763
   0.16654301  0.83345468  0.32887692
   0.33332996  0.66666462  0.32856897
   0.66666321  0.33333148  0.32856897
   0.83345390  0.16654393  0.32887531
   0.66690846  0.83345412  0.32887442
   0.83345392  0.66690929  0.32887532
Direct configuration=     7
   0.33831910  0.66916608  0.10024445
   0.67166404  0.33583670  0.10024444
   0.16489342  0.32224216  0.09992113
   0.32473574  0.16237671  0.09992032
   0.16488533  0.84263334  0.09992114
   0.84511721  0.16235642  0.09992236
   0.68529003  0.84262765  0.09992270
   0.84511521  0.68276865  0.09992231
   0.16663697  0.33327771  0.32888832
   0.33327627  0.16663830  0.32888936
   0.16663699  0.83335812  0.32888832
   0.33332881  0.66666457  0.32852916
   0.66666257  0.33333074  0.32852915
   0.83335670  0.16663850  0.32888603
   0.66671695  0.83335791  0.32888477
   0.83335667  0.66671845  0.32888602
Direct configuration=     8
   0.33833022  0.66916527  0.10020007
   0.67166636  0.33583220  0.10020006
   0.16486734  0.32223190  0.09993470
   0.32473071  0.16237133  0.09993411
   0.16487400  0.84263888  0.09993470
   0.84512951  0.16235871  0.09993558
   0.68527908  0.84263298  0.09993582
   0.84513614  0.68277320  0.09993556
   0.16657883  0.33316040  0.32888126
   0.33315931  0.16657949  0.32888210
   0.16657883  0.83341787  0.32888126
   0.33332952  0.66666460  0.32855380
   0.66666297  0.33333120  0.32855379
   0.83341685  0.16657998  0.32887940
   0.66683546  0.83341745  0.32887837
   0.83341685  0.66683655  0.32887940
Direct configuration=     9
   0.33833038  0.66916526  0.10019943
   0.67166640  0.33583213  0.10019942
   0.16486696  0.32223175  0.09993490
   0.32473064  0.16237125  0.09993431
   0.16487384  0.84263896  0.09993490
   0.84512969  0.16235874  0.09993577
   0.68527892  0.84263306  0.09993601
   0.84513645  0.68277327  0.09993575
   0.16657798  0.33315868  0.32888116
   0.33315760  0.16657863  0.32888199
   0.16657798  0.83341875  0.32888116
   0.33332953  0.66666460  0.32855416
   0.66666297  0.33333121  0.32855416
   0.83341773  0.16657912  0.32887930
   0.66683720  0.83341832  0.32887827
   0.83341774  0.66683828  0.32887930
Direct configuration=    10
   0.33833030  0.66916526  0.10019974
   0.67166638  0.33583216  0.10019972
   0.16486714  0.32223182  0.09993480
   0.32473067  0.16237129  0.09993422
   0.16487392  0.84263892  0.09993481
   0.84512961  0.16235873  0.09993568
   0.68527900  0.84263302  0.09993592
   0.84513630  0.68277323  0.09993566
   0.16657838  0.33315950  0.32888121
   0.33315842  0.16657904  0.32888205
   0.16657838  0.83341833  0.32888121
   0.33332953  0.66666460  0.32855399
   0.66666297  0.33333120  0.32855398
   0.83341731  0.16657953  0.32887935
   0.66683637  0.83341790  0.32887832
   0.83341732  0.66683745  0.32887935
Direct configuration=    11
   0.33834001  0.66916790  0.10022623
   0.67166031  0.33583395  0.10022622
   0.16485160  0.32222949  0.09992763
   0.32474050  0.16236406  0.09992681
   0.16485771  0.84263701  0.09992763
   0.84515022  0.16236713  0.09992891
   0.68526370  0.84263647  0.09992936
   0.84515720  0.68277230  0.09992890
   0.16657708  0.33315869  0.32887576
   0.33315709  0.16657825  0.32887674
   0.16657709  0.83341817  0.32887576
   0.33332858  0.66666399  0.32856522
   0.66666186  0.33333082  0.32856522
   0.83341664  0.16657871  0.32887360
   0.66683577  0.83341777  0.32887243
   0.83341663  0.66683731  0.32887360
Direct configuration=    12
   0.33834055  0.66916804  0.10022770
   0.67165998  0.33583405  0.10022769
   0.16485074  0.32222936  0.09992723
   0.32474104  0.16236366  0.09992640
   0.16485681  0.84263690  0.09992723
   0.84515136  0.16236760  0.09992853
   0.68526285  0.84263666  0.09992900
   0.84515836  0.68277225  0.09992852
   0.16657701  0.33315864  0.32887545
   0.33315702  0.16657820  0.32887645
   0.16657702  0.83341816  0.32887545
   0.33332853  0.66666396  0.32856584
   0.66666180  0.33333079  0.32856584
   0.83341660  0.16657866  0.32887328
   0.66683574  0.83341776  0.32887210
   0.83341659  0.66683730  0.32887328
Direct configuration=    13
   0.33833670  0.66916803  0.10024008
   0.67166442  0.33583401  0.10024008
   0.16486146  0.32223008  0.09992410
   0.32473580  0.16236484  0.09992312
   0.16486427  0.84263741  0.09992409
   0.84514459  0.16236643  0.09992564
   0.68527087  0.84263694  0.09992621
   0.84514827  0.68277307  0.09992563
   0.16657464  0.33315475  0.32887257
   0.33315284  0.16657614  0.32887364
   0.16657465  0.83341965  0.32887257
   0.33332793  0.66666369  0.32857138
   0.66666122  0.33333049  0.32857138
   0.83341781  0.16657661  0.32887026
   0.66683874  0.83341925  0.32886901
   0.83341780  0.66684062  0.32887026
Direct configuration=    14
   0.33833423  0.66916801  0.10024800
   0.67166727  0.33583398  0.10024800
   0.16486832  0.32223054  0.09992209
   0.32473245  0.16236560  0.09992102
   0.16486904  0.84263774  0.09992208
   0.84514025  0.16236568  0.09992379
   0.68527600  0.84263713  0.09992443
   0.84514182  0.68277359  0.09992377
   0.16657313  0.33315226  0.32887073
   0.33315016  0.16657482  0.32887184
   0.16657314  0.83342061  0.32887072
   0.33332755  0.66666352  0.32857493
   0.66666085  0.33333029  0.32857492
   0.83341858  0.16657529  0.32886832
   0.66684066  0.83342020  0.32886704
   0.83341857  0.66684274  0.32886832
Direct configuration=    15
   0.33833434  0.66916801  0.10024766
   0.67166714  0.33583398  0.10024766
   0.16486802  0.32223052  0.09992218
   0.32473259  0.16236557  0.09992111
   0.16486883  0.84263773  0.09992217
   0.84514044  0.16236571  0.09992387
   0.68527577  0.84263712  0.09992450
   0.84514210  0.68277357  0.09992385
   0.16657320  0.33315237  0.32887081
   0.33315028  0.16657488  0.32887192
   0.16657320  0.83342056  0.32887081
   0.33332757  0.66666353  0.32857477
   0.66666086  0.33333030  0.32857477
   0.83341855  0.16657535  0.32886841
   0.66684058  0.83342016  0.32886712
   0.83341853  0.66684265  0.32886841
Direct configuration=    16
   0.33833465  0.66916801  0.10024667
   0.67166679  0.33583398  0.10024666
   0.16486716  0.32223046  0.09992243
   0.32473301  0.16236547  0.09992137
   0.16486823  0.84263768  0.09992242
   0.84514098  0.16236580  0.09992410
   0.68527513  0.84263710  0.09992473
   0.84514291  0.68277350  0.09992409
   0.16657338  0.33315268  0.32887104
   0.33315061  0.16657504  0.32887214
   0.16657339  0.83342044  0.32887104
   0.33332762  0.66666355  0.32857433
   0.66666091  0.33333033  0.32857433
   0.83341845  0.16657552  0.32886865
   0.66684034  0.83342004  0.32886737
   0.83341844  0.66684238  0.32886865
Direct configuration=    17
   0.33833442  0.66916801  0.10024740
   0.67166705  0.33583398  0.10024740
   0.16486779  0.32223050  0.09992224
   0.32473270  0.16236555  0.09992118
   0.16486867  0.84263772  0.09992223
   0.84514058  0.16236574  0.09992393
   0.68527561  0.84263711  0.09992456
   0.84514231  0.68277355  0.09992391
   0.16657324  0.33315245  0.32887087
   0.33315036  0.16657492  0.32887197
   0.16657325  0.83342053  0.32887086
   0.33332758  0.66666353  0.32857466
   0.66666087  0.33333031  0.32857465
   0.83341852  0.16657539  0.32886847
   0.66684052  0.83342013  0.32886719
   0.83341851  0.66684258  0.32886847
Direct configuration=    18
   0.33833440  0.66916801  0.10024746
   0.67166707  0.33583398  0.10024746
   0.16486785  0.32223050  0.09992223
   0.32473268  0.16236555  0.09992116
   0.16486871  0.84263772  0.09992222
   0.84514055  0.16236573  0.09992392
   0.68527565  0.84263712  0.09992455
   0.84514226  0.68277356  0.09992390
   0.16657323  0.33315243  0.32887085
   0.33315034  0.16657491  0.32887196
   0.16657324  0.83342054  0.32887085
   0.33332758  0.66666353  0.32857468
   0.66666087  0.33333031  0.32857468
   0.83341853  0.16657538  0.32886846
   0.66684053  0.83342014  0.32886717
   0.83341851  0.66684260  0.32886846
Direct configuration=    19
   0.33833432  0.66916732  0.10024715
   0.67166715  0.33583352  0.10024715
   0.16486821  0.32223157  0.09992267
   0.32473405  0.16236687  0.09992157
   0.16486898  0.84263693  0.09992266
   0.84513982  0.16236480  0.09992445
   0.68527726  0.84263778  0.09992512
   0.84514096  0.68277416  0.09992443
   0.16657317  0.33315248  0.32887072
   0.33315029  0.16657494  0.32887183
   0.16657318  0.83342031  0.32887072
   0.33332735  0.66666348  0.32857392
   0.66666072  0.33333017  0.32857392
   0.83341818  0.16657543  0.32886833
   0.66684017  0.83341989  0.32886704
   0.83341818  0.66684235  0.32886833
