<?xml version="1.0" encoding="ISO-8859-1"?>
<modeling>
 <generator>
  <i name="program" type="string">vasp </i>
  <i name="version" type="string">6.3.2  </i>
  <i name="subversion" type="string">27Jun22 (build Dec 22 2022 13:13:19) complex                          parallel </i>
  <i name="platform" type="string">LinuxIFC </i>
  <i name="date" type="string">2023 08 23 </i>
  <i name="time" type="string">04:29:05 </i>
 </generator>
 <incar>
  <i type="string" name="SYSTEM">Lattice</i>
  <i type="int" name="ISTART">     0</i>
  <i type="string" name="PREC">Accurate</i>
  <i type="string" name="ALGO">Normal</i>
  <i type="int" name="ISPIN">     2</i>
  <i type="int" name="ICHARG">     2</i>
  <i type="int" name="NELM">    64</i>
  <i type="int" name="IBRION">     2</i>
  <i name="EDIFF">      0.00000100</i>
  <i name="EDIFFG">     -0.00100000</i>
  <i type="int" name="NSW">   128</i>
  <i type="int" name="ISIF">     2</i>
  <i name="ENCUT">    450.00000000</i>
  <i name="POTIM">      0.50000000</i>
  <i type="int" name="ISMEAR">     0</i>
  <i name="SIGMA">      0.10000000</i>
  <i type="logical" name="LWAVE"> F  </i>
  <i type="logical" name="LCHARG"> F  </i>
  <i type="string" name="GGA">PE</i>
  <i type="int" name="IVDW">    12</i>
 </incar>
 <primitive_cell>
  <structure name="primitive_cell" >
   <crystal>
    <varray name="basis" >
     <v>       4.19416103       2.42150000       0.00000000 </v>
     <v>      -4.19416103       2.42150000       0.00000000 </v>
     <v>       0.00000000       0.00000000      15.00000000 </v>
    </varray>
    <i name="volume">    304.68482806 </i>
    <varray name="rec_basis" >
     <v>       0.11921335       0.20648358       0.00000000 </v>
     <v>      -0.11921335       0.20648358       0.00000000 </v>
     <v>       0.00000000       0.00000000       0.06666667 </v>
    </varray>
   </crystal>
   <varray name="positions" >
    <v>       0.00415361       0.00267210       0.12034134 </v>
    <v>       0.35695335       0.00285503       0.09748893 </v>
    <v>       0.00423858       0.35550699       0.09749256 </v>
    <v>       0.65142295       0.65006557       0.09747688 </v>
    <v>       0.32808646       0.32671938       0.10030508 </v>
    <v>       0.68027775       0.00278085       0.10027562 </v>
    <v>       0.00416530       0.67883808       0.10026559 </v>
    <v>       0.99999933       0.49999967       0.33373333 </v>
    <v>       0.16666633       0.33333267       0.33373333 </v>
    <v>       0.99999933       0.99999967       0.33373333 </v>
    <v>       0.16666633       0.83333267       0.33373333 </v>
    <v>       0.49999933       0.49999967       0.33373333 </v>
    <v>       0.66666633       0.33333267       0.33373333 </v>
    <v>       0.49999933       0.99999967       0.33373333 </v>
    <v>       0.66666633       0.83333267       0.33373333 </v>
   </varray>
  </structure>
  <varray name="primitive_index" >
   <v type="int" >        1 </v>
   <v type="int" >        2 </v>
   <v type="int" >        3 </v>
   <v type="int" >        4 </v>
   <v type="int" >        5 </v>
   <v type="int" >        6 </v>
   <v type="int" >        7 </v>
   <v type="int" >        8 </v>
   <v type="int" >        9 </v>
   <v type="int" >       10 </v>
   <v type="int" >       11 </v>
   <v type="int" >       12 </v>
   <v type="int" >       13 </v>
   <v type="int" >       14 </v>
   <v type="int" >       15 </v>
  </varray>
 </primitive_cell>
 <kpoints>
  <generation param="Gamma">
   <v type="int" name="divisions">      12       12        1 </v>
   <v name="usershift">      0.00000000       0.00000000       0.00000000 </v>
   <v name="genvec1">      0.08333333      -0.00000000       0.00000000 </v>
   <v name="genvec2">     -0.00000000       0.08333333       0.00000000 </v>
   <v name="genvec3">      0.00000000       0.00000000       1.00000000 </v>
   <v name="shift">      0.00000000       0.00000000       0.00000000 </v>
  </generation>
  <varray name="kpointlist" >
   <v>       0.00000000       0.00000000       0.00000000 </v>
   <v>       0.08333333       0.00000000       0.00000000 </v>
   <v>       0.00000000       0.08333333       0.00000000 </v>
   <v>      -0.08333333       0.08333333       0.00000000 </v>
   <v>       0.16666667       0.00000000       0.00000000 </v>
   <v>      -0.00000000       0.16666667       0.00000000 </v>
   <v>      -0.16666667       0.16666667       0.00000000 </v>
   <v>       0.25000000       0.00000000       0.00000000 </v>
   <v>      -0.00000000       0.25000000       0.00000000 </v>
   <v>      -0.25000000       0.25000000       0.00000000 </v>
   <v>       0.33333333       0.00000000       0.00000000 </v>
   <v>      -0.00000000       0.33333333       0.00000000 </v>
   <v>      -0.33333333       0.33333333       0.00000000 </v>
   <v>       0.41666667      -0.00000000       0.00000000 </v>
   <v>      -0.00000000       0.41666667       0.00000000 </v>
   <v>      -0.41666667       0.41666667       0.00000000 </v>
   <v>       0.50000000       0.00000000       0.00000000 </v>
   <v>      -0.00000000       0.50000000       0.00000000 </v>
   <v>       0.50000000       0.50000000       0.00000000 </v>
   <v>       0.08333333       0.08333333       0.00000000 </v>
   <v>      -0.08333333       0.16666667       0.00000000 </v>
   <v>      -0.16666667       0.08333333       0.00000000 </v>
   <v>       0.16666667       0.08333333       0.00000000 </v>
   <v>      -0.08333333       0.25000000       0.00000000 </v>
   <v>      -0.25000000       0.16666667       0.00000000 </v>
   <v>      -0.16666667       0.25000000       0.00000000 </v>
   <v>       0.08333333       0.16666667       0.00000000 </v>
   <v>       0.25000000      -0.08333333       0.00000000 </v>
   <v>       0.25000000       0.08333333       0.00000000 </v>
   <v>      -0.08333333       0.33333333       0.00000000 </v>
   <v>      -0.33333333       0.25000000       0.00000000 </v>
   <v>      -0.25000000       0.33333333       0.00000000 </v>
   <v>       0.08333333       0.25000000       0.00000000 </v>
   <v>       0.33333333      -0.08333333       0.00000000 </v>
   <v>       0.33333333       0.08333333       0.00000000 </v>
   <v>      -0.08333333       0.41666667       0.00000000 </v>
   <v>      -0.41666667       0.33333333       0.00000000 </v>
   <v>      -0.33333333       0.41666667       0.00000000 </v>
   <v>       0.08333333       0.33333333       0.00000000 </v>
   <v>       0.41666667      -0.08333333       0.00000000 </v>
   <v>       0.41666667       0.08333333       0.00000000 </v>
   <v>      -0.08333333       0.50000000       0.00000000 </v>
   <v>       0.50000000       0.41666667       0.00000000 </v>
   <v>      -0.41666667       0.50000000       0.00000000 </v>
   <v>       0.08333333       0.41666667       0.00000000 </v>
   <v>       0.50000000      -0.08333333       0.00000000 </v>
   <v>       0.16666667       0.16666667       0.00000000 </v>
   <v>      -0.16666667       0.33333333       0.00000000 </v>
   <v>      -0.33333333       0.16666667       0.00000000 </v>
   <v>       0.25000000       0.16666667       0.00000000 </v>
   <v>      -0.16666667       0.41666667       0.00000000 </v>
   <v>      -0.41666667       0.25000000       0.00000000 </v>
   <v>      -0.25000000       0.41666667       0.00000000 </v>
   <v>       0.16666667       0.25000000       0.00000000 </v>
   <v>       0.41666667      -0.16666667       0.00000000 </v>
   <v>       0.33333333       0.16666667       0.00000000 </v>
   <v>      -0.16666667       0.50000000       0.00000000 </v>
   <v>       0.50000000       0.33333333       0.00000000 </v>
   <v>      -0.33333333       0.50000000       0.00000000 </v>
   <v>       0.16666667       0.33333333       0.00000000 </v>
   <v>       0.50000000      -0.16666667       0.00000000 </v>
   <v>       0.41666667       0.16666667       0.00000000 </v>
   <v>      -0.16666667      -0.41666667       0.00000000 </v>
   <v>       0.41666667       0.41666667       0.00000000 </v>
   <v>       0.25000000       0.25000000       0.00000000 </v>
   <v>      -0.25000000       0.50000000       0.00000000 </v>
   <v>       0.50000000       0.25000000       0.00000000 </v>
   <v>       0.33333333       0.25000000       0.00000000 </v>
   <v>      -0.25000000      -0.41666667       0.00000000 </v>
   <v>       0.41666667       0.33333333       0.00000000 </v>
   <v>      -0.33333333      -0.41666667       0.00000000 </v>
   <v>       0.25000000       0.33333333       0.00000000 </v>
   <v>      -0.41666667      -0.25000000       0.00000000 </v>
   <v>       0.33333333       0.33333333       0.00000000 </v>
  </varray>
  <varray name="weights" >
   <v>       0.00694444 </v>
   <v>       0.01388889 </v>
   <v>       0.01388889 </v>
   <v>       0.01388889 </v>
   <v>       0.01388889 </v>
   <v>       0.01388889 </v>
   <v>       0.01388889 </v>
   <v>       0.01388889 </v>
   <v>       0.01388889 </v>
   <v>       0.01388889 </v>
   <v>       0.01388889 </v>
   <v>       0.01388889 </v>
   <v>       0.01388889 </v>
   <v>       0.01388889 </v>
   <v>       0.01388889 </v>
   <v>       0.01388889 </v>
   <v>       0.00694444 </v>
   <v>       0.00694444 </v>
   <v>       0.00694444 </v>
   <v>       0.01388889 </v>
   <v>       0.01388889 </v>
   <v>       0.01388889 </v>
   <v>       0.01388889 </v>
   <v>       0.01388889 </v>
   <v>       0.01388889 </v>
   <v>       0.01388889 </v>
   <v>       0.01388889 </v>
   <v>       0.01388889 </v>
   <v>       0.01388889 </v>
   <v>       0.01388889 </v>
   <v>       0.01388889 </v>
   <v>       0.01388889 </v>
   <v>       0.01388889 </v>
   <v>       0.01388889 </v>
   <v>       0.01388889 </v>
   <v>       0.01388889 </v>
   <v>       0.01388889 </v>
   <v>       0.01388889 </v>
   <v>       0.01388889 </v>
   <v>       0.01388889 </v>
   <v>       0.01388889 </v>
   <v>       0.01388889 </v>
   <v>       0.01388889 </v>
   <v>       0.01388889 </v>
   <v>       0.01388889 </v>
   <v>       0.01388889 </v>
   <v>       0.01388889 </v>
   <v>       0.01388889 </v>
   <v>       0.01388889 </v>
   <v>       0.01388889 </v>
   <v>       0.01388889 </v>
   <v>       0.01388889 </v>
   <v>       0.01388889 </v>
   <v>       0.01388889 </v>
   <v>       0.01388889 </v>
   <v>       0.01388889 </v>
   <v>       0.01388889 </v>
   <v>       0.01388889 </v>
   <v>       0.01388889 </v>
   <v>       0.01388889 </v>
   <v>       0.01388889 </v>
   <v>       0.01388889 </v>
   <v>       0.01388889 </v>
   <v>       0.01388889 </v>
   <v>       0.01388889 </v>
   <v>       0.01388889 </v>
   <v>       0.01388889 </v>
   <v>       0.01388889 </v>
   <v>       0.01388889 </v>
   <v>       0.01388889 </v>
   <v>       0.01388889 </v>
   <v>       0.01388889 </v>
   <v>       0.01388889 </v>
   <v>       0.01388889 </v>
  </varray>
 </kpoints>
 <parameters>
  <separator name="general" >
   <i type="string" name="SYSTEM">Lattice</i>
   <i type="logical" name="LCOMPAT"> F  </i>
  </separator>
  <separator name="electronic" >
   <i type="string" name="PREC">accura</i>
   <i name="ENMAX">    450.00000000</i>
   <i name="ENAUG">    644.87300000</i>
   <i name="EDIFF">      0.00000100</i>
   <i type="int" name="IALGO">    38</i>
   <i type="int" name="IWAVPR">    11</i>
   <i type="int" name="NBANDS">    48</i>
   <i type="int" name="NBANDSLOW">    -1</i>
   <i type="int" name="NBANDSHIGH">    -1</i>
   <i name="NELECT">     56.00000000</i>
   <i type="int" name="TURBO">     0</i>
   <i type="int" name="IRESTART">     0</i>
   <i type="int" name="NREBOOT">     0</i>
   <i type="int" name="NMIN">     0</i>
   <i name="EREF">      0.00000000</i>
   <separator name="electronic smearing" >
    <i type="int" name="ISMEAR">     0</i>
    <i name="SIGMA">      0.10000000</i>
    <i name="KSPACING">      0.50000000</i>
    <i type="logical" name="KGAMMA"> T  </i>
    <i type="logical" name="KBLOWUP"> T  </i>
   </separator>
   <separator name="electronic projectors" >
    <i type="logical" name="LREAL"> F  </i>
    <v name="ROPT">      0.00000000      0.00000000</v>
    <i type="int" name="LMAXPAW">  -100</i>
    <i type="int" name="LMAXMIX">     2</i>
    <i type="logical" name="NLSPLINE"> F  </i>
   </separator>
   <separator name="electronic startup" >
    <i type="int" name="ISTART">     0</i>
    <i type="int" name="ICHARG">     2</i>
    <i type="int" name="INIWAV">     1</i>
   </separator>
   <separator name="electronic spin" >
    <i type="int" name="ISPIN">     2</i>
    <i type="logical" name="LNONCOLLINEAR"> F  </i>
    <v name="MAGMOM">      1.00000000      1.00000000      1.00000000      1.00000000      1.00000000      1.00000000      1.00000000      1.00000000      1.00000000      1.00000000      1.00000000      1.00000000      1.00000000      1.00000000      1.00000000</v>
    <i name="NUPDOWN">     -1.00000000</i>
    <i type="logical" name="LSORBIT"> F  </i>
    <v name="SAXIS">      0.00000000      0.00000000      1.00000000</v>
    <i type="logical" name="LSPIRAL"> F  </i>
    <v name="QSPIRAL">      0.00000000      0.00000000      0.00000000</v>
    <i type="logical" name="LZEROZ"> F  </i>
   </separator>
   <separator name="electronic exchange-correlation" >
    <i type="logical" name="LASPH"> F  </i>
    <i type="logical" name="LMETAGGA"> F  </i>
   </separator>
   <separator name="electronic convergence" >
    <i type="int" name="NELM">    64</i>
    <i type="int" name="NELMDL">    -5</i>
    <i type="int" name="NELMIN">     2</i>
    <i name="ENINI">    450.00000000</i>
    <separator name="electronic convergence detail" >
     <i type="logical" name="LDIAG"> T  </i>
     <i type="logical" name="LSUBROT"> F  </i>
     <i name="WEIMIN">      0.00100000</i>
     <i name="EBREAK">      0.00000001</i>
     <i name="DEPER">      0.30000000</i>
     <i type="int" name="NRMM">     4</i>
     <i name="TIME">      0.40000000</i>
    </separator>
   </separator>
   <separator name="electronic mixer" >
    <i name="AMIX">      0.40000000</i>
    <i name="BMIX">      1.00000000</i>
    <i name="AMIN">      0.10000000</i>
    <i name="AMIX_MAG">      1.60000000</i>
    <i name="BMIX_MAG">      1.00000000</i>
    <separator name="electronic mixer details" >
     <i type="int" name="IMIX">     4</i>
     <i type="logical" name="MIXFIRST"> F  </i>
     <i type="int" name="MAXMIX">   -45</i>
     <i name="WC">    100.00000000</i>
     <i type="int" name="INIMIX">     1</i>
     <i type="int" name="MIXPRE">     1</i>
     <i type="int" name="MREMOVE">     5</i>
    </separator>
   </separator>
   <separator name="electronic dipolcorrection" >
    <i type="logical" name="LDIPOL"> F  </i>
    <i type="logical" name="LMONO"> F  </i>
    <i type="int" name="IDIPOL">     0</i>
    <i name="EPSILON">      1.00000000</i>
    <v name="DIPOL">   -100.00000000   -100.00000000   -100.00000000</v>
    <i name="EFIELD">      0.00000000</i>
   </separator>
  </separator>
  <separator name="grids" >
   <i type="int" name="NGX">    36</i>
   <i type="int" name="NGY">    36</i>
   <i type="int" name="NGZ">   108</i>
   <i type="int" name="NGXF">    72</i>
   <i type="int" name="NGYF">    72</i>
   <i type="int" name="NGZF">   216</i>
   <i type="logical" name="ADDGRID"> F  </i>
  </separator>
  <separator name="ionic" >
   <i type="int" name="NSW">   128</i>
   <i type="int" name="IBRION">     2</i>
   <i type="int" name="MDALGO">     0</i>
   <i type="int" name="ISIF">     2</i>
   <i name="PSTRESS">      0.00000000</i>
   <i name="EDIFFG">     -0.00100000</i>
   <i type="int" name="NFREE">     1</i>
   <i name="POTIM">      0.50000000</i>
   <i name="SMASS">     -3.00000000</i>
   <i name="SCALEE">      1.00000000</i>
  </separator>
  <separator name="ionic md" >
   <i name="TEBEG">      0.00010000</i>
   <i name="TEEND">      0.00010000</i>
   <i type="int" name="NBLOCK">     1</i>
   <i type="int" name="KBLOCK">   128</i>
   <i type="int" name="NPACO">   256</i>
   <i name="APACO">     10.00000000</i>
  </separator>
  <separator name="symmetry" >
   <i type="int" name="ISYM">     2</i>
   <i name="SYMPREC">      0.00001000</i>
  </separator>
  <separator name="dos" >
   <i type="int" name="LORBIT">     0</i>
   <v name="RWIGS">     -1.00000000     -1.00000000</v>
   <i type="int" name="NEDOS">   301</i>
   <i name="EMIN">     10.00000000</i>
   <i name="EMAX">    -10.00000000</i>
   <i name="EFERMI">      0.00000000</i>
  </separator>
  <separator name="writing" >
   <i type="int" name="NWRITE">     2</i>
   <i type="logical" name="LWAVE"> F  </i>
   <i type="logical" name="LDOWNSAMPLE"> F  </i>
   <i type="logical" name="LCHARG"> F  </i>
   <i type="logical" name="LPARD"> F  </i>
   <i type="logical" name="LVTOT"> F  </i>
   <i type="logical" name="LVHAR"> F  </i>
   <i type="logical" name="LELF"> F  </i>
   <i type="logical" name="LOPTICS"> F  </i>
   <v name="STM">      0.00000000      0.00000000      0.00000000      0.00000000      0.00000000      0.00000000      0.00000000</v>
  </separator>
  <separator name="performance" >
   <i type="int" name="NPAR">    48</i>
   <i type="int" name="NSIM">     4</i>
   <i type="int" name="NBLK">    -1</i>
   <i type="logical" name="LPLANE"> T  </i>
   <i type="logical" name="LSCALAPACK"> T  </i>
   <i type="logical" name="LSCAAWARE"> F  </i>
   <i type="logical" name="LSCALU"> F  </i>
   <i type="logical" name="LASYNC"> F  </i>
   <i type="logical" name="LORBITALREAL"> F  </i>
  </separator>
  <separator name="miscellaneous" >
   <i type="int" name="IDIOT">     3</i>
   <i type="int" name="PHON_NSTRUCT">    -1</i>
   <i type="logical" name="LMUSIC"> F  </i>
   <v name="POMASS">     10.81100000     12.01100000</v>
   <v name="DARWINR">      0.00000000      0.00000000</v>
   <v name="DARWINV">      1.00000000      1.00000000</v>
   <i type="logical" name="LCORR"> T  </i>
  </separator>
  <i type="logical" name="GGA_COMPAT"> T  </i>
  <i type="logical" name="LBERRY"> F  </i>
  <i type="int" name="ICORELEVEL">     0</i>
  <i type="logical" name="LDAU"> F  </i>
  <i type="int" name="I_CONSTRAINED_M">     0</i>
  <separator name="electronic exchange-correlation" >
   <i type="string" name="GGA">PE</i>
   <i type="int" name="VOSKOWN">     0</i>
   <i type="logical" name="LHFCALC"> F  </i>
   <i type="string" name="PRECFOCK"></i>
   <i type="logical" name="LSYMGRAD"> F  </i>
   <i type="logical" name="LHFONE"> F  </i>
   <i type="logical" name="LRHFCALC"> F  </i>
   <i type="logical" name="LTHOMAS"> F  </i>
   <i type="logical" name="LMODELHF"> F  </i>
   <i type="logical" name="LFOCKACE"> F  </i>
   <i name="ENCUT4O">     -1.00000000</i>
   <i type="int" name="EXXOEP">     0</i>
   <i type="int" name="FOURORBIT">     0</i>
   <i name="AEXX">      0.00000000</i>
   <i name="HFALPHA">      0.00000000</i>
   <i name="MCALPHA">      0.00000000</i>
   <i name="ALDAX">      1.00000000</i>
   <i name="AGGAX">      1.00000000</i>
   <i name="ALDAC">      1.00000000</i>
   <i name="AGGAC">      1.00000000</i>
   <i type="int" name="NKREDX">     1</i>
   <i type="int" name="NKREDY">     1</i>
   <i type="int" name="NKREDZ">     1</i>
   <i type="logical" name="SHIFTRED"> F  </i>
   <i type="logical" name="ODDONLY"> F  </i>
   <i type="logical" name="EVENONLY"> F  </i>
   <i type="int" name="LMAXFOCK">     0</i>
   <i type="int" name="NMAXFOCKAE">     0</i>
   <i type="logical" name="LFOCKAEDFT"> F  </i>
   <i name="HFSCREEN">      0.00000000</i>
   <i name="HFSCREENC">      0.00000000</i>
   <i type="int" name="NBANDSGWLOW">     0</i>
  </separator>
  <separator name="vdW DFT" >
   <i type="logical" name="LUSE_VDW"> F  </i>
   <i name="Zab_VDW">     -0.84910000</i>
   <i name="PARAM1">      0.12340000</i>
   <i name="PARAM2">      1.00000000</i>
   <i name="PARAM3">      0.00000000</i>
  </separator>
  <separator name="model GW" >
   <i type="int" name="MODEL_GW">     0</i>
   <i name="MODEL_EPS0">     12.18739312</i>
   <i name="MODEL_ALPHA">      1.00000000</i>
  </separator>
  <separator name="linear response parameters" >
   <i type="logical" name="LEPSILON"> F  </i>
   <i type="logical" name="LRPA"> F  </i>
   <i type="logical" name="LNABLA"> F  </i>
   <i type="logical" name="LVEL"> F  </i>
   <i name="CSHIFT">      0.10000000</i>
   <i name="OMEGAMAX">     -1.00000000</i>
   <i name="DEG_THRESHOLD">      0.00200000</i>
   <i name="RTIME">     -0.10000000</i>
   <i name="WPLASMAI">      0.00000000</i>
   <v name="DFIELD">      0.00000000      0.00000000      0.00000000</v>
   <v name="WPLASMA">      0.00000000      0.00000000      0.00000000      0.00000000      0.00000000      0.00000000      0.00000000      0.00000000      0.00000000</v>
  </separator>
  <separator name="orbital magnetization" >
   <i type="logical" name="NUCIND"> F  </i>
   <v name="MAGPOS">      0.00000000      0.00000000      0.00000000</v>
   <i type="logical" name="LNICSALL"> T  </i>
   <i type="logical" name="ORBITALMAG"> F  </i>
   <i type="logical" name="LMAGBLOCH"> F  </i>
   <i type="logical" name="LCHIMAG"> F  </i>
   <i type="logical" name="LGAUGE"> T  </i>
   <i type="int" name="MAGATOM">     0</i>
   <v name="MAGDIPOL">      0.00000000      0.00000000      0.00000000</v>
   <v name="AVECCONST">      0.00000000      0.00000000      0.00000000</v>
  </separator>
  <separator name="response functions" >
   <i type="logical" name="LFINITE_TEMPERATURE"> F  </i>
   <i type="logical" name="LADDER"> F  </i>
   <i type="logical" name="LRPAFORCE"> F  </i>
   <i type="logical" name="LFXC"> F  </i>
   <i type="logical" name="LHARTREE"> T  </i>
   <i type="int" name="IBSE">     0</i>
   <v type="int" name="KPOINT">    -1     0     0     0</v>
   <i type="logical" name="LTCTC"> F  </i>
   <i type="logical" name="LTCTE"> F  </i>
   <i type="logical" name="LTETE"> F  </i>
   <i type="logical" name="LTRIPLET"> F  </i>
   <i type="logical" name="LFXCEPS"> F  </i>
   <i type="logical" name="LFXHEG"> F  </i>
   <i type="int" name="NATURALO">     2</i>
   <i type="logical" name="LHOLEGF"> F  </i>
   <i type="logical" name="L2ORDER"> F  </i>
   <i type="logical" name="LDMP1"> F  </i>
   <i type="logical" name="LMP2LT"> F  </i>
   <i type="logical" name="LSMP2LT"> F  </i>
   <i type="logical" name="LGWLF"> F  </i>
   <i name="ENCUTGW">     -2.00000000</i>
   <i name="ENCUTGWSOFT">     -2.00000000</i>
   <i name="ENCUTLF">     -1.00000000</i>
   <i type="logical" name="LESF_SPLINES"> F  </i>
   <i type="int" name="LMAXMP2">    -1</i>
   <i name="SCISSOR">      0.00000000</i>
   <i type="int" name="NOMEGA">     0</i>
   <i type="int" name="NOMEGAR">     0</i>
   <i type="int" name="NBANDSGW">    -1</i>
   <i type="int" name="NBANDSO">    -1</i>
   <i type="int" name="NBANDSV">    -1</i>
   <i type="int" name="NELMGW">     1</i>
   <i type="int" name="NELMHF">     1</i>
   <i type="int" name="DIM">     3</i>
   <i type="int" name="IESPILON">     4</i>
   <i type="int" name="ANTIRES">     0</i>
   <i name="OMEGAMAX">    -30.00000000</i>
   <i name="OMEGAMIN">    -30.00000000</i>
   <i name="OMEGATL">   -200.00000000</i>
   <i type="int" name="OMEGAGRID">     0</i>
   <i name="CSHIFT">     -0.10000000</i>
   <i type="logical" name="LSELFENERGY"> F  </i>
   <i type="logical" name="LSPECTRAL"> F  </i>
   <i type="logical" name="LSPECTRALGW"> F  </i>
   <i type="logical" name="LSINGLES"> F  </i>
   <i type="logical" name="LFERMIGW"> F  </i>
   <i type="logical" name="ODDONLYGW"> F  </i>
   <i type="logical" name="EVENONLYGW"> F  </i>
   <i type="int" name="NKREDLFX">     1</i>
   <i type="int" name="NKREDLFY">     1</i>
   <i type="int" name="NKREDLFZ">     1</i>
   <i type="int" name="MAXMEM">  2800</i>
   <i type="int" name="TELESCOPE">     0</i>
   <i type="int" name="NTAUPAR">    -1</i>
   <i type="int" name="NOMEGAPAR">    -1</i>
   <i name="DAMP_NEWTON">      0.80000001</i>
   <i name="LAMBDA">      1.00000000</i>
  </separator>
  <separator name="External order field" >
   <i name="OFIELD_KAPPA">      0.00000000</i>
   <v name="OFIELD_K">      0.00000000      0.00000000      0.00000000</v>
   <i name="OFIELD_Q6_NEAR">      0.00000000</i>
   <i name="OFIELD_Q6_FAR">      0.00000000</i>
   <i name="OFIELD_A">      0.00000000</i>
  </separator>
  <separator name="optional k-points parameters" >
   <i type="int" name="KPOINTS_OPT_MODE">     1</i>
   <i type="logical" name="LKPOINTS_OPT"> F  </i>
  </separator>
  <separator name="solvation model" >
   <i type="logical" name="LSOL"> F  </i>
  </separator>
 </parameters>
 <atominfo>
  <atoms>      15 </atoms>
  <types>       2 </types>
  <array name="atoms" >
   <dimension dim="1">ion</dimension>
   <field type="string">element</field>
   <field type="int">atomtype</field>
   <set>
    <rc><c>B </c><c>   1</c></rc>
    <rc><c>B </c><c>   1</c></rc>
    <rc><c>B </c><c>   1</c></rc>
    <rc><c>B </c><c>   1</c></rc>
    <rc><c>C </c><c>   2</c></rc>
    <rc><c>C </c><c>   2</c></rc>
    <rc><c>C </c><c>   2</c></rc>
    <rc><c>C </c><c>   2</c></rc>
    <rc><c>C </c><c>   2</c></rc>
    <rc><c>C </c><c>   2</c></rc>
    <rc><c>C </c><c>   2</c></rc>
    <rc><c>C </c><c>   2</c></rc>
    <rc><c>C </c><c>   2</c></rc>
    <rc><c>C </c><c>   2</c></rc>
    <rc><c>C </c><c>   2</c></rc>
   </set>
  </array>
  <array name="atomtypes" >
   <dimension dim="1">type</dimension>
   <field type="int">atomspertype</field>
   <field type="string">element</field>
   <field>mass</field>
   <field>valence</field>
   <field type="string">pseudopotential</field>
   <set>
    <rc><c>   4</c><c>B </c><c>     10.81100000</c><c>      3.00000000</c><c>  PAW_PBE B 06Sep2000                   </c></rc>
    <rc><c>  11</c><c>C </c><c>     12.01100000</c><c>      4.00000000</c><c>  PAW_PBE C 08Apr2002                   </c></rc>
   </set>
  </array>
 </atominfo>
 <structure name="initialpos" >
  <crystal>
   <varray name="basis" >
    <v>       4.19416103       2.42150000       0.00000000 </v>
    <v>      -4.19416103       2.42150000       0.00000000 </v>
    <v>       0.00000000       0.00000000      15.00000000 </v>
   </varray>
   <i name="volume">    304.68482806 </i>
   <varray name="rec_basis" >
    <v>       0.11921335       0.20648358       0.00000000 </v>
    <v>      -0.11921335       0.20648358       0.00000000 </v>
    <v>       0.00000000       0.00000000       0.06666667 </v>
   </varray>
  </crystal>
  <varray name="positions" >
   <v>       0.00415361       0.00267210       0.12034134 </v>
   <v>       0.35695335       0.00285503       0.09748893 </v>
   <v>       0.00423858       0.35550699       0.09749256 </v>
   <v>       0.65142295       0.65006557       0.09747688 </v>
   <v>       0.32808646       0.32671938       0.10030508 </v>
   <v>       0.68027775       0.00278085       0.10027562 </v>
   <v>       0.00416530       0.67883808       0.10026559 </v>
   <v>       0.99999933       0.49999967       0.33373333 </v>
   <v>       0.16666633       0.33333267       0.33373333 </v>
   <v>       0.99999933       0.99999967       0.33373333 </v>
   <v>       0.16666633       0.83333267       0.33373333 </v>
   <v>       0.49999933       0.49999967       0.33373333 </v>
   <v>       0.66666633       0.33333267       0.33373333 </v>
   <v>       0.49999933       0.99999967       0.33373333 </v>
   <v>       0.66666633       0.83333267       0.33373333 </v>
  </varray>
 </structure>
 <calculation>
  <scstep>
   <time name="dav">    5.53    5.59</time>
   <time name="total">    5.58    5.65</time>
   <energy>
    <i name="alphaZ">     58.37932579 </i>
    <i name="ewald">   4790.47423468 </i>
    <i name="hartreedc">  -6346.17807592 </i>
    <i name="XCdc">    175.19467148 </i>
    <i name="pawpsdc">   1365.87943566 </i>
    <i name="pawaedc">  -1368.52100941 </i>
    <i name="eentropy">     -0.01987964 </i>
    <i name="bandstr">   -376.02892846 </i>
    <i name="atom">   1903.26342058 </i>
    <i name="e_fr_energy">    202.44319474 </i>
    <i name="e_wo_entrp">    202.46307439 </i>
    <i name="e_0_energy">    202.45313457 </i>
   </energy>
  </scstep>
  <scstep>
   <time name="dav">    8.12    8.18</time>
   <time name="total">    8.12    8.19</time>
   <energy>
    <i name="e_fr_energy">   -116.57634984 </i>
    <i name="e_wo_entrp">   -116.57477378 </i>
    <i name="e_0_energy">   -116.57556181 </i>
   </energy>
  </scstep>
  <scstep>
   <time name="dav">   11.25   11.33</time>
   <time name="total">   11.25   11.33</time>
   <energy>
    <i name="e_fr_energy">   -129.38968998 </i>
    <i name="e_wo_entrp">   -129.38653610 </i>
    <i name="e_0_energy">   -129.38811304 </i>
   </energy>
  </scstep>
  <scstep>
   <time name="dav">    8.50    8.57</time>
   <time name="total">    8.50    8.57</time>
   <energy>
    <i name="e_fr_energy">   -129.41286903 </i>
    <i name="e_wo_entrp">   -129.40968338 </i>
    <i name="e_0_energy">   -129.41127620 </i>
   </energy>
  </scstep>
  <scstep>
   <time name="dav">   10.59   10.66</time>
   <time name="total">   10.85   10.93</time>
   <energy>
    <i name="e_fr_energy">   -129.41292523 </i>
    <i name="e_wo_entrp">   -129.40973964 </i>
    <i name="e_0_energy">   -129.41133243 </i>
   </energy>
  </scstep>
  <scstep>
   <time name="dav">   11.00   11.07</time>
   <time name="total">   11.32   11.40</time>
   <energy>
    <i name="e_fr_energy">    -92.14597322 </i>
    <i name="e_wo_entrp">    -92.13996821 </i>
    <i name="e_0_energy">    -92.14297071 </i>
   </energy>
  </scstep>
  <scstep>
   <time name="dav">    9.15    9.21</time>
   <time name="total">    9.46    9.53</time>
   <energy>
    <i name="e_fr_energy">   -100.59591976 </i>
    <i name="e_wo_entrp">   -100.59031744 </i>
    <i name="e_0_energy">   -100.59311860 </i>
   </energy>
  </scstep>
  <scstep>
   <time name="dav">   10.62   10.69</time>
   <time name="total">   10.93   11.01</time>
   <energy>
    <i name="e_fr_energy">   -110.47694307 </i>
    <i name="e_wo_entrp">   -110.47692862 </i>
    <i name="e_0_energy">   -110.47693585 </i>
   </energy>
  </scstep>
  <scstep>
   <time name="dav">    7.80    7.85</time>
   <time name="total">    8.11    8.16</time>
   <energy>
    <i name="e_fr_energy">   -117.32802728 </i>
    <i name="e_wo_entrp">   -117.32802263 </i>
    <i name="e_0_energy">   -117.32802496 </i>
   </energy>
  </scstep>
  <scstep>
   <time name="dav">   10.21   10.28</time>
   <time name="total">   10.52   10.59</time>
   <energy>
    <i name="e_fr_energy">   -123.65180690 </i>
    <i name="e_wo_entrp">   -123.65112923 </i>
    <i name="e_0_energy">   -123.65146806 </i>
   </energy>
  </scstep>
  <scstep>
   <time name="dav">   10.90   10.96</time>
   <time name="total">   11.21   11.28</time>
   <energy>
    <i name="e_fr_energy">   -125.27506798 </i>
    <i name="e_wo_entrp">   -125.27389617 </i>
    <i name="e_0_energy">   -125.27448207 </i>
   </energy>
  </scstep>
  <scstep>
   <time name="dav">    7.52    7.56</time>
   <time name="total">    7.82    7.88</time>
   <energy>
    <i name="e_fr_energy">   -125.43109859 </i>
    <i name="e_wo_entrp">   -125.42961966 </i>
    <i name="e_0_energy">   -125.43035913 </i>
   </energy>
  </scstep>
  <scstep>
   <time name="dav">    7.23    7.27</time>
   <time name="total">    7.53    7.59</time>
   <energy>
    <i name="e_fr_energy">   -125.46577356 </i>
    <i name="e_wo_entrp">   -125.46423968 </i>
    <i name="e_0_energy">   -125.46500662 </i>
   </energy>
  </scstep>
  <scstep>
   <time name="dav">    8.45    8.50</time>
   <time name="total">    8.76    8.82</time>
   <energy>
    <i name="e_fr_energy">   -125.48881069 </i>
    <i name="e_wo_entrp">   -125.48727210 </i>
    <i name="e_0_energy">   -125.48804140 </i>
   </energy>
  </scstep>
  <scstep>
   <time name="dav">    7.32    7.37</time>
   <time name="total">    7.63    7.68</time>
   <energy>
    <i name="e_fr_energy">   -125.49553054 </i>
    <i name="e_wo_entrp">   -125.49399142 </i>
    <i name="e_0_energy">   -125.49476098 </i>
   </energy>
  </scstep>
  <scstep>
   <time name="dav">    6.64    6.69</time>
   <time name="total">    6.94    7.00</time>
   <energy>
    <i name="e_fr_energy">   -125.49753360 </i>
    <i name="e_wo_entrp">   -125.49599453 </i>
    <i name="e_0_energy">   -125.49676407 </i>
   </energy>
  </scstep>
  <scstep>
   <time name="dav">    7.33    7.37</time>
   <time name="total">    7.63    7.68</time>
   <energy>
    <i name="e_fr_energy">   -125.49879251 </i>
    <i name="e_wo_entrp">   -125.49725346 </i>
    <i name="e_0_energy">   -125.49802298 </i>
   </energy>
  </scstep>
  <scstep>
   <time name="dav">    6.87    6.91</time>
   <time name="total">    7.17    7.22</time>
   <energy>
    <i name="e_fr_energy">   -125.49956067 </i>
    <i name="e_wo_entrp">   -125.49802162 </i>
    <i name="e_0_energy">   -125.49879114 </i>
   </energy>
  </scstep>
  <scstep>
   <time name="dav">    8.39    8.44</time>
   <time name="total">    8.69    8.76</time>
   <energy>
    <i name="e_fr_energy">   -125.49998270 </i>
    <i name="e_wo_entrp">   -125.49844367 </i>
    <i name="e_0_energy">   -125.49921319 </i>
   </energy>
  </scstep>
  <scstep>
   <time name="dav">    9.02    9.99</time>
   <time name="total">    9.32   10.30</time>
   <energy>
    <i name="e_fr_energy">   -125.50001916 </i>
    <i name="e_wo_entrp">   -125.49848012 </i>
    <i name="e_0_energy">   -125.49924964 </i>
   </energy>
  </scstep>
  <scstep>
   <time name="dav">    8.39    8.44</time>
   <time name="total">    8.69    8.75</time>
   <energy>
    <i name="e_fr_energy">   -125.50004484 </i>
    <i name="e_wo_entrp">   -125.49850579 </i>
    <i name="e_0_energy">   -125.49927532 </i>
   </energy>
  </scstep>
  <scstep>
   <time name="dav">    9.21    9.28</time>
   <time name="total">    9.52    9.60</time>
   <energy>
    <i name="e_fr_energy">   -125.50006792 </i>
    <i name="e_wo_entrp">   -125.49852885 </i>
    <i name="e_0_energy">   -125.49929839 </i>
   </energy>
  </scstep>
  <scstep>
   <time name="dav">    8.74    8.79</time>
   <time name="total">    9.04    9.10</time>
   <energy>
    <i name="e_fr_energy">   -125.50007928 </i>
    <i name="e_wo_entrp">   -125.49854022 </i>
    <i name="e_0_energy">   -125.49930975 </i>
   </energy>
  </scstep>
  <scstep>
   <time name="dav">    9.57    9.62</time>
   <time name="total">    9.87    9.94</time>
   <energy>
    <i name="e_fr_energy">   -125.50008170 </i>
    <i name="e_wo_entrp">   -125.49854263 </i>
    <i name="e_0_energy">   -125.49931216 </i>
   </energy>
  </scstep>
  <scstep>
   <time name="dav">    8.61    8.67</time>
   <time name="total">    8.92    8.98</time>
   <energy>
    <i name="e_fr_energy">   -125.50008273 </i>
    <i name="e_wo_entrp">   -125.49854366 </i>
    <i name="e_0_energy">   -125.49931319 </i>
   </energy>
  </scstep>
  <scstep>
   <time name="dav">    9.51    9.56</time>
   <time name="total">    9.55    9.60</time>
   <energy>
    <i name="alphaZ">     58.37932579 </i>
    <i name="ewald">   4790.47423468 </i>
    <i name="hartreedc">  -6548.14279559 </i>
    <i name="XCdc">    180.56893788 </i>
    <i name="pawpsdc">   5753.58067040 </i>
    <i name="pawaedc">  -5757.99824772 </i>
    <i name="eentropy">     -0.00153907 </i>
    <i name="bandstr">   -505.62409017 </i>
    <i name="atom">   1903.26342058 </i>
    <i name="e_fr_energy">   -125.50008323 </i>
    <i name="e_wo_entrp">   -125.49854416 </i>
    <i name="e_0_energy">   -125.49931370 </i>
   </energy>
  </scstep>
  <structure>
   <crystal>
    <varray name="basis" >
     <v>       4.19416103       2.42150000       0.00000000 </v>
     <v>      -4.19416103       2.42150000       0.00000000 </v>
     <v>       0.00000000       0.00000000      15.00000000 </v>
    </varray>
    <i name="volume">    304.68482806 </i>
    <varray name="rec_basis" >
     <v>       0.11921335       0.20648358       0.00000000 </v>
     <v>      -0.11921335       0.20648358       0.00000000 </v>
     <v>       0.00000000       0.00000000       0.06666667 </v>
    </varray>
   </crystal>
   <varray name="positions" >
    <v>       0.00415361       0.00267210       0.12034134 </v>
    <v>       0.35695335       0.00285503       0.09748893 </v>
    <v>       0.00423858       0.35550699       0.09749256 </v>
    <v>       0.65142295       0.65006557       0.09747688 </v>
    <v>       0.32808646       0.32671938       0.10030508 </v>
    <v>       0.68027775       0.00278085       0.10027562 </v>
    <v>       0.00416530       0.67883808       0.10026559 </v>
    <v>       0.99999933       0.49999967       0.33373333 </v>
    <v>       0.16666633       0.33333267       0.33373333 </v>
    <v>       0.99999933       0.99999967       0.33373333 </v>
    <v>       0.16666633       0.83333267       0.33373333 </v>
    <v>       0.49999933       0.49999967       0.33373333 </v>
    <v>       0.66666633       0.33333267       0.33373333 </v>
    <v>       0.49999933       0.99999967       0.33373333 </v>
    <v>       0.66666633       0.83333267       0.33373333 </v>
   </varray>
  </structure>
  <varray name="forces" >
   <v>      -0.00468022       0.00541940      -0.33992775 </v>
   <v>      -0.11000395      -0.04568695       0.10507661 </v>
   <v>       0.08970229      -0.07988922       0.10460159 </v>
   <v>       0.02266402       0.11790955       0.10615286 </v>
   <v>       0.02994379      -0.35051391      -0.00289869 </v>
   <v>       0.28688368       0.19826796      -0.00043836 </v>
   <v>      -0.31482344       0.15369778       0.00040560 </v>
   <v>       0.01315592       0.00521786       0.00275128 </v>
   <v>      -0.03524748       0.04108935       0.02119056 </v>
   <v>       0.00051108      -0.00030955      -0.03131887 </v>
   <v>       0.05267854       0.00953674       0.02208614 </v>
   <v>      -0.01077395       0.01022310       0.00364533 </v>
   <v>      -0.00045941       0.00025653      -0.01502394 </v>
   <v>      -0.00174659      -0.01391272       0.00260589 </v>
   <v>      -0.01780427      -0.05130591       0.02109175 </v>
  </varray>
  <varray name="stress" >
   <v>      -3.52710673       0.01666143      -0.00207991 </v>
   <v>       0.01666143      -3.50442534       0.02465493 </v>
   <v>      -0.00207990       0.02465495      -2.24364520 </v>
  </varray>
  <energy>
   <i name="e_fr_energy">   -127.10415498 </i>
   <i name="e_wo_entrp">   -127.10261591 </i>
   <i name="e_0_energy">   -127.10338545 </i>
  </energy>
  <time name="totalsc">  237.71  240.38</time>
 </calculation>
 <calculation>
  <scstep>
   <time name="dav">    5.54    5.58</time>
   <time name="total">    5.85    5.90</time>
   <energy>
    <i name="alphaZ">     58.37932579 </i>
    <i name="ewald">   4793.90596806 </i>
    <i name="hartreedc">  -6550.22446656 </i>
    <i name="XCdc">    180.64597493 </i>
    <i name="pawpsdc">   5753.58759889 </i>
    <i name="pawaedc">  -5758.00517910 </i>
    <i name="eentropy">     -0.00154344 </i>
    <i name="bandstr">   -507.05889886 </i>
    <i name="atom">   1903.26342058 </i>
    <i name="e_fr_energy">   -125.50779972 </i>
    <i name="e_wo_entrp">   -125.50625628 </i>
    <i name="e_0_energy">   -125.50702800 </i>
   </energy>
  </scstep>
  <scstep>
   <time name="dav">   10.92   10.99</time>
   <time name="total">   11.23   11.31</time>
   <energy>
    <i name="e_fr_energy">   -125.49940968 </i>
    <i name="e_wo_entrp">   -125.49786609 </i>
    <i name="e_0_energy">   -125.49863788 </i>
   </energy>
  </scstep>
  <scstep>
   <time name="dav">    9.07    9.12</time>
   <time name="total">    9.36    9.43</time>
   <energy>
    <i name="e_fr_energy">   -125.49842639 </i>
    <i name="e_wo_entrp">   -125.49688269 </i>
    <i name="e_0_energy">   -125.49765454 </i>
   </energy>
  </scstep>
  <scstep>
   <time name="dav">   10.78   10.84</time>
   <time name="total">   11.08   11.15</time>
   <energy>
    <i name="e_fr_energy">   -125.49838148 </i>
    <i name="e_wo_entrp">   -125.49683800 </i>
    <i name="e_0_energy">   -125.49760974 </i>
   </energy>
  </scstep>
  <scstep>
   <time name="dav">   10.10   10.15</time>
   <time name="total">   10.40   10.46</time>
   <energy>
    <i name="e_fr_energy">   -125.49838411 </i>
    <i name="e_wo_entrp">   -125.49684070 </i>
    <i name="e_0_energy">   -125.49761240 </i>
   </energy>
  </scstep>
  <scstep>
   <time name="dav">    9.22    9.28</time>
   <time name="total">    9.26    9.32</time>
   <energy>
    <i name="alphaZ">     58.37932579 </i>
    <i name="ewald">   4793.90596806 </i>
    <i name="hartreedc">  -6550.95144326 </i>
    <i name="XCdc">    180.66235011 </i>
    <i name="pawpsdc">   5779.25604454 </i>
    <i name="pawaedc">  -5783.68191839 </i>
    <i name="eentropy">     -0.00154342 </i>
    <i name="bandstr">   -506.33058824 </i>
    <i name="atom">   1903.26342058 </i>
    <i name="e_fr_energy">   -125.49838425 </i>
    <i name="e_wo_entrp">   -125.49684083 </i>
    <i name="e_0_energy">   -125.49761254 </i>
   </energy>
  </scstep>
  <structure>
   <crystal>
    <varray name="basis" >
     <v>       4.19416103       2.42150000       0.00000000 </v>
     <v>      -4.19416103       2.42150000       0.00000000 </v>
     <v>       0.00000000       0.00000000      15.00000000 </v>
    </varray>
    <i name="volume">    304.68482806 </i>
    <varray name="rec_basis" >
     <v>       0.11921335       0.20648358       0.00000000 </v>
     <v>      -0.11921335       0.20648358       0.00000000 </v>
     <v>       0.00000000       0.00000000       0.06666667 </v>
    </varray>
   </crystal>
   <varray name="positions" >
    <v>       0.00418067       0.00275300       0.11924807 </v>
    <v>       0.35586560       0.00303258       0.09782688 </v>
    <v>       0.00395867       0.35419530       0.09782898 </v>
    <v>       0.65272783       0.65110976       0.09781829 </v>
    <v>       0.32476709       0.32305558       0.10029576 </v>
    <v>       0.68390267       0.00310595       0.10027421 </v>
    <v>       0.00388573       0.68217971       0.10026689 </v>
    <v>       0.00012697       0.49997598       0.33374218 </v>
    <v>       0.16687292       0.33394468       0.33380149 </v>
    <v>       0.99999919       0.99999364       0.33363261 </v>
    <v>       0.16706429       0.83312470       0.33380437 </v>
    <v>       0.50003921       0.50016347       0.33374506 </v>
    <v>       0.66666625       0.33333786       0.33368501 </v>
    <v>       0.49985070       0.99987112       0.33374171 </v>
    <v>       0.66605286       0.83292399       0.33380117 </v>
   </varray>
  </structure>
  <varray name="forces" >
   <v>      -0.00105804      -0.00067341      -0.12785164 </v>
   <v>       0.23984355       0.13628320       0.05592851 </v>
   <v>      -0.24175704       0.13868100       0.05553978 </v>
   <v>       0.00128736      -0.27398066       0.05667413 </v>
   <v>      -0.00417279       0.56841760      -0.02355650 </v>
   <v>      -0.48644394      -0.28878298      -0.02167336 </v>
   <v>       0.49200066      -0.28077956      -0.02140982 </v>
   <v>      -0.05588336      -0.02313739       0.01028311 </v>
   <v>       0.12557106      -0.13958545      -0.00100778 </v>
   <v>      -0.00191049       0.00130781       0.00731643 </v>
   <v>      -0.18173656      -0.03577213      -0.00082573 </v>
   <v>       0.04679240      -0.04147143       0.01045023 </v>
   <v>       0.00200543      -0.00038530      -0.00896901 </v>
   <v>       0.00650194       0.05971996       0.01019994 </v>
   <v>       0.05895982       0.18015871      -0.00109832 </v>
  </varray>
  <varray name="stress" >
   <v>      -0.93852489       0.00154445       0.00379321 </v>
   <v>       0.00154445      -0.93735857       0.01603349 </v>
   <v>       0.00379321       0.01603344      -1.88111576 </v>
  </varray>
  <energy>
   <i name="e_fr_energy">   -127.10190371 </i>
   <i name="e_wo_entrp">   -127.10036029 </i>
   <i name="e_0_energy">   -127.10113200 </i>
  </energy>
  <time name="totalsc">   61.96   62.37</time>
 </calculation>
 <calculation>
  <scstep>
   <time name="dav">    5.53    5.57</time>
   <time name="total">    5.83    5.88</time>
   <energy>
    <i name="alphaZ">     58.37932579 </i>
    <i name="ewald">   4792.02203477 </i>
    <i name="hartreedc">  -6549.79879542 </i>
    <i name="XCdc">    180.61954205 </i>
    <i name="pawpsdc">   5779.20922400 </i>
    <i name="pawaedc">  -5783.63506984 </i>
    <i name="eentropy">     -0.00154122 </i>
    <i name="bandstr">   -505.56760340 </i>
    <i name="atom">   1903.26342058 </i>
    <i name="e_fr_energy">   -125.50946270 </i>
    <i name="e_wo_entrp">   -125.50792148 </i>
    <i name="e_0_energy">   -125.50869209 </i>
   </energy>
  </scstep>
  <scstep>
   <time name="dav">   11.17   11.24</time>
   <time name="total">   11.48   11.56</time>
   <energy>
    <i name="e_fr_energy">   -125.50698677 </i>
    <i name="e_wo_entrp">   -125.50544569 </i>
    <i name="e_0_energy">   -125.50621623 </i>
   </energy>
  </scstep>
  <scstep>
   <time name="dav">    9.93    9.99</time>
   <time name="total">   10.23   10.31</time>
   <energy>
    <i name="e_fr_energy">   -125.50671112 </i>
    <i name="e_wo_entrp">   -125.50517013 </i>
    <i name="e_0_energy">   -125.50594062 </i>
   </energy>
  </scstep>
  <scstep>
   <time name="dav">    9.29    9.35</time>
   <time name="total">    9.60    9.67</time>
   <energy>
    <i name="e_fr_energy">   -125.50669870 </i>
    <i name="e_wo_entrp">   -125.50515755 </i>
    <i name="e_0_energy">   -125.50592812 </i>
   </energy>
  </scstep>
  <scstep>
   <time name="dav">    9.63    9.69</time>
   <time name="total">    9.67    9.73</time>
   <energy>
    <i name="alphaZ">     58.37932579 </i>
    <i name="ewald">   4792.02203477 </i>
    <i name="hartreedc">  -6549.43296289 </i>
    <i name="XCdc">    180.61093715 </i>
    <i name="pawpsdc">   5764.76920415 </i>
    <i name="pawaedc">  -5769.19030813 </i>
    <i name="eentropy">     -0.00154116 </i>
    <i name="bandstr">   -505.92680975 </i>
    <i name="atom">   1903.26342058 </i>
    <i name="e_fr_energy">   -125.50669950 </i>
    <i name="e_wo_entrp">   -125.50515834 </i>
    <i name="e_0_energy">   -125.50592892 </i>
   </energy>
  </scstep>
  <structure>
   <crystal>
    <varray name="basis" >
     <v>       4.19416103       2.42150000       0.00000000 </v>
     <v>      -4.19416103       2.42150000       0.00000000 </v>
     <v>       0.00000000       0.00000000      15.00000000 </v>
    </varray>
    <i name="volume">    304.68482806 </i>
    <varray name="rec_basis" >
     <v>       0.11921335       0.20648358       0.00000000 </v>
     <v>      -0.11921335       0.20648358       0.00000000 </v>
     <v>       0.00000000       0.00000000       0.06666667 </v>
    </varray>
   </crystal>
   <varray name="positions" >
    <v>       0.00416614       0.00270955       0.11983528 </v>
    <v>       0.35644984       0.00293722       0.09764536 </v>
    <v>       0.00410901       0.35489983       0.09764829 </v>
    <v>       0.65202696       0.65054891       0.09763491 </v>
    <v>       0.32654997       0.32502345       0.10030076 </v>
    <v>       0.68195568       0.00293133       0.10027497 </v>
    <v>       0.00403589       0.68038488       0.10026619 </v>
    <v>       0.00005842       0.49998870       0.33373743 </v>
    <v>       0.16676196       0.33361596       0.33376488 </v>
    <v>       0.99999927       0.99999688       0.33368671 </v>
    <v>       0.16685054       0.83323640       0.33376621 </v>
    <v>       0.50001779       0.50007549       0.33373876 </v>
    <v>       0.66666629       0.33333507       0.33371097 </v>
    <v>       0.49993053       0.99994017       0.33373721 </v>
    <v>       0.66638237       0.83314349       0.33376473 </v>
   </varray>
  </structure>
  <varray name="forces" >
   <v>      -0.00312221       0.00281169      -0.24095416 </v>
   <v>       0.05462227       0.04070312       0.08230814 </v>
   <v>      -0.06704181       0.02241239       0.08187580 </v>
   <v>       0.01336415      -0.06701313       0.08324147 </v>
   <v>       0.01483973       0.07321524      -0.01268443 </v>
   <v>      -0.07009765      -0.02574031      -0.01052727 </v>
   <v>       0.05713385      -0.04719207      -0.00998006 </v>
   <v>      -0.01844816      -0.00778110       0.00625043 </v>
   <v>       0.03889302      -0.04256838       0.01096719 </v>
   <v>      -0.00061430       0.00043807      -0.01352544 </v>
   <v>      -0.05569629      -0.01117892       0.01153180 </v>
   <v>       0.01558358      -0.01344869       0.00680799 </v>
   <v>       0.00067782      -0.00003961      -0.01231573 </v>
   <v>       0.00200641       0.01980321       0.00613332 </v>
   <v>       0.01789959       0.05557848       0.01087094 </v>
  </varray>
  <varray name="stress" >
   <v>      -2.45425651       0.00963337       0.00050972 </v>
   <v>       0.00963340      -2.44422462       0.02110520 </v>
   <v>       0.00050972       0.02110520      -2.06040839 </v>
  </varray>
  <energy>
   <i name="e_fr_energy">   -127.11051470 </i>
   <i name="e_wo_entrp">   -127.10897355 </i>
   <i name="e_0_energy">   -127.10974412 </i>
  </energy>
  <time name="totalsc">   51.57   51.94</time>
 </calculation>
 <calculation>
  <scstep>
   <time name="dav">    5.54    5.57</time>
   <time name="total">    5.84    5.89</time>
   <energy>
    <i name="alphaZ">     58.37932579 </i>
    <i name="ewald">   4792.20005816 </i>
    <i name="hartreedc">  -6549.37979536 </i>
    <i name="XCdc">    180.62712940 </i>
    <i name="pawpsdc">   5764.77468675 </i>
    <i name="pawaedc">  -5769.19579907 </i>
    <i name="eentropy">     -0.00154384 </i>
    <i name="bandstr">   -506.17840892 </i>
    <i name="atom">   1903.26342058 </i>
    <i name="e_fr_energy">   -125.51092653 </i>
    <i name="e_wo_entrp">   -125.50938269 </i>
    <i name="e_0_energy">   -125.51015461 </i>
   </energy>
  </scstep>
  <scstep>
   <time name="dav">   11.97   12.03</time>
   <time name="total">   12.27   12.35</time>
   <energy>
    <i name="e_fr_energy">   -125.51093678 </i>
    <i name="e_wo_entrp">   -125.50939351 </i>
    <i name="e_0_energy">   -125.51016514 </i>
   </energy>
  </scstep>
  <scstep>
   <time name="dav">    9.31    9.36</time>
   <time name="total">    9.61    9.68</time>
   <energy>
    <i name="e_fr_energy">   -125.51092369 </i>
    <i name="e_wo_entrp">   -125.50938072 </i>
    <i name="e_0_energy">   -125.51015221 </i>
   </energy>
  </scstep>
  <scstep>
   <time name="dav">   10.90   10.96</time>
   <time name="total">   11.21   11.27</time>
   <energy>
    <i name="e_fr_energy">   -125.51092408 </i>
    <i name="e_wo_entrp">   -125.50938104 </i>
    <i name="e_0_energy">   -125.51015256 </i>
   </energy>
  </scstep>
  <scstep>
   <time name="dav">    9.25    9.30</time>
   <time name="total">    9.28    9.33</time>
   <energy>
    <i name="alphaZ">     58.37932579 </i>
    <i name="ewald">   4792.20005816 </i>
    <i name="hartreedc">  -6549.38188482 </i>
    <i name="XCdc">    180.62720256 </i>
    <i name="pawpsdc">   5769.45019744 </i>
    <i name="pawaedc">  -5773.87296268 </i>
    <i name="eentropy">     -0.00154305 </i>
    <i name="bandstr">   -506.17473874 </i>
    <i name="atom">   1903.26342058 </i>
    <i name="e_fr_energy">   -125.51092477 </i>
    <i name="e_wo_entrp">   -125.50938172 </i>
    <i name="e_0_energy">   -125.51015324 </i>
   </energy>
  </scstep>
  <structure>
   <crystal>
    <varray name="basis" >
     <v>       4.19416103       2.42150000       0.00000000 </v>
     <v>      -4.19416103       2.42150000       0.00000000 </v>
     <v>       0.00000000       0.00000000      15.00000000 </v>
    </varray>
    <i name="volume">    304.68482806 </i>
    <varray name="rec_basis" >
     <v>       0.11921335       0.20648358       0.00000000 </v>
     <v>      -0.11921335       0.20648358       0.00000000 </v>
     <v>       0.00000000       0.00000000       0.06666667 </v>
    </varray>
   </crystal>
   <varray name="positions" >
    <v>       0.00418024       0.00276592       0.11893619 </v>
    <v>       0.35688580       0.00305240       0.09794575 </v>
    <v>       0.00391104       0.35519443       0.09794714 </v>
    <v>       0.65174726       0.65008255       0.09793863 </v>
    <v>       0.32664746       0.32490326       0.10026258 </v>
    <v>       0.68205460       0.00312397       0.10024448 </v>
    <v>       0.00385655       0.68030587       0.10023779 </v>
    <v>      -0.00008126       0.50000973       0.33375705 </v>
    <v>       0.16662232       0.33315392       0.33380929 </v>
    <v>       0.99999998       0.00000278       0.33362877 </v>
    <v>       0.16654073       0.83338347       0.33381279 </v>
    <v>       0.49998577       0.49990699       0.33376053 </v>
    <v>       0.66666940       0.33333223       0.33366645 </v>
    <v>       0.50008871       0.00008156       0.33375641 </v>
    <v>       0.66685204       0.83346825       0.33380881 </v>
   </varray>
  </structure>
  <varray name="forces" >
   <v>      -0.00030039      -0.00005939      -0.22220353 </v>
   <v>       0.04399316       0.02263895       0.04670847 </v>
   <v>      -0.04277289       0.02687988       0.04649237 </v>
   <v>      -0.00090722      -0.04882701       0.04714487 </v>
   <v>      -0.00621059       0.09096708       0.01705835 </v>
   <v>      -0.07416371      -0.05159967       0.01852265 </v>
   <v>       0.08004848      -0.04077351       0.01875330 </v>
   <v>       0.05011477       0.02273412       0.00693583 </v>
   <v>      -0.08817478       0.08501690       0.00009112 </v>
   <v>       0.00208128      -0.00009523       0.00858263 </v>
   <v>       0.11582432       0.03054811       0.00012350 </v>
   <v>      -0.04244687       0.03560476       0.00694889 </v>
   <v>      -0.00180784       0.00010049      -0.00206289 </v>
   <v>      -0.00404527      -0.05309709       0.00686390 </v>
   <v>      -0.03123245      -0.12003840       0.00004053 </v>
  </varray>
  <varray name="stress" >
   <v>      -2.08881117       0.01296580       0.00487647 </v>
   <v>       0.01296578      -2.06356272       0.01504003 </v>
   <v>       0.00487645       0.01504001      -2.00296394 </v>
  </varray>
  <energy>
   <i name="e_fr_energy">   -127.11463703 </i>
   <i name="e_wo_entrp">   -127.11309398 </i>
   <i name="e_0_energy">   -127.11386551 </i>
  </energy>
  <time name="totalsc">   53.00   53.52</time>
 </calculation>
 <calculation>
  <scstep>
   <time name="dav">    5.52    5.55</time>
   <time name="total">    5.82    5.86</time>
   <energy>
    <i name="alphaZ">     58.37932579 </i>
    <i name="ewald">   4792.36027847 </i>
    <i name="hartreedc">  -6549.24518553 </i>
    <i name="XCdc">    180.64719801 </i>
    <i name="pawpsdc">   5769.59051672 </i>
    <i name="pawaedc">  -5774.01329264 </i>
    <i name="eentropy">     -0.00154624 </i>
    <i name="bandstr">   -506.49383730 </i>
    <i name="atom">   1903.26342058 </i>
    <i name="e_fr_energy">   -125.51312215 </i>
    <i name="e_wo_entrp">   -125.51157591 </i>
    <i name="e_0_energy">   -125.51234903 </i>
   </energy>
  </scstep>
  <scstep>
   <time name="dav">   10.85   10.90</time>
   <time name="total">   11.14   11.22</time>
   <energy>
    <i name="e_fr_energy">   -125.51315331 </i>
    <i name="e_wo_entrp">   -125.51160780 </i>
    <i name="e_0_energy">   -125.51238055 </i>
   </energy>
  </scstep>
  <scstep>
   <time name="dav">    8.85    8.90</time>
   <time name="total">    9.15    9.21</time>
   <energy>
    <i name="e_fr_energy">   -125.51313163 </i>
    <i name="e_wo_entrp">   -125.51158653 </i>
    <i name="e_0_energy">   -125.51235908 </i>
   </energy>
  </scstep>
  <scstep>
   <time name="dav">   10.64   10.69</time>
   <time name="total">   10.93   11.00</time>
   <energy>
    <i name="e_fr_energy">   -125.51313191 </i>
    <i name="e_wo_entrp">   -125.51158667 </i>
    <i name="e_0_energy">   -125.51235929 </i>
   </energy>
  </scstep>
  <scstep>
   <time name="dav">    8.81    8.86</time>
   <time name="total">    9.11    9.17</time>
   <energy>
    <i name="e_fr_energy">   -125.51313315 </i>
    <i name="e_wo_entrp">   -125.51158792 </i>
    <i name="e_0_energy">   -125.51236053 </i>
   </energy>
  </scstep>
  <scstep>
   <time name="dav">    9.67    9.72</time>
   <time name="total">    9.70    9.75</time>
   <energy>
    <i name="alphaZ">     58.37932579 </i>
    <i name="ewald">   4792.36027847 </i>
    <i name="hartreedc">  -6549.23141495 </i>
    <i name="XCdc">    180.64718520 </i>
    <i name="pawpsdc">   5775.65826858 </i>
    <i name="pawaedc">  -5780.08317251 </i>
    <i name="eentropy">     -0.00154518 </i>
    <i name="bandstr">   -506.50547931 </i>
    <i name="atom">   1903.26342058 </i>
    <i name="e_fr_energy">   -125.51313333 </i>
    <i name="e_wo_entrp">   -125.51158815 </i>
    <i name="e_0_energy">   -125.51236074 </i>
   </energy>
  </scstep>
  <structure>
   <crystal>
    <varray name="basis" >
     <v>       4.19416103       2.42150000       0.00000000 </v>
     <v>      -4.19416103       2.42150000       0.00000000 </v>
     <v>       0.00000000       0.00000000      15.00000000 </v>
    </varray>
    <i name="volume">    304.68482806 </i>
    <varray name="rec_basis" >
     <v>       0.11921335       0.20648358       0.00000000 </v>
     <v>      -0.11921335       0.20648358       0.00000000 </v>
     <v>       0.00000000       0.00000000       0.06666667 </v>
    </varray>
   </crystal>
   <varray name="positions" >
    <v>       0.00419910       0.00284128       0.11773433 </v>
    <v>       0.35746857       0.00320638       0.09834729 </v>
    <v>       0.00364640       0.35558825       0.09834664 </v>
    <v>       0.65137337       0.64945915       0.09834464 </v>
    <v>       0.32677779       0.32474259       0.10021154 </v>
    <v>       0.68218683       0.00338149       0.10020373 </v>
    <v>       0.00361682       0.68020027       0.10019982 </v>
    <v>      -0.00026797       0.50003783       0.33378328 </v>
    <v>       0.16643564       0.33253628       0.33386866 </v>
    <v>       0.00000094       0.00001068       0.33355133 </v>
    <v>       0.16612659       0.83358006       0.33387506 </v>
    <v>       0.49994298       0.49968174       0.33378963 </v>
    <v>       0.66667356       0.33332842       0.33360693 </v>
    <v>       0.50030016       0.00027056       0.33378207 </v>
    <v>       0.66747989       0.83390236       0.33386773 </v>
   </varray>
  </structure>
  <varray name="forces" >
   <v>       0.00356244      -0.00405783      -0.20202343 </v>
   <v>       0.02600930      -0.00237913       0.00077247 </v>
   <v>      -0.00805901       0.02988854       0.00085415 </v>
   <v>      -0.01870433      -0.02095391       0.00053135 </v>
   <v>      -0.03243567       0.11165490       0.05679165 </v>
   <v>      -0.07764737      -0.08303604       0.05737052 </v>
   <v>       0.10697615      -0.03185986       0.05720086 </v>
   <v>       0.14013741       0.06382811       0.00797587 </v>
   <v>      -0.25710099       0.25734325      -0.01418390 </v>
   <v>       0.00576224      -0.00081663       0.03721284 </v>
   <v>       0.34610846       0.08475079      -0.01486374 </v>
   <v>      -0.11944113       0.09954599       0.00725134 </v>
   <v>      -0.00515182       0.00029252       0.01131902 </v>
   <v>      -0.01111497      -0.14937700       0.00796056 </v>
   <v>      -0.09890071      -0.35482370      -0.01416956 </v>
  </varray>
  <varray name="stress" >
   <v>      -1.58575991       0.01730564       0.01030541 </v>
   <v>       0.01730562      -1.54329846       0.00795537 </v>
   <v>       0.01030541       0.00795538      -1.91269139 </v>
  </varray>
  <energy>
   <i name="e_fr_energy">   -127.11668532 </i>
   <i name="e_wo_entrp">   -127.11514015 </i>
   <i name="e_0_energy">   -127.11591273 </i>
  </energy>
  <time name="totalsc">   60.63   61.16</time>
 </calculation>
 <calculation>
  <scstep>
   <time name="dav">    5.59    5.62</time>
   <time name="total">    5.89    5.93</time>
   <energy>
    <i name="alphaZ">     58.37932579 </i>
    <i name="ewald">   4792.36511182 </i>
    <i name="hartreedc">  -6549.18893749 </i>
    <i name="XCdc">    180.65010830 </i>
    <i name="pawpsdc">   5775.72156962 </i>
    <i name="pawaedc">  -5780.14647391 </i>
    <i name="eentropy">     -0.00154550 </i>
    <i name="bandstr">   -506.55693060 </i>
    <i name="atom">   1903.26342058 </i>
    <i name="e_fr_energy">   -125.51435140 </i>
    <i name="e_wo_entrp">   -125.51280590 </i>
    <i name="e_0_energy">   -125.51357865 </i>
   </energy>
  </scstep>
  <scstep>
   <time name="dav">   10.77   10.84</time>
   <time name="total">   11.07   11.16</time>
   <energy>
    <i name="e_fr_energy">   -125.51435377 </i>
    <i name="e_wo_entrp">   -125.51280833 </i>
    <i name="e_0_energy">   -125.51358105 </i>
   </energy>
  </scstep>
  <scstep>
   <time name="dav">    7.97    8.01</time>
   <time name="total">    8.26    8.32</time>
   <energy>
    <i name="e_fr_energy">   -125.51435326 </i>
    <i name="e_wo_entrp">   -125.51280781 </i>
    <i name="e_0_energy">   -125.51358054 </i>
   </energy>
  </scstep>
  <scstep>
   <time name="dav">   10.33   10.40</time>
   <time name="total">   10.37   10.43</time>
   <energy>
    <i name="alphaZ">     58.37932579 </i>
    <i name="ewald">   4792.36511182 </i>
    <i name="hartreedc">  -6549.17581871 </i>
    <i name="XCdc">    180.64984046 </i>
    <i name="pawpsdc">   5776.62626604 </i>
    <i name="pawaedc">  -5781.05147948 </i>
    <i name="eentropy">     -0.00154542 </i>
    <i name="bandstr">   -506.56947458 </i>
    <i name="atom">   1903.26342058 </i>
    <i name="e_fr_energy">   -125.51435350 </i>
    <i name="e_wo_entrp">   -125.51280808 </i>
    <i name="e_0_energy">   -125.51358079 </i>
   </energy>
  </scstep>
  <structure>
   <crystal>
    <varray name="basis" >
     <v>       4.19416103       2.42150000       0.00000000 </v>
     <v>      -4.19416103       2.42150000       0.00000000 </v>
     <v>       0.00000000       0.00000000      15.00000000 </v>
    </varray>
    <i name="volume">    304.68482806 </i>
    <varray name="rec_basis" >
     <v>       0.11921335       0.20648358       0.00000000 </v>
     <v>      -0.11921335       0.20648358       0.00000000 </v>
     <v>       0.00000000       0.00000000       0.06666667 </v>
    </varray>
   </crystal>
   <varray name="positions" >
    <v>       0.00420148       0.00285166       0.11749536 </v>
    <v>       0.35757587       0.00322536       0.09841741 </v>
    <v>       0.00361166       0.35567250       0.09841641 </v>
    <v>       0.65129385       0.64934588       0.09841549 </v>
    <v>       0.32684247       0.32477344       0.10021092 </v>
    <v>       0.68215215       0.00340913       0.10020498 </v>
    <v>       0.00358853       0.68013959       0.10020154 </v>
    <v>      -0.00023516       0.50003502       0.33378902 </v>
    <v>       0.16645227       0.33261182       0.33387694 </v>
    <v>       0.00000224       0.00001018       0.33354325 </v>
    <v>       0.16618288       0.83356237       0.33388374 </v>
    <v>       0.49994933       0.49971856       0.33379576 </v>
    <v>       0.66667308       0.33332923       0.33359821 </v>
    <v>       0.50026668       0.00023897       0.33378770 </v>
    <v>       0.66740335       0.83384362       0.33387593 </v>
   </varray>
  </structure>
  <varray name="forces" >
   <v>       0.00404560      -0.00448183      -0.19889900 </v>
   <v>       0.02002991      -0.00760584      -0.00554875 </v>
   <v>       0.00011718       0.02807607      -0.00540743 </v>
   <v>      -0.02106306      -0.01332166      -0.00590362 </v>
   <v>      -0.03553601       0.10374292       0.06224695 </v>
   <v>      -0.06932672      -0.08149605       0.06264470 </v>
   <v>       0.10144120      -0.02565731       0.06241666 </v>
   <v>       0.12497353       0.05681277       0.00753940 </v>
   <v>      -0.23318544       0.23660309      -0.01566553 </v>
   <v>       0.00496160      -0.00096216       0.04061656 </v>
   <v>       0.31686848       0.07571461      -0.01643919 </v>
   <v>      -0.10677599       0.08896630       0.00671323 </v>
   <v>      -0.00447697       0.00042197       0.01378939 </v>
   <v>      -0.01009804      -0.13348363       0.00753394 </v>
   <v>      -0.09197526      -0.32332925      -0.01563733 </v>
  </varray>
  <varray name="stress" >
   <v>      -1.52000129       0.01426669       0.01089573 </v>
   <v>       0.01426671      -1.48508185       0.00727759 </v>
   <v>       0.01089572       0.00727759      -1.89652963 </v>
  </varray>
  <energy>
   <i name="e_fr_energy">   -127.11788175 </i>
   <i name="e_wo_entrp">   -127.11633633 </i>
   <i name="e_0_energy">   -127.11710904 </i>
  </energy>
  <time name="totalsc">   40.36   40.64</time>
 </calculation>
 <calculation>
  <scstep>
   <time name="dav">    5.51    5.55</time>
   <time name="total">    5.81    5.86</time>
   <energy>
    <i name="alphaZ">     58.37932579 </i>
    <i name="ewald">   4792.35886542 </i>
    <i name="hartreedc">  -6549.04511819 </i>
    <i name="XCdc">    180.65847290 </i>
    <i name="pawpsdc">   5776.64086209 </i>
    <i name="pawaedc">  -5781.06608228 </i>
    <i name="eentropy">     -0.00154634 </i>
    <i name="bandstr">   -506.70566217 </i>
    <i name="atom">   1903.26342058 </i>
    <i name="e_fr_energy">   -125.51746220 </i>
    <i name="e_wo_entrp">   -125.51591586 </i>
    <i name="e_0_energy">   -125.51668903 </i>
   </energy>
  </scstep>
  <scstep>
   <time name="dav">   10.24   10.30</time>
   <time name="total">   10.54   10.61</time>
   <energy>
    <i name="e_fr_energy">   -125.51748273 </i>
    <i name="e_wo_entrp">   -125.51593656 </i>
    <i name="e_0_energy">   -125.51670965 </i>
   </energy>
  </scstep>
  <scstep>
   <time name="dav">    7.86    7.91</time>
   <time name="total">    8.15    8.22</time>
   <energy>
    <i name="e_fr_energy">   -125.51747678 </i>
    <i name="e_wo_entrp">   -125.51593058 </i>
    <i name="e_0_energy">   -125.51670368 </i>
   </energy>
  </scstep>
  <scstep>
   <time name="dav">   11.33   11.39</time>
   <time name="total">   11.62   11.70</time>
   <energy>
    <i name="e_fr_energy">   -125.51747695 </i>
    <i name="e_wo_entrp">   -125.51593081 </i>
    <i name="e_0_energy">   -125.51670388 </i>
   </energy>
  </scstep>
  <scstep>
   <time name="dav">    8.38    8.44</time>
   <time name="total">    8.42    8.49</time>
   <energy>
    <i name="alphaZ">     58.37932579 </i>
    <i name="ewald">   4792.35886542 </i>
    <i name="hartreedc">  -6549.03269476 </i>
    <i name="XCdc">    180.65792415 </i>
    <i name="pawpsdc">   5779.27350466 </i>
    <i name="pawaedc">  -5783.69965781 </i>
    <i name="eentropy">     -0.00154610 </i>
    <i name="bandstr">   -506.71661921 </i>
    <i name="atom">   1903.26342058 </i>
    <i name="e_fr_energy">   -125.51747728 </i>
    <i name="e_wo_entrp">   -125.51593118 </i>
    <i name="e_0_energy">   -125.51670423 </i>
   </energy>
  </scstep>
  <structure>
   <crystal>
    <varray name="basis" >
     <v>       4.19416103       2.42150000       0.00000000 </v>
     <v>      -4.19416103       2.42150000       0.00000000 </v>
     <v>       0.00000000       0.00000000      15.00000000 </v>
    </varray>
    <i name="volume">    304.68482806 </i>
    <varray name="rec_basis" >
     <v>       0.11921335       0.20648358       0.00000000 </v>
     <v>      -0.11921335       0.20648358       0.00000000 </v>
     <v>       0.00000000       0.00000000       0.06666667 </v>
    </varray>
   </crystal>
   <varray name="positions" >
    <v>       0.00420864       0.00288278       0.11677845 </v>
    <v>       0.35789777       0.00328233       0.09862775 </v>
    <v>       0.00350743       0.35592525       0.09862571 </v>
    <v>       0.65105530       0.64900609       0.09862806 </v>
    <v>       0.32703650       0.32486602       0.10020907 </v>
    <v>       0.68204811       0.00349206       0.10020876 </v>
    <v>       0.00350365       0.67995754       0.10020670 </v>
    <v>      -0.00013676       0.50002658       0.33380622 </v>
    <v>       0.16650216       0.33283844       0.33390179 </v>
    <v>       0.00000613       0.00000870       0.33351903 </v>
    <v>       0.16635175       0.83350932       0.33390981 </v>
    <v>       0.49996837       0.49982900       0.33381414 </v>
    <v>       0.66667162       0.33333167       0.33357203 </v>
    <v>       0.50016624       0.00014417       0.33380461 </v>
    <v>       0.66717374       0.83366738       0.33390055 </v>
   </varray>
  </structure>
  <varray name="forces" >
   <v>       0.00552012      -0.00578511      -0.19046840 </v>
   <v>       0.00108776      -0.02358950      -0.02427661 </v>
   <v>       0.02540517       0.02196176      -0.02396376 </v>
   <v>      -0.02792821       0.01053963      -0.02496891 </v>
   <v>      -0.04447449       0.07931004       0.07868199 </v>
   <v>      -0.04387568      -0.07620035       0.07855781 </v>
   <v>       0.08396907      -0.00695259       0.07816975 </v>
   <v>       0.07981936       0.03604992       0.00621725 </v>
   <v>      -0.16197597       0.17507665      -0.02015038 </v>
   <v>       0.00259407      -0.00141364       0.05095855 </v>
   <v>       0.23000255       0.04872339      -0.02120458 </v>
   <v>      -0.06917175       0.05739196       0.00508727 </v>
   <v>      -0.00247052       0.00081801       0.02119988 </v>
   <v>      -0.00697007      -0.08625844       0.00623969 </v>
   <v>      -0.07153140      -0.22967173      -0.02007955 </v>
  </varray>
  <varray name="stress" >
   <v>      -1.32057308       0.00547132       0.01263785 </v>
   <v>       0.00547131      -1.30732918       0.00531409 </v>
   <v>       0.01263784       0.00531404      -1.87476035 </v>
  </varray>
  <energy>
   <i name="e_fr_energy">   -127.12093209 </i>
   <i name="e_wo_entrp">   -127.11938599 </i>
   <i name="e_0_energy">   -127.12015904 </i>
  </energy>
  <time name="totalsc">   49.37   50.71</time>
 </calculation>
 <calculation>
  <scstep>
   <time name="dav">    5.54    5.57</time>
   <time name="total">    5.84    5.88</time>
   <energy>
    <i name="alphaZ">     58.37932579 </i>
    <i name="ewald">   4792.25241140 </i>
    <i name="hartreedc">  -6548.70133608 </i>
    <i name="XCdc">    180.67365490 </i>
    <i name="pawpsdc">   5779.24348970 </i>
    <i name="pawaedc">  -5783.66964226 </i>
    <i name="eentropy">     -0.00154781 </i>
    <i name="bandstr">   -506.96108362 </i>
    <i name="atom">   1903.26342058 </i>
    <i name="e_fr_energy">   -125.52130742 </i>
    <i name="e_wo_entrp">   -125.51975961 </i>
    <i name="e_0_energy">   -125.52053351 </i>
   </energy>
  </scstep>
  <scstep>
   <time name="dav">   10.53   10.58</time>
   <time name="total">   10.83   10.89</time>
   <energy>
    <i name="e_fr_energy">   -125.52139001 </i>
    <i name="e_wo_entrp">   -125.51984259 </i>
    <i name="e_0_energy">   -125.52061630 </i>
   </energy>
  </scstep>
  <scstep>
   <time name="dav">    8.85    8.91</time>
   <time name="total">    9.14    9.21</time>
   <energy>
    <i name="e_fr_energy">   -125.52136355 </i>
    <i name="e_wo_entrp">   -125.51981603 </i>
    <i name="e_0_energy">   -125.52058979 </i>
   </energy>
  </scstep>
  <scstep>
   <time name="dav">   10.75   10.81</time>
   <time name="total">   11.05   11.11</time>
   <energy>
    <i name="e_fr_energy">   -125.52136377 </i>
    <i name="e_wo_entrp">   -125.51981636 </i>
    <i name="e_0_energy">   -125.52059006 </i>
   </energy>
  </scstep>
  <scstep>
   <time name="dav">    9.69    9.75</time>
   <time name="total">    9.73    9.78</time>
   <energy>
    <i name="alphaZ">     58.37932579 </i>
    <i name="ewald">   4792.25241140 </i>
    <i name="hartreedc">  -6548.68880984 </i>
    <i name="XCdc">    180.67277832 </i>
    <i name="pawpsdc">   5784.07537629 </i>
    <i name="pawaedc">  -5788.50327467 </i>
    <i name="eentropy">     -0.00154734 </i>
    <i name="bandstr">   -506.97104525 </i>
    <i name="atom">   1903.26342058 </i>
    <i name="e_fr_energy">   -125.52136472 </i>
    <i name="e_wo_entrp">   -125.51981738 </i>
    <i name="e_0_energy">   -125.52059105 </i>
   </energy>
  </scstep>
  <structure>
   <crystal>
    <varray name="basis" >
     <v>       4.19416103       2.42150000       0.00000000 </v>
     <v>      -4.19416103       2.42150000       0.00000000 </v>
     <v>       0.00000000       0.00000000      15.00000000 </v>
    </varray>
    <i name="volume">    304.68482806 </i>
    <varray name="rec_basis" >
     <v>       0.11921335       0.20648358       0.00000000 </v>
     <v>      -0.11921335       0.20648358       0.00000000 </v>
     <v>       0.00000000       0.00000000       0.06666667 </v>
    </varray>
   </crystal>
   <varray name="positions" >
    <v>       0.00422294       0.00294504       0.11534462 </v>
    <v>       0.35854158       0.00339626       0.09904843 </v>
    <v>       0.00329899       0.35643074       0.09904433 </v>
    <v>       0.65057820       0.64832651       0.09905320 </v>
    <v>       0.32742457       0.32505117       0.10020535 </v>
    <v>       0.68184003       0.00365791       0.10021631 </v>
    <v>       0.00333390       0.67959345       0.10021702 </v>
    <v>       0.00006004       0.50000971       0.33384063 </v>
    <v>       0.16660194       0.33329169       0.33395148 </v>
    <v>       0.00001393       0.00000573       0.33347057 </v>
    <v>       0.16668950       0.83340320       0.33396193 </v>
    <v>       0.50000647       0.50004989       0.33385092 </v>
    <v>       0.66666870       0.33333654       0.33351968 </v>
    <v>       0.49996535      -0.00004542       0.33383841 </v>
    <v>       0.66671453       0.83331491       0.33394978 </v>
   </varray>
  </structure>
  <varray name="forces" >
   <v>       0.00851483      -0.00846344      -0.17827798 </v>
   <v>      -0.04042391      -0.05722482      -0.06007733 </v>
   <v>       0.07899509       0.00729337      -0.05942212 </v>
   <v>      -0.04114831       0.06217441      -0.06143302 </v>
   <v>      -0.06184760       0.02729034       0.11144455 </v>
   <v>       0.00968052      -0.06362905       0.11027835 </v>
   <v>       0.04593419       0.03188346       0.10958943 </v>
   <v>      -0.01132692      -0.00542689       0.00358739 </v>
   <v>      -0.01907164       0.05286501      -0.02916843 </v>
   <v>      -0.00207017      -0.00228724       0.07161614 </v>
   <v>       0.05672654      -0.00600850      -0.03077541 </v>
   <v>       0.00644950      -0.00652831       0.00185897 </v>
   <v>       0.00151896       0.00160251       0.03612744 </v>
   <v>      -0.00029513       0.00883080       0.00366750 </v>
   <v>      -0.03163596      -0.04237165      -0.02901548 </v>
  </varray>
  <varray name="stress" >
   <v>      -0.92412936      -0.01198592       0.01560843 </v>
   <v>      -0.01198590      -0.95520711       0.00203856 </v>
   <v>       0.01560844       0.00203857      -1.85043407 </v>
  </varray>
  <energy>
   <i name="e_fr_energy">   -127.12466221 </i>
   <i name="e_wo_entrp">   -127.12311487 </i>
   <i name="e_0_energy">   -127.12388854 </i>
  </energy>
  <time name="totalsc">   51.34   51.68</time>
 </calculation>
 <calculation>
  <scstep>
   <time name="dav">    5.52    5.55</time>
   <time name="total">    5.81    5.86</time>
   <energy>
    <i name="alphaZ">     58.37932579 </i>
    <i name="ewald">   4791.65938394 </i>
    <i name="hartreedc">  -6547.73802446 </i>
    <i name="XCdc">    180.69789145 </i>
    <i name="pawpsdc">   5784.02259404 </i>
    <i name="pawaedc">  -5788.45049255 </i>
    <i name="eentropy">     -0.00155020 </i>
    <i name="bandstr">   -507.35226532 </i>
    <i name="atom">   1903.26342058 </i>
    <i name="e_fr_energy">   -125.51971674 </i>
    <i name="e_wo_entrp">   -125.51816654 </i>
    <i name="e_0_energy">   -125.51894164 </i>
   </energy>
  </scstep>
  <scstep>
   <time name="dav">   11.29   11.35</time>
   <time name="total">   11.59   11.65</time>
   <energy>
    <i name="e_fr_energy">   -125.52008516 </i>
    <i name="e_wo_entrp">   -125.51853578 </i>
    <i name="e_0_energy">   -125.51931047 </i>
   </energy>
  </scstep>
  <scstep>
   <time name="dav">    9.63    9.68</time>
   <time name="total">    9.92    9.99</time>
   <energy>
    <i name="e_fr_energy">   -125.51997646 </i>
    <i name="e_wo_entrp">   -125.51842686 </i>
    <i name="e_0_energy">   -125.51920166 </i>
   </energy>
  </scstep>
  <scstep>
   <time name="dav">   10.65   10.70</time>
   <time name="total">   10.94   11.01</time>
   <energy>
    <i name="e_fr_energy">   -125.51998020 </i>
    <i name="e_wo_entrp">   -125.51843075 </i>
    <i name="e_0_energy">   -125.51920548 </i>
   </energy>
  </scstep>
  <scstep>
   <time name="dav">   10.18   10.24</time>
   <time name="total">   10.48   10.55</time>
   <energy>
    <i name="e_fr_energy">   -125.51998450 </i>
    <i name="e_wo_entrp">   -125.51843518 </i>
    <i name="e_0_energy">   -125.51920984 </i>
   </energy>
  </scstep>
  <scstep>
   <time name="dav">    9.73    9.78</time>
   <time name="total">    9.77    9.82</time>
   <energy>
    <i name="alphaZ">     58.37932579 </i>
    <i name="ewald">   4791.65938394 </i>
    <i name="hartreedc">  -6547.71352524 </i>
    <i name="XCdc">    180.69651240 </i>
    <i name="pawpsdc">   5791.79063400 </i>
    <i name="pawaedc">  -5796.22154788 </i>
    <i name="eentropy">     -0.00154933 </i>
    <i name="bandstr">   -507.37263830 </i>
    <i name="atom">   1903.26342058 </i>
    <i name="e_fr_energy">   -125.51998405 </i>
    <i name="e_wo_entrp">   -125.51843472 </i>
    <i name="e_0_energy">   -125.51920939 </i>
   </energy>
  </scstep>
  <structure>
   <crystal>
    <varray name="basis" >
     <v>       4.19416103       2.42150000       0.00000000 </v>
     <v>      -4.19416103       2.42150000       0.00000000 </v>
     <v>       0.00000000       0.00000000      15.00000000 </v>
    </varray>
    <i name="volume">    304.68482806 </i>
    <varray name="rec_basis" >
     <v>       0.11921335       0.20648358       0.00000000 </v>
     <v>      -0.11921335       0.20648358       0.00000000 </v>
     <v>       0.00000000       0.00000000       0.06666667 </v>
    </varray>
   </crystal>
   <varray name="positions" >
    <v>       0.00425154       0.00306956       0.11247697 </v>
    <v>       0.35982918       0.00362411       0.09988979 </v>
    <v>       0.00288210       0.35744174       0.09988155 </v>
    <v>       0.64962399       0.64696735       0.09990347 </v>
    <v>       0.32820070       0.32542147       0.10019793 </v>
    <v>       0.68142386       0.00398961       0.10023141 </v>
    <v>       0.00299441       0.67886526       0.10023766 </v>
    <v>       0.00045366       0.49997596       0.33390946 </v>
    <v>       0.16680149       0.33419818       0.33405086 </v>
    <v>       0.00002953      -0.00000020       0.33337366 </v>
    <v>       0.16736499       0.83319097       0.33406619 </v>
    <v>       0.50008266       0.50049167       0.33392448 </v>
    <v>       0.66666287       0.33334628       0.33341499 </v>
    <v>       0.49956359      -0.00042460       0.33390602 </v>
    <v>       0.66579610       0.83260997       0.33404825 </v>
   </varray>
  </structure>
  <varray name="forces" >
   <v>       0.01457924      -0.01400091      -0.16737883 </v>
   <v>      -0.13892412      -0.13122991      -0.12615303 </v>
   <v>       0.19887426      -0.03255224      -0.12481650 </v>
   <v>      -0.06520792       0.18188104      -0.12876080 </v>
   <v>      -0.09367222      -0.09029221       0.17603496 </v>
   <v>       0.12775817      -0.02929256       0.17286079 </v>
   <v>      -0.04368300       0.11486510       0.17165603 </v>
   <v>      -0.19658197      -0.08846064      -0.00174216 </v>
   <v>       0.26844330      -0.18888593      -0.04744405 </v>
   <v>      -0.01109369      -0.00394091       0.11285719 </v>
   <v>      -0.28848610      -0.11794239      -0.05012390 </v>
   <v>       0.15941246      -0.13695889      -0.00462882 </v>
[...]
       <r>     2.7597     0.8992    30.8923 </r>
       <r>     2.8665     0.5802    30.9543 </r>
       <r>     2.9734     1.1120    31.0731 </r>
       <r>     3.0802     1.5497    31.2387 </r>
       <r>     3.1870     1.2551    31.3728 </r>
       <r>     3.2939     1.2786    31.5094 </r>
       <r>     3.4007     1.2609    31.6441 </r>
       <r>     3.5075     1.3643    31.7898 </r>
       <r>     3.6144     2.1143    32.0157 </r>
       <r>     3.7212     2.7047    32.3047 </r>
       <r>     3.8280     3.0958    32.6354 </r>
       <r>     3.9349     2.8831    32.9434 </r>
       <r>     4.0417     2.9778    33.2615 </r>
       <r>     4.1485     3.0591    33.5883 </r>
       <r>     4.2554     3.3589    33.9472 </r>
       <r>     4.3622     3.1044    34.2788 </r>
       <r>     4.4690     3.0301    34.6026 </r>
       <r>     4.5759     2.8328    34.9052 </r>
       <r>     4.6827     2.7725    35.2014 </r>
       <r>     4.7895     3.4128    35.5660 </r>
       <r>     4.8964     3.1073    35.8980 </r>
       <r>     5.0032     2.8373    36.2011 </r>
       <r>     5.1100     3.2657    36.5500 </r>
       <r>     5.2169     3.3531    36.9082 </r>
       <r>     5.3237     2.9854    37.2271 </r>
       <r>     5.4305     2.7675    37.5228 </r>
       <r>     5.5374     2.5517    37.7954 </r>
       <r>     5.6442     3.4681    38.1659 </r>
       <r>     5.7510     3.3106    38.5196 </r>
       <r>     5.8579     2.8998    38.8294 </r>
       <r>     5.9647     2.4193    39.0879 </r>
       <r>     6.0715     2.5616    39.3615 </r>
       <r>     6.1784     1.9488    39.5697 </r>
       <r>     6.2852     2.4184    39.8281 </r>
       <r>     6.3920     2.9877    40.1473 </r>
       <r>     6.4989     3.0439    40.4725 </r>
       <r>     6.6057     3.0614    40.7995 </r>
       <r>     6.7125     3.5008    41.1735 </r>
       <r>     6.8194     4.2364    41.6261 </r>
       <r>     6.9262     3.4030    41.9897 </r>
       <r>     7.0330     3.2672    42.3387 </r>
       <r>     7.1399     3.4821    42.7107 </r>
       <r>     7.2467     2.7053    42.9997 </r>
       <r>     7.3535     2.3601    43.2519 </r>
       <r>     7.4604     2.7603    43.5468 </r>
       <r>     7.5672     2.9260    43.8594 </r>
       <r>     7.6740     3.0201    44.1820 </r>
       <r>     7.7809     3.7271    44.5802 </r>
       <r>     7.8877     4.3256    45.0423 </r>
       <r>     7.9945     3.5223    45.4186 </r>
       <r>     8.1014     4.0572    45.8521 </r>
       <r>     8.2082     4.2010    46.3009 </r>
       <r>     8.3150     3.9608    46.7240 </r>
       <r>     8.4219     4.9750    47.2555 </r>
       <r>     8.5287     3.5992    47.6400 </r>
       <r>     8.6355     1.7431    47.8262 </r>
       <r>     8.7424     0.7899    47.9106 </r>
       <r>     8.8492     0.4283    47.9564 </r>
       <r>     8.9560     0.3340    47.9921 </r>
       <r>     9.0629     0.0716    47.9997 </r>
       <r>     9.1697     0.0027    48.0000 </r>
       <r>     9.2765     0.0000    48.0000 </r>
       <r>     9.3834     0.0000    48.0000 </r>
       <r>     9.4902     0.0000    48.0000 </r>
       <r>     9.5970     0.0000    48.0000 </r>
       <r>     9.7039     0.0000    48.0000 </r>
       <r>     9.8107     0.0000    48.0000 </r>
       <r>     9.9175     0.0000    48.0000 </r>
       <r>    10.0244     0.0000    48.0000 </r>
       <r>    10.1312     0.0000    48.0000 </r>
       <r>    10.2380     0.0000    48.0000 </r>
       <r>    10.3449     0.0000    48.0000 </r>
      </set>
      <set comment="spin 2">
       <r>   -21.7052     0.0000     0.0000 </r>
       <r>   -21.5984     0.0000     0.0000 </r>
       <r>   -21.4915     0.0000     0.0000 </r>
       <r>   -21.3847     0.0000     0.0000 </r>
       <r>   -21.2779     0.0000     0.0000 </r>
       <r>   -21.1710     0.0000     0.0000 </r>
       <r>   -21.0642     0.0000     0.0000 </r>
       <r>   -20.9574     0.0000     0.0000 </r>
       <r>   -20.8505     0.0000     0.0000 </r>
       <r>   -20.7437     0.0000     0.0000 </r>
       <r>   -20.6369     0.0000     0.0000 </r>
       <r>   -20.5300     0.0000     0.0000 </r>
       <r>   -20.4232     0.0009     0.0001 </r>
       <r>   -20.3164     0.0345     0.0038 </r>
       <r>   -20.2095     0.2520     0.0307 </r>
       <r>   -20.1027     0.5305     0.0874 </r>
       <r>   -19.9959     0.5774     0.1491 </r>
       <r>   -19.8890     0.6310     0.2165 </r>
       <r>   -19.7822     0.5305     0.2731 </r>
       <r>   -19.6754     0.6877     0.3466 </r>
       <r>   -19.5685     0.5394     0.4042 </r>
       <r>   -19.4617     0.5419     0.4621 </r>
       <r>   -19.3549     0.7683     0.5442 </r>
       <r>   -19.2480     0.4888     0.5964 </r>
       <r>   -19.1412     0.4932     0.6491 </r>
       <r>   -19.0344     0.7809     0.7326 </r>
       <r>   -18.9275     0.6674     0.8039 </r>
       <r>   -18.8207     0.3798     0.8444 </r>
       <r>   -18.7139     0.5533     0.9036 </r>
       <r>   -18.6070     0.8847     0.9981 </r>
       <r>   -18.5002     0.5859     1.0607 </r>
       <r>   -18.3934     0.4861     1.1126 </r>
       <r>   -18.2865     0.3780     1.1530 </r>
       <r>   -18.1797     0.8410     1.2428 </r>
       <r>   -18.0729     0.8493     1.3336 </r>
       <r>   -17.9660     0.4560     1.3823 </r>
       <r>   -17.8592     0.4171     1.4268 </r>
       <r>   -17.7524     0.5227     1.4827 </r>
       <r>   -17.6455     0.7881     1.5669 </r>
       <r>   -17.5387     0.8687     1.6597 </r>
       <r>   -17.4319     0.7145     1.7360 </r>
       <r>   -17.3250     0.8375     1.8255 </r>
       <r>   -17.2182     1.2942     1.9637 </r>
       <r>   -17.1114     1.8598     2.1624 </r>
       <r>   -17.0045     1.9991     2.3760 </r>
       <r>   -16.8977     2.1830     2.6092 </r>
       <r>   -16.7909     2.6569     2.8931 </r>
       <r>   -16.6840     2.1042     3.1179 </r>
       <r>   -16.5772     0.6474     3.1870 </r>
       <r>   -16.4704     0.9080     3.2840 </r>
       <r>   -16.3635     1.0552     3.3968 </r>
       <r>   -16.2567     0.5869     3.4595 </r>
       <r>   -16.1499     0.5322     3.5163 </r>
       <r>   -16.0430     0.4920     3.5689 </r>
       <r>   -15.9362     0.4918     3.6214 </r>
       <r>   -15.8294     0.4568     3.6702 </r>
       <r>   -15.7225     1.0147     3.7786 </r>
       <r>   -15.6157     1.0479     3.8906 </r>
       <r>   -15.5089     0.5098     3.9451 </r>
       <r>   -15.4020     0.4943     3.9979 </r>
       <r>   -15.2952     0.4275     4.0435 </r>
       <r>   -15.1884     0.5841     4.1059 </r>
       <r>   -15.0815     0.7815     4.1894 </r>
       <r>   -14.9747     1.3538     4.3341 </r>
       <r>   -14.8679     2.1596     4.5648 </r>
       <r>   -14.7610     2.3455     4.8154 </r>
       <r>   -14.6542     2.2217     5.0527 </r>
       <r>   -14.5474     1.4492     5.2075 </r>
       <r>   -14.4405     0.9726     5.3114 </r>
       <r>   -14.3337     1.8446     5.5085 </r>
       <r>   -14.2269     2.0060     5.7228 </r>
       <r>   -14.1200     1.4488     5.8776 </r>
       <r>   -14.0132     1.3794     6.0250 </r>
       <r>   -13.9064     1.5767     6.1934 </r>
       <r>   -13.7995     2.5015     6.4607 </r>
       <r>   -13.6927     2.5359     6.7316 </r>
       <r>   -13.5859     2.3212     6.9796 </r>
       <r>   -13.4790     1.4445     7.1339 </r>
       <r>   -13.3722     0.8718     7.2270 </r>
       <r>   -13.2654     0.4191     7.2718 </r>
       <r>   -13.1585     0.5088     7.3262 </r>
       <r>   -13.0517     0.8621     7.4183 </r>
       <r>   -12.9449     0.8926     7.5136 </r>
       <r>   -12.8380     0.6159     7.5794 </r>
       <r>   -12.7312     0.8457     7.6698 </r>
       <r>   -12.6244     0.9054     7.7665 </r>
       <r>   -12.5175     0.7199     7.8434 </r>
       <r>   -12.4107     0.6913     7.9173 </r>
       <r>   -12.3039     0.4339     7.9636 </r>
       <r>   -12.1970     0.7861     8.0476 </r>
       <r>   -12.0902     1.0363     8.1583 </r>
       <r>   -11.9834     0.4498     8.2064 </r>
       <r>   -11.8765     0.4253     8.2518 </r>
       <r>   -11.7697     0.4319     8.2979 </r>
       <r>   -11.6628     0.7379     8.3768 </r>
       <r>   -11.5560     0.8754     8.4703 </r>
       <r>   -11.4492     0.5112     8.5249 </r>
       <r>   -11.3423     0.2330     8.5498 </r>
       <r>   -11.2355     0.5912     8.6130 </r>
       <r>   -11.1287     0.7448     8.6925 </r>
       <r>   -11.0218     0.6684     8.7639 </r>
       <r>   -10.9150     0.9822     8.8689 </r>
       <r>   -10.8082     0.7934     8.9536 </r>
       <r>   -10.7013     0.3188     8.9877 </r>
       <r>   -10.5945     1.0079     9.0954 </r>
       <r>   -10.4877     1.6111     9.2675 </r>
       <r>   -10.3808     1.9650     9.4774 </r>
       <r>   -10.2740     1.9325     9.6839 </r>
       <r>   -10.1672     1.8621     9.8828 </r>
       <r>   -10.0603     2.2808    10.1265 </r>
       <r>    -9.9535     2.3689    10.3795 </r>
       <r>    -9.8467     1.2580    10.5139 </r>
       <r>    -9.7398     0.8965    10.6097 </r>
       <r>    -9.6330     1.7941    10.8014 </r>
       <r>    -9.5262     1.9393    11.0086 </r>
       <r>    -9.4193     2.0892    11.2318 </r>
       <r>    -9.3125     2.0259    11.4482 </r>
       <r>    -9.2057     1.8102    11.6416 </r>
       <r>    -9.0988     1.3378    11.7845 </r>
       <r>    -8.9920     0.9376    11.8847 </r>
       <r>    -8.8852     1.9866    12.0969 </r>
       <r>    -8.7783     2.6675    12.3819 </r>
       <r>    -8.6715     1.9561    12.5909 </r>
       <r>    -8.5647     0.9802    12.6956 </r>
       <r>    -8.4578     1.3622    12.8411 </r>
       <r>    -8.3510     2.6566    13.1249 </r>
       <r>    -8.2442     2.4228    13.3838 </r>
       <r>    -8.1373     1.4828    13.5422 </r>
       <r>    -8.0305     2.0667    13.7630 </r>
       <r>    -7.9237     3.1707    14.1017 </r>
       <r>    -7.8168     3.1210    14.4351 </r>
       <r>    -7.7100     2.6281    14.7159 </r>
       <r>    -7.6032     1.3101    14.8559 </r>
       <r>    -7.4963     1.0491    14.9680 </r>
       <r>    -7.3895     2.3864    15.2229 </r>
       <r>    -7.2827     2.2919    15.4678 </r>
       <r>    -7.1758     1.5019    15.6282 </r>
       <r>    -7.0690     1.4481    15.7829 </r>
       <r>    -6.9622     2.1732    16.0151 </r>
       <r>    -6.8553     2.2890    16.2596 </r>
       <r>    -6.7485     2.5056    16.5273 </r>
       <r>    -6.6417     2.7065    16.8165 </r>
       <r>    -6.5348     2.4076    17.0737 </r>
       <r>    -6.4280     2.6096    17.3525 </r>
       <r>    -6.3212     2.1700    17.5843 </r>
       <r>    -6.2143     2.3244    17.8326 </r>
       <r>    -6.1075     3.3406    18.1895 </r>
       <r>    -6.0007     2.9390    18.5035 </r>
       <r>    -5.8938     4.0079    18.9317 </r>
       <r>    -5.7870     3.6204    19.3185 </r>
       <r>    -5.6802     2.0848    19.5412 </r>
       <r>    -5.5733     2.4019    19.7978 </r>
       <r>    -5.4665     4.1924    20.2457 </r>
       <r>    -5.3597     4.5445    20.7312 </r>
       <r>    -5.2528     3.0078    21.0525 </r>
       <r>    -5.1460     2.1687    21.2842 </r>
       <r>    -5.0392     1.3257    21.4258 </r>
       <r>    -4.9323     1.2989    21.5646 </r>
       <r>    -4.8255     1.8376    21.7609 </r>
       <r>    -4.7187     1.4517    21.9160 </r>
       <r>    -4.6118     1.0462    22.0278 </r>
       <r>    -4.5050     1.1406    22.1496 </r>
       <r>    -4.3982     2.0213    22.3656 </r>
       <r>    -4.2913     2.8742    22.6727 </r>
       <r>    -4.1845     2.3744    22.9263 </r>
       <r>    -4.0777     2.4195    23.1848 </r>
       <r>    -3.9708     2.8262    23.4867 </r>
       <r>    -3.8640     3.1006    23.8180 </r>
       <r>    -3.7572     2.3481    24.0688 </r>
       <r>    -3.6503     2.3080    24.3154 </r>
       <r>    -3.5435     2.5945    24.5926 </r>
       <r>    -3.4367     2.0294    24.8094 </r>
       <r>    -3.3298     1.7651    24.9980 </r>
       <r>    -3.2230     1.6848    25.1779 </r>
       <r>    -3.1162     2.2198    25.4151 </r>
       <r>    -3.0093     2.3268    25.6637 </r>
       <r>    -2.9025     1.5177    25.8258 </r>
       <r>    -2.7957     1.5298    25.9893 </r>
       <r>    -2.6888     0.9557    26.0914 </r>
       <r>    -2.5820     1.2869    26.2288 </r>
       <r>    -2.4752     2.4993    26.4959 </r>
       <r>    -2.3683     1.8475    26.6932 </r>
       <r>    -2.2615     0.5106    26.7478 </r>
       <r>    -2.1547     0.6036    26.8123 </r>
       <r>    -2.0478     1.3246    26.9538 </r>
       <r>    -1.9410     1.3023    27.0929 </r>
       <r>    -1.8342     1.4247    27.2451 </r>
       <r>    -1.7273     1.4719    27.4023 </r>
       <r>    -1.6205     1.2264    27.5334 </r>
       <r>    -1.5137     0.9183    27.6315 </r>
       <r>    -1.4068     0.5751    27.6929 </r>
       <r>    -1.3000     0.5058    27.7470 </r>
       <r>    -1.1932     0.5174    27.8022 </r>
       <r>    -1.0863     0.4944    27.8550 </r>
       <r>    -0.9795     0.7489    27.9351 </r>
       <r>    -0.8727     0.3864    27.9763 </r>
       <r>    -0.7658     0.0821    27.9851 </r>
       <r>    -0.6590     0.0092    27.9861 </r>
       <r>    -0.5522     0.0003    27.9861 </r>
       <r>    -0.4453     0.0086    27.9870 </r>
       <r>    -0.3385     0.0879    27.9964 </r>
       <r>    -0.2317     0.1322    28.0106 </r>
       <r>    -0.1248     0.0302    28.0138 </r>
       <r>    -0.0180     0.0010    28.0139 </r>
       <r>     0.0889     0.0000    28.0139 </r>
       <r>     0.1957     0.0049    28.0144 </r>
       <r>     0.3025     0.1221    28.0275 </r>
       <r>     0.4094     0.4201    28.0723 </r>
       <r>     0.5162     0.2259    28.0965 </r>
       <r>     0.6230     0.1452    28.1120 </r>
       <r>     0.7299     0.4261    28.1575 </r>
       <r>     0.8367     0.6665    28.2287 </r>
       <r>     0.9435     1.1717    28.3539 </r>
       <r>     1.0504     3.1865    28.6943 </r>
       <r>     1.1572     2.7478    28.9879 </r>
       <r>     1.2640     0.6842    29.0610 </r>
       <r>     1.3709     0.5098    29.1154 </r>
       <r>     1.4777     1.0328    29.2258 </r>
       <r>     1.5845     1.5877    29.3954 </r>
       <r>     1.6914     2.4174    29.6536 </r>
       <r>     1.7982     2.0303    29.8706 </r>
       <r>     1.9050     0.8762    29.9642 </r>
       <r>     2.0119     0.8288    30.0527 </r>
       <r>     2.1187     1.2830    30.1898 </r>
       <r>     2.2255     0.9465    30.2909 </r>
       <r>     2.3324     1.0378    30.4018 </r>
       <r>     2.4392     0.9495    30.5032 </r>
       <r>     2.5460     1.2733    30.6392 </r>
       <r>     2.6529     1.4701    30.7963 </r>
       <r>     2.7597     0.8992    30.8923 </r>
       <r>     2.8665     0.5803    30.9543 </r>
       <r>     2.9734     1.1120    31.0731 </r>
       <r>     3.0802     1.5497    31.2387 </r>
       <r>     3.1870     1.2551    31.3728 </r>
       <r>     3.2939     1.2786    31.5094 </r>
       <r>     3.4007     1.2609    31.6441 </r>
       <r>     3.5075     1.3643    31.7898 </r>
       <r>     3.6144     2.1143    32.0157 </r>
       <r>     3.7212     2.7047    32.3047 </r>
       <r>     3.8280     3.0958    32.6354 </r>
       <r>     3.9349     2.8831    32.9434 </r>
       <r>     4.0417     2.9778    33.2615 </r>
       <r>     4.1485     3.0591    33.5884 </r>
       <r>     4.2554     3.3589    33.9472 </r>
       <r>     4.3622     3.1043    34.2789 </r>
       <r>     4.4690     3.0301    34.6026 </r>
       <r>     4.5759     2.8328    34.9052 </r>
       <r>     4.6827     2.7726    35.2014 </r>
       <r>     4.7895     3.4129    35.5660 </r>
       <r>     4.8964     3.1073    35.8980 </r>
       <r>     5.0032     2.8373    36.2011 </r>
       <r>     5.1100     3.2657    36.5500 </r>
       <r>     5.2169     3.3530    36.9082 </r>
       <r>     5.3237     2.9854    37.2272 </r>
       <r>     5.4305     2.7674    37.5228 </r>
       <r>     5.5374     2.5519    37.7954 </r>
       <r>     5.6442     3.4683    38.1660 </r>
       <r>     5.7510     3.3106    38.5197 </r>
       <r>     5.8579     2.8994    38.8294 </r>
       <r>     5.9647     2.4192    39.0879 </r>
       <r>     6.0715     2.5615    39.3615 </r>
       <r>     6.1784     1.9488    39.5697 </r>
       <r>     6.2852     2.4186    39.8281 </r>
       <r>     6.3920     2.9875    40.1473 </r>
       <r>     6.4989     3.0437    40.4725 </r>
       <r>     6.6057     3.0615    40.7995 </r>
       <r>     6.7125     3.5012    41.1736 </r>
       <r>     6.8194     4.2366    41.6262 </r>
       <r>     6.9262     3.4028    41.9897 </r>
       <r>     7.0330     3.2672    42.3388 </r>
       <r>     7.1399     3.4822    42.7108 </r>
       <r>     7.2467     2.7051    42.9998 </r>
       <r>     7.3535     2.3601    43.2519 </r>
       <r>     7.4604     2.7606    43.5468 </r>
       <r>     7.5672     2.9257    43.8594 </r>
       <r>     7.6740     3.0203    44.1821 </r>
       <r>     7.7809     3.7277    44.5803 </r>
       <r>     7.8877     4.3260    45.0425 </r>
       <r>     7.9945     3.5220    45.4187 </r>
       <r>     8.1014     4.0570    45.8522 </r>
       <r>     8.2082     4.2004    46.3009 </r>
       <r>     8.3150     3.9603    46.7240 </r>
       <r>     8.4219     4.9750    47.2555 </r>
       <r>     8.5287     3.5993    47.6400 </r>
       <r>     8.6355     1.7432    47.8262 </r>
       <r>     8.7424     0.7898    47.9106 </r>
       <r>     8.8492     0.4283    47.9564 </r>
       <r>     8.9560     0.3340    47.9921 </r>
       <r>     9.0629     0.0716    47.9997 </r>
       <r>     9.1697     0.0027    48.0000 </r>
       <r>     9.2765     0.0000    48.0000 </r>
       <r>     9.3834     0.0000    48.0000 </r>
       <r>     9.4902     0.0000    48.0000 </r>
       <r>     9.5970     0.0000    48.0000 </r>
       <r>     9.7039     0.0000    48.0000 </r>
       <r>     9.8107     0.0000    48.0000 </r>
       <r>     9.9175     0.0000    48.0000 </r>
       <r>    10.0244     0.0000    48.0000 </r>
       <r>    10.1312     0.0000    48.0000 </r>
       <r>    10.2380     0.0000    48.0000 </r>
       <r>    10.3449     0.0000    48.0000 </r>
      </set>
     </set>
    </array>
   </total>
  </dos>
 </calculation>
 <structure name="finalpos" >
  <crystal>
   <varray name="basis" >
    <v>       4.19416103       2.42150000       0.00000000 </v>
    <v>      -4.19416103       2.42150000       0.00000000 </v>
    <v>       0.00000000       0.00000000      15.00000000 </v>
   </varray>
   <i name="volume">    304.68482806 </i>
   <varray name="rec_basis" >
    <v>       0.11921335       0.20648358       0.00000000 </v>
    <v>      -0.11921335       0.20648358       0.00000000 </v>
    <v>       0.00000000       0.00000000       0.06666667 </v>
   </varray>
  </crystal>
  <varray name="positions" >
   <v>       0.00405572       0.00269867       0.10137380 </v>
   <v>       0.35924437       0.00297383       0.10053957 </v>
   <v>       0.00376998       0.35760377       0.10054039 </v>
   <v>       0.64914269       0.64750541       0.10053686 </v>
   <v>       0.32780452       0.32616856       0.10056066 </v>
   <v>       0.68057457       0.00297050       0.10056609 </v>
   <v>       0.00377282       0.67893630       0.10056444 </v>
   <v>       0.00013559       0.50006329       0.33485714 </v>
   <v>       0.16678318       0.33345125       0.33489316 </v>
   <v>       0.00011649       0.00007118       0.33481750 </v>
   <v>       0.16682752       0.83340522       0.33489739 </v>
   <v>       0.50012725       0.50010234       0.33485975 </v>
   <v>       0.66678254       0.33340606       0.33475675 </v>
   <v>       0.50008676       0.00005221       0.33485569 </v>
   <v>       0.66673664       0.83335876       0.33489350 </v>
  </varray>
 </structure>
</modeling>
