   2   2   0   4
  0.4027083E+02  0.2490000E-09  0.2490000E-09  0.1500000E-08  0.5000000E-15
  1.000000000000000E-004
  CAR 
 Graphene                                
     43.39551469    -24.72968631  301     -2.35099521      1.00000000
    -24.730  0.0000E+00  0.0000E+00
    -24.503  0.0000E+00  0.0000E+00
    -24.276  0.0000E+00  0.0000E+00
    -24.048  0.0000E+00  0.0000E+00
    -23.821  0.0000E+00  0.0000E+00
    -23.594  0.0000E+00  0.0000E+00
    -23.367  0.0000E+00  0.0000E+00
    -23.140  0.0000E+00  0.0000E+00
    -22.913  0.0000E+00  0.0000E+00
    -22.686  0.0000E+00  0.0000E+00
    -22.459  0.0000E+00  0.0000E+00
    -22.232  0.0000E+00  0.0000E+00
    -22.005  0.4524E-10  0.1027E-10
    -21.778  0.1256E-04  0.2853E-05
    -21.551  0.1012E-02  0.2327E-03
    -21.323  0.3217E-02  0.9632E-03
    -21.096  0.3131E-02  0.1674E-02
    -20.869  0.4086E-02  0.2602E-02
    -20.642  0.3930E-03  0.2691E-02
    -20.415  0.6464E-02  0.4159E-02
    -20.188  0.2580E-02  0.4745E-02
    -19.961  0.1735E-02  0.5139E-02
    -19.734  0.1601E-02  0.5502E-02
    -19.507  0.7822E-02  0.7278E-02
    -19.280  0.1603E-02  0.7642E-02
    -19.053  0.2627E-02  0.8239E-02
    -18.826  0.1049E-02  0.8477E-02
    -18.598  0.4976E-02  0.9607E-02
    -18.371  0.4240E-02  0.1057E-01
    -18.144  0.5403E-02  0.1180E-01
    -17.917  0.5110E-04  0.1181E-01
    -17.690  0.2555E-02  0.1239E-01
    -17.463  0.2270E-02  0.1290E-01
    -17.236  0.8022E-02  0.1473E-01
    -17.009  0.2121E-02  0.1521E-01
    -16.782  0.6522E-02  0.1669E-01
    -16.555  0.1109E-02  0.1694E-01
    -16.328  0.1239E-02  0.1722E-01
    -16.100  0.3390E-02  0.1799E-01
    -15.873  0.7556E-02  0.1971E-01
    -15.646  0.6659E-04  0.1972E-01
    -15.419  0.6752E-03  0.1988E-01
    -15.192  0.1179E-02  0.2014E-01
    -14.965  0.2957E-02  0.2081E-01
    -14.738  0.7962E-02  0.2262E-01
    -14.511  0.2516E-02  0.2319E-01
    -14.284  0.7251E-03  0.2336E-01
    -14.057  0.6668E-02  0.2487E-01
    -13.830  0.3489E-02  0.2567E-01
    -13.603  0.5272E-02  0.2686E-01
    -13.375  0.2194E-02  0.2736E-01
    -13.148  0.1108E-05  0.2736E-01
    -12.921  0.2111E-02  0.2784E-01
    -12.694  0.9220E-02  0.2993E-01
    -12.467  0.8996E-03  0.3014E-01
    -12.240  0.1205E-05  0.3014E-01
    -12.013  0.2265E-03  0.3019E-01
    -11.786  0.1212E-01  0.3294E-01
    -11.559  0.5994E-02  0.3430E-01
    -11.332  0.2773E-04  0.3431E-01
    -11.105  0.2668E-02  0.3492E-01
    -10.878  0.1781E-02  0.3532E-01
    -10.650  0.6381E-02  0.3677E-01
    -10.423  0.2938E-02  0.3744E-01
    -10.196  0.7516E-02  0.3914E-01
     -9.969  0.4118E-02  0.4008E-01
     -9.742  0.4594E-02  0.4112E-01
     -9.515  0.1031E-01  0.4346E-01
     -9.288  0.1303E-02  0.4376E-01
     -9.061  0.1057E-01  0.4616E-01
     -8.834  0.8122E-02  0.4800E-01
     -8.607  0.1497E-01  0.5140E-01
     -8.380  0.1047E-01  0.5378E-01
     -8.153  0.8050E-02  0.5561E-01
     -7.925  0.7578E-02  0.5733E-01
     -7.698  0.1181E-02  0.5760E-01
     -7.471  0.6651E-02  0.5911E-01
     -7.244  0.1693E-01  0.6295E-01
     -7.017  0.3792E-02  0.6381E-01
     -6.790  0.3936E-02  0.6471E-01
     -6.563  0.1247E-02  0.6499E-01
     -6.336  0.8771E-02  0.6698E-01
     -6.109  0.6761E-02  0.6852E-01
     -5.882  0.9425E-02  0.7066E-01
     -5.655  0.3194E-02  0.7138E-01
     -5.428  0.3701E-02  0.7222E-01
     -5.200  0.1850E-02  0.7264E-01
     -4.973  0.4827E-02  0.7374E-01
     -4.746  0.1039E-01  0.7610E-01
     -4.519  0.4898E-02  0.7721E-01
     -4.292  0.5713E-04  0.7722E-01
     -4.065  0.1959E-02  0.7767E-01
     -3.838  0.1770E-02  0.7807E-01
     -3.611  0.5804E-02  0.7939E-01
     -3.384  0.1472E-02  0.7972E-01
     -3.157  0.1873E-06  0.7972E-01
     -2.930  0.1397E-14  0.7972E-01
     -2.703  0.8124E-09  0.7972E-01
     -2.475  0.9589E-04  0.7974E-01
     -2.248  0.2171E-02  0.8024E-01
     -2.021  0.1794E-03  0.8028E-01
     -1.794  0.3816E-08  0.8028E-01
     -1.567  0.3060E-13  0.8028E-01
     -1.340  0.1076E-05  0.8028E-01
     -1.113  0.2514E-02  0.8085E-01
     -0.886  0.7336E-02  0.8251E-01
     -0.659  0.2353E-02  0.8305E-01
     -0.432  0.3975E-02  0.8395E-01
     -0.205  0.3998E-02  0.8486E-01
      0.022  0.7620E-03  0.8503E-01
      0.250  0.6615E-02  0.8653E-01
      0.477  0.6602E-02  0.8803E-01
      0.704  0.7078E-03  0.8819E-01
      0.931  0.1131E-03  0.8822E-01
      1.158  0.1543E-02  0.8857E-01
      1.385  0.9332E-02  0.9069E-01
      1.612  0.1712E-02  0.9108E-01
      1.839  0.4227E-02  0.9204E-01
      2.066  0.1032E-01  0.9438E-01
      2.293  0.3396E-02  0.9515E-01
      2.520  0.8431E-02  0.9707E-01
      2.747  0.1142E-01  0.9966E-01
      2.975  0.4994E-02  0.1008E+00
      3.202  0.4965E-02  0.1019E+00
      3.429  0.1124E-01  0.1045E+00
      3.656  0.9896E-02  0.1067E+00
      3.883  0.1209E-01  0.1095E+00
      4.110  0.1058E-01  0.1119E+00
      4.337  0.1145E-02  0.1121E+00
      4.564  0.1181E-01  0.1148E+00
      4.791  0.1320E-01  0.1178E+00
      5.018  0.9995E-02  0.1201E+00
      5.245  0.1915E-01  0.1244E+00
      5.472  0.2407E-01  0.1299E+00
      5.700  0.2206E-01  0.1349E+00
      5.927  0.2286E-01  0.1401E+00
      6.154  0.2292E-01  0.1453E+00
      6.381  0.1280E-01  0.1482E+00
      6.608  0.1660E-01  0.1520E+00
      6.835  0.1686E-01  0.1558E+00
      7.062  0.1465E-01  0.1591E+00
      7.289  0.2587E-01  0.1650E+00
      7.516  0.1846E-01  0.1692E+00
      7.743  0.1633E-01  0.1729E+00
      7.970  0.2073E-01  0.1776E+00
      8.197  0.8572E-02  0.1796E+00
      8.425  0.1712E-01  0.1834E+00
      8.652  0.2475E-01  0.1891E+00
      8.879  0.2957E-01  0.1958E+00
      9.106  0.1182E-01  0.1985E+00
      9.333  0.1827E-01  0.2026E+00
      9.560  0.1995E-01  0.2071E+00
      9.787  0.2873E-01  0.2137E+00
     10.014  0.1724E-01  0.2176E+00
     10.241  0.1655E-01  0.2213E+00
     10.468  0.1528E-01  0.2248E+00
     10.695  0.3408E-01  0.2326E+00
     10.923  0.3454E-01  0.2404E+00
     11.150  0.2000E-01  0.2449E+00
     11.377  0.2306E-01  0.2502E+00
     11.604  0.2334E-01  0.2555E+00
     11.831  0.1071E-01  0.2579E+00
     12.058  0.1672E-01  0.2617E+00
     12.285  0.2848E-01  0.2682E+00
     12.512  0.1030E-01  0.2705E+00
     12.739  0.1096E-01  0.2730E+00
     12.966  0.1928E-01  0.2774E+00
     13.193  0.1852E-01  0.2816E+00
     13.420  0.2316E-01  0.2868E+00
     13.648  0.2510E-01  0.2925E+00
     13.875  0.2758E-01  0.2988E+00
     14.102  0.1745E-01  0.3028E+00
     14.329  0.2228E-01  0.3078E+00
     14.556  0.2595E-01  0.3137E+00
     14.783  0.2448E-01  0.3193E+00
     15.010  0.2546E-01  0.3251E+00
     15.237  0.2517E-01  0.3308E+00
     15.464  0.2167E-01  0.3357E+00
     15.691  0.2151E-01  0.3406E+00
     15.918  0.1955E-01  0.3450E+00
     16.145  0.2475E-01  0.3506E+00
     16.373  0.1957E-01  0.3551E+00
     16.600  0.1969E-01  0.3596E+00
     16.827  0.3371E-01  0.3672E+00
     17.054  0.3788E-01  0.3758E+00
     17.281  0.1643E-01  0.3795E+00
     17.508  0.8196E-02  0.3814E+00
     17.735  0.1470E-01  0.3847E+00
     17.962  0.3150E-01  0.3919E+00
     18.189  0.3915E-01  0.4008E+00
     18.416  0.9830E-02  0.4030E+00
     18.643  0.1592E-01  0.4066E+00
     18.870  0.4168E-01  0.4161E+00
     19.098  0.3030E-01  0.4230E+00
     19.325  0.2690E-01  0.4291E+00
     19.552  0.2349E-01  0.4344E+00
     19.779  0.2246E-01  0.4395E+00
     20.006  0.3330E-01  0.4471E+00
     20.233  0.3976E-01  0.4561E+00
     20.460  0.3134E-01  0.4632E+00
     20.687  0.2317E-01  0.4685E+00
     20.914  0.1176E-01  0.4712E+00
     21.141  0.2657E-01  0.4772E+00
     21.368  0.2744E-01  0.4834E+00
     21.595  0.3248E-01  0.4908E+00
     21.823  0.2696E-01  0.4969E+00
     22.050  0.3695E-01  0.5053E+00
     22.277  0.1920E-01  0.5097E+00
     22.504  0.3532E-01  0.5177E+00
     22.731  0.2374E-01  0.5231E+00
     22.958  0.2806E-01  0.5295E+00
     23.185  0.2728E-01  0.5357E+00
     23.412  0.3504E-01  0.5436E+00
     23.639  0.3172E-01  0.5508E+00
     23.866  0.3424E-01  0.5586E+00
     24.093  0.3072E-01  0.5656E+00
     24.320  0.3416E-01  0.5733E+00
     24.548  0.2073E-01  0.5780E+00
     24.775  0.2439E-01  0.5836E+00
     25.002  0.1986E-01  0.5881E+00
     25.229  0.2071E-01  0.5928E+00
     25.456  0.2895E-01  0.5994E+00
     25.683  0.3278E-01  0.6068E+00
     25.910  0.4018E-01  0.6159E+00
     26.137  0.2324E-01  0.6212E+00
     26.364  0.2935E-01  0.6279E+00
     26.591  0.2961E-01  0.6346E+00
     26.818  0.3301E-01  0.6421E+00
     27.045  0.2494E-01  0.6477E+00
     27.273  0.2349E-01  0.6531E+00
     27.500  0.4274E-01  0.6628E+00
     27.727  0.2105E-01  0.6676E+00
     27.954  0.9238E-02  0.6697E+00
     28.181  0.2736E-01  0.6759E+00
     28.408  0.2132E-01  0.6807E+00
     28.635  0.3173E-01  0.6879E+00
     28.862  0.3459E-01  0.6958E+00
     29.089  0.2971E-01  0.7025E+00
     29.316  0.2848E-01  0.7090E+00
     29.543  0.2798E-01  0.7153E+00
     29.770  0.3559E-01  0.7234E+00
     29.998  0.2919E-01  0.7301E+00
     30.225  0.2870E-01  0.7366E+00
     30.452  0.3825E-01  0.7453E+00
     30.679  0.2456E-01  0.7508E+00
     30.906  0.2984E-01  0.7576E+00
     31.133  0.3583E-01  0.7658E+00
     31.360  0.2887E-01  0.7723E+00
     31.587  0.1737E-01  0.7763E+00
     31.814  0.3698E-01  0.7847E+00
     32.041  0.1919E-01  0.7890E+00
     32.268  0.4501E-01  0.7992E+00
     32.495  0.3688E-01  0.8076E+00
     32.723  0.3876E-01  0.8164E+00
     32.950  0.2304E-01  0.8216E+00
     33.177  0.3059E-01  0.8286E+00
     33.404  0.3349E-01  0.8362E+00
     33.631  0.4277E-01  0.8459E+00
     33.858  0.2717E-01  0.8521E+00
     34.085  0.1817E-01  0.8562E+00
     34.312  0.2115E-01  0.8610E+00
     34.539  0.3407E-01  0.8687E+00
     34.766  0.3722E-01  0.8772E+00
     34.993  0.4224E-01  0.8868E+00
     35.220  0.2490E-01  0.8924E+00
     35.448  0.3498E-01  0.9004E+00
     35.675  0.4562E-01  0.9107E+00
     35.902  0.3375E-01  0.9184E+00
     36.129  0.2325E-01  0.9237E+00
     36.356  0.1236E-01  0.9265E+00
     36.583  0.2357E-01  0.9318E+00
     36.810  0.3086E-01  0.9389E+00
     37.037  0.3075E-01  0.9458E+00
     37.264  0.1826E-01  0.9500E+00
     37.491  0.7458E-02  0.9517E+00
     37.718  0.5598E-02  0.9529E+00
     37.945  0.2821E-02  0.9536E+00
     38.173  0.7006E-02  0.9552E+00
     38.400  0.3198E-02  0.9559E+00
     38.627  0.7386E-02  0.9576E+00
     38.854  0.2049E-02  0.9580E+00
     39.081  0.6063E-02  0.9594E+00
     39.308  0.9701E-04  0.9594E+00
     39.535  0.2054E-09  0.9594E+00
     39.762  0.3898E-16  0.9594E+00
     39.989  0.1457E-07  0.9594E+00
     40.216  0.2971E-03  0.9595E+00
     40.443  0.2099E-02  0.9600E+00
     40.671  0.5013E-04  0.9600E+00
     40.898  0.1809E-09  0.9600E+00
     41.125  0.0000E+00  0.9600E+00
     41.352  0.0000E+00  0.9600E+00
     41.579  0.0000E+00  0.9600E+00
     41.806  0.0000E+00  0.9600E+00
     42.033  0.0000E+00  0.9600E+00
     42.260  0.0000E+00  0.9600E+00
     42.487  0.0000E+00  0.9600E+00
     42.714  0.0000E+00  0.9600E+00
     42.941  0.0000E+00  0.9600E+00
     43.168  0.0000E+00  0.9600E+00
     43.396  0.0000E+00  0.9600E+00
