Lattice                                 
           1
     4.367366    2.521500    0.000000
    -4.367366    2.521500    0.000000
     0.000000    0.000000   15.000000
   B    C 
     2    14
Direct configuration=     1
   0.33833034  0.66916432  0.10000000
   0.67165522  0.33584146  0.10000000
   0.16373946  0.31999962  0.10000000
   0.32250218  0.16126397  0.10000000
   0.16376430  0.84376384  0.10000000
   0.84623863  0.16123684  0.10000000
   0.68749850  0.84373000  0.10000000
   0.84626736  0.68499594  0.10000000
   0.16666600  0.33333300  0.32880000
   0.33333300  0.16666600  0.32880000
   0.16666600  0.83333300  0.32880000
   0.33333300  0.66666600  0.32880000
   0.66666600  0.33333300  0.32880000
   0.83333300  0.16666600  0.32880000
   0.66666600  0.83333300  0.32880000
   0.83333300  0.66666600  0.32880000
Direct configuration=     2
   0.33832824  0.66916294  0.10014666
   0.67167606  0.33581254  0.10014665
   0.16699377  0.32651807  0.09994643
   0.32901399  0.16451604  0.09994608
   0.16702427  0.84049377  0.09994645
   0.84297059  0.16449388  0.09994680
   0.68100437  0.84050237  0.09994699
   0.84299535  0.67850158  0.09994679
   0.16636063  0.33271866  0.32887149
   0.33271806  0.16635960  0.32887209
   0.16636067  0.83363990  0.32887149
   0.33332701  0.66666409  0.32860120
   0.66666154  0.33332976  0.32860121
   0.83363951  0.16636151  0.32887013
   0.66727846  0.83363821  0.32886939
   0.83363948  0.66727907  0.32887015
Direct configuration=     3
   0.33832977  0.66916395  0.10003981
   0.67166088  0.33583361  0.10003981
   0.16462286  0.32176908  0.09998546
   0.32426984  0.16214676  0.09998536
   0.16464923  0.84287617  0.09998546
   0.84535151  0.16212098  0.09998556
   0.68573564  0.84285385  0.09998561
   0.84537916  0.68323302  0.09998556
   0.16658311  0.33316623  0.32881941
   0.33316607  0.16658283  0.32881957
   0.16658312  0.83341631  0.32881941
   0.33333137  0.66666548  0.32874604
   0.66666479  0.33333212  0.32874604
   0.83341620  0.16658335  0.32881904
   0.66683226  0.83341585  0.32881884
   0.83341620  0.66683242  0.32881904
Direct configuration=     4
   0.33833484  0.66916457  0.10013960
   0.67166471  0.33583041  0.10013959
   0.16461661  0.32175525  0.09994895
   0.32425824  0.16213513  0.09994862
   0.16463477  0.84287929  0.09994896
   0.84536923  0.16212257  0.09994941
   0.68574438  0.84286823  0.09994954
   0.84538545  0.68324655  0.09994940
   0.16654671  0.33309526  0.32886559
   0.33309446  0.16654692  0.32886617
   0.16654671  0.83345114  0.32886559
   0.33333008  0.66666473  0.32861820
   0.66666339  0.33333152  0.32861820
   0.83345044  0.16654755  0.32886429
   0.66690152  0.83345060  0.32886357
   0.83345045  0.66690229  0.32886430
Direct configuration=     5
   0.33833660  0.66916478  0.10017423
   0.67166603  0.33582930  0.10017421
   0.16461445  0.32175045  0.09993628
   0.32425421  0.16213110  0.09993587
   0.16462975  0.84288037  0.09993629
   0.84537538  0.16212312  0.09993686
   0.68574741  0.84287322  0.09993703
   0.84538764  0.68325124  0.09993686
   0.16653409  0.33307063  0.32888162
   0.33306962  0.16653446  0.32888234
   0.16653408  0.83346323  0.32888162
   0.33332963  0.66666447  0.32857385
   0.66666291  0.33333131  0.32857385
   0.83346231  0.16653513  0.32887999
   0.66692555  0.83346265  0.32887909
   0.83346233  0.66692652  0.32888000
Direct configuration=     6
   0.33831987  0.66916565  0.10023930
   0.67166783  0.33583697  0.10023928
   0.16465502  0.32176675  0.09991160
   0.32425837  0.16213808  0.09991087
   0.16464914  0.84287241  0.09991161
   0.84535457  0.16211887  0.09991266
   0.68576588  0.84286737  0.09991295
   0.84535336  0.68324363  0.09991262
   0.16662418  0.33325282  0.32889575
   0.33325108  0.16662562  0.32889680
   0.16662419  0.83337035  0.32889575
   0.33332838  0.66666428  0.32854087
   0.66666204  0.33333054  0.32854087
   0.83336863  0.16662605  0.32889344
   0.66674086  0.83336993  0.32889218
   0.83336861  0.66674269  0.32889344
Direct configuration=     7
   0.33832967  0.66916514  0.10020117
   0.67166678  0.33583248  0.10020116
   0.16463125  0.32175720  0.09992606
   0.32425594  0.16213399  0.09992552
   0.16463778  0.84287708  0.09992607
   0.84536676  0.16212136  0.09992684
   0.68575506  0.84287080  0.09992706
   0.84537344  0.68324809  0.09992682
   0.16657140  0.33314608  0.32888747
   0.33314477  0.16657221  0.32888833
   0.16657139  0.83342476  0.32888747
   0.33332911  0.66666439  0.32856019
   0.66666255  0.33333099  0.32856019
   0.83342351  0.16657278  0.32888556
   0.66684907  0.83342425  0.32888451
   0.83342352  0.66685039  0.32888556
Direct configuration=     8
   0.33832993  0.66916513  0.10020017
   0.67166675  0.33583236  0.10020015
   0.16463062  0.32175695  0.09992644
   0.32425587  0.16213388  0.09992590
   0.16463748  0.84287720  0.09992645
   0.84536708  0.16212143  0.09992721
   0.68575477  0.84287089  0.09992743
   0.84537397  0.68324821  0.09992719
   0.16657001  0.33314328  0.32888725
   0.33314197  0.16657081  0.32888811
   0.16657001  0.83342619  0.32888725
   0.33332913  0.66666439  0.32856070
   0.66666256  0.33333100  0.32856070
   0.83342496  0.16657138  0.32888536
   0.66685191  0.83342568  0.32888431
   0.83342496  0.66685322  0.32888536
Direct configuration=     9
   0.33834048  0.66916790  0.10022091
   0.67166013  0.33583347  0.10022089
   0.16461371  0.32175496  0.09991743
   0.32426824  0.16212833  0.09991669
   0.16462017  0.84287373  0.09991743
   0.84538906  0.16213100  0.09991854
   0.68573811  0.84287367  0.09991893
   0.84539587  0.68324753  0.09991852
   0.16656900  0.33314322  0.32888466
   0.33314131  0.16657037  0.32888566
   0.16656901  0.83342550  0.32888466
   0.33332798  0.66666371  0.32857473
   0.66666129  0.33333051  0.32857473
   0.83342367  0.16657093  0.32888247
   0.66685030  0.83342501  0.32888129
   0.83342366  0.66685215  0.32888247
Direct configuration=    10
   0.33833986  0.66916774  0.10021969
   0.67166052  0.33583341  0.10021967
   0.16461471  0.32175508  0.09991796
   0.32426751  0.16212866  0.09991724
   0.16462119  0.84287394  0.09991796
   0.84538777  0.16213044  0.09991905
   0.68573909  0.84287351  0.09991943
   0.84539459  0.68324757  0.09991903
   0.16656906  0.33314322  0.32888481
   0.33314135  0.16657040  0.32888580
   0.16656907  0.83342554  0.32888481
   0.33332804  0.66666375  0.32857391
   0.66666137  0.33333054  0.32857390
   0.83342375  0.16657096  0.32888264
   0.66685040  0.83342505  0.32888146
   0.83342374  0.66685221  0.32888264
Direct configuration=    11
   0.33833668  0.66916780  0.10022977
   0.67166481  0.33583373  0.10022976
   0.16462496  0.32175590  0.09991328
   0.32426260  0.16212913  0.09991243
   0.16462822  0.84287495  0.09991328
   0.84538190  0.16212940  0.09991458
   0.68574645  0.84287427  0.09991507
   0.84538555  0.68324806  0.09991458
   0.16656670  0.33313961  0.32888353
   0.33313737  0.16656842  0.32888460
   0.16656671  0.83342679  0.32888353
   0.33332729  0.66666339  0.32858158
   0.66666062  0.33333016  0.32858158
   0.83342463  0.16656899  0.32888122
   0.66685289  0.83342630  0.32887997
   0.83342462  0.66685509  0.32888122
Direct configuration=    12
   0.33833475  0.66916784  0.10023589
   0.67166741  0.33583393  0.10023588
   0.16463119  0.32175640  0.09991045
   0.32425962  0.16212942  0.09990952
   0.16463249  0.84287557  0.09991045
   0.84537834  0.16212878  0.09991188
   0.68575091  0.84287473  0.09991243
   0.84538007  0.68324836  0.09991187
   0.16656527  0.33313742  0.32888276
   0.33313496  0.16656722  0.32888388
   0.16656528  0.83342754  0.32888276
   0.33332684  0.66666317  0.32858624
   0.66666016  0.33332993  0.32858624
   0.83342517  0.16656779  0.32888035
   0.66685440  0.83342705  0.32887906
   0.83342516  0.66685684  0.32888035
Direct configuration=    13
   0.33833482  0.66916784  0.10023568
   0.67166732  0.33583392  0.10023567
   0.16463097  0.32175638  0.09991055
   0.32425973  0.16212941  0.09990962
   0.16463234  0.84287555  0.09991055
   0.84537846  0.16212880  0.09991197
   0.68575075  0.84287471  0.09991252
   0.84538026  0.68324835  0.09991197
   0.16656532  0.33313750  0.32888279
   0.33313505  0.16656727  0.32888390
   0.16656533  0.83342752  0.32888278
   0.33332685  0.66666318  0.32858607
   0.66666018  0.33332994  0.32858607
   0.83342515  0.16656784  0.32888038
   0.66685435  0.83342703  0.32887909
   0.83342514  0.66685678  0.32888038
Direct configuration=    14
   0.33833492  0.66916784  0.10023535
   0.67166718  0.33583391  0.10023534
   0.16463064  0.32175635  0.09991070
   0.32425989  0.16212939  0.09990978
   0.16463211  0.84287551  0.09991070
   0.84537865  0.16212883  0.09991212
   0.68575051  0.84287469  0.09991266
   0.84538055  0.68324834  0.09991211
   0.16656539  0.33313761  0.32888283
   0.33313517  0.16656733  0.32888394
   0.16656540  0.83342748  0.32888283
   0.33332688  0.66666319  0.32858583
   0.66666020  0.33332995  0.32858583
   0.83342512  0.16656790  0.32888043
   0.66685427  0.83342699  0.32887914
   0.83342511  0.66685668  0.32888043
Direct configuration=    15
   0.33833486  0.66916784  0.10023555
   0.67166726  0.33583392  0.10023554
   0.16463084  0.32175637  0.09991061
   0.32425979  0.16212940  0.09990968
   0.16463225  0.84287553  0.09991061
   0.84537854  0.16212881  0.09991203
   0.68575066  0.84287470  0.09991258
   0.84538038  0.68324834  0.09991203
   0.16656535  0.33313754  0.32888280
   0.33313510  0.16656729  0.32888392
   0.16656536  0.83342750  0.32888280
   0.33332686  0.66666318  0.32858598
   0.66666019  0.33332994  0.32858598
   0.83342514  0.16656786  0.32888040
   0.66685432  0.83342701  0.32887911
   0.83342513  0.66685674  0.32888040
Direct configuration=    16
   0.33833457  0.66916727  0.10023452
   0.67166759  0.33583364  0.10023450
   0.16463157  0.32175720  0.09991050
   0.32426059  0.16213044  0.09990954
   0.16463273  0.84287501  0.09991050
   0.84537771  0.16212778  0.09991200
   0.68575282  0.84287543  0.09991258
   0.84537908  0.68324918  0.09991199
   0.16656515  0.33313743  0.32888334
   0.33313485  0.16656722  0.32888446
   0.16656515  0.83342731  0.32888334
   0.33332660  0.66666310  0.32858559
   0.66665998  0.33332979  0.32858559
   0.83342480  0.16656779  0.32888094
   0.66685403  0.83342681  0.32887965
   0.83342480  0.66685660  0.32888094
