Automatically generated mesh
      33
Reciprocal lattice
    0.00000000000000    0.00000000000000    0.00000000000000             1
    0.05882352941177   -0.00000000000000    0.00000000000000             6
    0.11764705882353   -0.00000000000000    0.00000000000000             6
    0.17647058823530   -0.00000000000000    0.00000000000000             6
    0.23529411764706   -0.00000000000000    0.00000000000000             6
    0.29411764705883   -0.00000000000000    0.00000000000000             6
    0.35294117647059   -0.00000000000000    0.00000000000000             6
    0.41176470588236    0.00000000000000    0.00000000000000             6
    0.47058823529412   -0.00000000000000    0.00000000000000             6
    0.05882352941177    0.05882352941177    0.00000000000000             6
    0.11764705882353    0.05882352941177    0.00000000000000            12
    0.17647058823530    0.05882352941177    0.00000000000000            12
    0.23529411764706    0.05882352941177    0.00000000000000            12
    0.29411764705883    0.05882352941177    0.00000000000000            12
    0.35294117647059    0.05882352941177    0.00000000000000            12
    0.41176470588236    0.05882352941177    0.00000000000000            12
    0.47058823529412    0.05882352941177    0.00000000000000             6
    0.11764705882353    0.11764705882353    0.00000000000000             6
    0.17647058823530    0.11764705882353    0.00000000000000            12
    0.23529411764706    0.11764705882353    0.00000000000000            12
    0.29411764705883    0.11764705882353    0.00000000000000            12
    0.35294117647059    0.11764705882353    0.00000000000000            12
    0.41176470588236    0.11764705882353    0.00000000000000            12
    0.17647058823530    0.17647058823530    0.00000000000000             6
    0.23529411764706    0.17647058823530    0.00000000000000            12
    0.29411764705883    0.17647058823530    0.00000000000000            12
    0.35294117647059    0.17647058823530    0.00000000000000            12
    0.41176470588236    0.17647058823530    0.00000000000000             6
    0.23529411764706    0.23529411764706    0.00000000000000             6
    0.29411764705883    0.23529411764706    0.00000000000000            12
    0.35294117647059    0.23529411764706    0.00000000000000            12
    0.29411764705883    0.29411764705883    0.00000000000000             6
    0.35294117647059    0.29411764705883    0.00000000000000             6
