   16   16    1    1
  0.2012733E+02  0.4979000E-09  0.4979000E-09  0.1500000E-08  0.5000000E-15
  1.000000000000000E-004
  CAR 
 BS                                      
     56    192     48
 
  0.3330000E+00  0.3330000E+00  0.0000000E+00  0.5208333E-02
      1        -17.764845   1.000000
      2        -17.760034   1.000000
      3        -17.756282   1.000000
      4        -14.777735   1.000000
      5        -14.774002   1.000000
      6        -12.896213   1.000000
      7        -12.889171   1.000000
      8        -12.746420   1.000000
      9        -10.724817   1.000000
     10         -9.163170   1.000000
     11         -9.158652   1.000000
     12         -8.108752   1.000000
     13         -8.107837   1.000000
     14         -8.099312   1.000000
     15         -7.789122   1.000000
     16         -7.628636   1.000000
     17         -6.711663   1.000000
     18         -6.710837   1.000000
     19         -6.703444   1.000000
     20         -5.796361   1.000000
     21         -5.757109   1.000000
     22         -5.630896   1.000000
     23         -4.681333   1.000000
     24         -4.634334   1.000000
     25         -4.095339   1.000000
     26         -4.085258   1.000000
     27         -2.807309   1.000000
     28         -0.428813   0.999402
     29         -0.410181   0.998542
     30          2.815292   0.000000
     31          2.873997   0.000000
     32          3.650265   0.000000
     33          3.659170   0.000000
     34          4.332338   0.000000
     35          4.437195   0.000000
     36          5.329854   0.000000
     37          5.338204   0.000000
     38          5.646671   0.000000
     39          5.791816   0.000000
     40          5.808700   0.000000
     41          5.824239   0.000000
     42          6.183103   0.000000
     43          6.201269   0.000000
     44          6.328831   0.000000
     45          7.033539   0.000000
     46          7.104928   0.000000
     47          7.380908   0.000000
     48          7.674613   0.000000
 
  0.3277143E+00  0.3277143E+00  0.0000000E+00  0.5208333E-02
      1        -17.823572   1.000000
      2        -17.729621   1.000000
      3        -17.726418   1.000000
      4        -14.804452   1.000000
      5        -14.747260   1.000000
      6        -12.947929   1.000000
      7        -12.840153   1.000000
      8        -12.745125   1.000000
      9        -10.721257   1.000000
     10         -9.198141   1.000000
     11         -9.127601   1.000000
     12         -8.158916   1.000000
     13         -8.157944   1.000000
     14         -8.004189   1.000000
     15         -7.784717   1.000000
     16         -7.629611   1.000000
     17         -6.750037   1.000000
     18         -6.749250   1.000000
     19         -6.622550   1.000000
     20         -5.830783   1.000000
     21         -5.734676   1.000000
     22         -5.617447   1.000000
     23         -4.705888   1.000000
     24         -4.609960   1.000000
     25         -4.105181   1.000000
     26         -4.076416   1.000000
     27         -2.804982   1.000000
     28         -0.495592   0.999986
     29         -0.343678   0.979120
     30          2.762173   0.000000
     31          2.921543   0.000000
     32          3.629003   0.000000
     33          3.682728   0.000000
     34          4.334364   0.000000
     35          4.443531   0.000000
     36          5.284992   0.000000
     37          5.375101   0.000000
     38          5.654156   0.000000
     39          5.738303   0.000000
     40          5.756089   0.000000
     41          5.929454   0.000000
     42          6.132507   0.000000
     43          6.236803   0.000000
     44          6.346845   0.000000
     45          7.010369   0.000000
     46          7.120721   0.000000
     47          7.387618   0.000000
     48          7.657362   0.000000
 
  0.3224286E+00  0.3224286E+00  0.0000000E+00  0.5208333E-02
      1        -17.882013   1.000000
      2        -17.698231   1.000000
      3        -17.695059   1.000000
      4        -14.832012   1.000000
      5        -14.719532   1.000000
      6        -12.999084   1.000000
      7        -12.796960   1.000000
      8        -12.741324   1.000000
      9        -10.711152   1.000000
     10         -9.233222   1.000000
     11         -9.103625   1.000000
     12         -8.213816   1.000000
     13         -8.212815   1.000000
     14         -7.908712   1.000000
     15         -7.772278   1.000000
     16         -7.632391   1.000000
     17         -6.784616   1.000000
     18         -6.783884   1.000000
     19         -6.541802   1.000000
     20         -5.887281   1.000000
     21         -5.699847   1.000000
     22         -5.591768   1.000000
     23         -4.743866   1.000000
     24         -4.572299   1.000000
     25         -4.116874   1.000000
     26         -4.067363   1.000000
     27         -2.798669   1.000000
     28         -0.565437   1.000000
     29         -0.274640   0.855328
     30          2.693269   0.000000
     31          2.974119   0.000000
     32          3.606005   0.000000
     33          3.712028   0.000000
     34          4.339958   0.000000
     35          4.461972   0.000000
     36          5.227983   0.000000
     37          5.414513   0.000000
     38          5.660079   0.000000
     39          5.683269   0.000000
     40          5.705944   0.000000
     41          6.038153   0.000000
     42          6.069972   0.000000
     43          6.279105   0.000000
     44          6.379640   0.000000
     45          6.962994   0.000000
     46          7.151208   0.000000
     47          7.401281   0.000000
     48          7.640542   0.000000
 
  0.3171429E+00  0.3171429E+00  0.0000000E+00  0.5208333E-02
      1        -17.939577   1.000000
      2        -17.665910   1.000000
      3        -17.662752   1.000000
      4        -14.860188   1.000000
      5        -14.690995   1.000000
      6        -13.049477   1.000000
      7        -12.761622   1.000000
      8        -12.733510   1.000000
      9        -10.694260   1.000000
     10         -9.268346   1.000000
     11         -9.086889   1.000000
     12         -8.273387   1.000000
     13         -8.272344   1.000000
     14         -7.813014   1.000000
     15         -7.751654   1.000000
     16         -7.637036   1.000000
     17         -6.815398   1.000000
     18         -6.814716   1.000000
     19         -6.461238   1.000000
     20         -5.948426   1.000000
     21         -5.662539   1.000000
     22         -5.561488   1.000000
     23         -4.784592   1.000000
     24         -4.531746   1.000000
     25         -4.127551   1.000000
     26         -4.060714   1.000000
     27         -2.788590   1.000000
     28         -0.634392   1.000000
     29         -0.207096   0.541549
     30          2.623894   0.000000
     31          3.015549   0.000000
     32          3.583556   0.000000
     33          3.744665   0.000000
     34          4.349074   0.000000
     35          4.493318   0.000000
     36          5.165266   0.000000
     37          5.454207   0.000000
     38          5.612864   0.000000
     39          5.628657   0.000000
     40          5.710021   0.000000
     41          5.995590   0.000000
     42          6.158789   0.000000
     43          6.322988   0.000000
     44          6.417627   0.000000
     45          6.906454   0.000000
     46          7.185401   0.000000
     47          7.412791   0.000000
     48          7.604913   0.000000
 
  0.3118571E+00  0.3118571E+00  0.0000000E+00  0.5208333E-02
      1        -17.996251   1.000000
      2        -17.632658   1.000000
      3        -17.629511   1.000000
      4        -14.888907   1.000000
      5        -14.661658   1.000000
      6        -13.099086   1.000000
      7        -12.740144   1.000000
      8        -12.715939   1.000000
      9        -10.670468   1.000000
     10         -9.303511   1.000000
     11         -9.077235   1.000000
     12         -8.337447   1.000000
     13         -8.336351   1.000000
     14         -7.725581   1.000000
     15         -7.714784   1.000000
     16         -7.643528   1.000000
     17         -6.842481   1.000000
     18         -6.841843   1.000000
     19         -6.380930   1.000000
     20         -6.010818   1.000000
     21         -5.623817   1.000000
     22         -5.529120   1.000000
     23         -4.826444   1.000000
     24         -4.489590   1.000000
     25         -4.136856   1.000000
     26         -4.056553   1.000000
     27         -2.774965   1.000000
     28         -0.702317   1.000000
     29         -0.141257   0.204185
     30          2.555222   0.000000
     31          3.044478   0.000000
     32          3.561630   0.000000
     33          3.780502   0.000000
     34          4.361688   0.000000
     35          4.537671   0.000000
     36          5.099713   0.000000
     37          5.489027   0.000000
     38          5.555379   0.000000
     39          5.568024   0.000000
     40          5.731251   0.000000
     41          5.933801   0.000000
     42          6.271822   0.000000
     43          6.368293   0.000000
     44          6.457987   0.000000
     45          6.846492   0.000000
     46          7.220369   0.000000
     47          7.412068   0.000000
     48          7.587627   0.000000
 
  0.3065714E+00  0.3065714E+00  0.0000000E+00  0.5208333E-02
      1        -18.052026   1.000000
      2        -17.598481   1.000000
      3        -17.595343   1.000000
      4        -14.918086   1.000000
      5        -14.631522   1.000000
      6        -13.147892   1.000000
      7        -12.728558   1.000000
      8        -12.692677   1.000000
      9        -10.639741   1.000000
     10         -9.338695   1.000000
     11         -9.074239   1.000000
     12         -8.405800   1.000000
     13         -8.404641   1.000000
     14         -7.688244   1.000000
     15         -7.653088   1.000000
     16         -7.619175   1.000000
     17         -6.865989   1.000000
     18         -6.865388   1.000000
     19         -6.300894   1.000000
     20         -6.073328   1.000000
     21         -5.583962   1.000000
     22         -5.495791   1.000000
     23         -4.868664   1.000000
     24         -4.446199   1.000000
     25         -4.144568   1.000000
     26         -4.054780   1.000000
     27         -2.758012   1.000000
     28         -0.769149   1.000000
     29         -0.077154   0.041519
     30          2.487527   0.000000
     31          3.061111   0.000000
     32          3.540099   0.000000
     33          3.819480   0.000000
     34          4.377813   0.000000
     35          4.594324   0.000000
     36          5.032906   0.000000
     37          5.470028   0.000000
     38          5.498518   0.000000
     39          5.556050   0.000000
     40          5.739309   0.000000
     41          5.890265   0.000000
     42          6.383820   0.000000
     43          6.415716   0.000000
     44          6.499083   0.000000
     45          6.786261   0.000000
     46          7.253701   0.000000
     47          7.389081   0.000000
     48          7.554646   0.000000
 
  0.3012857E+00  0.3012857E+00  0.0000000E+00  0.5208333E-02
      1        -18.106900   1.000000
      2        -17.563377   1.000000
      3        -17.560249   1.000000
      4        -14.947677   1.000000
      5        -14.600593   1.000000
      6        -13.195892   1.000000
      7        -12.717980   1.000000
      8        -12.672608   1.000000
      9        -10.602192   1.000000
     10         -9.373884   1.000000
     11         -9.077286   1.000000
     12         -8.478164   1.000000
     13         -8.476936   1.000000
     14         -7.663576   1.000000
     15         -7.645685   1.000000
     16         -7.523080   1.000000
     17         -6.886200   1.000000
     18         -6.885629   1.000000
     19         -6.221180   1.000000
     20         -6.135465   1.000000
     21         -5.543092   1.000000
     22         -5.462254   1.000000
     23         -4.910539   1.000000
     24         -4.401776   1.000000
     25         -4.150493   1.000000
     26         -4.055203   1.000000
     27         -2.737940   1.000000
     28         -0.834834   1.000000
     29         -0.014812   0.004462
     30          2.420926   0.000000
     31          3.066411   0.000000
     32          3.518749   0.000000
     33          3.861547   0.000000
     34          4.397459   0.000000
     35          4.661874   0.000000
     36          4.965753   0.000000
     37          5.406522   0.000000
     38          5.431791   0.000000
     39          5.595067   0.000000
     40          5.712922   0.000000
     41          5.884846   0.000000
     42          6.459969   0.000000
     43          6.499222   0.000000
     44          6.538261   0.000000
     45          6.729811   0.000000
     46          7.276783   0.000000
     47          7.347852   0.000000
     48          7.414964   0.000000
 
  0.2960000E+00  0.2960000E+00  0.0000000E+00  0.5208333E-02
      1        -18.160870   1.000000
      2        -17.527348   1.000000
      3        -17.524229   1.000000
      4        -14.977598   1.000000
      5        -14.568872   1.000000
      6        -13.243083   1.000000
      7        -12.706590   1.000000
      8        -12.657420   1.000000
      9        -10.558071   1.000000
     10         -9.409069   1.000000
     11         -9.085634   1.000000
     12         -8.554237   1.000000
     13         -8.552935   1.000000
     14         -7.676405   1.000000
     15         -7.597608   1.000000
     16         -7.426299   1.000000
     17         -6.903268   1.000000
     18         -6.902722   1.000000
     19         -6.197136   1.000000
     20         -6.141705   1.000000
     21         -5.501323   1.000000
     22         -5.429305   1.000000
     23         -4.951152   1.000000
     24         -4.356540   1.000000
     25         -4.154449   1.000000
     26         -4.057521   1.000000
     27         -2.714943   1.000000
     28         -0.899510   1.000000
     29          0.045602   0.000261
     30          2.355486   0.000000
     31          3.061754   0.000000
     32          3.497463   0.000000
     33          3.906640   0.000000
     34          4.420655   0.000000
     35          4.738400   0.000000
     36          4.898859   0.000000
     37          5.337287   0.000000
     38          5.363199   0.000000
     39          5.635011   0.000000
     40          5.664521   0.000000
     41          5.908968   0.000000
     42          6.508553   0.000000
     43          6.563969   0.000000
     44          6.615142   0.000000
     45          6.691444   0.000000
     46          7.268304   0.000000
     47          7.294880   0.000000
     48          7.427869   0.000000
 
  0.2907143E+00  0.2907143E+00  0.0000000E+00  0.5208333E-02
      1        -18.213930   1.000000
      2        -17.490397   1.000000
      3        -17.487287   1.000000
      4        -15.007773   1.000000
      5        -14.536366   1.000000
      6        -13.289460   1.000000
      7        -12.694146   1.000000
      8        -12.647130   1.000000
      9        -10.507699   1.000000
     10         -9.444236   1.000000
     11         -9.098508   1.000000
     12         -8.633647   1.000000
     13         -8.632266   1.000000
     14         -7.691531   1.000000
     15         -7.544584   1.000000
     16         -7.329287   1.000000
     17         -6.917441   1.000000
     18         -6.916913   1.000000
     19         -6.257931   1.000000
     20         -6.062733   1.000000
     21         -5.458903   1.000000
     22         -5.398050   1.000000
     23         -4.989158   1.000000
     24         -4.310880   1.000000
     25         -4.156248   1.000000
     26         -4.061263   1.000000
     27         -2.689216   1.000000
     28         -0.963093   1.000000
     29          0.104088   0.000009
     30          2.291255   0.000000
     31          3.048665   0.000000
     32          3.475974   0.000000
     33          3.954656   0.000000
     34          4.447268   0.000000
     35          4.821205   0.000000
     36          4.833063   0.000000
     37          5.265358   0.000000
     38          5.293443   0.000000
     39          5.592978   0.000000
     40          5.691146   0.000000
     41          5.944282   0.000000
     42          6.541029   0.000000
     43          6.566824   0.000000
     44          6.678808   0.000000
     45          6.732183   0.000000
     46          7.162233   0.000000
     47          7.219305   0.000000
     48          7.392598   0.000000
 
  0.2854286E+00  0.2854286E+00  0.0000000E+00  0.5208333E-02
      1        -18.266075   1.000000
      2        -17.452528   1.000000
      3        -17.449426   1.000000
      4        -15.038158   1.000000
      5        -14.503086   1.000000
      6        -13.335021   1.000000
      7        -12.680793   1.000000
      8        -12.641288   1.000000
      9        -10.451460   1.000000
     10         -9.479378   1.000000
     11         -9.115149   1.000000
     12         -8.716140   1.000000
     13         -8.714675   1.000000
     14         -7.708907   1.000000
     15         -7.487553   1.000000
     16         -7.232081   1.000000
     17         -6.929056   1.000000
     18         -6.928544   1.000000
     19         -6.317918   1.000000
     20         -5.984126   1.000000
     21         -5.416503   1.000000
     22         -5.369867   1.000000
     23         -5.022392   1.000000
     24         -4.265539   1.000000
     25         -4.155682   1.000000
     26         -4.065566   1.000000
     27         -2.660926   1.000000
     28         -1.025573   1.000000
     29          0.160634   0.000000
     30          2.228280   0.000000
     31          3.028625   0.000000
     32          3.454112   0.000000
     33          4.005482   0.000000
     34          4.476929   0.000000
     35          4.767774   0.000000
     36          4.908256   0.000000
     37          5.191750   0.000000
     38          5.224320   0.000000
     39          5.528125   0.000000
     40          5.739779   0.000000
     41          5.983302   0.000000
     42          6.500479   0.000000
     43          6.611378   0.000000
     44          6.717665   0.000000
     45          6.838298   0.000000
     46          7.051857   0.000000
     47          7.147558   0.000000
     48          7.425307   0.000000
 
  0.2801429E+00  0.2801429E+00  0.0000000E+00  0.5208333E-02
      1        -18.317310   1.000000
      2        -17.413739   1.000000
      3        -17.410646   1.000000
      4        -15.068661   1.000000
      5        -14.469021   1.000000
      6        -13.379765   1.000000
      7        -12.667233   1.000000
      8        -12.638841   1.000000
      9        -10.389864   1.000000
     10         -9.514476   1.000000
     11         -9.134853   1.000000
     12         -8.801338   1.000000
     13         -8.799778   1.000000
     14         -7.728532   1.000000
     15         -7.427388   1.000000
     16         -7.134738   1.000000
     17         -6.938255   1.000000
     18         -6.937755   1.000000
     19         -6.377051   1.000000
     20         -5.905963   1.000000
     21         -5.377520   1.000000
     22         -5.344651   1.000000
     23         -5.047497   1.000000
     24         -4.222301   1.000000
     25         -4.152481   1.000000
     26         -4.068570   1.000000
     27         -2.630237   1.000000
     28         -1.086942   1.000000
     29          0.215104   0.000000
     30          2.166599   0.000000
     31          3.002958   0.000000
     32          3.431646   0.000000
     33          4.058950   0.000000
     34          4.508380   0.000000
     35          4.705536   0.000000
     36          4.990336   0.000000
     37          5.116733   0.000000
     38          5.161706   0.000000
     39          5.462296   0.000000
     40          5.790608   0.000000
     41          6.022467   0.000000
     42          6.448677   0.000000
     43          6.659602   0.000000
     44          6.763205   0.000000
     45          6.922854   0.000000
     46          6.953412   0.000000
     47          7.077404   0.000000
     48          7.457577   0.000000
 
  0.2748571E+00  0.2748571E+00  0.0000000E+00  0.5208333E-02
      1        -18.367623   1.000000
      2        -17.374036   1.000000
      3        -17.370953   1.000000
      4        -15.099257   1.000000
      5        -14.434182   1.000000
      6        -13.423688   1.000000
      7        -12.656925   1.000000
      8        -12.635954   1.000000
      9        -10.323372   1.000000
     10         -9.549540   1.000000
     11         -9.157004   1.000000
     12         -8.888986   1.000000
     13         -8.887315   1.000000
     14         -7.750408   1.000000
     15         -7.364907   1.000000
     16         -7.037257   1.000000
     17         -6.945367   1.000000
     18         -6.944877   1.000000
     19         -6.435196   1.000000
     20         -5.828300   1.000000
     21         -5.356402   1.000000
     22         -5.312178   1.000000
     23         -5.060159   1.000000
     24         -4.185526   1.000000
     25         -4.146555   1.000000
     26         -4.065657   1.000000
     27         -2.597297   1.000000
     28         -1.147189   1.000000
     29          0.267489   0.000000
     30          2.106255   0.000000
     31          2.972792   0.000000
     32          3.408356   0.000000
     33          4.114848   0.000000
     34          4.536287   0.000000
     35          4.650952   0.000000
     36          5.021784   0.000000
     37          5.042309   0.000000
     38          5.148265   0.000000
     39          5.397089   0.000000
     40          5.842999   0.000000
     41          6.058118   0.000000
     42          6.399662   0.000000
     43          6.696658   0.000000
     44          6.806577   0.000000
     45          6.827644   0.000000
     46          6.965497   0.000000
     47          7.086566   0.000000
     48          7.486627   0.000000
 
  0.2695714E+00  0.2695714E+00  0.0000000E+00  0.5208333E-02
      1        -18.417012   1.000000
      2        -17.333426   1.000000
      3        -17.330352   1.000000
      4        -15.129872   1.000000
      5        -14.398574   1.000000
      6        -13.466791   1.000000
      7        -12.657219   1.000000
      8        -12.624885   1.000000
      9        -10.252477   1.000000
     10         -9.584552   1.000000
     11         -9.181063   1.000000
     12         -8.978848   1.000000
     13         -8.977027   1.000000
     14         -7.774531   1.000000
     15         -7.300870   1.000000
     16         -6.950653   1.000000
     17         -6.950160   1.000000
     18         -6.939670   1.000000
     19         -6.492322   1.000000
     20         -5.751083   1.000000
     21         -5.359503   1.000000
     22         -5.269094   1.000000
     23         -5.057387   1.000000
     24         -4.161669   1.000000
     25         -4.139915   1.000000
     26         -4.047986   1.000000
     27         -2.562248   1.000000
     28         -1.206304   1.000000
     29          0.317738   0.000000
     30          2.047294   0.000000
     31          2.939058   0.000000
     32          3.384100   0.000000
     33          4.172865   0.000000
     34          4.534824   0.000000
     35          4.629023   0.000000
     36          4.958942   0.000000
     37          4.977740   0.000000
     38          5.215939   0.000000
     39          5.334695   0.000000
     40          5.896479   0.000000
     41          6.084025   0.000000
     42          6.361231   0.000000
     43          6.650493   0.000000
     44          6.795126   0.000000
     45          6.843401   0.000000
     46          6.910872   0.000000
     47          7.206314   0.000000
     48          7.518247   0.000000
 
  0.2642857E+00  0.2642857E+00  0.0000000E+00  0.5208333E-02
      1        -18.465479   1.000000
      2        -17.291902   1.000000
      3        -17.288838   1.000000
      4        -15.160454   1.000000
      5        -14.362206   1.000000
      6        -13.509071   1.000000
      7        -12.665190   1.000000
      8        -12.608195   1.000000
      9        -10.177670   1.000000
     10         -9.619511   1.000000
     11         -9.206627   1.000000
     12         -9.070585   1.000000
     13         -9.068512   1.000000
     14         -7.800858   1.000000
     15         -7.236017   1.000000
     16         -6.954124   1.000000
     17         -6.953652   1.000000
     18         -6.842177   1.000000
     19         -6.548378   1.000000
     20         -5.674483   1.000000
     21         -5.378766   1.000000
     22         -5.222412   1.000000
     23         -5.040017   1.000000
     24         -4.151927   1.000000
     25         -4.134247   1.000000
     26         -4.012235   1.000000
     27         -2.525215   1.000000
     28         -1.264272   1.000000
     29          0.365798   0.000000
     30          1.989760   0.000000
     31          2.902507   0.000000
     32          3.358701   0.000000
     33          4.232548   0.000000
     34          4.489667   0.000000
     35          4.651475   0.000000
     36          4.880923   0.000000
     37          4.911321   0.000000
     38          5.253780   0.000000
     39          5.319785   0.000000
     40          5.949875   0.000000
     41          6.090370   0.000000
     42          6.343582   0.000000
     43          6.538251   0.000000
     44          6.770795   0.000000
     45          6.851849   0.000000
     46          6.934782   0.000000
     47          7.318229   0.000000
     48          7.543319   0.000000
 
  0.2590000E+00  0.2590000E+00  0.0000000E+00  0.5208333E-02
      1        -18.513020   1.000000
      2        -17.249471   1.000000
      3        -17.246417   1.000000
      4        -15.190952   1.000000
      5        -14.325082   1.000000
      6        -13.550527   1.000000
      7        -12.676987   1.000000
      8        -12.589387   1.000000
      9        -10.099415   1.000000
     10         -9.654415   1.000000
     11         -9.233602   1.000000
     12         -9.163993   1.000000
     13         -9.161262   1.000000
     14         -7.829363   1.000000
     15         -7.171079   1.000000
     16         -6.956157   1.000000
     17         -6.955695   1.000000
     18         -6.744648   1.000000
     19         -6.603259   1.000000
     20         -5.598487   1.000000
     21         -5.408494   1.000000
     22         -5.174067   1.000000
     23         -5.011779   1.000000
     24         -4.155016   1.000000
     25         -4.123300   1.000000
     26         -3.965547   1.000000
     27         -2.486317   1.000000
     28         -1.321079   1.000000
     29          0.411613   0.000000
     30          1.933717   0.000000
     31          2.863748   0.000000
     32          3.332007   0.000000
     33          4.292994   0.000000
     34          4.432687   0.000000
     35          4.676861   0.000000
     36          4.802417   0.000000
     37          4.854756   0.000000
     38          5.198190   0.000000
     39          5.398002   0.000000
     40          5.998969   0.000000
     41          6.072113   0.000000
     42          6.352530   0.000000
     43          6.423870   0.000000
     44          6.683752   0.000000
     45          6.903320   0.000000
     46          6.986401   0.000000
     47          7.478116   0.000000
     48          7.587710   0.000000
 
  0.2537143E+00  0.2537143E+00  0.0000000E+00  0.5208333E-02
      1        -18.559633   1.000000
      2        -17.206138   1.000000
      3        -17.203094   1.000000
      4        -15.221315   1.000000
      5        -14.287205   1.000000
      6        -13.591159   1.000000
      7        -12.691444   1.000000
      8        -12.569300   1.000000
      9        -10.018135   1.000000
     10         -9.689232   1.000000
     11         -9.268130   1.000000
     12         -9.258861   1.000000
     13         -9.248599   1.000000
     14         -7.859988   1.000000
     15         -7.106832   1.000000
     16         -6.956850   1.000000
     17         -6.956401   1.000000
     18         -6.656797   1.000000
     19         -6.647164   1.000000
     20         -5.523168   1.000000
     21         -5.444503   1.000000
     22         -5.124541   1.000000
     23         -4.976338   1.000000
     24         -4.163675   1.000000
     25         -4.108310   1.000000
     26         -3.913504   1.000000
     27         -2.445677   1.000000
     28         -1.376704   1.000000
     29          0.455261   0.000000
     30          1.879233   0.000000
     31          2.823263   0.000000
     32          3.303868   0.000000
     33          4.352015   0.000000
     34          4.373890   0.000000
     35          4.667008   0.000000
     36          4.726057   0.000000
     37          4.838188   0.000000
     38          5.137007   0.000000
     39          5.475532   0.000000
     40          6.014710   0.000000
     41          6.054339   0.000000
     42          6.325248   0.000000
     43          6.382434   0.000000
     44          6.590812   0.000000
     45          6.960395   0.000000
     46          7.042022   0.000000
     47          7.515027   0.000000
     48          7.598076   0.000000
 
  0.2484286E+00  0.2484286E+00  0.0000000E+00  0.5208333E-02
      1        -18.605317   1.000000
      2        -17.161906   1.000000
      3        -17.158873   1.000000
      4        -15.251501   1.000000
      5        -14.248573   1.000000
      6        -13.630964   1.000000
      7        -12.708006   1.000000
      8        -12.548214   1.000000