   8   8   0   0
  0.4338553E+02  0.5169000E-09  0.5169000E-09  0.1500000E-08  0.5000000E-15
  1.000000000000000E-004
  CAR 
 BC3                                     
      9.52928544    -21.28554591  301     -3.47734269      1.00000000
    -21.286  0.0000E+00  0.0000E+00
    -21.183  0.0000E+00  0.0000E+00
    -21.080  0.0000E+00  0.0000E+00
    -20.977  0.0000E+00  0.0000E+00
    -20.875  0.0000E+00  0.0000E+00
    -20.772  0.0000E+00  0.0000E+00
    -20.669  0.0000E+00  0.0000E+00
    -20.567  0.0000E+00  0.0000E+00
    -20.464  0.1279E-18  0.1314E-19
    -20.361  0.1488E-13  0.1529E-14
    -20.258  0.1444E-09  0.1483E-10
    -20.156  0.1913E-06  0.1967E-07
    -20.053  0.3712E-04  0.3832E-05
    -19.950  0.1199E-02  0.1270E-03
    -19.848  0.8107E-02  0.9597E-03
    -19.745  0.1714E-01  0.2720E-02
    -19.642  0.2080E-01  0.4856E-02
    -19.539  0.2343E-01  0.7263E-02
    -19.437  0.2879E-01  0.1022E-01
    -19.334  0.3994E-01  0.1432E-01
    -19.231  0.3925E-01  0.1835E-01
    -19.129  0.1456E-01  0.1985E-01
    -19.026  0.1436E-02  0.2000E-01
    -18.923  0.2905E-04  0.2000E-01
    -18.820  0.9789E-07  0.2000E-01
    -18.718  0.4826E-10  0.2000E-01
    -18.615  0.3242E-14  0.2000E-01
    -18.512  0.0000E+00  0.2000E-01
    -18.409  0.0000E+00  0.2000E-01
    -18.307  0.0000E+00  0.2000E-01
    -18.204  0.4797E-19  0.2000E-01
    -18.101  0.8434E-14  0.2000E-01
    -17.999  0.9830E-10  0.2000E-01
    -17.896  0.1558E-06  0.2000E-01
    -17.793  0.3591E-04  0.2000E-01
    -17.690  0.1360E-02  0.2014E-01
    -17.588  0.1059E-01  0.2123E-01
    -17.485  0.2528E-01  0.2383E-01
    -17.382  0.3226E-01  0.2714E-01
    -17.280  0.2729E-01  0.2994E-01
    -17.177  0.1970E-01  0.3197E-01
    -17.074  0.1846E-01  0.3386E-01
    -16.971  0.1912E-01  0.3583E-01
    -16.869  0.2010E-01  0.3789E-01
    -16.766  0.2146E-01  0.4010E-01
    -16.663  0.2363E-01  0.4252E-01
    -16.561  0.2775E-01  0.4538E-01
    -16.458  0.3444E-01  0.4891E-01
    -16.355  0.3396E-01  0.5240E-01
    -16.252  0.2597E-01  0.5507E-01
    -16.150  0.2054E-01  0.5718E-01
    -16.047  0.1643E-01  0.5887E-01
    -15.944  0.9086E-02  0.5980E-01
    -15.842  0.1856E-02  0.5999E-01
    -15.739  0.8741E-04  0.6000E-01
    -15.636  0.7223E-06  0.6000E-01
    -15.533  0.9020E-09  0.6000E-01
    -15.431  0.1572E-12  0.6000E-01
    -15.328  0.3550E-17  0.6000E-01
    -15.225  0.0000E+00  0.6000E-01
    -15.123  0.0000E+00  0.6000E-01
    -15.020  0.0000E+00  0.6000E-01
    -14.917  0.0000E+00  0.6000E-01
    -14.814  0.0000E+00  0.6000E-01
    -14.712  0.1131E-15  0.6000E-01
    -14.609  0.2706E-11  0.6000E-01
    -14.506  0.8766E-08  0.6000E-01
    -14.404  0.4087E-05  0.6000E-01
    -14.301  0.3016E-03  0.6003E-01
    -14.198  0.4133E-02  0.6046E-01
    -14.095  0.1428E-01  0.6192E-01
    -13.993  0.2101E-01  0.6408E-01
    -13.890  0.2442E-01  0.6659E-01
    -13.787  0.2973E-01  0.6964E-01
    -13.685  0.3569E-01  0.7331E-01
    -13.582  0.2703E-01  0.7609E-01
    -13.479  0.1894E-01  0.7803E-01
    -13.376  0.1508E-01  0.7958E-01
    -13.274  0.1489E-01  0.8111E-01
    -13.171  0.1352E-01  0.8250E-01
    -13.068  0.1349E-01  0.8388E-01
    -12.966  0.1262E-01  0.8518E-01
    -12.863  0.1293E-01  0.8651E-01
    -12.760  0.1407E-01  0.8795E-01
    -12.657  0.1901E-01  0.8991E-01
    -12.555  0.1950E-01  0.9191E-01
    -12.452  0.1930E-01  0.9389E-01
    -12.349  0.1701E-01  0.9564E-01
    -12.247  0.1642E-01  0.9732E-01
    -12.144  0.1497E-01  0.9886E-01
    -12.041  0.1421E-01  0.1003E+00
    -11.938  0.1334E-01  0.1017E+00
    -11.836  0.9693E-02  0.1027E+00
    -11.733  0.6440E-02  0.1033E+00
    -11.630  0.3886E-02  0.1037E+00
    -11.528  0.4974E-02  0.1043E+00
    -11.425  0.4918E-02  0.1048E+00
    -11.322  0.4073E-02  0.1052E+00
    -11.219  0.7425E-02  0.1059E+00
    -11.117  0.7247E-02  0.1067E+00
    -11.014  0.7987E-02  0.1075E+00
    -10.911  0.1145E-01  0.1087E+00
    -10.809  0.1180E-01  0.1099E+00
    -10.706  0.1503E-01  0.1114E+00
    -10.603  0.1826E-01  0.1133E+00
    -10.500  0.1586E-01  0.1149E+00
    -10.398  0.2004E-01  0.1170E+00
    -10.295  0.2317E-01  0.1194E+00
    -10.192  0.2147E-01  0.1216E+00
    -10.089  0.1735E-01  0.1234E+00
     -9.987  0.1295E-01  0.1247E+00
     -9.884  0.1714E-01  0.1265E+00
     -9.781  0.2572E-01  0.1291E+00
     -9.679  0.2659E-01  0.1318E+00
     -9.576  0.2359E-01  0.1343E+00
     -9.473  0.1945E-01  0.1363E+00
     -9.370  0.1847E-01  0.1382E+00
     -9.268  0.2031E-01  0.1402E+00
     -9.165  0.1808E-01  0.1421E+00
     -9.062  0.2226E-01  0.1444E+00
     -8.960  0.2504E-01  0.1470E+00
     -8.857  0.2535E-01  0.1496E+00
     -8.754  0.2529E-01  0.1522E+00
     -8.651  0.2641E-01  0.1549E+00
     -8.549  0.3008E-01  0.1580E+00
     -8.446  0.2798E-01  0.1608E+00
     -8.343  0.2348E-01  0.1632E+00
     -8.241  0.2053E-01  0.1654E+00
     -8.138  0.1992E-01  0.1674E+00
     -8.035  0.2488E-01  0.1700E+00
     -7.932  0.3131E-01  0.1732E+00
     -7.830  0.4035E-01  0.1773E+00
     -7.727  0.4362E-01  0.1818E+00
     -7.624  0.4382E-01  0.1863E+00
     -7.522  0.3869E-01  0.1903E+00
     -7.419  0.2594E-01  0.1929E+00
     -7.316  0.1736E-01  0.1947E+00
     -7.213  0.2003E-01  0.1968E+00
     -7.111  0.2083E-01  0.1989E+00
     -7.008  0.1770E-01  0.2007E+00
     -6.905  0.1590E-01  0.2024E+00
     -6.803  0.1653E-01  0.2041E+00
     -6.700  0.1831E-01  0.2060E+00
     -6.597  0.2707E-01  0.2087E+00
     -6.494  0.4198E-01  0.2130E+00
     -6.392  0.6812E-01  0.2200E+00
     -6.289  0.7938E-01  0.2282E+00
     -6.186  0.5813E-01  0.2342E+00
     -6.084  0.3928E-01  0.2382E+00
     -5.981  0.2719E-01  0.2410E+00
     -5.878  0.2310E-01  0.2434E+00
     -5.775  0.2379E-01  0.2458E+00
     -5.673  0.2433E-01  0.2483E+00
     -5.570  0.2508E-01  0.2509E+00
     -5.467  0.2689E-01  0.2536E+00
     -5.365  0.2719E-01  0.2564E+00
     -5.262  0.3045E-01  0.2596E+00
     -5.159  0.3197E-01  0.2628E+00
     -5.056  0.3737E-01  0.2667E+00
     -4.954  0.4188E-01  0.2710E+00
     -4.851  0.4313E-01  0.2754E+00
     -4.748  0.4779E-01  0.2803E+00
     -4.646  0.4584E-01  0.2850E+00
     -4.543  0.3970E-01  0.2891E+00
     -4.440  0.2797E-01  0.2920E+00
     -4.337  0.1607E-01  0.2936E+00
     -4.235  0.1267E-01  0.2949E+00
     -4.132  0.1210E-01  0.2962E+00
     -4.029  0.1160E-01  0.2974E+00
     -3.927  0.1118E-01  0.2985E+00
     -3.824  0.9428E-02  0.2995E+00
     -3.721  0.4322E-02  0.2999E+00
     -3.618  0.5963E-03  0.3000E+00
     -3.516  0.1690E-04  0.3000E+00
     -3.413  0.4496E-06  0.3000E+00
     -3.310  0.5073E-04  0.3000E+00
     -3.208  0.1258E-02  0.3001E+00
     -3.105  0.7058E-02  0.3009E+00
     -3.002  0.1318E-01  0.3022E+00
     -2.899  0.1632E-01  0.3039E+00
     -2.797  0.1794E-01  0.3057E+00
     -2.694  0.2383E-01  0.3082E+00
     -2.591  0.2610E-01  0.3109E+00
     -2.488  0.2346E-01  0.3133E+00
     -2.386  0.1535E-01  0.3148E+00
     -2.283  0.1281E-01  0.3162E+00
     -2.180  0.1021E-01  0.3172E+00
     -2.078  0.7899E-02  0.3180E+00
     -1.975  0.6957E-02  0.3187E+00
     -1.872  0.3989E-02  0.3191E+00
     -1.769  0.3225E-02  0.3195E+00
     -1.667  0.2248E-02  0.3197E+00
     -1.564  0.1435E-02  0.3199E+00
     -1.461  0.1062E-02  0.3200E+00
     -1.359  0.3441E-03  0.3200E+00
     -1.256  0.5015E-03  0.3201E+00
     -1.153  0.1202E-02  0.3202E+00
     -1.050  0.1576E-02  0.3203E+00
     -0.948  0.2605E-02  0.3206E+00
     -0.845  0.3275E-02  0.3209E+00
     -0.742  0.3724E-02  0.3213E+00
     -0.640  0.5643E-02  0.3219E+00
     -0.537  0.5330E-02  0.3225E+00
     -0.434  0.8023E-02  0.3233E+00
     -0.331  0.9567E-02  0.3243E+00
     -0.229  0.1479E-01  0.3258E+00
     -0.126  0.2892E-01  0.3287E+00
     -0.023  0.2808E-01  0.3316E+00
      0.079  0.2260E-01  0.3340E+00
      0.182  0.1679E-01  0.3357E+00
      0.285  0.1437E-01  0.3372E+00
      0.388  0.1396E-01  0.3386E+00
      0.490  0.1430E-01  0.3401E+00
      0.593  0.1523E-01  0.3416E+00
      0.696  0.1342E-01  0.3430E+00
      0.798  0.1158E-01  0.3442E+00
      0.901  0.1368E-01  0.3456E+00
      1.004  0.1774E-01  0.3474E+00
      1.107  0.1871E-01  0.3493E+00
      1.209  0.1958E-01  0.3514E+00
      1.312  0.2004E-01  0.3534E+00
      1.415  0.2098E-01  0.3556E+00
      1.517  0.2288E-01  0.3579E+00
      1.620  0.2433E-01  0.3604E+00
      1.723  0.2381E-01  0.3629E+00
      1.826  0.2334E-01  0.3653E+00
      1.928  0.2892E-01  0.3682E+00
      2.031  0.2947E-01  0.3713E+00
      2.134  0.2952E-01  0.3743E+00
      2.236  0.3282E-01  0.3777E+00
      2.339  0.3669E-01  0.3814E+00
      2.442  0.3723E-01  0.3852E+00
      2.545  0.4011E-01  0.3894E+00
      2.647  0.3844E-01  0.3933E+00
      2.750  0.3786E-01  0.3972E+00
      2.853  0.3867E-01  0.4012E+00
      2.955  0.3838E-01  0.4051E+00
      3.058  0.3832E-01  0.4091E+00
      3.161  0.3717E-01  0.4129E+00
      3.264  0.3888E-01  0.4169E+00
      3.366  0.3800E-01  0.4208E+00
      3.469  0.3698E-01  0.4246E+00
      3.572  0.3916E-01  0.4286E+00
      3.674  0.3705E-01  0.4324E+00
      3.777  0.3772E-01  0.4363E+00
      3.880  0.4000E-01  0.4404E+00
      3.983  0.3999E-01  0.4445E+00
      4.085  0.3766E-01  0.4484E+00
      4.188  0.3556E-01  0.4520E+00
      4.291  0.3044E-01  0.4551E+00
      4.393  0.4309E-01  0.4596E+00
      4.496  0.5174E-01  0.4649E+00
      4.599  0.4568E-01  0.4696E+00
      4.702  0.4776E-01  0.4745E+00
      4.804  0.5153E-01  0.4798E+00
      4.907  0.5339E-01  0.4853E+00
      5.010  0.5900E-01  0.4913E+00
      5.112  0.6126E-01  0.4976E+00
      5.215  0.6647E-01  0.5044E+00
      5.318  0.7134E-01  0.5118E+00
      5.421  0.7366E-01  0.5193E+00
      5.523  0.8269E-01  0.5278E+00
      5.626  0.7506E-01  0.5355E+00
      5.729  0.5875E-01  0.5416E+00
      5.832  0.6737E-01  0.5485E+00
      5.934  0.7965E-01  0.5567E+00
      6.037  0.7729E-01  0.5646E+00
      6.140  0.7312E-01  0.5721E+00
      6.242  0.6637E-01  0.5789E+00
      6.345  0.7269E-01  0.5864E+00
      6.448  0.7620E-01  0.5942E+00
      6.551  0.6926E-01  0.6013E+00
      6.653  0.6013E-01  0.6075E+00
      6.756  0.6330E-01  0.6140E+00
      6.859  0.7062E-01  0.6213E+00
      6.961  0.6391E-01  0.6278E+00
      7.064  0.4477E-01  0.6324E+00
      7.167  0.2633E-01  0.6351E+00
      7.270  0.1391E-01  0.6366E+00
      7.372  0.9249E-02  0.6375E+00
      7.475  0.7227E-02  0.6383E+00
      7.578  0.4260E-02  0.6387E+00
      7.680  0.4606E-02  0.6392E+00
      7.783  0.2466E-02  0.6394E+00
      7.886  0.2072E-02  0.6396E+00
      7.989  0.1307E-02  0.6398E+00
      8.091  0.1079E-02  0.6399E+00
      8.194  0.9640E-03  0.6400E+00
      8.297  0.1778E-03  0.6400E+00
      8.399  0.5727E-05  0.6400E+00
      8.502  0.2994E-07  0.6400E+00
      8.605  0.2380E-10  0.6400E+00
      8.708  0.2691E-14  0.6400E+00
      8.810  0.3198E-19  0.6400E+00
      8.913  0.0000E+00  0.6400E+00
      9.016  0.0000E+00  0.6400E+00
      9.118  0.0000E+00  0.6400E+00
      9.221  0.0000E+00  0.6400E+00
      9.324  0.0000E+00  0.6400E+00
      9.427  0.0000E+00  0.6400E+00
      9.529  0.0000E+00  0.6400E+00
