Automatically generated mesh
    1452
Reciprocal lattice
    0.00000000000000    0.00000000000000    0.00000000000000             1
    0.00775193798449    0.00000000000000    0.00000000000000             6
    0.01550387596899    0.00000000000000    0.00000000000000             6
    0.02325581395349   -0.00000000000000    0.00000000000000             6
    0.03100775193798    0.00000000000000    0.00000000000000             6
    0.03875968992248    0.00000000000000    0.00000000000000             6
    0.04651162790697    0.00000000000000    0.00000000000000             6
    0.05426356589147    0.00000000000000    0.00000000000000             6
    0.06201550387597    0.00000000000000    0.00000000000000             6
    0.06976744186046    0.00000000000000    0.00000000000000             6
    0.07751937984496    0.00000000000000    0.00000000000000             6
    0.08527131782946    0.00000000000000    0.00000000000000             6
    0.09302325581395    0.00000000000000    0.00000000000000             6
    0.10077519379845   -0.00000000000000    0.00000000000000             6
    0.10852713178294    0.00000000000000    0.00000000000000             6
    0.11627906976744    0.00000000000000    0.00000000000000             6
    0.12403100775194    0.00000000000000    0.00000000000000             6
    0.13178294573643    0.00000000000000    0.00000000000000             6
    0.13953488372093    0.00000000000000    0.00000000000000             6
    0.14728682170543   -0.00000000000000    0.00000000000000             6
    0.15503875968992    0.00000000000000    0.00000000000000             6
    0.16279069767442   -0.00000000000000    0.00000000000000             6
    0.17054263565891    0.00000000000000    0.00000000000000             6
    0.17829457364341   -0.00000000000000    0.00000000000000             6
    0.18604651162791    0.00000000000000    0.00000000000000             6
    0.19379844961240    0.00000000000000    0.00000000000000             6
    0.20155038759690   -0.00000000000000    0.00000000000000             6
    0.20930232558140    0.00000000000000    0.00000000000000             6
    0.21705426356589    0.00000000000000    0.00000000000000             6
    0.22480620155039    0.00000000000000    0.00000000000000             6
    0.23255813953488   -0.00000000000000    0.00000000000000             6
    0.24031007751938    0.00000000000000    0.00000000000000             6
    0.24806201550388    0.00000000000000    0.00000000000000             6
    0.25581395348837    0.00000000000000    0.00000000000000             6
    0.26356589147287    0.00000000000000    0.00000000000000             6
    0.27131782945737    0.00000000000000    0.00000000000000             6
    0.27906976744186    0.00000000000000    0.00000000000000             6
    0.28682170542636    0.00000000000000    0.00000000000000             6
    0.29457364341085    0.00000000000000    0.00000000000000             6
    0.30232558139535    0.00000000000000    0.00000000000000             6
    0.31007751937985    0.00000000000000    0.00000000000000             6
    0.31782945736434    0.00000000000000    0.00000000000000             6
    0.32558139534883   -0.00000000000000    0.00000000000000             6
    0.33333333333334    0.00000000000000    0.00000000000000             6
    0.34108527131783    0.00000000000000    0.00000000000000             6
    0.34883720930232   -0.00000000000000    0.00000000000000             6
    0.35658914728682    0.00000000000000    0.00000000000000             6
    0.36434108527132    0.00000000000000    0.00000000000000             6
    0.37209302325581    0.00000000000000    0.00000000000000             6
    0.37984496124031   -0.00000000000000    0.00000000000000             6
    0.38759689922480    0.00000000000000    0.00000000000000             6
    0.39534883720930    0.00000000000000    0.00000000000000             6
    0.40310077519380   -0.00000000000000    0.00000000000000             6
    0.41085271317829    0.00000000000000    0.00000000000000             6
    0.41860465116279    0.00000000000000    0.00000000000000             6
    0.42635658914729    0.00000000000000    0.00000000000000             6
    0.43410852713178    0.00000000000000    0.00000000000000             6
    0.44186046511628    0.00000000000000    0.00000000000000             6
    0.44961240310077    0.00000000000000    0.00000000000000             6
    0.45736434108527    0.00000000000000    0.00000000000000             6
    0.46511627906977   -0.00000000000000    0.00000000000000             6
    0.47286821705426    0.00000000000000    0.00000000000000             6
    0.48062015503876    0.00000000000000    0.00000000000000             6
    0.48837209302326    0.00000000000000    0.00000000000000             6
    0.49612403100775    0.00000000000000    0.00000000000000             6
    0.00775193798449    0.00775193798449    0.00000000000000             6
    0.01550387596899    0.00775193798449    0.00000000000000            12
    0.02325581395349    0.00775193798449    0.00000000000000            12
    0.03100775193798    0.00775193798449    0.00000000000000            12
    0.03875968992248    0.00775193798449    0.00000000000000            12
    0.04651162790697    0.00775193798449    0.00000000000000            12
    0.05426356589147    0.00775193798449    0.00000000000000            12
    0.06201550387597    0.00775193798449    0.00000000000000            12
    0.06976744186046    0.00775193798449    0.00000000000000            12
    0.07751937984496    0.00775193798449    0.00000000000000            12
    0.08527131782946    0.00775193798449    0.00000000000000            12
    0.09302325581395    0.00775193798449    0.00000000000000            12
    0.10077519379845    0.00775193798449    0.00000000000000            12
    0.10852713178294    0.00775193798449    0.00000000000000            12
    0.11627906976744    0.00775193798449    0.00000000000000            12
    0.12403100775194    0.00775193798449    0.00000000000000            12
    0.13178294573643    0.00775193798449    0.00000000000000            12
    0.13953488372093    0.00775193798449    0.00000000000000            12
    0.14728682170543    0.00775193798449    0.00000000000000            12
    0.15503875968992    0.00775193798449    0.00000000000000            12
    0.16279069767442    0.00775193798449    0.00000000000000            12
    0.17054263565891    0.00775193798449    0.00000000000000            12
    0.17829457364341    0.00775193798449    0.00000000000000            12
    0.18604651162791    0.00775193798449    0.00000000000000            12
    0.19379844961240    0.00775193798449    0.00000000000000            12
    0.20155038759690    0.00775193798449    0.00000000000000            12
    0.20930232558140    0.00775193798449    0.00000000000000            12
    0.21705426356589    0.00775193798449    0.00000000000000            12
    0.22480620155039    0.00775193798449    0.00000000000000            12
    0.23255813953488    0.00775193798449    0.00000000000000            12
    0.24031007751938    0.00775193798449    0.00000000000000            12
    0.24806201550388    0.00775193798449    0.00000000000000            12
    0.25581395348837    0.00775193798449    0.00000000000000            12
    0.26356589147287    0.00775193798449    0.00000000000000            12
    0.27131782945737    0.00775193798449    0.00000000000000            12
    0.27906976744186    0.00775193798449    0.00000000000000            12
    0.28682170542636    0.00775193798449    0.00000000000000            12
    0.29457364341085    0.00775193798449    0.00000000000000            12
    0.30232558139535    0.00775193798449    0.00000000000000            12
    0.31007751937985    0.00775193798449    0.00000000000000            12
    0.31782945736434    0.00775193798449    0.00000000000000            12
    0.32558139534883    0.00775193798449    0.00000000000000            12
    0.33333333333334    0.00775193798449    0.00000000000000            12
    0.34108527131783    0.00775193798449    0.00000000000000            12
    0.34883720930232    0.00775193798449    0.00000000000000            12
    0.35658914728682    0.00775193798449    0.00000000000000            12
    0.36434108527132    0.00775193798449    0.00000000000000            12
    0.37209302325581    0.00775193798449    0.00000000000000            12
    0.37984496124031    0.00775193798449    0.00000000000000            12
    0.38759689922480    0.00775193798449    0.00000000000000            12
    0.39534883720930    0.00775193798449    0.00000000000000            12
    0.40310077519380    0.00775193798449    0.00000000000000            12
    0.41085271317829    0.00775193798449    0.00000000000000            12
    0.41860465116279    0.00775193798449    0.00000000000000            12
    0.42635658914729    0.00775193798449    0.00000000000000            12
    0.43410852713178    0.00775193798449    0.00000000000000            12
    0.44186046511628    0.00775193798449    0.00000000000000            12
    0.44961240310077    0.00775193798449    0.00000000000000            12
    0.45736434108527    0.00775193798449    0.00000000000000            12
    0.46511627906977    0.00775193798449    0.00000000000000            12
    0.47286821705426    0.00775193798449    0.00000000000000            12
    0.48062015503876    0.00775193798449    0.00000000000000            12
    0.48837209302326    0.00775193798449    0.00000000000000            12
    0.49612403100775    0.00775193798449    0.00000000000000             6
    0.01550387596899    0.01550387596899    0.00000000000000             6
    0.02325581395349    0.01550387596899    0.00000000000000            12
    0.03100775193798    0.01550387596899    0.00000000000000            12
    0.03875968992248    0.01550387596899    0.00000000000000            12
    0.04651162790697    0.01550387596899    0.00000000000000            12
    0.05426356589147    0.01550387596899    0.00000000000000            12
    0.06201550387597    0.01550387596899    0.00000000000000            12
    0.06976744186046    0.01550387596899    0.00000000000000            12
    0.07751937984496    0.01550387596899    0.00000000000000            12
    0.08527131782946    0.01550387596899    0.00000000000000            12
    0.09302325581395    0.01550387596899    0.00000000000000            12
    0.10077519379845    0.01550387596899    0.00000000000000            12
    0.10852713178294    0.01550387596899    0.00000000000000            12
    0.11627906976744    0.01550387596899    0.00000000000000            12
    0.12403100775194    0.01550387596899    0.00000000000000            12
    0.13178294573643    0.01550387596899    0.00000000000000            12
    0.13953488372093    0.01550387596899    0.00000000000000            12
    0.14728682170543    0.01550387596899    0.00000000000000            12
    0.15503875968992    0.01550387596899    0.00000000000000            12
    0.16279069767442    0.01550387596899    0.00000000000000            12
    0.17054263565891    0.01550387596899    0.00000000000000            12
    0.17829457364341    0.01550387596899    0.00000000000000            12
    0.18604651162791    0.01550387596899    0.00000000000000            12
    0.19379844961240    0.01550387596899    0.00000000000000            12
    0.20155038759690    0.01550387596899    0.00000000000000            12
    0.20930232558140    0.01550387596899    0.00000000000000            12
    0.21705426356589    0.01550387596899    0.00000000000000            12
    0.22480620155039    0.01550387596899    0.00000000000000            12
    0.23255813953488    0.01550387596899    0.00000000000000            12
    0.24031007751938    0.01550387596899    0.00000000000000            12
    0.24806201550388    0.01550387596899    0.00000000000000            12
    0.25581395348837    0.01550387596899    0.00000000000000            12
    0.26356589147287    0.01550387596899    0.00000000000000            12
    0.27131782945737    0.01550387596899    0.00000000000000            12
    0.27906976744186    0.01550387596899    0.00000000000000            12
    0.28682170542636    0.01550387596899    0.00000000000000            12
    0.29457364341085    0.01550387596899    0.00000000000000            12
    0.30232558139535    0.01550387596899    0.00000000000000            12
    0.31007751937985    0.01550387596899    0.00000000000000            12
    0.31782945736434    0.01550387596899    0.00000000000000            12
    0.32558139534883    0.01550387596899    0.00000000000000            12
    0.33333333333334    0.01550387596899    0.00000000000000            12
    0.34108527131783    0.01550387596899    0.00000000000000            12
    0.34883720930232    0.01550387596899    0.00000000000000            12
    0.35658914728682    0.01550387596899    0.00000000000000            12
    0.36434108527132    0.01550387596899    0.00000000000000            12
    0.37209302325581    0.01550387596899    0.00000000000000            12
    0.37984496124031    0.01550387596899    0.00000000000000            12
    0.38759689922480    0.01550387596899    0.00000000000000            12
    0.39534883720930    0.01550387596899    0.00000000000000            12
    0.40310077519380    0.01550387596899    0.00000000000000            12
    0.41085271317829    0.01550387596899    0.00000000000000            12
    0.41860465116279    0.01550387596899    0.00000000000000            12
    0.42635658914729    0.01550387596899    0.00000000000000            12
    0.43410852713178    0.01550387596899    0.00000000000000            12
    0.44186046511628    0.01550387596899    0.00000000000000            12
    0.44961240310077    0.01550387596899    0.00000000000000            12
    0.45736434108527    0.01550387596899    0.00000000000000            12
    0.46511627906977    0.01550387596899    0.00000000000000            12
    0.47286821705426    0.01550387596899    0.00000000000000            12
    0.48062015503876    0.01550387596899    0.00000000000000            12
    0.48837209302326    0.01550387596899    0.00000000000000            12
    0.02325581395349    0.02325581395349    0.00000000000000             6
    0.03100775193798    0.02325581395349    0.00000000000000            12
    0.03875968992248    0.02325581395349    0.00000000000000            12
    0.04651162790697    0.02325581395349    0.00000000000000            12
    0.05426356589147    0.02325581395349    0.00000000000000            12
    0.06201550387597    0.02325581395349    0.00000000000000            12
    0.06976744186046    0.02325581395349    0.00000000000000            12
    0.07751937984496    0.02325581395349    0.00000000000000            12
    0.08527131782946    0.02325581395349    0.00000000000000            12
    0.09302325581395    0.02325581395349    0.00000000000000            12
    0.10077519379845    0.02325581395349    0.00000000000000            12
    0.10852713178294    0.02325581395349    0.00000000000000            12
    0.11627906976744    0.02325581395349    0.00000000000000            12
    0.12403100775194    0.02325581395349    0.00000000000000            12
    0.13178294573643    0.02325581395349    0.00000000000000            12
    0.13953488372093    0.02325581395349    0.00000000000000            12
    0.14728682170543    0.02325581395349    0.00000000000000            12
    0.15503875968992    0.02325581395349    0.00000000000000            12
    0.16279069767442    0.02325581395349    0.00000000000000            12
    0.17054263565891    0.02325581395349    0.00000000000000            12
    0.17829457364341    0.02325581395349    0.00000000000000            12
    0.18604651162791    0.02325581395349    0.00000000000000            12
    0.19379844961240    0.02325581395349    0.00000000000000            12
    0.20155038759690    0.02325581395349    0.00000000000000            12
    0.20930232558140    0.02325581395349    0.00000000000000            12
    0.21705426356589    0.02325581395349    0.00000000000000            12
    0.22480620155039    0.02325581395349    0.00000000000000            12
    0.23255813953488    0.02325581395349    0.00000000000000            12
    0.24031007751938    0.02325581395349    0.00000000000000            12
    0.24806201550388    0.02325581395349    0.00000000000000            12
    0.25581395348837    0.02325581395349    0.00000000000000            12
    0.26356589147287    0.02325581395349    0.00000000000000            12
    0.27131782945737    0.02325581395349    0.00000000000000            12
    0.27906976744186    0.02325581395349    0.00000000000000            12
    0.28682170542636    0.02325581395349    0.00000000000000            12
    0.29457364341085    0.02325581395349    0.00000000000000            12
    0.30232558139535    0.02325581395349    0.00000000000000            12
    0.31007751937985    0.02325581395349    0.00000000000000            12
    0.31782945736434    0.02325581395349    0.00000000000000            12
    0.32558139534883    0.02325581395349    0.00000000000000            12
    0.33333333333334    0.02325581395349    0.00000000000000            12
    0.34108527131783    0.02325581395349    0.00000000000000            12
    0.34883720930232    0.02325581395349    0.00000000000000            12
    0.35658914728682    0.02325581395349    0.00000000000000            12
    0.36434108527132    0.02325581395349    0.00000000000000            12
    0.37209302325581    0.02325581395349    0.00000000000000            12
    0.37984496124031    0.02325581395349    0.00000000000000            12
    0.38759689922480    0.02325581395349    0.00000000000000            12
    0.39534883720930    0.02325581395349    0.00000000000000            12
    0.40310077519380    0.02325581395349    0.00000000000000            12
    0.41085271317829    0.02325581395349    0.00000000000000            12
    0.41860465116279    0.02325581395349    0.00000000000000            12
    0.42635658914729    0.02325581395349    0.00000000000000            12
    0.43410852713178    0.02325581395349    0.00000000000000            12
    0.44186046511628    0.02325581395349    0.00000000000000            12
    0.44961240310077    0.02325581395349    0.00000000000000            12
    0.45736434108527    0.02325581395349    0.00000000000000            12
    0.46511627906977    0.02325581395349    0.00000000000000            12
    0.47286821705426    0.02325581395349    0.00000000000000            12
    0.48062015503876    0.02325581395349    0.00000000000000            12
    0.48837209302326    0.02325581395349    0.00000000000000             6
    0.03100775193798    0.03100775193798    0.00000000000000             6
    0.03875968992248    0.03100775193798    0.00000000000000            12
    0.04651162790697    0.03100775193798    0.00000000000000            12
    0.05426356589147    0.03100775193798    0.00000000000000            12
    0.06201550387597    0.03100775193798    0.00000000000000            12
    0.06976744186046    0.03100775193798    0.00000000000000            12
    0.07751937984496    0.03100775193798    0.00000000000000            12
    0.08527131782946    0.03100775193798    0.00000000000000            12
    0.09302325581395    0.03100775193798    0.00000000000000            12
    0.10077519379845    0.03100775193798    0.00000000000000            12
    0.10852713178294    0.03100775193798    0.00000000000000            12
    0.11627906976744    0.03100775193798    0.00000000000000            12
    0.12403100775194    0.03100775193798    0.00000000000000            12
    0.13178294573643    0.03100775193798    0.00000000000000            12
    0.13953488372093    0.03100775193798    0.00000000000000            12
    0.14728682170543    0.03100775193798    0.00000000000000            12
    0.15503875968992    0.03100775193798    0.00000000000000            12
    0.16279069767442    0.03100775193798    0.00000000000000            12
    0.17054263565891    0.03100775193798    0.00000000000000            12
    0.17829457364341    0.03100775193798    0.00000000000000            12
    0.18604651162791    0.03100775193798    0.00000000000000            12
    0.19379844961240    0.03100775193798    0.00000000000000            12
    0.20155038759690    0.03100775193798    0.00000000000000            12
    0.20930232558140    0.03100775193798    0.00000000000000            12
    0.21705426356589    0.03100775193798    0.00000000000000            12
    0.22480620155039    0.03100775193798    0.00000000000000            12
    0.23255813953488    0.03100775193798    0.00000000000000            12
    0.24031007751938    0.03100775193798    0.00000000000000            12
    0.24806201550388    0.03100775193798    0.00000000000000            12
    0.25581395348837    0.03100775193798    0.00000000000000            12
    0.26356589147287    0.03100775193798    0.00000000000000            12
    0.27131782945737    0.03100775193798    0.00000000000000            12
    0.27906976744186    0.03100775193798    0.00000000000000            12
    0.28682170542636    0.03100775193798    0.00000000000000            12
    0.29457364341085    0.03100775193798    0.00000000000000            12
    0.30232558139535    0.03100775193798    0.00000000000000            12
    0.31007751937985    0.03100775193798    0.00000000000000            12
    0.31782945736434    0.03100775193798    0.00000000000000            12
    0.32558139534883    0.03100775193798    0.00000000000000            12
    0.33333333333334    0.03100775193798    0.00000000000000            12
    0.34108527131783    0.03100775193798    0.00000000000000            12
    0.34883720930232    0.03100775193798    0.00000000000000            12
    0.35658914728682    0.03100775193798    0.00000000000000            12
    0.36434108527132    0.03100775193798    0.00000000000000            12
    0.37209302325581    0.03100775193798    0.00000000000000            12
    0.37984496124031    0.03100775193798    0.00000000000000            12
    0.38759689922480    0.03100775193798    0.00000000000000            12
    0.39534883720930    0.03100775193798    0.00000000000000            12
    0.40310077519380    0.03100775193798    0.00000000000000            12
    0.41085271317829    0.03100775193798    0.00000000000000            12
    0.41860465116279    0.03100775193798    0.00000000000000            12
    0.42635658914729    0.03100775193798    0.00000000000000            12
    0.43410852713178    0.03100775193798    0.00000000000000            12
    0.44186046511628    0.03100775193798    0.00000000000000            12
    0.44961240310077    0.03100775193798    0.00000000000000            12
    0.45736434108527    0.03100775193798    0.00000000000000            12
    0.46511627906977    0.03100775193798    0.00000000000000            12
    0.47286821705426    0.03100775193798    0.00000000000000            12
    0.48062015503876    0.03100775193798    0.00000000000000            12
    0.03875968992248    0.03875968992248    0.00000000000000             6
    0.04651162790697    0.03875968992248    0.00000000000000            12
    0.05426356589147    0.03875968992248    0.00000000000000            12
    0.06201550387597    0.03875968992248    0.00000000000000            12
    0.06976744186046    0.03875968992248    0.00000000000000            12
    0.07751937984496    0.03875968992248    0.00000000000000            12
    0.08527131782946    0.03875968992248    0.00000000000000            12
    0.09302325581395    0.03875968992248    0.00000000000000            12
    0.10077519379845    0.03875968992248    0.00000000000000            12
    0.10852713178294    0.03875968992248    0.00000000000000            12
    0.11627906976744    0.03875968992248    0.00000000000000            12
    0.12403100775194    0.03875968992248    0.00000000000000            12
    0.13178294573643    0.03875968992248    0.00000000000000            12
    0.13953488372093    0.03875968992248    0.00000000000000            12
    0.14728682170543    0.03875968992248    0.00000000000000            12
    0.15503875968992    0.03875968992248    0.00000000000000            12
    0.16279069767442    0.03875968992248    0.00000000000000            12
    0.17054263565891    0.03875968992248    0.00000000000000            12
    0.17829457364341    0.03875968992248    0.00000000000000            12
    0.18604651162791    0.03875968992248    0.00000000000000            12
    0.19379844961240    0.03875968992248    0.00000000000000            12
    0.20155038759690    0.03875968992248    0.00000000000000            12
    0.20930232558140    0.03875968992248    0.00000000000000            12
    0.21705426356589    0.03875968992248    0.00000000000000            12
    0.22480620155039    0.03875968992248    0.00000000000000            12
    0.23255813953488    0.03875968992248    0.00000000000000            12
    0.24031007751938    0.03875968992248    0.00000000000000            12
    0.24806201550388    0.03875968992248    0.00000000000000            12
    0.25581395348837    0.03875968992248    0.00000000000000            12
    0.26356589147287    0.03875968992248    0.00000000000000            12
    0.27131782945737    0.03875968992248    0.00000000000000            12
    0.27906976744186    0.03875968992248    0.00000000000000            12
    0.28682170542636    0.03875968992248    0.00000000000000            12
    0.29457364341085    0.03875968992248    0.00000000000000            12
    0.30232558139535    0.03875968992248    0.00000000000000            12
    0.31007751937985    0.03875968992248    0.00000000000000            12
    0.31782945736434    0.03875968992248    0.00000000000000            12
    0.32558139534883    0.03875968992248    0.00000000000000            12
    0.33333333333334    0.03875968992248    0.00000000000000            12
    0.34108527131783    0.03875968992248    0.00000000000000            12
    0.34883720930232    0.03875968992248    0.00000000000000            12
    0.35658914728682    0.03875968992248    0.00000000000000            12
    0.36434108527132    0.03875968992248    0.00000000000000            12
    0.37209302325581    0.03875968992248    0.00000000000000            12
    0.37984496124031    0.03875968992248    0.00000000000000            12
    0.38759689922480    0.03875968992248    0.00000000000000            12
    0.39534883720930    0.03875968992248    0.00000000000000            12
    0.40310077519380    0.03875968992248    0.00000000000000            12
    0.41085271317829    0.03875968992248    0.00000000000000            12
    0.41860465116279    0.03875968992248    0.00000000000000            12
    0.42635658914729    0.03875968992248    0.00000000000000            12
    0.43410852713178    0.03875968992248    0.00000000000000            12
    0.44186046511628    0.03875968992248    0.00000000000000            12
    0.44961240310077    0.03875968992248    0.00000000000000            12
    0.45736434108527    0.03875968992248    0.00000000000000            12
    0.46511627906977    0.03875968992248    0.00000000000000            12
    0.47286821705426    0.03875968992248    0.00000000000000            12
    0.48062015503876    0.03875968992248    0.00000000000000             6
    0.04651162790697    0.04651162790697    0.00000000000000             6
    0.05426356589147    0.04651162790697    0.00000000000000            12
    0.06201550387597    0.04651162790697    0.00000000000000            12
    0.06976744186046    0.04651162790697    0.00000000000000            12
    0.07751937984496    0.04651162790697    0.00000000000000            12
    0.08527131782946    0.04651162790697    0.00000000000000            12
    0.09302325581395    0.04651162790697    0.00000000000000            12
    0.10077519379845    0.04651162790697    0.00000000000000            12
    0.10852713178294    0.04651162790697    0.00000000000000            12
    0.11627906976744    0.04651162790697    0.00000000000000            12
    0.12403100775194    0.04651162790697    0.00000000000000            12
    0.13178294573643    0.04651162790697    0.00000000000000            12
    0.13953488372093    0.04651162790697    0.00000000000000            12
    0.14728682170543    0.04651162790697    0.00000000000000            12
    0.15503875968992    0.04651162790697    0.00000000000000            12
    0.16279069767442    0.04651162790697    0.00000000000000            12
    0.17054263565891    0.04651162790697    0.00000000000000            12
    0.17829457364341    0.04651162790697    0.00000000000000            12
    0.18604651162791    0.04651162790697    0.00000000000000            12
    0.19379844961240    0.04651162790697    0.00000000000000            12
    0.20155038759690    0.04651162790697    0.00000000000000            12
    0.20930232558140    0.04651162790697    0.00000000000000            12
    0.21705426356589    0.04651162790697    0.00000000000000            12
    0.22480620155039    0.04651162790697    0.00000000000000            12
    0.23255813953488    0.04651162790697    0.00000000000000            12
    0.24031007751938    0.04651162790697    0.00000000000000            12
    0.24806201550388    0.04651162790697    0.00000000000000            12
    0.25581395348837    0.04651162790697    0.00000000000000            12
    0.26356589147287    0.04651162790697    0.00000000000000            12
    0.27131782945737    0.04651162790697    0.00000000000000            12