Lattice                                 
           1
     4.360438    2.517500    0.000000
    -4.360438    2.517500    0.000000
     0.000000    0.000000   15.000000
   B    C 
     2    14
Direct configuration=     1
   0.33833034  0.66916432  0.10000000
   0.67165522  0.33584146  0.10000000
   0.16373946  0.31999962  0.10000000
   0.32250218  0.16126397  0.10000000
   0.16376430  0.84376384  0.10000000
   0.84623863  0.16123684  0.10000000
   0.68749850  0.84373000  0.10000000
   0.84626736  0.68499594  0.10000000
   0.16666600  0.33333300  0.32880000
   0.33333300  0.16666600  0.32880000
   0.16666600  0.83333300  0.32880000
   0.33333300  0.66666600  0.32880000
   0.66666600  0.33333300  0.32880000
   0.83333300  0.16666600  0.32880000
   0.66666600  0.83333300  0.32880000
   0.83333300  0.66666600  0.32880000
Direct configuration=     2
   0.33832840  0.66916304  0.10014634
   0.67167648  0.33581232  0.10014634
   0.16722290  0.32697692  0.09994760
   0.32947280  0.16474544  0.09994724
   0.16725364  0.84026422  0.09994761
   0.84274087  0.16472301  0.09994799
   0.68054530  0.84027293  0.09994818
   0.84276589  0.67804314  0.09994798
   0.16636123  0.33271979  0.32887042
   0.33271924  0.16636021  0.32887102
   0.16636127  0.83363934  0.32887041
   0.33332698  0.66666409  0.32860120
   0.66666153  0.33332974  0.32860121
   0.83363901  0.16636206  0.32886906
   0.66727749  0.83363772  0.32886832
   0.83363897  0.66727805  0.32886908
Direct configuration=     3
   0.33832982  0.66916398  0.10003921
   0.67166091  0.33583365  0.10003921
   0.16467287  0.32186922  0.09998596
   0.32437000  0.16219684  0.09998586
   0.16469929  0.84282610  0.09998596
   0.84530139  0.16217098  0.09998606
   0.68563536  0.84280366  0.09998611
   0.84532912  0.68313291  0.09998606
   0.16658434  0.33316869  0.32881887
   0.33316854  0.16658406  0.32881903
   0.16658435  0.83341509  0.32881887
   0.33333139  0.66666549  0.32874673
   0.66666480  0.33333213  0.32874673
   0.83341500  0.16658456  0.32881851
   0.66682985  0.83341465  0.32881831
   0.83341499  0.66683000  0.32881851
Direct configuration=     4
   0.33833488  0.66916456  0.10013863
   0.67166495  0.33583046  0.10013861
   0.16466712  0.32185651  0.09995042
   0.32435929  0.16218573  0.09995008
   0.16468542  0.84282863  0.09995042
   0.84531839  0.16217302  0.09995089
   0.68564309  0.84281759  0.09995103
   0.84533467  0.68314528  0.09995089
   0.16654869  0.33309915  0.32886435
   0.33309838  0.16654888  0.32886492
   0.16654869  0.83344923  0.32886435
   0.33333014  0.66666475  0.32861848
   0.66666344  0.33333155  0.32861848
   0.83344855  0.16654950  0.32886306
   0.66689772  0.83344870  0.32886234
   0.83344857  0.66689846  0.32886306
Direct configuration=     5
   0.33833668  0.66916477  0.10017407
   0.67166638  0.33582933  0.10017405
   0.16466508  0.32185197  0.09993775
   0.32435547  0.16218177  0.09993733
   0.16468047  0.84282953  0.09993775
   0.84532446  0.16217375  0.09993835
   0.68564585  0.84282255  0.09993852
   0.84533665  0.68314970  0.09993835
   0.16653599  0.33307436  0.32888056
   0.33307337  0.16653634  0.32888128
   0.16653597  0.83346141  0.32888056
   0.33332969  0.66666449  0.32857276
   0.66666296  0.33333134  0.32857276
   0.83346052  0.16653700  0.32887894
   0.66692191  0.83346083  0.32887804
   0.83346054  0.66692286  0.32887894
Direct configuration=     6
   0.33831967  0.66916572  0.10024051
   0.67166724  0.33583698  0.10024049
   0.16470515  0.32186669  0.09991374
   0.32435865  0.16218823  0.09991299
   0.16469884  0.84282218  0.09991374
   0.84530464  0.16216881  0.09991483
   0.68566579  0.84281695  0.09991514
   0.84530329  0.68314376  0.09991479
   0.16662689  0.33325814  0.32889400
   0.33325645  0.16662832  0.32889505
   0.16662691  0.83336772  0.32889400
   0.33332846  0.66666433  0.32853845
   0.66666215  0.33333058  0.32853844
   0.83336607  0.16662871  0.32889170
   0.66673574  0.83336736  0.32889044
   0.83336605  0.66673750  0.32889170
Direct configuration=     7
   0.33832986  0.66916515  0.10020070
   0.67166673  0.33583239  0.10020068
   0.16468114  0.32185787  0.09992812
   0.32435675  0.16218436  0.09992757
   0.16468784  0.84282658  0.09992813
   0.84531652  0.16217177  0.09992892
   0.68565384  0.84282031  0.09992915
   0.84532328  0.68314732  0.09992891
   0.16657242  0.33314801  0.32888595
   0.33314675  0.16657320  0.32888680
   0.16657242  0.83342386  0.32888595
   0.33332920  0.66666443  0.32855901
   0.66666263  0.33333104  0.32855901
   0.83342267  0.16657375  0.32888405
   0.66684730  0.83342337  0.32888301
   0.83342267  0.66684857  0.32888405
Direct configuration=     8
   0.33833002  0.66916514  0.10020008
   0.67166672  0.33583232  0.10020006
   0.16468077  0.32185774  0.09992835
   0.32435672  0.16218430  0.09992780
   0.16468767  0.84282665  0.09992835
   0.84531670  0.16217181  0.09992914
   0.68565365  0.84282036  0.09992937
   0.84532359  0.68314737  0.09992912
   0.16657158  0.33314631  0.32888582
   0.33314505  0.16657235  0.32888667
   0.16657158  0.83342473  0.32888582
   0.33332921  0.66666443  0.32855933
   0.66666264  0.33333104  0.32855932
   0.83342354  0.16657290  0.32888393
   0.66684902  0.83342424  0.32888289
   0.83342355  0.66685029  0.32888393
Direct configuration=     9
   0.33832995  0.66916515  0.10020037
   0.67166672  0.33583236  0.10020035
   0.16468094  0.32185780  0.09992824
   0.32435673  0.16218433  0.09992769
   0.16468775  0.84282662  0.09992825
   0.84531661  0.16217179  0.09992904
   0.68565374  0.84282034  0.09992926
   0.84532344  0.68314735  0.09992902
   0.16657197  0.33314711  0.32888588
   0.33314585  0.16657275  0.32888673
   0.16657197  0.83342432  0.32888588
   0.33332920  0.66666443  0.32855918
   0.66666264  0.33333104  0.32855918
   0.83342313  0.16657330  0.32888399
   0.66684822  0.83342383  0.32888295
   0.83342314  0.66684949  0.32888399
Direct configuration=    10
   0.33834044  0.66916791  0.10022263
   0.67166018  0.33583361  0.10022261
   0.16466435  0.32185607  0.09991956
   0.32436903  0.16217858  0.09991880
   0.16467069  0.84282326  0.09991955
   0.84533829  0.16218135  0.09992070
   0.68563690  0.84282312  0.09992112
   0.84534511  0.68314629  0.09992069
   0.16657087  0.33314683  0.32888269
   0.33314499  0.16657221  0.32888369
   0.16657088  0.83342376  0.32888269
   0.33332808  0.66666376  0.32857246
   0.66666139  0.33333056  0.32857246
   0.83342199  0.16657274  0.32888051
   0.66684686  0.83342330  0.32887933
   0.83342198  0.66684865  0.32888051
Direct configuration=    11
   0.33833984  0.66916775  0.10022134
   0.67166055  0.33583354  0.10022133
   0.16466531  0.32185617  0.09992006
   0.32436832  0.16217891  0.09991932
   0.16467167  0.84282345  0.09992005
   0.84533704  0.16218080  0.09992119
   0.68563788  0.84282296  0.09992159
   0.84534386  0.68314635  0.09992117
   0.16657093  0.33314685  0.32888287
   0.33314504  0.16657224  0.32888387
   0.16657094  0.83342380  0.32888288
   0.33332814  0.66666379  0.32857169
   0.66666146  0.33333059  0.32857169
   0.83342205  0.16657277  0.32888071
   0.66684694  0.83342333  0.32887954
   0.83342204  0.66684870  0.32888071
Direct configuration=    12
   0.33833641  0.66916779  0.10023233
   0.67166503  0.33583379  0.10023232
   0.16467610  0.32185698  0.09991560
   0.32436309  0.16217956  0.09991473
   0.16467911  0.84282446  0.09991560
   0.84533071  0.16217964  0.09991696
   0.68564570  0.84282365  0.09991747
   0.84533419  0.68314694  0.09991695
   0.16656832  0.33314272  0.32888117
   0.33314054  0.16657001  0.32888224
   0.16656833  0.83342531  0.32888117
   0.33332740  0.66666344  0.32857908
   0.66666072  0.33333021  0.32857908
   0.83342320  0.16657055  0.32887885
   0.66684996  0.83342484  0.32887760
   0.83342319  0.66685210  0.32887885
Direct configuration=    13
   0.33833461  0.66916782  0.10023811
   0.67166739  0.33583393  0.10023810
   0.16468177  0.32185741  0.09991326
   0.32436034  0.16217990  0.09991231
   0.16468303  0.84282499  0.09991326
   0.84532738  0.16217904  0.09991474
   0.68564981  0.84282402  0.09991531
   0.84532911  0.68314726  0.09991473
   0.16656695  0.33314055  0.32888027
   0.33313818  0.16656883  0.32888138
   0.16656695  0.83342610  0.32888027
   0.33332701  0.66666325  0.32858297
   0.66666033  0.33333001  0.32858296
   0.83342381  0.16656938  0.32887787
   0.66685155  0.83342563  0.32887659
   0.83342380  0.66685389  0.32887787
