   8   8   1   4
  0.4142730E+02  0.5051000E-09  0.5051000E-09  0.1500000E-08  0.5000000E-15
  1.000000000000000E-004
  CAR 
 PDoS                                    
     13.31260610    -19.37466217 4000     -2.22162738      1.00000000
    -19.375  0.0000E+00  0.0000E+00
    -19.366  0.0000E+00  0.0000E+00
    -19.358  0.0000E+00  0.0000E+00
    -19.350  0.0000E+00  0.0000E+00
    -19.342  0.0000E+00  0.0000E+00
    -19.334  0.0000E+00  0.0000E+00
    -19.326  0.0000E+00  0.0000E+00
    -19.317  0.0000E+00  0.0000E+00
    -19.309  0.0000E+00  0.0000E+00
    -19.301  0.0000E+00  0.0000E+00
    -19.293  0.0000E+00  0.0000E+00
    -19.285  0.0000E+00  0.0000E+00
    -19.277  0.0000E+00  0.0000E+00
    -19.268  0.0000E+00  0.0000E+00
    -19.260  0.0000E+00  0.0000E+00
    -19.252  0.0000E+00  0.0000E+00
    -19.244  0.0000E+00  0.0000E+00
    -19.236  0.0000E+00  0.0000E+00
    -19.228  0.0000E+00  0.0000E+00
    -19.219  0.0000E+00  0.0000E+00
    -19.211  0.0000E+00  0.0000E+00
    -19.203  0.0000E+00  0.0000E+00
    -19.195  0.0000E+00  0.0000E+00
    -19.187  0.0000E+00  0.0000E+00
    -19.178  0.0000E+00  0.0000E+00
    -19.170  0.0000E+00  0.0000E+00
    -19.162  0.0000E+00  0.0000E+00
    -19.154  0.0000E+00  0.0000E+00
    -19.146  0.0000E+00  0.0000E+00
    -19.138  0.0000E+00  0.0000E+00
    -19.129  0.0000E+00  0.0000E+00
    -19.121  0.0000E+00  0.0000E+00
    -19.113  0.0000E+00  0.0000E+00
    -19.105  0.0000E+00  0.0000E+00
    -19.097  0.0000E+00  0.0000E+00
    -19.089  0.0000E+00  0.0000E+00
    -19.080  0.0000E+00  0.0000E+00
    -19.072  0.0000E+00  0.0000E+00
    -19.064  0.0000E+00  0.0000E+00
    -19.056  0.0000E+00  0.0000E+00
    -19.048  0.0000E+00  0.0000E+00
    -19.040  0.0000E+00  0.0000E+00
    -19.031  0.0000E+00  0.0000E+00
    -19.023  0.0000E+00  0.0000E+00
    -19.015  0.0000E+00  0.0000E+00
    -19.007  0.0000E+00  0.0000E+00
    -18.999  0.0000E+00  0.0000E+00
    -18.990  0.0000E+00  0.0000E+00
    -18.982  0.0000E+00  0.0000E+00
    -18.974  0.0000E+00  0.0000E+00
    -18.966  0.0000E+00  0.0000E+00
    -18.958  0.0000E+00  0.0000E+00
    -18.950  0.0000E+00  0.0000E+00
    -18.941  0.0000E+00  0.0000E+00
    -18.933  0.0000E+00  0.0000E+00
    -18.925  0.0000E+00  0.0000E+00
    -18.917  0.0000E+00  0.0000E+00
    -18.909  0.0000E+00  0.0000E+00
    -18.901  0.0000E+00  0.0000E+00
    -18.892  0.0000E+00  0.0000E+00
    -18.884  0.0000E+00  0.0000E+00
    -18.876  0.0000E+00  0.0000E+00
    -18.868  0.0000E+00  0.0000E+00
    -18.860  0.0000E+00  0.0000E+00
    -18.852  0.0000E+00  0.0000E+00
    -18.843  0.0000E+00  0.0000E+00
    -18.835  0.0000E+00  0.0000E+00
    -18.827  0.0000E+00  0.0000E+00
    -18.819  0.0000E+00  0.0000E+00
    -18.811  0.0000E+00  0.0000E+00
    -18.802  0.0000E+00  0.0000E+00
    -18.794  0.0000E+00  0.0000E+00
    -18.786  0.0000E+00  0.0000E+00
    -18.778  0.0000E+00  0.0000E+00
    -18.770  0.0000E+00  0.0000E+00
    -18.762  0.0000E+00  0.0000E+00
    -18.753  0.0000E+00  0.0000E+00
    -18.745  0.0000E+00  0.0000E+00
    -18.737  0.0000E+00  0.0000E+00
    -18.729  0.0000E+00  0.0000E+00
    -18.721  0.0000E+00  0.0000E+00
    -18.713  0.0000E+00  0.0000E+00
    -18.704  0.0000E+00  0.0000E+00
    -18.696  0.0000E+00  0.0000E+00
    -18.688  0.0000E+00  0.0000E+00
    -18.680  0.0000E+00  0.0000E+00
    -18.672  0.0000E+00  0.0000E+00
    -18.664  0.0000E+00  0.0000E+00
    -18.655  0.0000E+00  0.0000E+00
    -18.647  0.0000E+00  0.0000E+00
    -18.639  0.0000E+00  0.0000E+00
    -18.631  0.0000E+00  0.0000E+00
    -18.623  0.0000E+00  0.0000E+00
    -18.614  0.0000E+00  0.0000E+00
    -18.606  0.0000E+00  0.0000E+00
    -18.598  0.0000E+00  0.0000E+00
    -18.590  0.0000E+00  0.0000E+00
    -18.582  0.0000E+00  0.0000E+00
    -18.574  0.0000E+00  0.0000E+00
    -18.565  0.0000E+00  0.0000E+00
    -18.557  0.0000E+00  0.0000E+00
    -18.549  0.0000E+00  0.0000E+00
    -18.541  0.0000E+00  0.0000E+00
    -18.533  0.0000E+00  0.0000E+00
    -18.525  0.0000E+00  0.0000E+00
    -18.516  0.0000E+00  0.0000E+00
    -18.508  0.0000E+00  0.0000E+00
    -18.500  0.0000E+00  0.0000E+00
    -18.492  0.0000E+00  0.0000E+00
    -18.484  0.0000E+00  0.0000E+00
    -18.476  0.4700E-16  0.3842E-18
    -18.467  0.9400E-16  0.1152E-17
    -18.459  0.4700E-15  0.4994E-17
    -18.451  0.1034E-14  0.1345E-16
    -18.443  0.2303E-14  0.3227E-16
    -18.435  0.6110E-14  0.8221E-16
    -18.426  0.1518E-13  0.2063E-15
    -18.418  0.3718E-13  0.5102E-15
    -18.410  0.8977E-13  0.1244E-14
    -18.402  0.2128E-12  0.2983E-14
    -18.394  0.5000E-12  0.7070E-14
    -18.386  0.1157E-11  0.1653E-13
    -18.377  0.2646E-11  0.3816E-13
    -18.369  0.5972E-11  0.8697E-13
    -18.361  0.1330E-10  0.1957E-12
    -18.353  0.2923E-10  0.4346E-12
    -18.345  0.6343E-10  0.9531E-12
    -18.337  0.1358E-09  0.2063E-11
    -18.328  0.2871E-09  0.4411E-11
    -18.320  0.5991E-09  0.9308E-11
    -18.312  0.1234E-08  0.1939E-10
    -18.304  0.2508E-08  0.3989E-10
    -18.296  0.5032E-08  0.8103E-10
    -18.288  0.9967E-08  0.1625E-09
    -18.279  0.1949E-07  0.3218E-09
    -18.271  0.3760E-07  0.6291E-09
    -18.263  0.7163E-07  0.1215E-08
    -18.255  0.1347E-06  0.2316E-08
    -18.247  0.2500E-06  0.4359E-08
    -18.238  0.4582E-06  0.8104E-08
    -18.230  0.8288E-06  0.1488E-07
    -18.222  0.1480E-05  0.2698E-07
    -18.214  0.2609E-05  0.4830E-07
    -18.206  0.4541E-05  0.8542E-07
    -18.198  0.7802E-05  0.1492E-06
    -18.189  0.1323E-04  0.2574E-06
    -18.181  0.2216E-04  0.4385E-06
    -18.173  0.3665E-04  0.7381E-06
    -18.165  0.5983E-04  0.1227E-05
    -18.157  0.9644E-04  0.2015E-05
    -18.149  0.1535E-03  0.3270E-05
    -18.140  0.2412E-03  0.5242E-05
    -18.132  0.3744E-03  0.8302E-05
    -18.124  0.5738E-03  0.1299E-04
    -18.116  0.8683E-03  0.2009E-04
    -18.108  0.1298E-02  0.3070E-04
    -18.100  0.1916E-02  0.4636E-04
    -18.091  0.2793E-02  0.6918E-04
    -18.083  0.4021E-02  0.1021E-03
    -18.075  0.5720E-02  0.1488E-03
    -18.067  0.8036E-02  0.2145E-03
    -18.059  0.1115E-01  0.3057E-03
    -18.050  0.1530E-01  0.4307E-03
    -18.042  0.2072E-01  0.6001E-03
    -18.034  0.2774E-01  0.8268E-03
    -18.026  0.3670E-01  0.1127E-02
    -18.018  0.4797E-01  0.1519E-02
    -18.010  0.6198E-01  0.2026E-02
    -18.001  0.7916E-01  0.2673E-02
    -17.993  0.9995E-01  0.3490E-02
    -17.985  0.1248E+00  0.4509E-02
    -17.977  0.1540E+00  0.5768E-02
    -17.969  0.1880E+00  0.7305E-02
    -17.961  0.2270E+00  0.9160E-02
    -17.952  0.2711E+00  0.1138E-01
    -17.944  0.3204E+00  0.1400E-01
    -17.936  0.3748E+00  0.1706E-01
    -17.928  0.4339E+00  0.2061E-01
    -17.920  0.4974E+00  0.2467E-01
    -17.912  0.5647E+00  0.2929E-01
    -17.903  0.6350E+00  0.3448E-01
    -17.895  0.7075E+00  0.4026E-01
    -17.887  0.7814E+00  0.4665E-01
    -17.879  0.8556E+00  0.5364E-01
    -17.871  0.9292E+00  0.6124E-01
    -17.862  0.1001E+01  0.6942E-01
    -17.854  0.1071E+01  0.7817E-01
    -17.846  0.1137E+01  0.8747E-01
    -17.838  0.1200E+01  0.9728E-01
    -17.830  0.1258E+01  0.1076E+00
    -17.822  0.1311E+01  0.1183E+00
    -17.813  0.1360E+01  0.1294E+00
    -17.805  0.1403E+01  0.1409E+00
    -17.797  0.1441E+01  0.1526E+00
    -17.789  0.1475E+01  0.1647E+00
    -17.781  0.1504E+01  0.1770E+00
    -17.773  0.1529E+01  0.1895E+00
    -17.764  0.1550E+01  0.2022E+00
    -17.756  0.1568E+01  0.2150E+00
    -17.748  0.1583E+01  0.2279E+00
    -17.740  0.1596E+01  0.2410E+00
    -17.732  0.1606E+01  0.2541E+00
    -17.724  0.1615E+01  0.2673E+00
    -17.715  0.1622E+01  0.2806E+00
    -17.707  0.1628E+01  0.2939E+00
    -17.699  0.1633E+01  0.3072E+00
    -17.691  0.1638E+01  0.3206E+00
    -17.683  0.1642E+01  0.3340E+00
    -17.674  0.1646E+01  0.3475E+00
    -17.666  0.1649E+01  0.3609E+00
    -17.658  0.1653E+01  0.3745E+00
    -17.650  0.1657E+01  0.3880E+00
    -17.642  0.1660E+01  0.4016E+00
    -17.634  0.1664E+01  0.4152E+00
    -17.625  0.1668E+01  0.4288E+00
    -17.617  0.1671E+01  0.4425E+00
    -17.609  0.1674E+01  0.4561E+00
    -17.601  0.1678E+01  0.4699E+00
    -17.593  0.1681E+01  0.4836E+00
    -17.585  0.1683E+01  0.4974E+00
    -17.576  0.1686E+01  0.5111E+00
    -17.568  0.1689E+01  0.5249E+00
    -17.560  0.1691E+01  0.5388E+00
    -17.552  0.1695E+01  0.5526E+00
    -17.544  0.1698E+01  0.5665E+00
    -17.536  0.1703E+01  0.5804E+00
    -17.527  0.1708E+01  0.5944E+00
    -17.519  0.1713E+01  0.6084E+00
    -17.511  0.1719E+01  0.6224E+00
    -17.503  0.1726E+01  0.6365E+00
    -17.495  0.1732E+01  0.6507E+00
    -17.487  0.1738E+01  0.6649E+00
    -17.478  0.1744E+01  0.6792E+00
    -17.470  0.1749E+01  0.6935E+00
    -17.462  0.1754E+01  0.7078E+00
    -17.454  0.1758E+01  0.7222E+00
    -17.446  0.1761E+01  0.7366E+00
    -17.437  0.1764E+01  0.7510E+00
    -17.429  0.1766E+01  0.7654E+00
    -17.421  0.1769E+01  0.7799E+00
    -17.413  0.1773E+01  0.7944E+00
    -17.405  0.1779E+01  0.8089E+00
    -17.397  0.1785E+01  0.8235E+00
    -17.388  0.1794E+01  0.8382E+00
    -17.380  0.1804E+01  0.8529E+00
    -17.372  0.1815E+01  0.8677E+00
    -17.364  0.1828E+01  0.8827E+00
    -17.356  0.1841E+01  0.8977E+00
    -17.348  0.1855E+01  0.9129E+00
    -17.339  0.1868E+01  0.9282E+00
    -17.331  0.1880E+01  0.9435E+00
    -17.323  0.1891E+01  0.9590E+00
    -17.315  0.1901E+01  0.9745E+00
    -17.307  0.1909E+01  0.9901E+00
    -17.299  0.1916E+01  0.1006E+01
    -17.290  0.1923E+01  0.1022E+01
    -17.282  0.1930E+01  0.1037E+01
    -17.274  0.1939E+01  0.1053E+01
    -17.266  0.1949E+01  0.1069E+01
    -17.258  0.1962E+01  0.1085E+01
    -17.249  0.1978E+01  0.1101E+01
    -17.241  0.1999E+01  0.1118E+01
    -17.233  0.2024E+01  0.1134E+01
    -17.225  0.2052E+01  0.1151E+01
    -17.217  0.2085E+01  0.1168E+01
    -17.209  0.2120E+01  0.1185E+01
    -17.200  0.2158E+01  0.1203E+01
    -17.192  0.2197E+01  0.1221E+01
    -17.184  0.2236E+01  0.1239E+01
    -17.176  0.2274E+01  0.1258E+01
    -17.168  0.2310E+01  0.1277E+01
    -17.160  0.2345E+01  0.1296E+01
    -17.151  0.2377E+01  0.1315E+01
    -17.143  0.2406E+01  0.1335E+01
    -17.135  0.2432E+01  0.1355E+01
    -17.127  0.2455E+01  0.1375E+01
    -17.119  0.2475E+01  0.1395E+01
    -17.111  0.2493E+01  0.1415E+01
    -17.102  0.2509E+01  0.1436E+01
    -17.094  0.2521E+01  0.1457E+01
    -17.086  0.2530E+01  0.1477E+01
    -17.078  0.2535E+01  0.1498E+01
    -17.070  0.2536E+01  0.1519E+01
    -17.061  0.2530E+01  0.1539E+01
    -17.053  0.2517E+01  0.1560E+01
    -17.045  0.2496E+01  0.1580E+01
    -17.037  0.2466E+01  0.1600E+01
    -17.029  0.2426E+01  0.1620E+01
    -17.021  0.2377E+01  0.1640E+01
    -17.012  0.2317E+01  0.1659E+01
    -17.004  0.2249E+01  0.1677E+01
    -16.996  0.2173E+01  0.1695E+01
    -16.988  0.2090E+01  0.1712E+01
    -16.980  0.2003E+01  0.1728E+01
    -16.972  0.1912E+01  0.1744E+01
    -16.963  0.1822E+01  0.1759E+01
    -16.955  0.1732E+01  0.1773E+01
    -16.947  0.1645E+01  0.1786E+01
    -16.939  0.1563E+01  0.1799E+01
    -16.931  0.1485E+01  0.1811E+01
    -16.923  0.1413E+01  0.1823E+01
    -16.914  0.1346E+01  0.1834E+01
    -16.906  0.1285E+01  0.1844E+01
    -16.898  0.1228E+01  0.1854E+01
    -16.890  0.1175E+01  0.1864E+01
    -16.882  0.1124E+01  0.1873E+01
    -16.873  0.1076E+01  0.1882E+01
    -16.865  0.1028E+01  0.1890E+01
    -16.857  0.9813E+00  0.1898E+01
    -16.849  0.9344E+00  0.1906E+01
    -16.841  0.8873E+00  0.1913E+01
    -16.833  0.8400E+00  0.1920E+01
    -16.824  0.7928E+00  0.1927E+01
    -16.816  0.7460E+00  0.1933E+01
    -16.808  0.7001E+00  0.1938E+01
    -16.800  0.6556E+00  0.1944E+01
    -16.792  0.6128E+00  0.1949E+01
    -16.784  0.5721E+00  0.1954E+01
    -16.775  0.5338E+00  0.1958E+01
    -16.767  0.4980E+00  0.1962E+01
    -16.759  0.4647E+00  0.1966E+01
    -16.751  0.4339E+00  0.1969E+01
    -16.743  0.4054E+00  0.1973E+01
    -16.735  0.3790E+00  0.1976E+01
    -16.726  0.3545E+00  0.1979E+01
    -16.718  0.3318E+00  0.1981E+01
    -16.710  0.3108E+00  0.1984E+01
    -16.702  0.2914E+00  0.1986E+01
    -16.694  0.2739E+00  0.1988E+01
    -16.685  0.2582E+00  0.1991E+01
    -16.677  0.2446E+00  0.1993E+01
    -16.669  0.2333E+00  0.1995E+01
    -16.661  0.2245E+00  0.1996E+01
    -16.653  0.2184E+00  0.1998E+01
    -16.645  0.2151E+00  0.2000E+01
    -16.636  0.2147E+00  0.2002E+01
    -16.628  0.2173E+00  0.2003E+01
    -16.620  0.2227E+00  0.2005E+01
    -16.612  0.2308E+00  0.2007E+01
    -16.604  0.2414E+00  0.2009E+01
    -16.596  0.2543E+00  0.2011E+01
    -16.587  0.2693E+00  0.2013E+01
    -16.579  0.2862E+00  0.2016E+01
    -16.571  0.3049E+00  0.2018E+01
    -16.563  0.3253E+00  0.2021E+01
    -16.555  0.3476E+00  0.2024E+01
    -16.547  0.3719E+00  0.2027E+01
    -16.538  0.3984E+00  0.2030E+01
    -16.530  0.4274E+00  0.2033E+01
    -16.522  0.4592E+00  0.2037E+01
    -16.514  0.4940E+00  0.2041E+01
    -16.506  0.5321E+00  0.2046E+01
    -16.497  0.5736E+00  0.2050E+01
    -16.489  0.6184E+00  0.2055E+01
    -16.481  0.6664E+00  0.2061E+01
    -16.473  0.7172E+00  0.2067E+01
    -16.465  0.7705E+00  0.2073E+01
    -16.457  0.8257E+00  0.2080E+01
    -16.448  0.8824E+00  0.2087E+01
    -16.440  0.9400E+00  0.2095E+01
    -16.432  0.9982E+00  0.2103E+01
    -16.424  0.1057E+01  0.2111E+01
    -16.416  0.1116E+01  0.2121E+01
    -16.408  0.1175E+01  0.2130E+01
    -16.399  0.1235E+01  0.2140E+01
    -16.391  0.1296E+01  0.2151E+01
    -16.383  0.1359E+01  0.2162E+01
    -16.375  0.1425E+01  0.2174E+01
    -16.367  0.1493E+01  0.2186E+01
    -16.359  0.1565E+01  0.2199E+01
    -16.350  0.1640E+01  0.2212E+01
    -16.342  0.1718E+01  0.2226E+01
    -16.334  0.1797E+01  0.2241E+01
    -16.326  0.1878E+01  0.2256E+01
    -16.318  0.1958E+01  0.2272E+01
    -16.309  0.2035E+01  0.2289E+01
    -16.301  0.2107E+01  0.2306E+01
    -16.293  0.2172E+01  0.2324E+01
    -16.285  0.2228E+01  0.2342E+01
    -16.277  0.2272E+01  0.2360E+01
    -16.269  0.2304E+01  0.2379E+01
    -16.260  0.2322E+01  0.2398E+01
    -16.252  0.2326E+01  0.2417E+01
    -16.244  0.2315E+01  0.2436E+01
    -16.236  0.2291E+01  0.2455E+01
    -16.228  0.2255E+01  0.2473E+01
    -16.220  0.2209E+01  0.2491E+01
    -16.211  0.2155E+01  0.2509E+01
    -16.203  0.2096E+01  0.2526E+01
    -16.195  0.2033E+01  0.2543E+01
    -16.187  0.1970E+01  0.2559E+01
    -16.179  0.1909E+01  0.2575E+01
    -16.171  0.1852E+01  0.2590E+01
    -16.162  0.1800E+01  0.2604E+01
    -16.154  0.1755E+01  0.2619E+01
    -16.146  0.1716E+01  0.2633E+01
    -16.138  0.1685E+01  0.2647E+01
    -16.130  0.1661E+01  0.2660E+01
    -16.121  0.1642E+01  0.2674E+01
    -16.113  0.1629E+01  0.2687E+01
    -16.105  0.1619E+01  0.2700E+01
    -16.097  0.1611E+01  0.2713E+01
    -16.089  0.1605E+01  0.2726E+01
    -16.081  0.1597E+01  0.2739E+01
    -16.072  0.1588E+01  0.2752E+01
    -16.064  0.1577E+01  0.2765E+01
    -16.056  0.1561E+01  0.2778E+01
    -16.048  0.1542E+01  0.2791E+01
    -16.040  0.1518E+01  0.2803E+01
    -16.032  0.1491E+01  0.2815E+01
    -16.023  0.1459E+01  0.2827E+01
    -16.015  0.1425E+01  0.2839E+01
    -16.007  0.1388E+01  0.2850E+01
    -15.999  0.1349E+01  0.2861E+01
    -15.991  0.1310E+01  0.2872E+01
    -15.983  0.1272E+01  0.2882E+01
    -15.974  0.1235E+01  0.2892E+01
    -15.966  0.1202E+01  0.2902E+01
    -15.958  0.1172E+01  0.2912E+01
    -15.950  0.1147E+01  0.2921E+01
    -15.942  0.1127E+01  0.2930E+01
    -15.933  0.1113E+01  0.2939E+01
    -15.925  0.1105E+01  0.2948E+01
    -15.917  0.1103E+01  0.2957E+01
    -15.909  0.1106E+01  0.2967E+01
    -15.901  0.1114E+01  0.2976E+01
    -15.893  0.1126E+01  0.2985E+01
    -15.884  0.1141E+01  0.2994E+01
    -15.876  0.1157E+01  0.3004E+01
    -15.868  0.1173E+01  0.3013E+01
    -15.860  0.1188E+01  0.3023E+01
    -15.852  0.1201E+01  0.3033E+01
    -15.844  0.1209E+01  0.3043E+01
    -15.835  0.1213E+01  0.3053E+01
    -15.827  0.1211E+01  0.3062E+01
    -15.819  0.1203E+01  0.3072E+01
    -15.811  0.1189E+01  0.3082E+01
    -15.803  0.1170E+01  0.3092E+01
    -15.795  0.1145E+01  0.3101E+01
    -15.786  0.1116E+01  0.3110E+01
    -15.778  0.1085E+01  0.3119E+01
    -15.770  0.1051E+01  0.3127E+01
    -15.762  0.1017E+01  0.3136E+01
    -15.754  0.9833E+00  0.3144E+01
    -15.745  0.9515E+00  0.3152E+01
    -15.737  0.9224E+00  0.3159E+01
    -15.729  0.8968E+00  0.3166E+01
    -15.721  0.8751E+00  0.3174E+01
    -15.713  0.8577E+00  0.3181E+01
    -15.705  0.8448E+00  0.3188E+01
    -15.696  0.8362E+00  0.3194E+01
    -15.688  0.8320E+00  0.3201E+01
    -15.680  0.8317E+00  0.3208E+01
    -15.672  0.8351E+00  0.3215E+01
    -15.664  0.8418E+00  0.3222E+01
    -15.656  0.8515E+00  0.3229E+01
    -15.647  0.8637E+00  0.3236E+01
    -15.639  0.8778E+00  0.3243E+01
    -15.631  0.8934E+00  0.3250E+01
    -15.623  0.9098E+00  0.3258E+01
    -15.615  0.9263E+00  0.3265E+01
    -15.607  0.9422E+00  0.3273E+01
    -15.598  0.9565E+00  0.3281E+01
    -15.590  0.9685E+00  0.3289E+01
    -15.582  0.9773E+00  0.3297E+01
    -15.574  0.9821E+00  0.3305E+01
    -15.566  0.9822E+00  0.3313E+01
    -15.557  0.9770E+00  0.3321E+01
    -15.549  0.9663E+00  0.3329E+01
    -15.541  0.9500E+00  0.3336E+01
    -15.533  0.9284E+00  0.3344E+01
    -15.525  0.9018E+00  0.3351E+01
    -15.517  0.8712E+00  0.3358E+01
    -15.508  0.8374E+00  0.3365E+01
    -15.500  0.8018E+00  0.3372E+01
    -15.492  0.7655E+00  0.3378E+01
    -15.484  0.7301E+00  0.3384E+01
    -15.476  0.6967E+00  0.3390E+01
    -15.468  0.6668E+00  0.3395E+01
    -15.459  0.6412E+00  0.3400E+01
    -15.451  0.6210E+00  0.3405E+01
    -15.443  0.6067E+00  0.3410E+01
    -15.435  0.5986E+00  0.3415E+01
    -15.427  0.5967E+00  0.3420E+01
    -15.419  0.6007E+00  0.3425E+01
    -15.410  0.6101E+00  0.3430E+01
    -15.402  0.6240E+00  0.3435E+01
    -15.394  0.6416E+00  0.3440E+01
    -15.386  0.6618E+00  0.3446E+01
    -15.378  0.6836E+00  0.3451E+01
    -15.369  0.7058E+00  0.3457E+01
    -15.361  0.7275E+00  0.3463E+01
    -15.353  0.7478E+00  0.3469E+01
    -15.345  0.7658E+00  0.3476E+01
    -15.337  0.7809E+00  0.3482E+01
    -15.329  0.7926E+00  0.3488E+01
    -15.320  0.8004E+00  0.3495E+01
    -15.312  0.8043E+00  0.3502E+01
    -15.304  0.8040E+00  0.3508E+01
    -15.296  0.7997E+00  0.3515E+01
    -15.288  0.7914E+00  0.3521E+01
    -15.280  0.7793E+00  0.3527E+01
    -15.271  0.7639E+00  0.3534E+01
    -15.263  0.7454E+00  0.3540E+01
    -15.255  0.7242E+00  0.3546E+01
    -15.247  0.7010E+00  0.3551E+01
    -15.239  0.6761E+00  0.3557E+01
    -15.231  0.6501E+00  0.3562E+01
    -15.222  0.6235E+00  0.3567E+01
    -15.214  0.5968E+00  0.3572E+01
    -15.206  0.5706E+00  0.3577E+01
    -15.198  0.5454E+00  0.3581E+01
    -15.190  0.5217E+00  0.3586E+01
    -15.181  0.4998E+00  0.3590E+01
    -15.173  0.4804E+00  0.3594E+01
    -15.165  0.4639E+00  0.3597E+01
    -15.157  0.4506E+00  0.3601E+01
    -15.149  0.4410E+00  0.3605E+01
    -15.141  0.4353E+00  0.3608E+01
    -15.132  0.4340E+00  0.3612E+01
    -15.124  0.4370E+00  0.3615E+01
    -15.116  0.4444E+00  0.3619E+01
    -15.108  0.4562E+00  0.3623E+01
    -15.100  0.4720E+00  0.3627E+01
    -15.092  0.4913E+00  0.3631E+01
    -15.083  0.5135E+00  0.3635E+01
    -15.075  0.5377E+00  0.3639E+01
    -15.067  0.5629E+00  0.3644E+01
    -15.059  0.5881E+00  0.3649E+01
    -15.051  0.6121E+00  0.3654E+01
    -15.043  0.6337E+00  0.3659E+01
    -15.034  0.6519E+00  0.3664E+01
    -15.026  0.6658E+00  0.3670E+01
    -15.018  0.6745E+00  0.3675E+01
    -15.010  0.6775E+00  0.3681E+01
    -15.002  0.6745E+00  0.3686E+01
    -14.993  0.6656E+00  0.3692E+01
    -14.985  0.6510E+00  0.3697E+01
    -14.977  0.6311E+00  0.3702E+01
    -14.969  0.6069E+00  0.3707E+01
    -14.961  0.5790E+00  0.3712E+01
    -14.953  0.5487E+00  0.3716E+01
    -14.944  0.5170E+00  0.3721E+01
    -14.936  0.4850E+00  0.3724E+01
    -14.928  0.4538E+00  0.3728E+01
    -14.920  0.4243E+00  0.3732E+01
    -14.912  0.3974E+00  0.3735E+01
    -14.904  0.3737E+00  0.3738E+01
    -14.895  0.3536E+00  0.3741E+01
    -14.887  0.3374E+00  0.3744E+01
    -14.879  0.3252E+00  0.3746E+01
    -14.871  0.3169E+00  0.3749E+01
    -14.863  0.3123E+00  0.3751E+01
    -14.855  0.3111E+00  0.3754E+01
    -14.846  0.3129E+00  0.3756E+01
    -14.838  0.3174E+00  0.3759E+01
    -14.830  0.3243E+00  0.3762E+01
    -14.822  0.3334E+00  0.3764E+01
    -14.814  0.3446E+00  0.3767E+01
    -14.805  0.3578E+00  0.3770E+01
    -14.797  0.3731E+00  0.3773E+01
    -14.789  0.3907E+00  0.3776E+01
    -14.781  0.4108E+00  0.3780E+01
    -14.773  0.4337E+00  0.3783E+01
    -14.765  0.4594E+00  0.3787E+01
    -14.756  0.4883E+00  0.3791E+01
    -14.748  0.5203E+00  0.3795E+01
    -14.740  0.5555E+00  0.3800E+01
    -14.732  0.5935E+00  0.3805E+01
    -14.724  0.6343E+00  0.3810E+01
    -14.716  0.6772E+00  0.3815E+01
    -14.707  0.7218E+00  0.3821E+01
    -14.699  0.7675E+00  0.3828E+01
    -14.691  0.8137E+00  0.3834E+01
    -14.683  0.8598E+00  0.3841E+01
    -14.675  0.9054E+00  0.3849E+01
    -14.667  0.9499E+00  0.3856E+01
    -14.658  0.9930E+00  0.3865E+01
    -14.650  0.1034E+01  0.3873E+01
    -14.642  0.1074E+01  0.3882E+01
    -14.634  0.1112E+01  0.3891E+01
    -14.626  0.1148E+01  0.3900E+01
    -14.617  0.1182E+01  0.3910E+01
    -14.609  0.1215E+01  0.3920E+01
    -14.601  0.1247E+01  0.3930E+01
    -14.593  0.1278E+01  0.3941E+01
    -14.585  0.1308E+01  0.3951E+01
    -14.577  0.1337E+01  0.3962E+01
    -14.568  0.1366E+01  0.3973E+01
    -14.560  0.1395E+01  0.3985E+01
    -14.552  0.1424E+01  0.3996E+01
    -14.544  0.1453E+01  0.4008E+01
    -14.536  0.1483E+01  0.4020E+01
    -14.528  0.1513E+01  0.4033E+01
    -14.519  0.1545E+01  0.4045E+01
    -14.511  0.1577E+01  0.4058E+01
    -14.503  0.1611E+01  0.4071E+01
    -14.495  0.1645E+01  0.4085E+01
    -14.487  0.1681E+01  0.4099E+01
    -14.479  0.1717E+01  0.4113E+01
    -14.470  0.1753E+01  0.4127E+01
    -14.462  0.1790E+01  0.4142E+01
    -14.454  0.1825E+01  0.4157E+01
    -14.446  0.1859E+01  0.4172E+01
    -14.438  0.1890E+01  0.4187E+01
    -14.429  0.1919E+01  0.4203E+01
    -14.421  0.1944E+01  0.4219E+01
    -14.413  0.1964E+01  0.4235E+01
    -14.405  0.1980E+01  0.4251E+01
    -14.397  0.1991E+01  0.4267E+01
    -14.389  0.1997E+01  0.4284E+01
    -14.380  0.1999E+01  0.4300E+01
    -14.372  0.1998E+01  0.4316E+01
    -14.364  0.1993E+01  0.4333E+01
    -14.356  0.1988E+01  0.4349E+01
    -14.348  0.1981E+01  0.4365E+01
    -14.340  0.1975E+01  0.4381E+01
    -14.331  0.1971E+01  0.4397E+01
    -14.323  0.1969E+01  0.4413E+01
    -14.315  0.1971E+01  0.4429E+01
    -14.307  0.1976E+01  0.4446E+01
    -14.299  0.1984E+01  0.4462E+01
    -14.291  0.1996E+01  0.4478E+01
    -14.282  0.2011E+01  0.4495E+01
    -14.274  0.2028E+01  0.4511E+01
    -14.266  0.2046E+01  0.4528E+01
    -14.258  0.2065E+01  0.4545E+01
    -14.250  0.2083E+01  0.4562E+01
    -14.241  0.2101E+01  0.4579E+01
    -14.233  0.2119E+01  0.4596E+01
    -14.225  0.2135E+01  0.4614E+01
    -14.217  0.2152E+01  0.4631E+01
    -14.209  0.2169E+01  0.4649E+01
    -14.201  0.2188E+01  0.4667E+01
    -14.192  0.2209E+01  0.4685E+01
    -14.184  0.2236E+01  0.4703E+01
    -14.176  0.2267E+01  0.4722E+01
    -14.168  0.2306E+01  0.4741E+01
    -14.160  0.2352E+01  0.4760E+01
    -14.152  0.2405E+01  0.4780E+01
    -14.143  0.2466E+01  0.4800E+01
    -14.135  0.2535E+01  0.4820E+01
    -14.127  0.2609E+01  0.4842E+01
    -14.119  0.2688E+01  0.4864E+01
    -14.111  0.2769E+01  0.4886E+01
    -14.103  0.2852E+01  0.4910E+01
    -14.094  0.2933E+01  0.4934E+01
    -14.086  0.3010E+01  0.4958E+01
    -14.078  0.3082E+01  0.4983E+01
    -14.070  0.3146E+01  0.5009E+01
    -14.062  0.3202E+01  0.5035E+01
    -14.053  0.3247E+01  0.5062E+01
    -14.045  0.3281E+01  0.5089E+01
    -14.037  0.3303E+01  0.5116E+01
    -14.029  0.3314E+01  0.5143E+01
    -14.021  0.3313E+01  0.5170E+01
    -14.013  0.3300E+01  0.5197E+01
    -14.004  0.3277E+01  0.5224E+01
    -13.996  0.3243E+01  0.5250E+01
    -13.988  0.3201E+01  0.5276E+01
    -13.980  0.3151E+01  0.5302E+01
    -13.972  0.3093E+01  0.5327E+01
    -13.964  0.3031E+01  0.5352E+01
    -13.955  0.2964E+01  0.5376E+01
    -13.947  0.2893E+01  0.5400E+01
    -13.939  0.2821E+01  0.5423E+01
    -13.931  0.2748E+01  0.5445E+01
    -13.923  0.2675E+01  0.5467E+01
    -13.915  0.2604E+01  0.5489E+01
    -13.906  0.2534E+01  0.5509E+01
    -13.898  0.2467E+01  0.5529E+01
    -13.890  0.2403E+01  0.5549E+01
    -13.882  0.2342E+01  0.5568E+01
    -13.874  0.2285E+01  0.5587E+01
    -13.865  0.2231E+01  0.5605E+01
    -13.857  0.2180E+01  0.5623E+01
    -13.849  0.2133E+01  0.5640E+01
    -13.841  0.2088E+01  0.5657E+01
    -13.833  0.2047E+01  0.5674E+01
    -13.825  0.2007E+01  0.5691E+01
    -13.816  0.1969E+01  0.5707E+01
    -13.808  0.1933E+01  0.5723E+01
    -13.800  0.1898E+01  0.5738E+01
    -13.792  0.1864E+01  0.5753E+01
    -13.784  0.1829E+01  0.5768E+01
    -13.776  0.1794E+01  0.5783E+01
    -13.767  0.1758E+01  0.5797E+01
    -13.759  0.1721E+01  0.5811E+01
    -13.751  0.1681E+01  0.5825E+01
    -13.743  0.1639E+01  0.5838E+01
    -13.735  0.1594E+01  0.5851E+01
    -13.727  0.1545E+01  0.5864E+01
    -13.718  0.1492E+01  0.5876E+01
    -13.710  0.1435E+01  0.5888E+01
    -13.702  0.1374E+01  0.5899E+01
    -13.694  0.1309E+01  0.5910E+01
    -13.686  0.1240E+01  0.5920E+01
    -13.677  0.1168E+01  0.5930E+01
    -13.669  0.1093E+01  0.5939E+01
    -13.661  0.1015E+01  0.5947E+01
    -13.653  0.9365E+00  0.5955E+01
    -13.645  0.8572E+00  0.5962E+01
    -13.637  0.7785E+00  0.5968E+01
    -13.628  0.7010E+00  0.5974E+01
    -13.620  0.6258E+00  0.5979E+01
    -13.612  0.5537E+00  0.5983E+01
    -13.604  0.4854E+00  0.5987E+01
    -13.596  0.4214E+00  0.5991E+01
    -13.588  0.3624E+00  0.5994E+01
    -13.579  0.3086E+00  0.5996E+01
    -13.571  0.2601E+00  0.5998E+01
    -13.563  0.2171E+00  0.6000E+01
    -13.555  0.1795E+00  0.6002E+01
    -13.547  0.1470E+00  0.6003E+01
    -13.539  0.1195E+00  0.6004E+01
    -13.530  0.9652E-01  0.6005E+01
    -13.522  0.7780E-01  0.6005E+01
    -13.514  0.6296E-01  0.6006E+01
    -13.506  0.5163E-01  0.6006E+01
    -13.498  0.4350E-01  0.6006E+01
    -13.489  0.3828E-01  0.6007E+01
    -13.481  0.3571E-01  0.6007E+01
    -13.473  0.3559E-01  0.6007E+01
    -13.465  0.3777E-01  0.6008E+01
    -13.457  0.4211E-01  0.6008E+01
    -13.449  0.4849E-01  0.6008E+01
    -13.440  0.5682E-01  0.6009E+01
    -13.432  0.6698E-01  0.6009E+01
    -13.424  0.7881E-01  0.6010E+01
    -13.416  0.9212E-01  0.6011E+01
    -13.408  0.1067E+00  0.6012E+01
    -13.400  0.1222E+00  0.6013E+01
    -13.391  0.1383E+00  0.6014E+01
    -13.383  0.1546E+00  0.6015E+01
    -13.375  0.1705E+00  0.6016E+01
    -13.367  0.1857E+00  0.6018E+01
    -13.359  0.1995E+00  0.6020E+01
    -13.351  0.2116E+00  0.6021E+01
    -13.342  0.2215E+00  0.6023E+01
    -13.334  0.2287E+00  0.6025E+01
    -13.326  0.2332E+00  0.6027E+01
    -13.318  0.2346E+00  0.6029E+01
    -13.310  0.2329E+00  0.6031E+01
    -13.301  0.2283E+00  0.6033E+01
    -13.293  0.2211E+00  0.6034E+01
    -13.285  0.2114E+00  0.6036E+01
    -13.277  0.1998E+00  0.6038E+01
    -13.269  0.1868E+00  0.6039E+01
    -13.261  0.1730E+00  0.6041E+01
    -13.252  0.1590E+00  0.6042E+01
    -13.244  0.1453E+00  0.6043E+01
    -13.236  0.1327E+00  0.6044E+01
    -13.228  0.1215E+00  0.6045E+01
    -13.220  0.1122E+00  0.6046E+01
    -13.212  0.1054E+00  0.6047E+01
    -13.203  0.1013E+00  0.6048E+01
    -13.195  0.1001E+00  0.6049E+01
    -13.187  0.1021E+00  0.6050E+01
    -13.179  0.1072E+00  0.6050E+01
    -13.171  0.1155E+00  0.6051E+01
    -13.163  0.1268E+00  0.6052E+01
    -13.154  0.1411E+00  0.6054E+01
    -13.146  0.1579E+00  0.6055E+01
    -13.138  0.1770E+00  0.6056E+01
    -13.130  0.1979E+00  0.6058E+01
    -13.122  0.2202E+00  0.6060E+01
    -13.113  0.2433E+00  0.6062E+01
    -13.105  0.2668E+00  0.6064E+01
    -13.097  0.2900E+00  0.6066E+01
    -13.089  0.3123E+00  0.6069E+01
    -13.081  0.3333E+00  0.6072E+01
    -13.073  0.3523E+00  0.6074E+01
    -13.064  0.3689E+00  0.6077E+01
    -13.056  0.3828E+00  0.6081E+01
    -13.048  0.3935E+00  0.6084E+01
    -13.040  0.4008E+00  0.6087E+01
    -13.032  0.4046E+00  0.6090E+01
    -13.024  0.4050E+00  0.6094E+01
    -13.015  0.4019E+00  0.6097E+01
    -13.007  0.3955E+00  0.6100E+01
    -12.999  0.3863E+00  0.6103E+01
    -12.991  0.3747E+00  0.6106E+01
    -12.983  0.3612E+00  0.6109E+01
    -12.975  0.3465E+00  0.6112E+01
    -12.966  0.3314E+00  0.6115E+01
    -12.958  0.3167E+00  0.6117E+01
    -12.950  0.3034E+00  0.6120E+01
    -12.942  0.2924E+00  0.6122E+01
    -12.934  0.2847E+00  0.6125E+01
    -12.925  0.2812E+00  0.6127E+01
    -12.917  0.2828E+00  0.6129E+01
    -12.909  0.2903E+00  0.6132E+01
    -12.901  0.3044E+00  0.6134E+01
    -12.893  0.3256E+00  0.6137E+01
    -12.885  0.3542E+00  0.6140E+01
    -12.876  0.3903E+00  0.6143E+01
    -12.868  0.4340E+00  0.6146E+01
    -12.860  0.4848E+00  0.6150E+01
    -12.852  0.5423E+00  0.6155E+01
    -12.844  0.6058E+00  0.6160E+01
    -12.836  0.6746E+00  0.6165E+01
    -12.827  0.7476E+00  0.6171E+01
    -12.819  0.8240E+00  0.6178E+01
    -12.811  0.9028E+00  0.6186E+01
    -12.803  0.9831E+00  0.6194E+01
    -12.795  0.1064E+01  0.6202E+01
    -12.787  0.1145E+01  0.6212E+01
    -12.778  0.1227E+01  0.6222E+01
    -12.770  0.1308E+01  0.6232E+01
    -12.762  0.1389E+01  0.6244E+01
    -12.754  0.1471E+01  0.6256E+01
    -12.746  0.1554E+01  0.6268E+01
    -12.737  0.1640E+01  0.6282E+01
    -12.729  0.1728E+01  0.6296E+01
    -12.721  0.1820E+01  0.6311E+01
    -12.713  0.1916E+01  0.6326E+01
    -12.705  0.2017E+01  0.6343E+01
    -12.697  0.2122E+01  0.6360E+01
    -12.688  0.2232E+01  0.6379E+01
    -12.680  0.2345E+01  0.6398E+01
    -12.672  0.2460E+01  0.6418E+01
    -12.664  0.2574E+01  0.6439E+01
    -12.656  0.2686E+01  0.6461E+01
    -12.648  0.2793E+01  0.6484E+01
    -12.639  0.2891E+01  0.6507E+01
    -12.631  0.2977E+01  0.6532E+01