Automatically generated mesh
      81
Reciprocal lattice
    0.00000000000000    0.00000000000000    0.00000000000000             1
    0.05882352941177    0.00000000000000    0.00000000000000             4
   -0.05882352941177    0.05882352941177    0.00000000000000             2
    0.11764705882353    0.00000000000000    0.00000000000000             4
   -0.11764705882353    0.11764705882353    0.00000000000000             2
    0.17647058823530    0.00000000000000    0.00000000000000             4
   -0.17647058823530    0.17647058823530    0.00000000000000             2
    0.23529411764706    0.00000000000000    0.00000000000000             4
   -0.23529411764706    0.23529411764706    0.00000000000000             2
    0.29411764705883    0.00000000000000    0.00000000000000             4
   -0.29411764705883    0.29411764705883    0.00000000000000             2
    0.35294117647059    0.00000000000000    0.00000000000000             4
   -0.35294117647059    0.35294117647059    0.00000000000000             2
    0.41176470588235    0.00000000000000    0.00000000000000             4
   -0.41176470588235    0.41176470588235    0.00000000000000             2
    0.47058823529412    0.00000000000000    0.00000000000000             4
   -0.47058823529412    0.47058823529412    0.00000000000000             2
    0.05882352941177    0.05882352941177    0.00000000000000             2
   -0.05882352941177    0.11764705882354    0.00000000000000             4
    0.11764705882353    0.05882352941177    0.00000000000000             4
   -0.05882352941177    0.17647058823530    0.00000000000000             4
   -0.17647058823530    0.11764705882353    0.00000000000000             4
    0.17647058823530    0.05882352941177    0.00000000000000             4
   -0.05882352941177    0.23529411764707    0.00000000000000             4
   -0.23529411764707    0.17647058823530    0.00000000000000             4
    0.23529411764706    0.05882352941177    0.00000000000000             4
   -0.05882352941177    0.29411764705883    0.00000000000000             4
   -0.29411764705883    0.23529411764706    0.00000000000000             4
    0.29411764705883    0.05882352941177    0.00000000000000             4
   -0.05882352941177    0.35294117647059    0.00000000000000             4
   -0.35294117647059    0.29411764705883    0.00000000000000             4
    0.35294117647059    0.05882352941177    0.00000000000000             4
   -0.05882352941177    0.41176470588235    0.00000000000000             4
   -0.41176470588235    0.35294117647059    0.00000000000000             4
    0.41176470588235    0.05882352941177    0.00000000000000             4
   -0.05882352941177    0.47058823529412    0.00000000000000             4
   -0.47058823529412    0.41176470588235    0.00000000000000             4
    0.47058823529412    0.05882352941177    0.00000000000000             4
    0.47058823529412    0.47058823529412    0.00000000000000             2
    0.11764705882353    0.11764705882353    0.00000000000000             2
   -0.11764705882353    0.23529411764706    0.00000000000000             4
    0.17647058823530    0.11764705882353    0.00000000000000             4
   -0.11764705882353    0.29411764705883    0.00000000000000             4
   -0.29411764705883    0.17647058823530    0.00000000000000             4
    0.23529411764706    0.11764705882353    0.00000000000000             4
   -0.11764705882353    0.35294117647059    0.00000000000000             4
   -0.35294117647059    0.23529411764706    0.00000000000000             4
    0.29411764705883    0.11764705882353    0.00000000000000             4
   -0.11764705882353    0.41176470588235    0.00000000000000             4
   -0.41176470588235    0.29411764705883    0.00000000000000             4
    0.35294117647059    0.11764705882353    0.00000000000000             4
   -0.11764705882353    0.47058823529412    0.00000000000000             4
   -0.47058823529412    0.35294117647059    0.00000000000000             4
    0.41176470588235    0.11764705882353    0.00000000000000             4
   -0.11764705882353   -0.47058823529412    0.00000000000000             4
    0.47058823529412    0.41176470588236    0.00000000000000             4
    0.17647058823530    0.17647058823530    0.00000000000000             2
   -0.17647058823530    0.35294117647059    0.00000000000000             4
    0.23529411764706    0.17647058823530    0.00000000000000             4
   -0.17647058823530    0.41176470588235    0.00000000000000             4
   -0.41176470588235    0.23529411764706    0.00000000000000             4
    0.29411764705883    0.17647058823530    0.00000000000000             4
   -0.17647058823530    0.47058823529412    0.00000000000000             4
   -0.47058823529412    0.29411764705883    0.00000000000000             4
    0.35294117647059    0.17647058823530    0.00000000000000             4
   -0.17647058823530   -0.47058823529412    0.00000000000000             4
    0.47058823529412    0.35294117647059    0.00000000000000             4
    0.41176470588235    0.17647058823530    0.00000000000000             4
    0.41176470588235    0.41176470588235    0.00000000000000             2
    0.23529411764706    0.23529411764706    0.00000000000000             2
   -0.23529411764706    0.47058823529412    0.00000000000000             4
    0.29411764705883    0.23529411764706    0.00000000000000             4
   -0.23529411764706   -0.47058823529412    0.00000000000000             4
    0.47058823529412    0.29411764705883    0.00000000000000             4
    0.35294117647059    0.23529411764706    0.00000000000000             4
   -0.23529411764706   -0.41176470588236    0.00000000000000             4
    0.41176470588236    0.35294117647059    0.00000000000000             4
    0.29411764705883    0.29411764705883    0.00000000000000             2
   -0.29411764705883   -0.41176470588235    0.00000000000000             4
    0.35294117647059    0.29411764705883    0.00000000000000             4
    0.35294117647059    0.35294117647059    0.00000000000000             2
