PROCAR lm decomposed
# of k-points:   81         # of bands:   48         # of ions:    8

 k-point     1 :    0.00000000 0.00000000 0.00000000     weight = 0.00346021

band     1 # energy  -17.88887725 # occ.  2.00000000
 
ion      s     py     pz     px    dxy    dyz    dz2    dxz  x2-y2    tot
    1  0.079  0.001  0.000  0.004  0.000  0.000  0.000  0.000  0.000  0.084
    2  0.079  0.001  0.000  0.004  0.000  0.000  0.000  0.000  0.000  0.084
    3  0.079  0.001  0.000  0.004  0.000  0.000  0.000  0.000  0.000  0.084
    4  0.079  0.001  0.000  0.004  0.000  0.000  0.000  0.000  0.000  0.084
    5  0.079  0.005  0.000  0.000  0.000  0.000  0.000  0.000  0.000  0.084
    6  0.079  0.005  0.000  0.000  0.000  0.000  0.000  0.000  0.000  0.084
    7  0.126  0.000  0.000  0.000  0.000  0.000  0.000  0.000  0.000  0.126
    8  0.126  0.000  0.000  0.000  0.000  0.000  0.000  0.000  0.000  0.126
tot    0.724  0.016  0.000  0.016  0.000  0.000  0.000  0.000  0.000  0.756
 
band     2 # energy  -13.73221005 # occ.  2.00000000
 
ion      s     py     pz     px    dxy    dyz    dz2    dxz  x2-y2    tot
    1  0.000  0.054  0.000  0.018  0.000  0.000  0.000  0.000  0.000  0.072
    2  0.000  0.054  0.000  0.018  0.000  0.000  0.000  0.000  0.000  0.072
    3  0.000  0.054  0.000  0.018  0.000  0.000  0.000  0.000  0.000  0.072
    4  0.000  0.054  0.000  0.018  0.000  0.000  0.000  0.000  0.000  0.072
    5  0.000  0.000  0.000  0.072  0.000  0.000  0.000  0.000  0.000  0.072
    6  0.000  0.000  0.000  0.072  0.000  0.000  0.000  0.000  0.000  0.072
    7  0.196  0.000  0.000  0.000  0.000  0.000  0.000  0.000  0.000  0.196
    8  0.196  0.000  0.000  0.000  0.000  0.000  0.000  0.000  0.000  0.196
tot    0.391  0.217  0.000  0.217  0.000  0.000  0.000  0.000  0.000  0.825
 
band     3 # energy  -13.64837341 # occ.  2.00000000
 
ion      s     py     pz     px    dxy    dyz    dz2    dxz  x2-y2    tot
    1  0.030  0.008  0.000  0.029  0.000  0.000  0.000  0.000  0.000  0.067
    2  0.030  0.008  0.000  0.029  0.000  0.000  0.000  0.000  0.000  0.067
    3  0.030  0.008  0.000  0.029  0.000  0.000  0.000  0.000  0.000  0.067
    4  0.030  0.008  0.000  0.029  0.000  0.000  0.000  0.000  0.000  0.067
    5  0.120  0.041  0.000  0.000  0.000  0.000  0.000  0.000  0.000  0.161
    6  0.120  0.041  0.000  0.000  0.000  0.000  0.000  0.000  0.000  0.161
    7  0.000  0.000  0.000  0.117  0.000  0.000  0.000  0.000  0.000  0.117
    8  0.000  0.000  0.000  0.117  0.000  0.000  0.000  0.000  0.000  0.117
tot    0.360  0.115  0.000  0.350  0.000  0.000  0.000  0.000  0.000  0.825
 
band     4 # energy  -13.64836811 # occ.  2.00000000
 
ion      s     py     pz     px    dxy    dyz    dz2    dxz  x2-y2    tot
    1  0.090  0.029  0.000  0.011  0.000  0.000  0.000  0.000  0.000  0.130
    2  0.090  0.029  0.000  0.011  0.000  0.000  0.000  0.000  0.000  0.130
    3  0.090  0.029  0.000  0.011  0.000  0.000  0.000  0.000  0.000  0.130
    4  0.090  0.029  0.000  0.011  0.000  0.000  0.000  0.000  0.000  0.130
    5  0.000  0.000  0.000  0.036  0.000  0.000  0.000  0.000  0.000  0.036
    6  0.000  0.000  0.000  0.036  0.000  0.000  0.000  0.000  0.000  0.036
    7  0.000  0.117  0.000  0.000  0.000  0.000  0.000  0.000  0.000  0.117
    8  0.000  0.117  0.000  0.000  0.000  0.000  0.000  0.000  0.000  0.117
tot    0.360  0.350  0.000  0.115  0.000  0.000  0.000  0.000  0.000  0.825
 
band     5 # energy  -11.48391791 # occ.  2.00000000
 
ion      s     py     pz     px    dxy    dyz    dz2    dxz  x2-y2    tot
    1  0.033  0.022  0.000  0.025  0.000  0.000  0.000  0.000  0.000  0.080
    2  0.033  0.022  0.000  0.025  0.000  0.000  0.000  0.000  0.000  0.080
    3  0.033  0.022  0.000  0.025  0.000  0.000  0.000  0.000  0.000  0.080
    4  0.033  0.022  0.000  0.025  0.000  0.000  0.000  0.000  0.000  0.080
    5  0.131  0.016  0.000  0.000  0.000  0.000  0.000  0.000  0.000  0.147
    6  0.131  0.016  0.000  0.000  0.000  0.000  0.000  0.000  0.000  0.147
    7  0.000  0.084  0.000  0.000  0.000  0.000  0.000  0.000  0.000  0.084
    8  0.000  0.084  0.000  0.000  0.000  0.000  0.000  0.000  0.000  0.084
tot    0.394  0.286  0.000  0.100  0.000  0.000  0.000  0.000  0.000  0.780
 
band     6 # energy  -11.48390926 # occ.  2.00000000
 
ion      s     py     pz     px    dxy    dyz    dz2    dxz  x2-y2    tot
    1  0.098  0.025  0.000  0.001  0.000  0.000  0.000  0.000  0.000  0.125
    2  0.098  0.025  0.000  0.001  0.000  0.000  0.000  0.000  0.000  0.125
    3  0.098  0.025  0.000  0.001  0.000  0.000  0.000  0.000  0.000  0.125
    4  0.098  0.025  0.000  0.001  0.000  0.000  0.000  0.000  0.000  0.125
    5  0.000  0.000  0.000  0.057  0.000  0.000  0.000  0.000  0.000  0.057
    6  0.000  0.000  0.000  0.057  0.000  0.000  0.000  0.000  0.000  0.057
    7  0.000  0.000  0.000  0.084  0.000  0.000  0.000  0.000  0.000  0.084
    8  0.000  0.000  0.000  0.084  0.000  0.000  0.000  0.000  0.000  0.084
tot    0.394  0.100  0.000  0.286  0.000  0.000  0.000  0.000  0.000  0.780
 
band     7 # energy   -9.41344026 # occ.  2.00000000
 
ion      s     py     pz     px    dxy    dyz    dz2    dxz  x2-y2    tot
    1  0.012  0.021  0.000  0.063  0.000  0.000  0.000  0.000  0.000  0.096
    2  0.012  0.021  0.000  0.063  0.000  0.000  0.000  0.000  0.000  0.096
    3  0.012  0.021  0.000  0.063  0.000  0.000  0.000  0.000  0.000  0.096
    4  0.012  0.021  0.000  0.063  0.000  0.000  0.000  0.000  0.000  0.096
    5  0.012  0.085  0.000  0.000  0.000  0.000  0.000  0.000  0.000  0.096
    6  0.012  0.085  0.000  0.000  0.000  0.000  0.000  0.000  0.000  0.096
    7  0.030  0.000  0.000  0.000  0.000  0.000  0.000  0.000  0.000  0.030
    8  0.030  0.000  0.000  0.000  0.000  0.000  0.000  0.000  0.000  0.030
tot    0.130  0.254  0.000  0.254  0.000  0.000  0.000  0.000  0.000  0.638
 
band     8 # energy   -8.73016885 # occ.  2.00000000
 
ion      s     py     pz     px    dxy    dyz    dz2    dxz  x2-y2    tot
    1  0.000  0.000  0.051  0.000  0.000  0.000  0.000  0.000  0.000  0.051
    2  0.000  0.000  0.051  0.000  0.000  0.000  0.000  0.000  0.000  0.051
    3  0.000  0.000  0.051  0.000  0.000  0.000  0.000  0.000  0.000  0.051
    4  0.000  0.000  0.051  0.000  0.000  0.000  0.000  0.000  0.000  0.051
    5  0.000  0.000  0.051  0.000  0.000  0.000  0.000  0.000  0.000  0.051
    6  0.000  0.000  0.051  0.000  0.000  0.000  0.000  0.000  0.000  0.051
    7  0.000  0.000  0.073  0.000  0.000  0.000  0.000  0.000  0.000  0.073
    8  0.000  0.000  0.073  0.000  0.000  0.000  0.000  0.000  0.000  0.073
tot    0.000  0.000  0.451  0.000  0.000  0.000  0.000  0.000  0.000  0.451
 
band     9 # energy   -3.82732767 # occ.  2.00000000
 
ion      s     py     pz     px    dxy    dyz    dz2    dxz  x2-y2    tot
    1  0.000  0.000  0.000  0.121  0.000  0.000  0.000  0.000  0.000  0.122
    2  0.000  0.000  0.000  0.121  0.000  0.000  0.000  0.000  0.000  0.122
    3  0.000  0.000  0.000  0.121  0.000  0.000  0.000  0.000  0.000  0.122
    4  0.000  0.000  0.000  0.121  0.000  0.000  0.000  0.000  0.000  0.122
    5  0.000  0.000  0.000  0.147  0.000  0.000  0.000  0.000  0.000  0.147
    6  0.000  0.000  0.000  0.147  0.000  0.000  0.000  0.000  0.000  0.147
    7  0.000  0.001  0.000  0.000  0.000  0.000  0.000  0.000  0.000  0.001
    8  0.000  0.001  0.000  0.000  0.000  0.000  0.000  0.000  0.000  0.001
tot    0.000  0.003  0.000  0.779  0.000  0.000  0.000  0.000  0.000  0.782
 
band    10 # energy   -3.82732613 # occ.  2.00000000
 
ion      s     py     pz     px    dxy    dyz    dz2    dxz  x2-y2    tot
    1  0.000  0.138  0.000  0.000  0.000  0.000  0.000  0.000  0.000  0.139
    2  0.000  0.138  0.000  0.000  0.000  0.000  0.000  0.000  0.000  0.139
    3  0.000  0.138  0.000  0.000  0.000  0.000  0.000  0.000  0.000  0.139
    4  0.000  0.138  0.000  0.000  0.000  0.000  0.000  0.000  0.000  0.139
    5  0.000  0.113  0.000  0.000  0.000  0.000  0.000  0.000  0.000  0.113
    6  0.000  0.113  0.000  0.000  0.000  0.000  0.000  0.000  0.000  0.113
    7  0.000  0.000  0.000  0.001  0.000  0.000  0.000  0.000  0.000  0.001
    8  0.000  0.000  0.000  0.001  0.000  0.000  0.000  0.000  0.000  0.001
tot    0.000  0.779  0.000  0.003  0.000  0.000  0.000  0.000  0.000  0.782
 
band    11 # energy   -2.29755180 # occ.  1.71705782
 
ion      s     py     pz     px    dxy    dyz    dz2    dxz  x2-y2    tot
    1  0.000  0.000  0.000  0.000  0.000  0.000  0.000  0.000  0.000  0.000
    2  0.000  0.000  0.000  0.000  0.000  0.000  0.000  0.000  0.000  0.000
    3  0.000  0.000  0.000  0.000  0.000  0.000  0.000  0.000  0.000  0.000
    4  0.000  0.000  0.000  0.000  0.000  0.000  0.000  0.000  0.000  0.000
    5  0.000  0.000  0.000  0.000  0.000  0.000  0.000  0.000  0.000  0.000
    6  0.000  0.000  0.000  0.000  0.000  0.000  0.000  0.000  0.000  0.000
    7  0.000  0.000  0.232  0.000  0.000  0.000  0.000  0.000  0.000  0.232
    8  0.000  0.000  0.232  0.000  0.000  0.000  0.000  0.000  0.000  0.232
tot    0.000  0.000  0.464  0.000  0.000  0.000  0.000  0.000  0.000  0.464
 
band    12 # energy   -1.73006661 # occ.  0.00000000
 
ion      s     py     pz     px    dxy    dyz    dz2    dxz  x2-y2    tot
    1  0.000  0.000  0.037  0.000  0.000  0.000  0.000  0.000  0.000  0.037
    2  0.000  0.000  0.037  0.000  0.000  0.000  0.000  0.000  0.000  0.037
    3  0.000  0.000  0.037  0.000  0.000  0.000  0.000  0.000  0.000  0.037
    4  0.000  0.000  0.037  0.000  0.000  0.000  0.000  0.000  0.000  0.037
    5  0.000  0.000  0.147  0.000  0.000  0.000  0.000  0.000  0.000  0.147
    6  0.000  0.000  0.147  0.000  0.000  0.000  0.000  0.000  0.000  0.147
    7  0.000  0.000  0.000  0.000  0.000  0.000  0.000  0.000  0.000  0.000
    8  0.000  0.000  0.000  0.000  0.000  0.000  0.000  0.000  0.000  0.000
tot    0.000  0.000  0.440  0.000  0.000  0.000  0.000  0.000  0.000  0.440
 
band    13 # energy   -1.73006444 # occ.  0.00000000
 
ion      s     py     pz     px    dxy    dyz    dz2    dxz  x2-y2    tot
    1  0.000  0.000  0.110  0.000  0.000  0.000  0.000  0.000  0.000  0.110
    2  0.000  0.000  0.110  0.000  0.000  0.000  0.000  0.000  0.000  0.110
    3  0.000  0.000  0.110  0.000  0.000  0.000  0.000  0.000  0.000  0.110
    4  0.000  0.000  0.110  0.000  0.000  0.000  0.000  0.000  0.000  0.110
    5  0.000  0.000  0.000  0.000  0.000  0.000  0.000  0.000  0.000  0.000
    6  0.000  0.000  0.000  0.000  0.000  0.000  0.000  0.000  0.000  0.000
    7  0.000  0.000  0.000  0.000  0.000  0.000  0.000  0.000  0.000  0.000
    8  0.000  0.000  0.000  0.000  0.000  0.000  0.000  0.000  0.000  0.000
tot    0.000  0.000  0.440  0.000  0.000  0.000  0.000  0.000  0.000  0.440
 
band    14 # energy   -1.51320079 # occ.  0.00000000
 
ion      s     py     pz     px    dxy    dyz    dz2    dxz  x2-y2    tot
    1  0.022  0.001  0.000  0.049  0.000  0.000  0.000  0.000  0.000  0.073
    2  0.022  0.001  0.000  0.049  0.000  0.000  0.000  0.000  0.000  0.073
    3  0.022  0.001  0.000  0.049  0.000  0.000  0.000  0.000  0.000  0.073
    4  0.022  0.001  0.000  0.049  0.000  0.000  0.000  0.000  0.000  0.073
    5  0.000  0.000  0.000  0.025  0.000  0.000  0.000  0.000  0.000  0.025
    6  0.000  0.000  0.000  0.025  0.000  0.000  0.000  0.000  0.000  0.025
    7  0.000  0.000  0.000  0.167  0.000  0.000  0.000  0.000  0.000  0.167
    8  0.000  0.000  0.000  0.167  0.000  0.000  0.000  0.000  0.000  0.167
tot    0.090  0.005  0.000  0.581  0.000  0.000  0.000  0.000  0.000  0.676
 
band    15 # energy   -1.51319199 # occ.  0.00000000
 
ion      s     py     pz     px    dxy    dyz    dz2    dxz  x2-y2    tot
    1  0.007  0.032  0.000  0.001  0.000  0.000  0.000  0.000  0.000  0.041
    2  0.007  0.032  0.000  0.001  0.000  0.000  0.000  0.000  0.000  0.041
    3  0.007  0.032  0.000  0.001  0.000  0.000  0.000  0.000  0.000  0.041
    4  0.007  0.032  0.000  0.001  0.000  0.000  0.000  0.000  0.000  0.041
    5  0.030  0.059  0.000  0.000  0.000  0.000  0.000  0.000  0.000  0.089
    6  0.030  0.059  0.000  0.000  0.000  0.000  0.000  0.000  0.000  0.089
    7  0.000  0.167  0.000  0.000  0.000  0.000  0.000  0.000  0.000  0.167
    8  0.000  0.167  0.000  0.000  0.000  0.000  0.000  0.000  0.000  0.167
tot    0.090  0.581  0.000  0.005  0.000  0.000  0.000  0.000  0.000  0.676
 
band    16 # energy   -1.25570567 # occ.  0.00000000
 
ion      s     py     pz     px    dxy    dyz    dz2    dxz  x2-y2    tot
    1  0.000  0.000  0.039  0.000  0.000  0.000  0.000  0.000  0.000  0.039
    2  0.000  0.000  0.039  0.000  0.000  0.000  0.000  0.000  0.000  0.039
    3  0.000  0.000  0.039  0.000  0.000  0.000  0.000  0.000  0.000  0.039
    4  0.000  0.000  0.039  0.000  0.000  0.000  0.000  0.000  0.000  0.039
    5  0.000  0.000  0.156  0.000  0.000  0.000  0.000  0.000  0.000  0.156
    6  0.000  0.000  0.156  0.000  0.000  0.000  0.000  0.000  0.000  0.156
    7  0.000  0.000  0.000  0.000  0.000  0.000  0.000  0.000  0.000  0.000
    8  0.000  0.000  0.000  0.000  0.000  0.000  0.000  0.000  0.000  0.000
tot    0.000  0.000  0.467  0.000  0.000  0.000  0.000  0.000  0.000  0.467
 
band    17 # energy   -1.25570207 # occ.  0.00000000
 
ion      s     py     pz     px    dxy    dyz    dz2    dxz  x2-y2    tot
    1  0.000  0.000  0.117  0.000  0.000  0.000  0.000  0.000  0.000  0.117
    2  0.000  0.000  0.117  0.000  0.000  0.000  0.000  0.000  0.000  0.117
    3  0.000  0.000  0.117  0.000  0.000  0.000  0.000  0.000  0.000  0.117
    4  0.000  0.000  0.117  0.000  0.000  0.000  0.000  0.000  0.000  0.117
    5  0.000  0.000  0.000  0.000  0.000  0.000  0.000  0.000  0.000  0.000
    6  0.000  0.000  0.000  0.000  0.000  0.000  0.000  0.000  0.000  0.000
    7  0.000  0.000  0.000  0.000  0.000  0.000  0.000  0.000  0.000  0.000
    8  0.000  0.000  0.000  0.000  0.000  0.000  0.000  0.000  0.000  0.000
tot    0.000  0.000  0.467  0.000  0.000  0.000  0.000  0.000  0.000  0.467
 
band    18 # energy    0.78149358 # occ.  0.00000000
 
ion      s     py     pz     px    dxy    dyz    dz2    dxz  x2-y2    tot
    1  0.004  0.000  0.000  0.000  0.000  0.000  0.000  0.000  0.000  0.004
    2  0.004  0.000  0.000  0.000  0.000  0.000  0.000  0.000  0.000  0.004
    3  0.004  0.000  0.000  0.000  0.000  0.000  0.000  0.000  0.000  0.004
    4  0.004  0.000  0.000  0.000  0.000  0.000  0.000  0.000  0.000  0.004
    5  0.004  0.000  0.000  0.000  0.000  0.000  0.000  0.000  0.000  0.004
    6  0.004  0.000  0.000  0.000  0.000  0.000  0.000  0.000  0.000  0.004
    7  0.003  0.000  0.000  0.000  0.000  0.000  0.000  0.000  0.000  0.003
    8  0.003  0.000  0.000  0.000  0.000  0.000  0.000  0.000  0.000  0.003
tot    0.028  0.000  0.000  0.000  0.000  0.000  0.000  0.000  0.000  0.029
 
band    19 # energy    1.62767772 # occ.  0.00000000
 
ion      s     py     pz     px    dxy    dyz    dz2    dxz  x2-y2    tot
    1  0.000  0.000  0.000  0.000  0.000  0.000  0.000  0.000  0.000  0.000
    2  0.000  0.000  0.000  0.000  0.000  0.000  0.000  0.000  0.000  0.000
    3  0.000  0.000  0.000  0.000  0.000  0.000  0.000  0.000  0.000  0.000
    4  0.000  0.000  0.000  0.000  0.000  0.000  0.000  0.000  0.000  0.000
    5  0.000  0.000  0.000  0.000  0.000  0.000  0.000  0.000  0.000  0.000
    6  0.000  0.000  0.000  0.000  0.000  0.000  0.000  0.000  0.000  0.000
    7  0.000  0.000  0.043  0.000  0.000  0.000  0.000  0.000  0.000  0.043
    8  0.000  0.000  0.043  0.000  0.000  0.000  0.000  0.000  0.000  0.043
tot    0.000  0.000  0.087  0.000  0.000  0.000  0.000  0.000  0.000  0.087
 
band    20 # energy    2.37834463 # occ.  0.00000000
 
ion      s     py     pz     px    dxy    dyz    dz2    dxz  x2-y2    tot
    1  0.001  0.000  0.000  0.000  0.000  0.000  0.000  0.000  0.000  0.001
    2  0.001  0.000  0.000  0.000  0.000  0.000  0.000  0.000  0.000  0.001
    3  0.001  0.000  0.000  0.000  0.000  0.000  0.000  0.000  0.000  0.001
    4  0.001  0.000  0.000  0.000  0.000  0.000  0.000  0.000  0.000  0.001
    5  0.001  0.000  0.000  0.000  0.000  0.000  0.000  0.000  0.000  0.001
    6  0.001  0.000  0.000  0.000  0.000  0.000  0.000  0.000  0.000  0.001
    7  0.001  0.000  0.000  0.000  0.000  0.000  0.000  0.000  0.000  0.001
    8  0.001  0.000  0.000  0.000  0.000  0.000  0.000  0.000  0.000  0.001
tot    0.008  0.000  0.000  0.000  0.000  0.000  0.000  0.000  0.000  0.008
 
band    21 # energy    2.51695081 # occ.  0.00000000
 
ion      s     py     pz     px    dxy    dyz    dz2    dxz  x2-y2    tot
    1  0.000  0.000  0.017  0.000  0.000  0.000  0.000  0.000  0.000  0.017
    2  0.000  0.000  0.017  0.000  0.000  0.000  0.000  0.000  0.000  0.017
    3  0.000  0.000  0.017  0.000  0.000  0.000  0.000  0.000  0.000  0.017
    4  0.000  0.000  0.017  0.000  0.000  0.000  0.000  0.000  0.000  0.017
    5  0.000  0.000  0.017  0.000  0.000  0.000  0.000  0.000  0.000  0.017
    6  0.000  0.000  0.017  0.000  0.000  0.000  0.000  0.000  0.000  0.017
    7  0.000  0.000  0.099  0.000  0.000  0.000  0.000  0.000  0.000  0.099
    8  0.000  0.000  0.099  0.000  0.000  0.000  0.000  0.000  0.000  0.099
tot    0.000  0.000  0.299  0.000  0.000  0.000  0.000  0.000  0.000  0.299
 
band    22 # energy    4.39249755 # occ.  0.00000000
 
ion      s     py     pz     px    dxy    dyz    dz2    dxz  x2-y2    tot
    1  0.000  0.000  0.009  0.000  0.000  0.000  0.000  0.000  0.000  0.009
    2  0.000  0.000  0.009  0.000  0.000  0.000  0.000  0.000  0.000  0.009
    3  0.000  0.000  0.009  0.000  0.000  0.000  0.000  0.000  0.000  0.009
    4  0.000  0.000  0.009  0.000  0.000  0.000  0.000  0.000  0.000  0.009
    5  0.000  0.000  0.009  0.000  0.000  0.000  0.000  0.000  0.000  0.009
    6  0.000  0.000  0.009  0.000  0.000  0.000  0.000  0.000  0.000  0.009
    7  0.000  0.000  0.000  0.000  0.000  0.000  0.000  0.000  0.000  0.000
    8  0.000  0.000  0.000  0.000  0.000  0.000  0.000  0.000  0.000  0.000
tot    0.000  0.000  0.052  0.000  0.000  0.000  0.000  0.000  0.000  0.052
 
band    23 # energy    4.95202808 # occ.  0.00000000
 
ion      s     py     pz     px    dxy    dyz    dz2    dxz  x2-y2    tot
    1  0.003  0.000  0.000  0.000  0.000  0.000  0.000  0.000  0.000  0.003
    2  0.003  0.000  0.000  0.000  0.000  0.000  0.000  0.000  0.000  0.003
    3  0.003  0.000  0.000  0.000  0.000  0.000  0.000  0.000  0.000  0.003
    4  0.003  0.000  0.000  0.000  0.000  0.000  0.000  0.000  0.000  0.003
    5  0.003  0.000  0.000  0.000  0.000  0.000  0.000  0.000  0.000  0.003
    6  0.003  0.000  0.000  0.000  0.000  0.000  0.000  0.000  0.000  0.003
    7  0.001  0.000  0.000  0.000  0.000  0.000  0.000  0.000  0.000  0.001
    8  0.001  0.000  0.000  0.000  0.000  0.000  0.000  0.000  0.000  0.001
tot    0.019  0.000  0.000  0.000  0.000  0.000  0.000  0.000  0.000  0.019
 
band    24 # energy    5.69693265 # occ.  0.00000000
 
ion      s     py     pz     px    dxy    dyz    dz2    dxz  x2-y2    tot
    1  0.000  0.045  0.000  0.015  0.000  0.000  0.000  0.000  0.000  0.060
    2  0.000  0.045  0.000  0.015  0.000  0.000  0.000  0.000  0.000  0.060
    3  0.000  0.045  0.000  0.015  0.000  0.000  0.000  0.000  0.000  0.060
    4  0.000  0.045  0.000  0.015  0.000  0.000  0.000  0.000  0.000  0.060
    5  0.000  0.000  0.000  0.060  0.000  0.000  0.000  0.000  0.000  0.060
    6  0.000  0.000  0.000  0.060  0.000  0.000  0.000  0.000  0.000  0.060
    7  0.069  0.000  0.000  0.000  0.000  0.000  0.000  0.000  0.000  0.069
    8  0.069  0.000  0.000  0.000  0.000  0.000  0.000  0.000  0.000  0.069
tot    0.138  0.179  0.000  0.179  0.000  0.000  0.000  0.000  0.000  0.496
 
band    25 # energy    6.35388514 # occ.  0.00000000
 
ion      s     py     pz     px    dxy    dyz    dz2    dxz  x2-y2    tot
    1  0.027  0.013  0.000  0.009  0.000  0.000  0.000  0.000  0.000  0.049
    2  0.027  0.013  0.000  0.009  0.000  0.000  0.000  0.000  0.000  0.049
    3  0.025  0.014  0.000  0.008  0.000  0.000  0.000  0.000  0.000  0.047
    4  0.025  0.014  0.000  0.008  0.000  0.000  0.000  0.000  0.000  0.047
    5  0.000  0.000  0.000  0.012  0.000  0.000  0.000  0.000  0.000  0.012
    6  0.000  0.000  0.000  0.012  0.000  0.000  0.000  0.000  0.000  0.012
    7  0.000  0.084  0.000  0.000  0.000  0.000  0.000  0.000  0.000  0.084
    8  0.000  0.084  0.000  0.000  0.000  0.000  0.000  0.000  0.000  0.084
tot    0.104  0.222  0.000  0.058  0.000  0.000  0.000  0.000  0.000  0.384
 
band    26 # energy    6.35389402 # occ.  0.00000000
 
ion      s     py     pz     px    dxy    dyz    dz2    dxz  x2-y2    tot
    1  0.008  0.002  0.000  0.013  0.000  0.000  0.000  0.000  0.000  0.023
    2  0.008  0.002  0.000  0.013  0.000  0.000  0.000  0.000  0.000  0.023
    3  0.009  0.002  0.000  0.014  0.000  0.000  0.000  0.000  0.000  0.025
    4  0.009  0.002  0.000  0.014  0.000  0.000  0.000  0.000  0.000  0.025
    5  0.035  0.025  0.000  0.000  0.000  0.000  0.000  0.000  0.000  0.060
    6  0.035  0.025  0.000  0.000  0.000  0.000  0.000  0.000  0.000  0.060
    7  0.000  0.000  0.000  0.084  0.000  0.000  0.000  0.000  0.000  0.084
    8  0.000  0.000  0.000  0.084  0.000  0.000  0.000  0.000  0.000  0.084
tot    0.104  0.058  0.000  0.222  0.000  0.000  0.000  0.000  0.000  0.384
 
band    27 # energy    6.59302482 # occ.  0.00000000
 
ion      s     py     pz     px    dxy    dyz    dz2    dxz  x2-y2    tot
    1  0.011  0.009  0.000  0.027  0.000  0.000  0.000  0.000  0.000  0.047
    2  0.011  0.009  0.000  0.027  0.000  0.000  0.000  0.000  0.000  0.047
    3  0.011  0.009  0.000  0.027  0.000  0.000  0.000  0.000  0.000  0.047
    4  0.011  0.009  0.000  0.027  0.000  0.000  0.000  0.000  0.000  0.047
    5  0.011  0.036  0.000  0.000  0.000  0.000  0.000  0.000  0.000  0.047
    6  0.011  0.036  0.000  0.000  0.000  0.000  0.000  0.000  0.000  0.047
    7  0.116  0.000  0.000  0.000  0.000  0.000  0.000  0.000  0.000  0.116
    8  0.116  0.000  0.000  0.000  0.000  0.000  0.000  0.000  0.000  0.116
tot    0.298  0.107  0.000  0.107  0.000  0.000  0.000  0.000  0.000  0.513
 
band    28 # energy    7.52088164 # occ.  0.00000000
 
ion      s     py     pz     px    dxy    dyz    dz2    dxz  x2-y2    tot
    1  0.006  0.041  0.000  0.012  0.000  0.000  0.000  0.000  0.000  0.058
    2  0.006  0.041  0.000  0.012  0.000  0.000  0.000  0.000  0.000  0.058
    3  0.012  0.030  0.000  0.052  0.000  0.000  0.000  0.000  0.000  0.094
    4  0.012  0.030  0.000  0.052  0.000  0.000  0.000  0.000  0.000  0.094
    5  0.001  0.008  0.000  0.024  0.000  0.000  0.000  0.000  0.000  0.033
    6  0.001  0.008  0.000  0.024  0.000  0.000  0.000  0.000  0.000  0.033
    7  0.000  0.000  0.000  0.001  0.000  0.000  0.000  0.000  0.000  0.002
    8  0.000  0.000  0.000  0.001  0.000  0.000  0.000  0.000  0.000  0.002
tot    0.036  0.157  0.000  0.180  0.000  0.000  0.000  0.000  0.000  0.373
 
band    29 # energy    7.52088224 # occ.  0.00000000
 
ion      s     py     pz     px    dxy    dyz    dz2    dxz  x2-y2    tot
    1  0.007  0.000  0.000  0.058  0.000  0.000  0.000  0.000  0.000  0.065
    2  0.007  0.000  0.000  0.058  0.000  0.000  0.000  0.000  0.000  0.065
    3  0.001  0.011  0.000  0.018  0.000  0.000  0.000  0.000  0.000  0.030
    4  0.001  0.011  0.000  0.018  0.000  0.000  0.000  0.000  0.000  0.030
    5  0.011  0.077  0.000  0.002  0.000  0.000  0.000  0.000  0.000  0.090
    6  0.011  0.077  0.000  0.002  0.000  0.000  0.000  0.000  0.000  0.090
    7  0.000  0.001  0.000  0.000  0.000  0.000  0.000  0.000  0.000  0.002
    8  0.000  0.001  0.000  0.000  0.000  0.000  0.000  0.000  0.000  0.002
tot    0.036  0.180  0.000  0.157  0.000  0.000  0.000  0.000  0.000  0.373
 
band    30 # energy    8.05186968 # occ.  0.00000000
 
ion      s     py     pz     px    dxy    dyz    dz2    dxz  x2-y2    tot
    1  0.000  0.000  0.122  0.000  0.000  0.000  0.000  0.000  0.000  0.122
    2  0.000  0.000  0.122  0.000  0.000  0.000  0.000  0.000  0.000  0.122
    3  0.000  0.000  0.122  0.000  0.000  0.000  0.000  0.000  0.000  0.122
    4  0.000  0.000  0.122  0.000  0.000  0.000  0.000  0.000  0.000  0.122
    5  0.000  0.000  0.122  0.000  0.000  0.000  0.000  0.000  0.000  0.122
    6  0.000  0.000  0.122  0.000  0.000  0.000  0.000  0.000  0.000  0.122
    7  0.000  0.000  0.000  0.000  0.000  0.000  0.000  0.000  0.000  0.000
    8  0.000  0.000  0.000  0.000  0.000  0.000  0.000  0.000  0.000  0.000
tot    0.000  0.000  0.732  0.000  0.000  0.000  0.000  0.000  0.000  0.732
 
band    31 # energy    8.35064767 # occ.  0.00000000
 
ion      s     py     pz     px    dxy    dyz    dz2    dxz  x2-y2    tot
    1  0.000  0.000  0.009  0.000  0.000  0.000  0.000  0.000  0.000  0.009
    2  0.000  0.000  0.009  0.000  0.000  0.000  0.000  0.000  0.000  0.009
    3  0.000  0.000  0.009  0.000  0.000  0.000  0.000  0.000  0.000  0.009
    4  0.000  0.000  0.009  0.000  0.000  0.000  0.000  0.000  0.000  0.009
    5  0.000  0.000  0.009  0.000  0.000  0.000  0.000  0.000  0.000  0.009
    6  0.000  0.000  0.009  0.000  0.000  0.000  0.000  0.000  0.000  0.009
    7  0.000  0.000  0.001  0.000  0.000  0.000  0.000  0.000  0.000  0.001
    8  0.000  0.000  0.001  0.000  0.000  0.000  0.000  0.000  0.000  0.001
tot    0.000  0.000  0.059  0.000  0.000  0.000  0.000  0.000  0.000  0.059
 
band    32 # energy    8.60797192 # occ.  0.00000000
 
ion      s     py     pz     px    dxy    dyz    dz2    dxz  x2-y2    tot
    1  0.113  0.001  0.000  0.002  0.000  0.000  0.000  0.000  0.000  0.115
    2  0.113  0.001  0.000  0.002  0.000  0.000  0.000  0.000  0.000  0.115
    3  0.113  0.001  0.000  0.002  0.000  0.000  0.000  0.000  0.000  0.115
    4  0.113  0.001  0.000  0.002  0.000  0.000  0.000  0.000  0.000  0.115
    5  0.113  0.002  0.000  0.000  0.000  0.000  0.000  0.000  0.000  0.115
    6  0.113  0.002  0.000  0.000  0.000  0.000  0.000  0.000  0.000  0.115
    7  0.000  0.000  0.000  0.000  0.000  0.000  0.000  0.000  0.000  0.000
    8  0.000  0.000  0.000  0.000  0.000  0.000  0.000  0.000  0.000  0.000
tot    0.678  0.006  0.000  0.006  0.000  0.000  0.000  0.000  0.000  0.690
 
band    33 # energy    9.01226347 # occ.  0.00000000
 
ion      s     py     pz     px    dxy    dyz    dz2    dxz  x2-y2    tot
    1  0.002  0.000  0.000  0.000  0.000  0.000  0.000  0.000  0.000  0.002
    2  0.002  0.000  0.000  0.000  0.000  0.000  0.000  0.000  0.000  0.002
    3  0.002  0.000  0.000  0.000  0.000  0.000  0.000  0.000  0.000  0.002
    4  0.002  0.000  0.000  0.000  0.000  0.000  0.000  0.000  0.000  0.002
    5  0.002  0.001  0.000  0.000  0.000  0.000  0.000  0.000  0.000  0.002
    6  0.001  0.001  0.000  0.000  0.000  0.000  0.000  0.000  0.000  0.002
    7  0.048  0.000  0.000  0.000  0.000  0.000  0.000  0.000  0.000  0.048
    8  0.048  0.000  0.000  0.000  0.000  0.000  0.000  0.000  0.000  0.048
tot    0.105  0.002  0.000  0.002  0.000  0.000  0.000  0.000  0.000  0.108
 
band    34 # energy    9.10380667 # occ.  0.00000000
 
ion      s     py     pz     px    dxy    dyz    dz2    dxz  x2-y2    tot
    1  0.000  0.005  0.000  0.002  0.000  0.000  0.000  0.000  0.000  0.007
    2  0.000  0.005  0.000  0.002  0.000  0.000  0.000  0.000  0.000  0.007
    3  0.000  0.005  0.000  0.002  0.000  0.000  0.000  0.000  0.000  0.007
    4  0.000  0.005  0.000  0.002  0.000  0.000  0.000  0.000  0.000  0.007
    5  0.000  0.000  0.000  0.007  0.000  0.000  0.000  0.000  0.000  0.007
    6  0.000  0.000  0.000  0.007  0.000  0.000  0.000  0.000  0.000  0.007
    7  0.044  0.000  0.000  0.000  0.000  0.000  0.000  0.000  0.000  0.044
    8  0.044  0.000  0.000  0.000  0.000  0.000  0.000  0.000  0.000  0.044
tot    0.088  0.021  0.000  0.021  0.000  0.000  0.000  0.000  0.000  0.131
 
band    35 # energy    9.31758227 # occ.  0.00000000
 
ion      s     py     pz     px    dxy    dyz    dz2    dxz  x2-y2    tot
    1  0.005  0.000  0.000  0.000  0.000  0.000  0.000  0.000  0.000  0.005
    2  0.006  0.000  0.000  0.000  0.000  0.000  0.000  0.000  0.000  0.006
    3  0.006  0.000  0.000  0.000  0.000  0.000  0.000  0.000  0.000  0.006
    4  0.005  0.000  0.000  0.000  0.000  0.000  0.000  0.000  0.000  0.005
    5  0.006  0.000  0.000  0.000  0.000  0.000  0.000  0.000  0.000  0.006
    6  0.005  0.000  0.000  0.000  0.000  0.000  0.000  0.000  0.000  0.005
    7  0.004  0.000  0.000  0.000  0.000  0.000  0.000  0.000  0.000  0.004
    8  0.004  0.000  0.000  0.000  0.000  0.000  0.000  0.000  0.000  0.004
tot    0.043  0.000  0.000  0.000  0.000  0.000  0.000  0.000  0.000  0.043
 
band    36 # energy    9.36246512 # occ.  0.00000000
 
ion      s     py     pz     px    dxy    dyz    dz2    dxz  x2-y2    tot
    1  0.000  0.007  0.000  0.003  0.000  0.000  0.000  0.000  0.000  0.010
    2  0.000  0.007  0.000  0.003  0.000  0.000  0.000  0.000  0.000  0.010
    3  0.020  0.001  0.000  0.022  0.000  0.000  0.000  0.000  0.000  0.043
    4  0.021  0.001  0.000  0.022  0.000  0.000  0.000  0.000  0.000  0.044
    5  0.022  0.021  0.000  0.002  0.000  0.000  0.000  0.000  0.000  0.045
    6  0.021  0.022  0.000  0.002  0.000  0.000  0.000  0.000  0.000  0.045
    7  0.000  0.001  0.000  0.000  0.000  0.000  0.000  0.000  0.000  0.001
    8  0.000  0.001  0.000  0.000  0.000  0.000  0.000  0.000  0.000  0.001
tot    0.084  0.060  0.000  0.055  0.000  0.000  0.000  0.000  0.000  0.199
 
band    37 # energy    9.36249802 # occ.  0.00000000
 
ion      s     py     pz     px    dxy    dyz    dz2    dxz  x2-y2    tot
    1  0.028  0.007  0.000  0.021  0.000  0.000  0.000  0.000  0.000  0.056
    2  0.028  0.007  0.000  0.021  0.000  0.000  0.000  0.000  0.000  0.056
    3  0.008  0.014  0.000  0.001  0.000  0.000  0.000  0.000  0.000  0.023
    4  0.007  0.014  0.000  0.001  0.000  0.000  0.000  0.000  0.000  0.022