PROCAR lm decomposed
# of k-points:   56         # of bands:    8         # of ions:    2

 k-point     1 :    0.00000000 0.00000000 0.00000000     weight = 0.00189036

band     1 # energy  -24.48394464 # occ.  2.00000000
 
ion      s     py     pz     px    dxy    dyz    dz2    dxz  x2-y2    tot
    1  0.328  0.000  0.000  0.000  0.000  0.000  0.000  0.000  0.000  0.328
    2  0.328  0.000  0.000  0.000  0.000  0.000  0.000  0.000  0.000  0.328
tot    0.656  0.000  0.000  0.000  0.000  0.000  0.000  0.000  0.000  0.656
 
band     2 # energy  -11.26221544 # occ.  2.00000000
 
ion      s     py     pz     px    dxy    dyz    dz2    dxz  x2-y2    tot
    1  0.000  0.000  0.215  0.000  0.000  0.000  0.000  0.000  0.000  0.215
    2  0.000  0.000  0.215  0.000  0.000  0.000  0.000  0.000  0.000  0.215
tot    0.000  0.000  0.430  0.000  0.000  0.000  0.000  0.000  0.000  0.430
 
band     3 # energy   -6.26891401 # occ.  2.00000000
 
ion      s     py     pz     px    dxy    dyz    dz2    dxz  x2-y2    tot
    1  0.000  0.000  0.000  0.414  0.000  0.000  0.000  0.000  0.000  0.414
    2  0.000  0.000  0.000  0.414  0.000  0.000  0.000  0.000  0.000  0.414
tot    0.000  0.000  0.000  0.828  0.000  0.000  0.000  0.000  0.000  0.828
 
band     4 # energy   -6.26885507 # occ.  2.00000000
 
ion      s     py     pz     px    dxy    dyz    dz2    dxz  x2-y2    tot
    1  0.000  0.414  0.000  0.000  0.000  0.000  0.000  0.000  0.000  0.414
    2  0.000  0.414  0.000  0.000  0.000  0.000  0.000  0.000  0.000  0.414
tot    0.000  0.828  0.000  0.000  0.000  0.000  0.000  0.000  0.000  0.828
 
band     5 # energy    1.19636970 # occ.  0.00000000
 
ion      s     py     pz     px    dxy    dyz    dz2    dxz  x2-y2    tot
    1  0.008  0.000  0.000  0.000  0.000  0.000  0.000  0.000  0.000  0.008
    2  0.008  0.000  0.000  0.000  0.000  0.000  0.000  0.000  0.000  0.008
tot    0.017  0.000  0.000  0.000  0.000  0.000  0.000  0.000  0.000  0.017
 
band     6 # energy    2.05227384 # occ.  0.00000000
 
ion      s     py     pz     px    dxy    dyz    dz2    dxz  x2-y2    tot
    1  0.000  0.000  0.011  0.000  0.000  0.000  0.000  0.000  0.000  0.011
    2  0.000  0.000  0.011  0.000  0.000  0.000  0.000  0.000  0.000  0.011
tot    0.000  0.000  0.022  0.000  0.000  0.000  0.000  0.000  0.000  0.022
 
band     7 # energy    2.53224326 # occ.  0.00000000
 
ion      s     py     pz     px    dxy    dyz    dz2    dxz  x2-y2    tot
    1  0.003  0.000  0.000  0.000  0.000  0.000  0.000  0.000  0.000  0.003
    2  0.003  0.000  0.000  0.000  0.000  0.000  0.000  0.000  0.000  0.003
tot    0.006  0.000  0.000  0.000  0.000  0.000  0.000  0.000  0.000  0.006
 
band     8 # energy    4.45646992 # occ.  0.00000000
 
ion      s     py     pz     px    dxy    dyz    dz2    dxz  x2-y2    tot
    1  0.000  0.000  0.014  0.000  0.000  0.000  0.000  0.000  0.000  0.014
    2  0.000  0.000  0.014  0.000  0.000  0.000  0.000  0.000  0.000  0.014
tot    0.000  0.000  0.029  0.000  0.000  0.000  0.000  0.000  0.000  0.029
 

 k-point     2 :    0.04347826 0.00000000 0.00000000     weight = 0.01134216

band     1 # energy  -24.43470272 # occ.  2.00000000
 
ion      s     py     pz     px    dxy    dyz    dz2    dxz  x2-y2    tot
    1  0.327  0.001  0.000  0.000  0.000  0.000  0.000  0.000  0.000  0.328
    2  0.327  0.001  0.000  0.000  0.000  0.000  0.000  0.000  0.000  0.328
tot    0.654  0.001  0.000  0.000  0.000  0.000  0.000  0.000  0.000  0.656
 
band     2 # energy  -11.20163196 # occ.  2.00000000
 
ion      s     py     pz     px    dxy    dyz    dz2    dxz  x2-y2    tot
    1  0.000  0.000  0.215  0.000  0.000  0.000  0.000  0.000  0.000  0.215
    2  0.000  0.000  0.215  0.000  0.000  0.000  0.000  0.000  0.000  0.215
tot    0.000  0.000  0.431  0.000  0.000  0.000  0.000  0.000  0.000  0.431
 
band     3 # energy   -6.46894239 # occ.  2.00000000
 
ion      s     py     pz     px    dxy    dyz    dz2    dxz  x2-y2    tot
    1  0.005  0.305  0.000  0.102  0.000  0.000  0.000  0.000  0.000  0.412
    2  0.005  0.305  0.000  0.102  0.000  0.000  0.000  0.000  0.000  0.412
tot    0.010  0.611  0.000  0.204  0.000  0.000  0.000  0.000  0.000  0.825
 
band     4 # energy   -6.37429103 # occ.  2.00000000
 
ion      s     py     pz     px    dxy    dyz    dz2    dxz  x2-y2    tot
    1  0.000  0.103  0.000  0.310  0.000  0.000  0.000  0.000  0.000  0.413
    2  0.000  0.103  0.000  0.310  0.000  0.000  0.000  0.000  0.000  0.413
tot    0.000  0.207  0.000  0.619  0.000  0.000  0.000  0.000  0.000  0.826
 
band     5 # energy    1.25835006 # occ.  0.00000000
 
ion      s     py     pz     px    dxy    dyz    dz2    dxz  x2-y2    tot
    1  0.008  0.000  0.000  0.000  0.000  0.000  0.000  0.000  0.000  0.008
    2  0.008  0.000  0.000  0.000  0.000  0.000  0.000  0.000  0.000  0.008
tot    0.017  0.000  0.000  0.000  0.000  0.000  0.000  0.000  0.000  0.017
 
band     6 # energy    2.11454658 # occ.  0.00000000
 
ion      s     py     pz     px    dxy    dyz    dz2    dxz  x2-y2    tot
    1  0.000  0.000  0.011  0.000  0.000  0.000  0.000  0.000  0.000  0.011
    2  0.000  0.000  0.011  0.000  0.000  0.000  0.000  0.000  0.000  0.011
tot    0.000  0.000  0.022  0.000  0.000  0.000  0.000  0.000  0.000  0.022
 
band     7 # energy    2.59484099 # occ.  0.00000000
 
ion      s     py     pz     px    dxy    dyz    dz2    dxz  x2-y2    tot
    1  0.003  0.000  0.000  0.000  0.000  0.000  0.000  0.000  0.000  0.003
    2  0.003  0.000  0.000  0.000  0.000  0.000  0.000  0.000  0.000  0.003
tot    0.006  0.000  0.000  0.000  0.000  0.000  0.000  0.000  0.000  0.006
 
band     8 # energy    4.51828011 # occ.  0.00000000
 
ion      s     py     pz     px    dxy    dyz    dz2    dxz  x2-y2    tot
    1  0.000  0.000  0.014  0.000  0.000  0.000  0.000  0.000  0.000  0.014
    2  0.000  0.000  0.014  0.000  0.000  0.000  0.000  0.000  0.000  0.014
tot    0.000  0.000  0.029  0.000  0.000  0.000  0.000  0.000  0.000  0.029
 

 k-point     3 :    0.08695652-0.00000000 0.00000000     weight = 0.01134216

band     1 # energy  -24.28709689 # occ.  2.00000000
 
ion      s     py     pz     px    dxy    dyz    dz2    dxz  x2-y2    tot
    1  0.325  0.003  0.000  0.001  0.000  0.000  0.000  0.000  0.000  0.329
    2  0.325  0.003  0.000  0.001  0.000  0.000  0.000  0.000  0.000  0.329
tot    0.650  0.006  0.000  0.002  0.000  0.000  0.000  0.000  0.000  0.657
 
band     2 # energy  -11.02000121 # occ.  2.00000000
 
ion      s     py     pz     px    dxy    dyz    dz2    dxz  x2-y2    tot
    1  0.000  0.000  0.216  0.000  0.000  0.000  0.000  0.000  0.000  0.216
    2  0.000  0.000  0.216  0.000  0.000  0.000  0.000  0.000  0.000  0.216
tot    0.000  0.000  0.431  0.000  0.000  0.000  0.000  0.000  0.000  0.431
 
band     3 # energy   -7.03801089 # occ.  2.00000000
 
ion      s     py     pz     px    dxy    dyz    dz2    dxz  x2-y2    tot
    1  0.019  0.292  0.000  0.097  0.000  0.000  0.000  0.000  0.000  0.408
    2  0.019  0.292  0.000  0.097  0.000  0.000  0.000  0.000  0.000  0.408
tot    0.038  0.583  0.000  0.194  0.000  0.000  0.000  0.000  0.000  0.816
 
band     4 # energy   -6.66754489 # occ.  2.00000000
 
ion      s     py     pz     px    dxy    dyz    dz2    dxz  x2-y2    tot
    1  0.000  0.103  0.000  0.307  0.000  0.000  0.000  0.000  0.000  0.410
    2  0.000  0.103  0.000  0.307  0.000  0.000  0.000  0.000  0.000  0.410
tot    0.000  0.205  0.000  0.615  0.000  0.000  0.000  0.000  0.000  0.820
 
band     5 # energy    1.44433538 # occ.  0.00000000
 
ion      s     py     pz     px    dxy    dyz    dz2    dxz  x2-y2    tot
    1  0.008  0.000  0.000  0.000  0.000  0.000  0.000  0.000  0.000  0.008
    2  0.008  0.000  0.000  0.000  0.000  0.000  0.000  0.000  0.000  0.008
tot    0.016  0.001  0.000  0.000  0.000  0.000  0.000  0.000  0.000  0.017
 
band     6 # energy    2.30133515 # occ.  0.00000000
 
ion      s     py     pz     px    dxy    dyz    dz2    dxz  x2-y2    tot
    1  0.000  0.000  0.011  0.000  0.000  0.000  0.000  0.000  0.000  0.011
    2  0.000  0.000  0.011  0.000  0.000  0.000  0.000  0.000  0.000  0.011
tot    0.000  0.000  0.022  0.000  0.000  0.000  0.000  0.000  0.000  0.022
 
band     7 # energy    2.78266293 # occ.  0.00000000
 
ion      s     py     pz     px    dxy    dyz    dz2    dxz  x2-y2    tot
    1  0.003  0.000  0.000  0.000  0.000  0.000  0.000  0.000  0.000  0.003
    2  0.003  0.000  0.000  0.000  0.000  0.000  0.000  0.000  0.000  0.003
tot    0.006  0.000  0.000  0.000  0.000  0.000  0.000  0.000  0.000  0.006
 
band     8 # energy    4.70365405 # occ.  0.00000000
 
ion      s     py     pz     px    dxy    dyz    dz2    dxz  x2-y2    tot
    1  0.000  0.000  0.014  0.000  0.000  0.000  0.000  0.000  0.000  0.014
    2  0.000  0.000  0.014  0.000  0.000  0.000  0.000  0.000  0.000  0.014
tot    0.000  0.000  0.029  0.000  0.000  0.000  0.000  0.000  0.000  0.029
 

 k-point     4 :    0.13043478 0.00000000 0.00000000     weight = 0.01134216

band     1 # energy  -24.04152414 # occ.  2.00000000
 
ion      s     py     pz     px    dxy    dyz    dz2    dxz  x2-y2    tot
    1  0.321  0.006  0.000  0.002  0.000  0.000  0.000  0.000  0.000  0.330
    2  0.321  0.006  0.000  0.002  0.000  0.000  0.000  0.000  0.000  0.330
tot    0.643  0.013  0.000  0.004  0.000  0.000  0.000  0.000  0.000  0.660
 
band     2 # energy  -10.71817978 # occ.  2.00000000
 
ion      s     py     pz     px    dxy    dyz    dz2    dxz  x2-y2    tot
    1  0.000  0.000  0.216  0.000  0.000  0.000  0.000  0.000  0.000  0.216
    2  0.000  0.000  0.216  0.000  0.000  0.000  0.000  0.000  0.000  0.216
tot    0.000  0.000  0.433  0.000  0.000  0.000  0.000  0.000  0.000  0.433
 
band     3 # energy   -7.89968148 # occ.  2.00000000
 
ion      s     py     pz     px    dxy    dyz    dz2    dxz  x2-y2    tot
    1  0.038  0.272  0.000  0.091  0.000  0.000  0.000  0.000  0.000  0.402
    2  0.038  0.272  0.000  0.091  0.000  0.000  0.000  0.000  0.000  0.402
tot    0.077  0.545  0.000  0.182  0.000  0.000  0.000  0.000  0.000  0.803
 
band     4 # energy   -7.09393943 # occ.  2.00000000
 
ion      s     py     pz     px    dxy    dyz    dz2    dxz  x2-y2    tot
    1  0.000  0.102  0.000  0.305  0.000  0.000  0.000  0.000  0.000  0.406
    2  0.000  0.102  0.000  0.305  0.000  0.000  0.000  0.000  0.000  0.406
tot    0.000  0.203  0.000  0.610  0.000  0.000  0.000  0.000  0.000  0.813
 
band     5 # energy    1.75437369 # occ.  0.00000000
 
ion      s     py     pz     px    dxy    dyz    dz2    dxz  x2-y2    tot
    1  0.008  0.001  0.000  0.000  0.000  0.000  0.000  0.000  0.000  0.009
    2  0.008  0.001  0.000  0.000  0.000  0.000  0.000  0.000  0.000  0.009
tot    0.015  0.001  0.000  0.000  0.000  0.000  0.000  0.000  0.000  0.017
 
band     6 # energy    2.61236487 # occ.  0.00000000
 
ion      s     py     pz     px    dxy    dyz    dz2    dxz  x2-y2    tot
    1  0.000  0.000  0.011  0.000  0.000  0.000  0.000  0.000  0.000  0.011
    2  0.000  0.000  0.011  0.000  0.000  0.000  0.000  0.000  0.000  0.011
tot    0.000  0.000  0.023  0.000  0.000  0.000  0.000  0.000  0.000  0.023
 
band     7 # energy    3.09574571 # occ.  0.00000000
 
ion      s     py     pz     px    dxy    dyz    dz2    dxz  x2-y2    tot
    1  0.003  0.000  0.000  0.000  0.000  0.000  0.000  0.000  0.000  0.003
    2  0.003  0.000  0.000  0.000  0.000  0.000  0.000  0.000  0.000  0.003
tot    0.005  0.001  0.000  0.000  0.000  0.000  0.000  0.000  0.000  0.006
 
band     8 # energy    5.01208289 # occ.  0.00000000
 
ion      s     py     pz     px    dxy    dyz    dz2    dxz  x2-y2    tot
    1  0.000  0.000  0.014  0.000  0.000  0.000  0.000  0.000  0.000  0.014
    2  0.000  0.000  0.014  0.000  0.000  0.000  0.000  0.000  0.000  0.014
tot    0.000  0.000  0.029  0.000  0.000  0.000  0.000  0.000  0.000  0.029
 

 k-point     5 :    0.17391304-0.00000000 0.00000000     weight = 0.01134216

band     1 # energy  -23.69868017 # occ.  2.00000000
 
ion      s     py     pz     px    dxy    dyz    dz2    dxz  x2-y2    tot
    1  0.316  0.011  0.000  0.004  0.000  0.000  0.000  0.000  0.000  0.332
    2  0.316  0.011  0.000  0.004  0.000  0.000  0.000  0.000  0.000  0.332
tot    0.633  0.023  0.000  0.008  0.000  0.000  0.000  0.000  0.000  0.663
 
band     2 # energy  -10.29776574 # occ.  2.00000000
 
ion      s     py     pz     px    dxy    dyz    dz2    dxz  x2-y2    tot
    1  0.000  0.000  0.218  0.000  0.000  0.000  0.000  0.000  0.000  0.218
    2  0.000  0.000  0.218  0.000  0.000  0.000  0.000  0.000  0.000  0.218
tot    0.000  0.000  0.435  0.000  0.000  0.000  0.000  0.000  0.000  0.435
 
band     3 # energy   -8.96549037 # occ.  2.00000000
 
ion      s     py     pz     px    dxy    dyz    dz2    dxz  x2-y2    tot
    1  0.060  0.251  0.000  0.084  0.000  0.000  0.000  0.000  0.000  0.395
    2  0.060  0.251  0.000  0.084  0.000  0.000  0.000  0.000  0.000  0.395
tot    0.120  0.502  0.000  0.167  0.000  0.000  0.000  0.000  0.000  0.789
 
band     4 # energy   -7.59092743 # occ.  2.00000000
 
ion      s     py     pz     px    dxy    dyz    dz2    dxz  x2-y2    tot
    1  0.000  0.101  0.000  0.302  0.000  0.000  0.000  0.000  0.000  0.403
    2  0.000  0.101  0.000  0.302  0.000  0.000  0.000  0.000  0.000  0.403
tot    0.000  0.202  0.000  0.605  0.000  0.000  0.000  0.000  0.000  0.806
 
band     5 # energy    2.18838469 # occ.  0.00000000
 
ion      s     py     pz     px    dxy    dyz    dz2    dxz  x2-y2    tot
    1  0.007  0.001  0.000  0.000  0.000  0.000  0.000  0.000  0.000  0.009
    2  0.007  0.001  0.000  0.000  0.000  0.000  0.000  0.000  0.000  0.009
tot    0.015  0.002  0.000  0.001  0.000  0.000  0.000  0.000  0.000  0.017
 
band     6 # energy    3.04699588 # occ.  0.00000000
 
ion      s     py     pz     px    dxy    dyz    dz2    dxz  x2-y2    tot
    1  0.000  0.000  0.012  0.000  0.000  0.000  0.000  0.000  0.000  0.012
    2  0.000  0.000  0.012  0.000  0.000  0.000  0.000  0.000  0.000  0.012
tot    0.000  0.000  0.023  0.000  0.000  0.000  0.000  0.000  0.000  0.023
 
band     7 # energy    3.53406263 # occ.  0.00000000
 
ion      s     py     pz     px    dxy    dyz    dz2    dxz  x2-y2    tot
    1  0.002  0.001  0.000  0.000  0.000  0.000  0.000  0.000  0.000  0.003
    2  0.002  0.001  0.000  0.000  0.000  0.000  0.000  0.000  0.000  0.003
tot    0.005  0.001  0.000  0.000  0.000  0.000  0.000  0.000  0.000  0.006
 
band     8 # energy    5.44206350 # occ.  0.00000000
 
ion      s     py     pz     px    dxy    dyz    dz2    dxz  x2-y2    tot
    1  0.000  0.000  0.015  0.000  0.000  0.000  0.000  0.000  0.000  0.015
    2  0.000  0.000  0.015  0.000  0.000  0.000  0.000  0.000  0.000  0.015
tot    0.000  0.000  0.030  0.000  0.000  0.000  0.000  0.000  0.000  0.030
 

 k-point     6 :    0.21739130-0.00000000 0.00000000     weight = 0.01134216

band     1 # energy  -23.25962012 # occ.  2.00000000
 
ion      s     py     pz     px    dxy    dyz    dz2    dxz  x2-y2    tot
    1  0.310  0.018  0.000  0.006  0.000  0.000  0.000  0.000  0.000  0.334
    2  0.310  0.018  0.000  0.006  0.000  0.000  0.000  0.000  0.000  0.334
tot    0.620  0.035  0.000  0.012  0.000  0.000  0.000  0.000  0.000  0.667
 
band     2 # energy  -10.15698012 # occ.  2.00000000
 
ion      s     py     pz     px    dxy    dyz    dz2    dxz  x2-y2    tot
    1  0.083  0.229  0.000  0.076  0.000  0.000  0.000  0.000  0.000  0.388
    2  0.083  0.229  0.000  0.076  0.000  0.000  0.000  0.000  0.000  0.388
tot    0.165  0.458  0.000  0.153  0.000  0.000  0.000  0.000  0.000  0.775
 
band     3 # energy   -9.76156951 # occ.  2.00000000
 
ion      s     py     pz     px    dxy    dyz    dz2    dxz  x2-y2    tot
    1  0.000  0.000  0.219  0.000  0.000  0.000  0.000  0.000  0.000  0.219
    2  0.000  0.000  0.219  0.000  0.000  0.000  0.000  0.000  0.000  0.219
tot    0.000  0.000  0.439  0.000  0.000  0.000  0.000  0.000  0.000  0.439
 
band     4 # energy   -8.10465794 # occ.  2.00000000
 
ion      s     py     pz     px    dxy    dyz    dz2    dxz  x2-y2    tot
    1  0.000  0.100  0.000  0.300  0.000  0.000  0.000  0.000  0.000  0.400
    2  0.000  0.100  0.000  0.300  0.000  0.000  0.000  0.000  0.000  0.400
tot    0.000  0.200  0.000  0.601  0.000  0.000  0.000  0.000  0.000  0.801
 
band     5 # energy    2.74612043 # occ.  0.00000000
 
ion      s     py     pz     px    dxy    dyz    dz2    dxz  x2-y2    tot
    1  0.007  0.002  0.000  0.001  0.000  0.000  0.000  0.000  0.000  0.009
    2  0.007  0.002  0.000  0.001  0.000  0.000  0.000  0.000  0.000  0.009
tot    0.014  0.003  0.000  0.001  0.000  0.000  0.000  0.000  0.000  0.018
 
band     6 # energy    3.60342594 # occ.  0.00000000
 
ion      s     py     pz     px    dxy    dyz    dz2    dxz  x2-y2    tot
    1  0.000  0.000  0.012  0.000  0.000  0.000  0.000  0.000  0.000  0.012
    2  0.000  0.000  0.012  0.000  0.000  0.000  0.000  0.000  0.000  0.012
tot    0.000  0.000  0.024  0.000  0.000  0.000  0.000  0.000  0.000  0.024
 
band     7 # energy    4.09747698 # occ.  0.00000000
 
ion      s     py     pz     px    dxy    dyz    dz2    dxz  x2-y2    tot
    1  0.002  0.001  0.000  0.000  0.000  0.000  0.000  0.000  0.000  0.003
    2  0.002  0.001  0.000  0.000  0.000  0.000  0.000  0.000  0.000  0.003
tot    0.004  0.002  0.000  0.001  0.000  0.000  0.000  0.000  0.000  0.007
 
band     8 # energy    5.98489305 # occ.  0.00000000
 
ion      s     py     pz     px    dxy    dyz    dz2    dxz  x2-y2    tot
    1  0.000  0.000  0.018  0.000  0.000  0.000  0.000  0.000  0.000  0.018
    2  0.000  0.000  0.018  0.000  0.000  0.000  0.000  0.000  0.000  0.018
tot    0.000  0.000  0.037  0.000  0.000  0.000  0.000  0.000  0.000  0.037
 

 k-point     7 :    0.26086957 0.00000000 0.00000000     weight = 0.01134216

band     1 # energy  -22.72587979 # occ.  2.00000000
 
ion      s     py     pz     px    dxy    dyz    dz2    dxz  x2-y2    tot
    1  0.303  0.025  0.000  0.008  0.000  0.000  0.000  0.000  0.000  0.336
    2  0.303  0.025  0.000  0.008  0.000  0.000  0.000  0.000  0.000  0.336
tot    0.605  0.050  0.000  0.017  0.000  0.000  0.000  0.000  0.000  0.672
 
band     2 # energy  -11.41353698 # occ.  2.00000000
 
ion      s     py     pz     px    dxy    dyz    dz2    dxz  x2-y2    tot
    1  0.104  0.207  0.000  0.069  0.000  0.000  0.000  0.000  0.000  0.381
    2  0.104  0.207  0.000  0.069  0.000  0.000  0.000  0.000  0.000  0.381
tot    0.209  0.415  0.000  0.138  0.000  0.000  0.000  0.000  0.000  0.762
 
band     3 # energy   -9.11457700 # occ.  2.00000000
 
ion      s     py     pz     px    dxy    dyz    dz2    dxz  x2-y2    tot
    1  0.000  0.000  0.222  0.000  0.000  0.000  0.000  0.000  0.000  0.222
    2  0.000  0.000  0.222  0.000  0.000  0.000  0.000  0.000  0.000  0.222
tot    0.000  0.000  0.443  0.000  0.000  0.000  0.000  0.000  0.000  0.443
 
band     4 # energy   -8.59475286 # occ.  2.00000000
 
ion      s     py     pz     px    dxy    dyz    dz2    dxz  x2-y2    tot
    1  0.000  0.100  0.000  0.299  0.000  0.000  0.000  0.000  0.000  0.398
    2  0.000  0.100  0.000  0.299  0.000  0.000  0.000  0.000  0.000  0.398
tot    0.000  0.199  0.000  0.598  0.000  0.000  0.000  0.000  0.000  0.797
 
band     5 # energy    3.42710444 # occ.  0.00000000
 
ion      s     py     pz     px    dxy    dyz    dz2    dxz  x2-y2    tot
    1  0.006  0.002  0.000  0.001  0.000  0.000  0.000  0.000  0.000  0.009
    2  0.006  0.002  0.000  0.001  0.000  0.000  0.000  0.000  0.000  0.009
tot    0.012  0.005  0.000  0.002  0.000  0.000  0.000  0.000  0.000  0.019
 
band     6 # energy    4.27162528 # occ.  0.00000000
 
ion      s     py     pz     px    dxy    dyz    dz2    dxz  x2-y2    tot
    1  0.000  0.000  0.015  0.000  0.000  0.000  0.000  0.000  0.000  0.015
    2  0.000  0.000  0.015  0.000  0.000  0.000  0.000  0.000  0.000  0.015
tot    0.000  0.000  0.030  0.000  0.000  0.000  0.000  0.000  0.000  0.030
 
band     7 # energy    4.78561617 # occ.  0.00000000
 
ion      s     py     pz     px    dxy    dyz    dz2    dxz  x2-y2    tot
    1  0.002  0.001  0.000  0.000  0.000  0.000  0.000  0.000  0.000  0.003
    2  0.002  0.001  0.000  0.000  0.000  0.000  0.000  0.000  0.000  0.003
tot    0.004  0.002  0.000  0.001  0.000  0.000  0.000  0.000  0.000  0.007
 
band     8 # energy    5.87369056 # occ.  0.00000000
 
ion      s     py     pz     px    dxy    dyz    dz2    dxz  x2-y2    tot
    1  0.000  0.000  0.266  0.000  0.000  0.000  0.000  0.000  0.000  0.266
    2  0.000  0.000  0.266  0.000  0.000  0.000  0.000  0.000  0.000  0.266
tot    0.000  0.000  0.532  0.000  0.000  0.000  0.000  0.000  0.000  0.532
 

 k-point     8 :    0.30434783 0.00000000 0.00000000     weight = 0.01134216

band     1 # energy  -22.09977431 # occ.  2.00000000
 
ion      s     py     pz     px    dxy    dyz    dz2    dxz  x2-y2    tot
    1  0.294  0.034  0.000  0.011  0.000  0.000  0.000  0.000  0.000  0.339
    2  0.294  0.034  0.000  0.011  0.000  0.000  0.000  0.000  0.000  0.339
tot    0.588  0.067  0.000  0.022  0.000  0.000  0.000  0.000  0.000  0.678
 
band     2 # energy  -12.69025159 # occ.  2.00000000
 
ion      s     py     pz     px    dxy    dyz    dz2    dxz  x2-y2    tot
    1  0.125  0.187  0.000  0.062  0.000  0.000  0.000  0.000  0.000  0.374
    2  0.125  0.187  0.000  0.062  0.000  0.000  0.000  0.000  0.000  0.374
tot    0.250  0.374  0.000  0.125  0.000  0.000  0.000  0.000  0.000  0.749
 
band     3 # energy   -9.03325067 # occ.  2.00000000
 
ion      s     py     pz     px    dxy    dyz    dz2    dxz  x2-y2    tot
    1  0.000  0.099  0.000  0.298  0.000  0.000  0.000  0.000  0.000  0.397
    2  0.000  0.099  0.000  0.298  0.000  0.000  0.000  0.000  0.000  0.397
tot    0.000  0.198  0.000  0.595  0.000  0.000  0.000  0.000  0.000  0.794
 
band     4 # energy   -8.36634166 # occ.  2.00000000
 
ion      s     py     pz     px    dxy    dyz    dz2    dxz  x2-y2    tot
    1  0.000  0.000  0.225  0.000  0.000  0.000  0.000  0.000  0.000  0.225
    2  0.000  0.000  0.225  0.000  0.000  0.000  0.000  0.000  0.000  0.225
tot    0.000  0.000  0.450  0.000  0.000  0.000  0.000  0.000  0.000  0.450
 
band     5 # energy    4.23040899 # occ.  0.00000000
 
ion      s     py     pz     px    dxy    dyz    dz2    dxz  x2-y2    tot
    1  0.005  0.003  0.000  0.001  0.000  0.000  0.000  0.000  0.000  0.010
    2  0.005  0.003  0.000  0.001  0.000  0.000  0.000  0.000  0.000  0.010
tot    0.011  0.007  0.000  0.002  0.000  0.000  0.000  0.000  0.000  0.020
 
band     6 # energy    4.41129259 # occ.  0.00000000
 
ion      s     py     pz     px    dxy    dyz    dz2    dxz  x2-y2    tot
    1  0.000  0.000  0.241  0.000  0.000  0.000  0.000  0.000  0.000  0.241
    2  0.000  0.000  0.241  0.000  0.000  0.000  0.000  0.000  0.000  0.241
tot    0.000  0.000  0.483  0.000  0.000  0.000  0.000  0.000  0.000  0.483
 
band     7 # energy    5.17483266 # occ.  0.00000000
 
ion      s     py     pz     px    dxy    dyz    dz2    dxz  x2-y2    tot
    1  0.000  0.000  0.041  0.000  0.000  0.000  0.000  0.000  0.000  0.041
    2  0.000  0.000  0.041  0.000  0.000  0.000  0.000  0.000  0.000  0.041
tot    0.000  0.000  0.082  0.000  0.000  0.000  0.000  0.000  0.000  0.082
 
band     8 # energy    5.59693476 # occ.  0.00000000
 
ion      s     py     pz     px    dxy    dyz    dz2    dxz  x2-y2    tot
    1  0.002  0.002  0.000  0.001  0.000  0.000  0.000  0.000  0.000  0.004
    2  0.002  0.002  0.000  0.001  0.000  0.000  0.000  0.000  0.000  0.004
tot    0.003  0.004  0.000  0.001  0.000  0.000  0.000  0.000  0.000  0.008
 

 k-point     9 :    0.34782609 0.00000000 0.00000000     weight = 0.01134216

band     1 # energy  -21.38502958 # occ.  2.00000000
 
ion      s     py     pz     px    dxy    dyz    dz2    dxz  x2-y2    tot
    1  0.285  0.043  0.000  0.014  0.000  0.000  0.000  0.000  0.000  0.343
    2  0.285  0.043  0.000  0.014  0.000  0.000  0.000  0.000  0.000  0.343
tot    0.571  0.086  0.000  0.029  0.000  0.000  0.000  0.000  0.000  0.685
 
band     2 # energy  -13.95373994 # occ.  2.00000000
 
ion      s     py     pz     px    dxy    dyz    dz2    dxz  x2-y2    tot
    1  0.143  0.169  0.000  0.056  0.000  0.000  0.000  0.000  0.000  0.368
    2  0.143  0.169  0.000  0.056  0.000  0.000  0.000  0.000  0.000  0.368
tot    0.287  0.337  0.000  0.112  0.000  0.000  0.000  0.000  0.000  0.736
 
band     3 # energy   -9.40126865 # occ.  2.00000000
 
ion      s     py     pz     px    dxy    dyz    dz2    dxz  x2-y2    tot
    1  0.000  0.099  0.000  0.297  0.000  0.000  0.000  0.000  0.000  0.396
    2  0.000  0.099  0.000  0.297  0.000  0.000  0.000  0.000  0.000  0.396
tot    0.000  0.198  0.000  0.594  0.000  0.000  0.000  0.000  0.000  0.792
 
band     4 # energy   -7.53567791 # occ.  2.00000000
 
ion      s     py     pz     px    dxy    dyz    dz2    dxz  x2-y2    tot
    1  0.000  0.000  0.229  0.000  0.000  0.000  0.000  0.000  0.000  0.229
    2  0.000  0.000  0.229  0.000  0.000  0.000  0.000  0.000  0.000  0.229
tot    0.000  0.000  0.458  0.000  0.000  0.000  0.000  0.000  0.000  0.458
 
band     5 # energy    3.07863361 # occ.  0.00000000
 
ion      s     py     pz     px    dxy    dyz    dz2    dxz  x2-y2    tot
    1  0.000  0.000  0.251  0.000  0.000  0.000  0.000  0.000  0.000  0.251
    2  0.000  0.000  0.251  0.000  0.000  0.000  0.000  0.000  0.000  0.251
tot    0.000  0.000  0.502  0.000  0.000  0.000  0.000  0.000  0.000  0.502
 
band     6 # energy    5.15340695 # occ.  0.00000000
 
ion      s     py     pz     px    dxy    dyz    dz2    dxz  x2-y2    tot
    1  0.004  0.005  0.000  0.002  0.000  0.000  0.000  0.000  0.000  0.012
    2  0.004  0.005  0.000  0.002  0.000  0.000  0.000  0.000  0.000  0.012
tot    0.009  0.011  0.000  0.004  0.000  0.000  0.000  0.000  0.000  0.023
 
band     7 # energy    6.05334777 # occ.  0.00000000
 
ion      s     py     pz     px    dxy    dyz    dz2    dxz  x2-y2    tot
    1  0.000  0.000  0.017  0.000  0.000  0.000  0.000  0.000  0.000  0.017
    2  0.000  0.000  0.017  0.000  0.000  0.000  0.000  0.000  0.000  0.017
tot    0.000  0.000  0.033  0.000  0.000  0.000  0.000  0.000  0.000  0.033
 
band     8 # energy    6.48767173 # occ.  0.00000000
 
ion      s     py     pz     px    dxy    dyz    dz2    dxz  x2-y2    tot
    1  0.010  0.009  0.000  0.003  0.000  0.000  0.000  0.000  0.000  0.022
    2  0.010  0.009  0.000  0.003  0.000  0.000  0.000  0.000  0.000  0.022
tot    0.021  0.017  0.000  0.006  0.000  0.000  0.000  0.000  0.000  0.044
 

 k-point    10 :    0.39130435 0.00000000 0.00000000     weight = 0.01134216

band     1 # energy  -20.58862043 # occ.  2.00000000
 
ion      s     py     pz     px    dxy    dyz    dz2    dxz  x2-y2    tot
    1  0.277  0.053  0.000  0.018  0.000  0.000  0.000  0.000  0.000  0.347
    2  0.277  0.053  0.000  0.018  0.000  0.000  0.000  0.000  0.000  0.347
tot    0.554  0.105  0.000  0.035  0.000  0.000  0.000  0.000  0.000  0.694
 
band     2 # energy  -15.17657043 # occ.  2.00000000
 
ion      s     py     pz     px    dxy    dyz    dz2    dxz  x2-y2    tot
    1  0.159  0.152  0.000  0.051  0.000  0.000  0.000  0.000  0.000  0.362
    2  0.159  0.152  0.000  0.051  0.000  0.000  0.000  0.000  0.000  0.362
tot    0.318  0.304  0.000  0.101  0.000  0.000  0.000  0.000  0.000  0.723
 
band     3 # energy   -9.68624594 # occ.  2.00000000
 
ion      s     py     pz     px    dxy    dyz    dz2    dxz  x2-y2    tot
    1  0.000  0.099  0.000  0.297  0.000  0.000  0.000  0.000  0.000  0.396
    2  0.000  0.099  0.000  0.297  0.000  0.000  0.000  0.000  0.000  0.396
tot    0.000  0.198  0.000  0.593  0.000  0.000  0.000  0.000  0.000  0.791
 
band     4 # energy   -6.66287588 # occ.  2.00000000
 
ion      s     py     pz     px    dxy    dyz    dz2    dxz  x2-y2    tot
    1  0.000  0.000  0.235  0.000  0.000  0.000  0.000  0.000  0.000  0.235
    2  0.000  0.000  0.235  0.000  0.000  0.000  0.000  0.000  0.000  0.235
tot    0.000  0.000  0.470  0.000  0.000  0.000  0.000  0.000  0.000  0.470
 
band     5 # energy    1.77231973 # occ.  0.00000000
 
ion      s     py     pz     px    dxy    dyz    dz2    dxz  x2-y2    tot
    1  0.000  0.000  0.238  0.000  0.000  0.000  0.000  0.000  0.000  0.238
    2  0.000  0.000  0.238  0.000  0.000  0.000  0.000  0.000  0.000  0.238
tot    0.000  0.000  0.476  0.000  0.000  0.000  0.000  0.000  0.000  0.476
 
band     6 # energy    6.12571193 # occ.  0.00000000
 
ion      s     py     pz     px    dxy    dyz    dz2    dxz  x2-y2    tot
    1  0.064  0.031  0.000  0.010  0.000  0.000  0.000  0.000  0.000  0.105
    2  0.064  0.031  0.000  0.010  0.000  0.000  0.000  0.000  0.000  0.105
tot    0.128  0.062  0.000  0.021  0.000  0.000  0.000  0.000  0.000  0.210
 
band     7 # energy    6.31689553 # occ.  0.00000000
 
ion      s     py     pz     px    dxy    dyz    dz2    dxz  x2-y2    tot
    1  0.110  0.011  0.000  0.004  0.000  0.000  0.000  0.000  0.000  0.124
    2  0.110  0.011  0.000  0.004  0.000  0.000  0.000  0.000  0.000  0.124
tot    0.220  0.021  0.000  0.007  0.000  0.000  0.000  0.000  0.000  0.248
 
band     8 # energy    7.09580675 # occ.  0.00000000
 
ion      s     py     pz     px    dxy    dyz    dz2    dxz  x2-y2    tot
    1  0.000  0.000  0.016  0.000  0.000  0.000  0.000  0.000  0.000  0.016
    2  0.000  0.000  0.016  0.000  0.000  0.000  0.000  0.000  0.000  0.016
tot    0.000  0.000  0.032  0.000  0.000  0.000  0.000  0.000  0.000  0.032
 

 k-point    11 :    0.43478261 0.00000000 0.00000000     weight = 0.01134216

band     1 # energy  -19.72932353 # occ.  2.00000000
 
ion      s     py     pz     px    dxy    dyz    dz2    dxz  x2-y2    tot
    1  0.273  0.060  0.000  0.020  0.000  0.000  0.000  0.000  0.000  0.353
    2  0.273  0.060  0.000  0.020  0.000  0.000  0.000  0.000  0.000  0.353