  16  16   0  16
  0.1957334E+02  0.4910000E-09  0.4910000E-09  0.1500000E-08  0.5000000E-15
  1.000000000000000E-004
  CAR 
 Lattice                                 
     10.25779371    -21.32552403  301     -0.22858691      1.00000000
    -21.326  0.0000E+00  0.0000E+00  0.0000E+00  0.0000E+00
    -21.220  0.0000E+00  0.0000E+00  0.0000E+00  0.0000E+00
    -21.115  0.0000E+00  0.0000E+00  0.0000E+00  0.0000E+00
    -21.010  0.0000E+00  0.0000E+00  0.0000E+00  0.0000E+00
    -20.904  0.0000E+00  0.0000E+00  0.0000E+00  0.0000E+00
    -20.799  0.0000E+00  0.0000E+00  0.0000E+00  0.0000E+00
    -20.694  0.0000E+00  0.0000E+00  0.0000E+00  0.0000E+00
    -20.589  0.0000E+00  0.0000E+00  0.0000E+00  0.0000E+00
    -20.483  0.0000E+00  0.0000E+00  0.0000E+00  0.0000E+00
    -20.378  0.1421E-14  0.1421E-14  0.1496E-15  0.1496E-15
    -20.273  0.1894E-10  0.1894E-10  0.1994E-11  0.1994E-11
    -20.167  0.3234E-07  0.3234E-07  0.3406E-08  0.3406E-08
    -20.062  0.7724E-05  0.7724E-05  0.8166E-06  0.8166E-06
    -19.957  0.2867E-03  0.2867E-03  0.3100E-04  0.3100E-04
    -19.852  0.2021E-02  0.2021E-02  0.2438E-03  0.2438E-03
    -19.746  0.4225E-02  0.4225E-02  0.6887E-03  0.6887E-03
    -19.641  0.4636E-02  0.4636E-02  0.1177E-02  0.1177E-02
    -19.536  0.5013E-02  0.5013E-02  0.1704E-02  0.1704E-02
    -19.431  0.4293E-02  0.4293E-02  0.2156E-02  0.2156E-02
    -19.325  0.5485E-02  0.5485E-02  0.2734E-02  0.2734E-02
    -19.220  0.4244E-02  0.4244E-02  0.3181E-02  0.3181E-02
    -19.115  0.4503E-02  0.4503E-02  0.3655E-02  0.3655E-02
    -19.009  0.6056E-02  0.6056E-02  0.4292E-02  0.4292E-02
    -18.904  0.3759E-02  0.3759E-02  0.4688E-02  0.4688E-02
    -18.799  0.4217E-02  0.4217E-02  0.5132E-02  0.5132E-02
    -18.694  0.6252E-02  0.6252E-02  0.5790E-02  0.5790E-02
    -18.588  0.5108E-02  0.5108E-02  0.6328E-02  0.6328E-02
    -18.483  0.2924E-02  0.2924E-02  0.6636E-02  0.6636E-02
    -18.378  0.4991E-02  0.4991E-02  0.7161E-02  0.7161E-02
    -18.272  0.6869E-02  0.6869E-02  0.7884E-02  0.7884E-02
    -18.167  0.4447E-02  0.4447E-02  0.8353E-02  0.8353E-02
    -18.062  0.3717E-02  0.3717E-02  0.8744E-02  0.8744E-02
    -17.957  0.3410E-02  0.3410E-02  0.9103E-02  0.9103E-02
    -17.851  0.7218E-02  0.7218E-02  0.9863E-02  0.9863E-02
    -17.746  0.6203E-02  0.6203E-02  0.1052E-01  0.1052E-01
    -17.641  0.3262E-02  0.3262E-02  0.1086E-01  0.1086E-01
    -17.536  0.3639E-02  0.3639E-02  0.1124E-01  0.1124E-01
    -17.430  0.4429E-02  0.4429E-02  0.1171E-01  0.1171E-01
    -17.325  0.6861E-02  0.6861E-02  0.1243E-01  0.1243E-01
    -17.220  0.6407E-02  0.6407E-02  0.1311E-01  0.1311E-01
    -17.114  0.4384E-02  0.4384E-02  0.1357E-01  0.1357E-01
    -17.009  0.2196E-02  0.2196E-02  0.1380E-01  0.1380E-01
    -16.904  0.4345E-02  0.4345E-02  0.1426E-01  0.1426E-01
    -16.799  0.7075E-02  0.7075E-02  0.1500E-01  0.1500E-01
    -16.693  0.6308E-02  0.6308E-02  0.1566E-01  0.1566E-01
    -16.588  0.5207E-02  0.5207E-02  0.1621E-01  0.1621E-01
    -16.483  0.4414E-02  0.4414E-02  0.1668E-01  0.1668E-01
    -16.377  0.2724E-02  0.2724E-02  0.1696E-01  0.1696E-01
    -16.272  0.3209E-02  0.3209E-02  0.1730E-01  0.1730E-01
    -16.167  0.8829E-02  0.8829E-02  0.1823E-01  0.1823E-01
    -16.062  0.6994E-02  0.6994E-02  0.1897E-01  0.1897E-01
    -15.956  0.6895E-02  0.6895E-02  0.1969E-01  0.1969E-01
    -15.851  0.9215E-02  0.9215E-02  0.2066E-01  0.2066E-01
    -15.746  0.1029E-01  0.1029E-01  0.2175E-01  0.2175E-01
    -15.641  0.9438E-02  0.9438E-02  0.2274E-01  0.2274E-01
    -15.535  0.1233E-01  0.1233E-01  0.2404E-01  0.2404E-01
    -15.430  0.1560E-01  0.1560E-01  0.2568E-01  0.2568E-01
    -15.325  0.1370E-01  0.1370E-01  0.2712E-01  0.2712E-01
    -15.219  0.1126E-01  0.1126E-01  0.2831E-01  0.2831E-01
    -15.114  0.1395E-01  0.1395E-01  0.2978E-01  0.2978E-01
    -15.009  0.1160E-01  0.1160E-01  0.3100E-01  0.3100E-01
    -14.904  0.1021E-01  0.1021E-01  0.3207E-01  0.3207E-01
    -14.798  0.9988E-02  0.9988E-02  0.3312E-01  0.3312E-01
    -14.693  0.1042E-01  0.1042E-01  0.3422E-01  0.3422E-01
    -14.588  0.8236E-02  0.8236E-02  0.3509E-01  0.3509E-01
    -14.482  0.8269E-02  0.8269E-02  0.3596E-01  0.3596E-01
    -14.377  0.8875E-02  0.8875E-02  0.3689E-01  0.3689E-01
    -14.272  0.7923E-02  0.7924E-02  0.3773E-01  0.3773E-01
    -14.167  0.1343E-01  0.1343E-01  0.3914E-01  0.3914E-01
    -14.061  0.1512E-01  0.1512E-01  0.4073E-01  0.4073E-01
    -13.956  0.7608E-02  0.7608E-02  0.4153E-01  0.4153E-01
    -13.851  0.5424E-02  0.5424E-02  0.4210E-01  0.4210E-01
    -13.746  0.4512E-02  0.4512E-02  0.4258E-01  0.4258E-01
    -13.640  0.4015E-02  0.4015E-02  0.4300E-01  0.4300E-01
    -13.535  0.7139E-02  0.7139E-02  0.4375E-01  0.4375E-01
    -13.430  0.1095E-01  0.1095E-01  0.4491E-01  0.4491E-01
    -13.324  0.7942E-02  0.7942E-02  0.4574E-01  0.4574E-01
    -13.219  0.5612E-02  0.5612E-02  0.4633E-01  0.4633E-01
    -13.114  0.7523E-02  0.7523E-02  0.4713E-01  0.4713E-01
    -13.009  0.7179E-02  0.7179E-02  0.4788E-01  0.4788E-01
    -12.903  0.6843E-02  0.6843E-02  0.4860E-01  0.4860E-01
    -12.798  0.8150E-02  0.8150E-02  0.4946E-01  0.4946E-01
    -12.693  0.7807E-02  0.7807E-02  0.5028E-01  0.5028E-01
    -12.587  0.8925E-02  0.8925E-02  0.5122E-01  0.5122E-01
    -12.482  0.1351E-01  0.1351E-01  0.5264E-01  0.5264E-01
    -12.377  0.1061E-01  0.1061E-01  0.5376E-01  0.5376E-01
    -12.272  0.1266E-01  0.1266E-01  0.5509E-01  0.5509E-01
    -12.166  0.1219E-01  0.1219E-01  0.5638E-01  0.5638E-01
    -12.061  0.1136E-01  0.1136E-01  0.5757E-01  0.5757E-01
    -11.956  0.1873E-01  0.1873E-01  0.5954E-01  0.5954E-01
    -11.851  0.1669E-01  0.1669E-01  0.6130E-01  0.6130E-01
    -11.745  0.1254E-01  0.1254E-01  0.6262E-01  0.6262E-01
    -11.640  0.1151E-01  0.1151E-01  0.6383E-01  0.6383E-01
    -11.535  0.1062E-01  0.1062E-01  0.6495E-01  0.6495E-01
    -11.429  0.9711E-02  0.9711E-02  0.6597E-01  0.6597E-01
    -11.324  0.5158E-02  0.5158E-02  0.6652E-01  0.6652E-01
    -11.219  0.2598E-02  0.2598E-02  0.6679E-01  0.6679E-01
    -11.114  0.4451E-02  0.4451E-02  0.6726E-01  0.6726E-01
    -11.008  0.6290E-02  0.6290E-02  0.6792E-01  0.6792E-01
    -10.903  0.6160E-02  0.6160E-02  0.6857E-01  0.6857E-01
    -10.798  0.6558E-02  0.6558E-02  0.6926E-01  0.6926E-01
    -10.692  0.1056E-01  0.1056E-01  0.7037E-01  0.7037E-01
    -10.587  0.1148E-01  0.1148E-01  0.7158E-01  0.7158E-01
    -10.482  0.1149E-01  0.1149E-01  0.7279E-01  0.7279E-01
    -10.377  0.1878E-01  0.1878E-01  0.7477E-01  0.7477E-01
    -10.271  0.1605E-01  0.1605E-01  0.7646E-01  0.7646E-01
    -10.166  0.6132E-02  0.6132E-02  0.7710E-01  0.7710E-01
    -10.061  0.5155E-02  0.5155E-02  0.7764E-01  0.7764E-01
     -9.956  0.1265E-01  0.1265E-01  0.7898E-01  0.7898E-01
     -9.850  0.1596E-01  0.1596E-01  0.8066E-01  0.8066E-01
     -9.745  0.1042E-01  0.1042E-01  0.8175E-01  0.8175E-01
     -9.640  0.4874E-02  0.4874E-02  0.8227E-01  0.8227E-01
     -9.534  0.3789E-02  0.3789E-02  0.8267E-01  0.8267E-01
     -9.429  0.1341E-01  0.1341E-01  0.8408E-01  0.8408E-01
     -9.324  0.2125E-01  0.2125E-01  0.8631E-01  0.8631E-01
     -9.219  0.1899E-01  0.1899E-01  0.8831E-01  0.8831E-01
     -9.113  0.1633E-01  0.1633E-01  0.9003E-01  0.9003E-01
     -9.008  0.1153E-01  0.1153E-01  0.9125E-01  0.9125E-01
     -8.903  0.1094E-01  0.1094E-01  0.9240E-01  0.9240E-01
     -8.797  0.1344E-01  0.1344E-01  0.9381E-01  0.9381E-01
     -8.692  0.1807E-01  0.1807E-01  0.9572E-01  0.9572E-01
     -8.587  0.1646E-01  0.1646E-01  0.9745E-01  0.9745E-01
     -8.482  0.1092E-01  0.1092E-01  0.9860E-01  0.9860E-01
     -8.376  0.1161E-01  0.1161E-01  0.9982E-01  0.9982E-01
     -8.271  0.1988E-01  0.1988E-01  0.1019E+00  0.1019E+00
     -8.166  0.1501E-01  0.1501E-01  0.1035E+00  0.1035E+00
     -8.061  0.1123E-01  0.1123E-01  0.1047E+00  0.1047E+00
     -7.955  0.1556E-01  0.1556E-01  0.1063E+00  0.1063E+00
     -7.850  0.1461E-01  0.1461E-01  0.1079E+00  0.1079E+00
     -7.745  0.2148E-01  0.2148E-01  0.1101E+00  0.1101E+00
     -7.639  0.2439E-01  0.2439E-01  0.1127E+00  0.1127E+00
     -7.534  0.1529E-01  0.1529E-01  0.1143E+00  0.1143E+00
     -7.429  0.1384E-01  0.1384E-01  0.1157E+00  0.1157E+00
     -7.324  0.1627E-01  0.1627E-01  0.1175E+00  0.1175E+00
     -7.218  0.2133E-01  0.2133E-01  0.1197E+00  0.1197E+00
     -7.113  0.1845E-01  0.1845E-01  0.1216E+00  0.1216E+00
     -7.008  0.1436E-01  0.1436E-01  0.1232E+00  0.1232E+00
     -6.902  0.1428E-01  0.1428E-01  0.1247E+00  0.1247E+00
     -6.797  0.2109E-01  0.2109E-01  0.1269E+00  0.1269E+00
     -6.692  0.2602E-01  0.2602E-01  0.1296E+00  0.1296E+00
     -6.587  0.2948E-01  0.2948E-01  0.1327E+00  0.1327E+00
     -6.481  0.2885E-01  0.2885E-01  0.1358E+00  0.1358E+00
     -6.376  0.2581E-01  0.2581E-01  0.1385E+00  0.1385E+00
     -6.271  0.2904E-01  0.2904E-01  0.1415E+00  0.1415E+00
     -6.166  0.1996E-01  0.1996E-01  0.1436E+00  0.1436E+00
     -6.060  0.1739E-01  0.1739E-01  0.1455E+00  0.1455E+00
     -5.955  0.1776E-01  0.1776E-01  0.1473E+00  0.1473E+00
     -5.850  0.1047E-01  0.1047E-01  0.1484E+00  0.1484E+00
     -5.744  0.1836E-01  0.1836E-01  0.1504E+00  0.1504E+00
     -5.639  0.2182E-01  0.2182E-01  0.1527E+00  0.1527E+00
     -5.534  0.1120E-01  0.1120E-01  0.1539E+00  0.1539E+00
     -5.429  0.6901E-02  0.6901E-02  0.1546E+00  0.1546E+00
     -5.323  0.1462E-01  0.1462E-01  0.1561E+00  0.1561E+00
     -5.218  0.2082E-01  0.2082E-01  0.1583E+00  0.1583E+00
     -5.113  0.1610E-01  0.1610E-01  0.1600E+00  0.1600E+00
     -5.007  0.1140E-01  0.1140E-01  0.1612E+00  0.1612E+00
     -4.902  0.1292E-01  0.1292E-01  0.1626E+00  0.1626E+00
     -4.797  0.1289E-01  0.1289E-01  0.1639E+00  0.1639E+00
     -4.692  0.1060E-01  0.1060E-01  0.1650E+00  0.1650E+00
     -4.586  0.1312E-01  0.1312E-01  0.1664E+00  0.1664E+00
     -4.481  0.1173E-01  0.1173E-01  0.1677E+00  0.1677E+00
     -4.376  0.1337E-01  0.1337E-01  0.1691E+00  0.1691E+00
     -4.271  0.2486E-01  0.2486E-01  0.1717E+00  0.1717E+00
     -4.165  0.2214E-01  0.2214E-01  0.1740E+00  0.1740E+00
     -4.060  0.1087E-01  0.1087E-01  0.1752E+00  0.1752E+00
     -3.955  0.1551E-01  0.1551E-01  0.1768E+00  0.1768E+00
     -3.849  0.2599E-01  0.2599E-01  0.1795E+00  0.1795E+00
     -3.744  0.2332E-01  0.2332E-01  0.1820E+00  0.1820E+00
     -3.639  0.2228E-01  0.2228E-01  0.1843E+00  0.1843E+00
     -3.534  0.2877E-01  0.2877E-01  0.1874E+00  0.1874E+00
     -3.428  0.2611E-01  0.2611E-01  0.1901E+00  0.1901E+00
     -3.323  0.1887E-01  0.1887E-01  0.1921E+00  0.1921E+00
     -3.218  0.1366E-01  0.1366E-01  0.1935E+00  0.1935E+00
     -3.112  0.1234E-01  0.1234E-01  0.1948E+00  0.1948E+00
     -3.007  0.1336E-01  0.1336E-01  0.1962E+00  0.1962E+00
     -2.902  0.1315E-01  0.1315E-01  0.1976E+00  0.1976E+00
     -2.797  0.1560E-01  0.1560E-01  0.1993E+00  0.1993E+00
     -2.691  0.1182E-01  0.1182E-01  0.2005E+00  0.2005E+00
     -2.586  0.7062E-02  0.7062E-02  0.2012E+00  0.2012E+00
     -2.481  0.1025E-01  0.1025E-01  0.2023E+00  0.2023E+00
     -2.376  0.1791E-01  0.1791E-01  0.2042E+00  0.2042E+00
     -2.270  0.1573E-01  0.1573E-01  0.2059E+00  0.2059E+00
     -2.165  0.8173E-02  0.8173E-02  0.2067E+00  0.2067E+00
     -2.060  0.1034E-01  0.1034E-01  0.2078E+00  0.2078E+00
     -1.954  0.6811E-02  0.6811E-02  0.2085E+00  0.2085E+00
     -1.849  0.5375E-02  0.5376E-02  0.2091E+00  0.2091E+00
     -1.744  0.8796E-02  0.8796E-02  0.2100E+00  0.2100E+00
     -1.639  0.1001E-01  0.1001E-01  0.2111E+00  0.2111E+00
     -1.533  0.9444E-02  0.9444E-02  0.2121E+00  0.2121E+00
     -1.428  0.8665E-02  0.8665E-02  0.2130E+00  0.2130E+00
     -1.323  0.8316E-02  0.8316E-02  0.2139E+00  0.2139E+00
     -1.217  0.5780E-02  0.5780E-02  0.2145E+00  0.2145E+00
     -1.112  0.5734E-02  0.5734E-02  0.2151E+00  0.2151E+00
     -1.007  0.5173E-02  0.5173E-02  0.2156E+00  0.2156E+00
     -0.902  0.7898E-02  0.7898E-02  0.2164E+00  0.2164E+00
     -0.796  0.6632E-02  0.6632E-02  0.2171E+00  0.2171E+00
     -0.691  0.3012E-02  0.3012E-02  0.2175E+00  0.2175E+00
     -0.586  0.1030E-02  0.1030E-02  0.2176E+00  0.2176E+00
     -0.481  0.2019E-02  0.2019E-02  0.2178E+00  0.2178E+00
     -0.375  0.3932E-02  0.3932E-02  0.2182E+00  0.2182E+00
     -0.270  0.3869E-02  0.3869E-02  0.2186E+00  0.2186E+00
     -0.165  0.3022E-02  0.3022E-02  0.2189E+00  0.2189E+00
     -0.059  0.2886E-02  0.2886E-02  0.2192E+00  0.2192E+00
      0.046  0.3337E-02  0.3337E-02  0.2196E+00  0.2196E+00
      0.151  0.2709E-02  0.2709E-02  0.2199E+00  0.2199E+00
      0.256  0.4178E-02  0.4178E-02  0.2203E+00  0.2203E+00
      0.362  0.8646E-02  0.8646E-02  0.2212E+00  0.2212E+00
      0.467  0.1232E-01  0.1232E-01  0.2225E+00  0.2225E+00
      0.572  0.1109E-01  0.1109E-01  0.2237E+00  0.2237E+00
      0.678  0.7099E-02  0.7099E-02  0.2244E+00  0.2244E+00
      0.783  0.2300E-02  0.2300E-02  0.2247E+00  0.2247E+00
      0.888  0.5617E-02  0.5617E-02  0.2253E+00  0.2253E+00
      0.993  0.1249E-01  0.1249E-01  0.2266E+00  0.2266E+00
      1.099  0.7082E-02  0.7082E-02  0.2273E+00  0.2273E+00
      1.204  0.3997E-02  0.3997E-02  0.2277E+00  0.2277E+00
      1.309  0.8920E-02  0.8920E-02  0.2287E+00  0.2287E+00
      1.414  0.1396E-01  0.1396E-01  0.2301E+00  0.2301E+00
      1.520  0.1414E-01  0.1414E-01  0.2316E+00  0.2316E+00
      1.625  0.1290E-01  0.1290E-01  0.2330E+00  0.2330E+00
      1.730  0.1145E-01  0.1145E-01  0.2342E+00  0.2342E+00
      1.836  0.1103E-01  0.1103E-01  0.2354E+00  0.2354E+00
      1.941  0.9653E-02  0.9653E-02  0.2364E+00  0.2364E+00
      2.046  0.8952E-02  0.8952E-02  0.2373E+00  0.2373E+00
      2.151  0.1089E-01  0.1089E-01  0.2385E+00  0.2385E+00
      2.257  0.9771E-02  0.9771E-02  0.2395E+00  0.2395E+00
      2.362  0.5750E-02  0.5750E-02  0.2401E+00  0.2401E+00
      2.467  0.8487E-02  0.8487E-02  0.2410E+00  0.2410E+00
      2.573  0.1505E-01  0.1505E-01  0.2426E+00  0.2426E+00
      2.678  0.1258E-01  0.1258E-01  0.2439E+00  0.2439E+00
      2.783  0.8822E-02  0.8822E-02  0.2448E+00  0.2448E+00
      2.888  0.9219E-02  0.9219E-02  0.2458E+00  0.2458E+00
      2.994  0.9289E-02  0.9288E-02  0.2468E+00  0.2468E+00
      3.099  0.1222E-01  0.1222E-01  0.2481E+00  0.2481E+00
      3.204  0.1215E-01  0.1215E-01  0.2493E+00  0.2493E+00
      3.309  0.1288E-01  0.1288E-01  0.2507E+00  0.2507E+00
      3.415  0.2241E-01  0.2241E-01  0.2531E+00  0.2531E+00
      3.520  0.2027E-01  0.2027E-01  0.2552E+00  0.2552E+00
      3.625  0.9743E-02  0.9741E-02  0.2562E+00  0.2562E+00
      3.731  0.9843E-02  0.9839E-02  0.2573E+00  0.2573E+00
      3.836  0.1581E-01  0.1582E-01  0.2589E+00  0.2589E+00
      3.941  0.2291E-01  0.2291E-01  0.2613E+00  0.2613E+00
      4.046  0.2581E-01  0.2581E-01  0.2641E+00  0.2641E+00
      4.152  0.2005E-01  0.2005E-01  0.2662E+00  0.2662E+00
      4.257  0.1766E-01  0.1766E-01  0.2680E+00  0.2680E+00
      4.362  0.1661E-01  0.1661E-01  0.2698E+00  0.2698E+00
      4.468  0.1632E-01  0.1632E-01  0.2715E+00  0.2715E+00
      4.573  0.2074E-01  0.2074E-01  0.2737E+00  0.2737E+00
      4.678  0.2255E-01  0.2255E-01  0.2760E+00  0.2760E+00
      4.783  0.2637E-01  0.2636E-01  0.2788E+00  0.2788E+00
      4.889  0.2964E-01  0.2964E-01  0.2819E+00  0.2819E+00
      4.994  0.2818E-01  0.2819E-01  0.2849E+00  0.2849E+00
      5.099  0.2724E-01  0.2724E-01  0.2878E+00  0.2878E+00
      5.204  0.2816E-01  0.2816E-01  0.2907E+00  0.2907E+00
      5.310  0.2696E-01  0.2696E-01  0.2936E+00  0.2936E+00
      5.415  0.2817E-01  0.2817E-01  0.2965E+00  0.2965E+00
      5.520  0.2342E-01  0.2343E-01  0.2990E+00  0.2990E+00
      5.626  0.2540E-01  0.2540E-01  0.3017E+00  0.3017E+00
      5.731  0.2821E-01  0.2821E-01  0.3047E+00  0.3047E+00
      5.836  0.2357E-01  0.2356E-01  0.3071E+00  0.3071E+00
      5.941  0.2013E-01  0.2012E-01  0.3093E+00  0.3093E+00
      6.047  0.2066E-01  0.2066E-01  0.3114E+00  0.3114E+00
      6.152  0.2286E-01  0.2285E-01  0.3138E+00  0.3138E+00
      6.257  0.2423E-01  0.2423E-01  0.3164E+00  0.3164E+00
      6.363  0.1479E-01  0.1480E-01  0.3179E+00  0.3179E+00
      6.468  0.1768E-01  0.1769E-01  0.3198E+00  0.3198E+00
      6.573  0.1978E-01  0.1977E-01  0.3219E+00  0.3219E+00
      6.678  0.2177E-01  0.2178E-01  0.3242E+00  0.3242E+00
      6.784  0.1537E-01  0.1538E-01  0.3258E+00  0.3258E+00
      6.889  0.1955E-01  0.1956E-01  0.3279E+00  0.3279E+00
      6.994  0.3024E-01  0.3025E-01  0.3310E+00  0.3310E+00
      7.099  0.3673E-01  0.3674E-01  0.3349E+00  0.3349E+00
      7.205  0.2685E-01  0.2685E-01  0.3377E+00  0.3377E+00
      7.310  0.2286E-01  0.2284E-01  0.3401E+00  0.3401E+00
      7.415  0.2644E-01  0.2643E-01  0.3429E+00  0.3429E+00
      7.521  0.3217E-01  0.3218E-01  0.3463E+00  0.3463E+00
      7.626  0.3553E-01  0.3555E-01  0.3501E+00  0.3501E+00
      7.731  0.3005E-01  0.3003E-01  0.3532E+00  0.3532E+00
      7.836  0.2762E-01  0.2761E-01  0.3561E+00  0.3561E+00
      7.942  0.3991E-01  0.3991E-01  0.3603E+00  0.3603E+00
      8.047  0.4031E-01  0.4031E-01  0.3646E+00  0.3646E+00
      8.152  0.3192E-01  0.3192E-01  0.3679E+00  0.3679E+00
      8.258  0.2815E-01  0.2816E-01  0.3709E+00  0.3709E+00
      8.363  0.2110E-01  0.2110E-01  0.3731E+00  0.3731E+00
      8.468  0.1014E-01  0.1014E-01  0.3742E+00  0.3742E+00
      8.573  0.3757E-02  0.3760E-02  0.3746E+00  0.3746E+00
      8.679  0.2864E-02  0.2865E-02  0.3749E+00  0.3749E+00
      8.784  0.7518E-03  0.7522E-03  0.3750E+00  0.3750E+00
      8.889  0.2970E-03  0.2971E-03  0.3750E+00  0.3750E+00
      8.994  0.8471E-04  0.8477E-04  0.3750E+00  0.3750E+00
      9.100  0.3796E-05  0.3801E-05  0.3750E+00  0.3750E+00
      9.205  0.2227E-07  0.2232E-07  0.3750E+00  0.3750E+00
      9.310  0.1584E-10  0.1588E-10  0.3750E+00  0.3750E+00
      9.416  0.1309E-14  0.1313E-14  0.3750E+00  0.3750E+00
      9.521  0.0000E+00  0.0000E+00  0.3750E+00  0.3750E+00
      9.626  0.0000E+00  0.0000E+00  0.3750E+00  0.3750E+00
      9.731  0.0000E+00  0.0000E+00  0.3750E+00  0.3750E+00
      9.837  0.0000E+00  0.0000E+00  0.3750E+00  0.3750E+00
      9.942  0.0000E+00  0.0000E+00  0.3750E+00  0.3750E+00
     10.047  0.0000E+00  0.0000E+00  0.3750E+00  0.3750E+00
     10.153  0.0000E+00  0.0000E+00  0.3750E+00  0.3750E+00
     10.258  0.0000E+00  0.0000E+00  0.3750E+00  0.3750E+00
