Lattice                                 
           1
     4.252185    2.455000    0.000000
    -4.252185    2.455000    0.000000
     0.000000    0.000000   15.000000
   B    C 
     8     8
Direct configuration=     1
   0.66888689  0.00000000  0.10000000
   0.33111211  0.00000000  0.10000000
   0.00000000  0.33111211  0.10000000
   0.00000000  0.66888689  0.10000000
   0.33111211  0.33111211  0.10000000
   0.66888689  0.66888689  0.10000000
   0.66666600  0.33333300  0.09922189
   0.33333300  0.66666600  0.10077811
   0.33333267  0.16666633  0.47060000
   0.49999967  0.99999933  0.47060000
   0.33333267  0.66666633  0.47060000
   0.49999967  0.49999933  0.47060000
   0.83333267  0.16666633  0.47060000
   0.99999967  0.99999933  0.47060000
   0.83333267  0.66666633  0.47060000
   0.99999967  0.49999933  0.47060000
Direct configuration=     2
   0.67246436  0.00000009  0.10002643
   0.32753472  0.00000009  0.10002643
  -0.00000009  0.32753464  0.10002643
  -0.00000009  0.67246428  0.10002643
   0.32753472  0.32753464  0.10002643
   0.67246436  0.67246428  0.10002643
   0.66666600  0.33333300  0.09922264
   0.33333300  0.66666600  0.10083379
   0.33332638  0.16666319  0.47057339
   0.50000085  0.00000171  0.47057286
   0.33333267  0.66666633  0.47057224
   0.50000085  0.49999815  0.47057286
   0.83333581  0.16666319  0.47057339
   0.99999967  0.99999933  0.47057401
   0.83333581  0.66667262  0.47057339
   0.99999729  0.49999815  0.47057286
Direct configuration=     3
   0.67050889  0.00000004  0.10001198
   0.32949015  0.00000004  0.10001198
  -0.00000004  0.32949011  0.10001198
  -0.00000004  0.67050885  0.10001198
   0.32949015  0.32949011  0.10001198
   0.67050889  0.67050885  0.10001198
   0.66666600  0.33333300  0.09922223
   0.33333300  0.66666600  0.10080336
   0.33332982  0.16666491  0.47058794
   0.50000020  0.00000041  0.47058770
   0.33333267  0.66666633  0.47058741
   0.50000020  0.49999880  0.47058770
   0.83333409  0.16666491  0.47058794
   0.99999967  0.99999933  0.47058822
   0.83333409  0.66666918  0.47058794
   0.99999859  0.49999880  0.47058770
Direct configuration=     4
   0.67050965  0.00000004  0.10001199
   0.32948939  0.00000004  0.10001199
  -0.00000004  0.32948935  0.10001199
  -0.00000004  0.67050961  0.10001199
   0.32948939  0.32948935  0.10001199
   0.67050965  0.67050961  0.10001199
   0.66666600  0.33333300  0.09922223
   0.33333300  0.66666600  0.10080337
   0.33332981  0.16666491  0.47058793
   0.50000021  0.00000041  0.47058769
   0.33333267  0.66666633  0.47058741
   0.50000021  0.49999879  0.47058769
   0.83333409  0.16666491  0.47058793
   0.99999967  0.99999933  0.47058821
   0.83333409  0.66666919  0.47058793
   0.99999859  0.49999879  0.47058769
Direct configuration=     5
   0.67050930  0.00000004  0.10001199
   0.32948974  0.00000004  0.10001199
  -0.00000004  0.32948970  0.10001199
  -0.00000004  0.67050926  0.10001199
   0.32948974  0.32948970  0.10001199
   0.67050930  0.67050926  0.10001199
   0.66666600  0.33333300  0.09922223
   0.33333300  0.66666600  0.10080336
   0.33332981  0.16666491  0.47058793
   0.50000021  0.00000041  0.47058769
   0.33333267  0.66666633  0.47058741
   0.50000021  0.49999879  0.47058769
   0.83333409  0.16666491  0.47058793
   0.99999967  0.99999933  0.47058821
   0.83333409  0.66666919  0.47058793
   0.99999859  0.49999879  0.47058769
Direct configuration=     6
   0.67050918  0.00000001  0.10003569
   0.32948983  0.00000001  0.10003569
  -0.00000001  0.32948982  0.10003569
  -0.00000001  0.67050917  0.10003569
   0.32948983  0.32948982  0.10003569
   0.67050918  0.67050917  0.10003569
   0.66666600  0.33333300  0.09922841
   0.33333300  0.66666600  0.10084651
   0.33333403  0.16666701  0.47056419
   0.49999948 -0.00000104  0.47056356
   0.33333267  0.66666633  0.47056284
   0.49999948  0.49999952  0.47056356
   0.83333199  0.16666701  0.47056419
   0.99999967  0.99999933  0.47056488
   0.83333199  0.66666497  0.47056419
   0.00000004  0.49999952  0.47056356
Direct configuration=     7
   0.67050881 -0.00000007  0.10010680
   0.32949012 -0.00000007  0.10010680
   0.00000007  0.32949019  0.10010680
   0.00000007  0.67050888  0.10010680
   0.32949012  0.32949019  0.10010680
   0.67050881  0.67050888  0.10010680
   0.66666600  0.33333300  0.09924694
   0.33333300  0.66666600  0.10097595
   0.33334666  0.16667333  0.47049295
   0.49999731 -0.00000539  0.47049115
   0.33333267  0.66666633  0.47048913
   0.49999731  0.50000169  0.47049115
   0.83332567  0.16667333  0.47049295
   0.99999967  0.99999933  0.47049487
   0.83332567  0.66665234  0.47049295
   0.00000439  0.50000169  0.47049115
Direct configuration=     8
   0.67050807 -0.00000024  0.10024903
   0.32949069 -0.00000024  0.10024903
   0.00000024  0.32949093  0.10024903
   0.00000024  0.67050831  0.10024903
   0.32949069  0.32949093  0.10024903
   0.67050807  0.67050831  0.10024903
   0.66666600  0.33333300  0.09928400
   0.33333300  0.66666600  0.10123482
   0.33337192  0.16668596  0.47035047
   0.49999296 -0.00001408  0.47034634
   0.33333267  0.66666633  0.47034171
   0.49999296  0.50000604  0.47034634
   0.83331304  0.16668596  0.47035047
   0.99999967  0.99999933  0.47035486
   0.83331304  0.66662708  0.47035047
   0.00001308  0.50000604  0.47034634
Direct configuration=     9
   0.67050660 -0.00000057  0.10053348
   0.32949183 -0.00000057  0.10053348
   0.00000057  0.32949240  0.10053348
   0.00000057  0.67050717  0.10053348
   0.32949183  0.32949240  0.10053348
   0.67050660  0.67050717  0.10053348
   0.66666600  0.33333300  0.09935813
   0.33333300  0.66666600  0.10175257
   0.33342245  0.16671123  0.47006551
   0.49998426 -0.00003147  0.47005672
   0.33333267  0.66666633  0.47004686
   0.49998426  0.50001474  0.47005672
   0.83328777  0.16671123  0.47006551
   0.99999967  0.99999933  0.47007484
   0.83328777  0.66657655  0.47006551
   0.00003047  0.50001474  0.47005672
Direct configuration=    10
   0.67050366 -0.00000122  0.10110239
   0.32949411 -0.00000122  0.10110239
   0.00000122  0.32949534  0.10110239
   0.00000122  0.67050489  0.10110239
   0.32949411  0.32949534  0.10110239
   0.67050366  0.67050489  0.10110239
   0.66666600  0.33333300  0.09950639
   0.33333300  0.66666600  0.10278808
   0.33352351  0.16676176  0.46949560
   0.49996687 -0.00006625  0.46947747
   0.33333267  0.66666633  0.46945718
   0.49996687  0.50003213  0.46947747
   0.83323724  0.16676176  0.46949560
   0.99999967  0.99999933  0.46951479
   0.83323724  0.66647549  0.46949560
   0.00006525  0.50003213  0.46947747
Direct configuration=    11
   0.67049778 -0.00000254  0.10224021
   0.32949867 -0.00000254  0.10224021
   0.00000254  0.32950122  0.10224021
   0.00000254  0.67050033  0.10224021
   0.32949867  0.32950122  0.10224021
   0.67049778  0.67050033  0.10224021
   0.66666600  0.33333300  0.09980290
   0.33333300  0.66666600  0.10485908
   0.33372563  0.16686282  0.46835578
   0.49993210 -0.00013581  0.46831897
   0.33333267  0.66666633  0.46827781
   0.49993210  0.50006690  0.46831897
   0.83313618  0.16686282  0.46835578
   0.99999967  0.99999933  0.46839470
   0.83313618  0.66627337  0.46835578
   0.00013481  0.50006690  0.46831897
Direct configuration=    12
   0.67048602 -0.00000518  0.10451584
   0.32950780 -0.00000518  0.10451584
   0.00000518  0.32951298  0.10451584
   0.00000518  0.67049120  0.10451584
   0.32950780  0.32951298  0.10451584
   0.67048602  0.67049120  0.10451584
   0.66666600  0.33333300  0.10039593
   0.33333300  0.66666600  0.10900109
   0.33412987  0.16706493  0.46607614
   0.49986254 -0.00027493  0.46600198
   0.33333267  0.66666633  0.46591906
   0.49986254  0.50013646  0.46600198
   0.83293407  0.16706493  0.46607614
   0.99999967  0.99999933  0.46615452
   0.83293407  0.66586913  0.46607614
   0.00027393  0.50013646  0.46600198
Direct configuration=    13
   0.67046250 -0.00001044  0.10906710
   0.32952605 -0.00001044  0.10906710
   0.00001044  0.32953650  0.10906710
   0.00001044  0.67047295  0.10906710
   0.32952605  0.32953650  0.10906710
   0.67046250  0.67047295  0.10906710
   0.66666600  0.33333300  0.10158198
   0.33333300  0.66666600  0.11728512
   0.33493834  0.16746917  0.46151685
   0.49972342 -0.00055316  0.46136800
   0.33333267  0.66666633  0.46120158
   0.49972342  0.50027558  0.46136800
   0.83252983  0.16746917  0.46151685
   0.99999967  0.99999933  0.46167416
   0.83252983  0.66506066  0.46151685
   0.00055216  0.50027558  0.46136800
Direct configuration=    14
   0.67041546 -0.00002098  0.11816963
   0.32956256 -0.00002098  0.11816963
   0.00002098  0.32958354  0.11816963
   0.00002098  0.67043644  0.11816963
   0.32956256  0.32958354  0.11816963
   0.67041546  0.67043644  0.11816963
   0.66666600  0.33333300  0.10395410
   0.33333300  0.66666600  0.13385317
   0.33655529  0.16827764  0.45239827
   0.49944518 -0.00110963  0.45210003
   0.33333267  0.66666633  0.45176661
   0.49944518  0.50055382  0.45210003
   0.83172136  0.16827764  0.45239827
   0.99999967  0.99999933  0.45271344
   0.83172136  0.66344371  0.45239827
   0.00110863  0.50055382  0.45210003
Direct configuration=    15
   0.67032138 -0.00004206  0.13637469
   0.32963556 -0.00004206  0.13637469
   0.00004206  0.32967762  0.13637469
   0.00004206  0.67036344  0.13637469
   0.32963556  0.32967762  0.13637469
   0.67032138  0.67036344  0.13637469
   0.66666600  0.33333300  0.10869832
   0.33333300  0.66666600  0.16698926
   0.33978919  0.16989459  0.43416111
   0.49888871 -0.00222258  0.43356410
   0.33333267  0.66666633  0.43289666
   0.49888871  0.50111029  0.43356410
   0.83010441  0.16989459  0.43416111
   0.99999967  0.99999933  0.43479200
   0.83010441  0.66020981  0.43416111
   0.00222158  0.50111029  0.43356410
Direct configuration=    16
   0.67041257 -0.00002163  0.11872841
   0.32956480 -0.00002163  0.11872841
   0.00002163  0.32958643  0.11872841
   0.00002163  0.67043420  0.11872841
   0.32956480  0.32958643  0.11872841
   0.67041257  0.67043420  0.11872841
   0.66666600  0.33333300  0.10409971
   0.33333300  0.66666600  0.13487023
   0.33665455  0.16832727  0.45183850
   0.49942810 -0.00114379  0.45153110
   0.33333267  0.66666633  0.45118742
   0.49942810  0.50057090  0.45153110
   0.83167173  0.16832727  0.45183850
   0.99999967  0.99999933  0.45216337
   0.83167173  0.66334445  0.45183850
   0.00114279  0.50057090  0.45153110
Direct configuration=    17
   0.67040787 -0.00002268  0.11963804
   0.32956845 -0.00002268  0.11963804
   0.00002268  0.32959113  0.11963804
   0.00002268  0.67043055  0.11963804
   0.32956845  0.32959113  0.11963804
   0.67040787  0.67043055  0.11963804
   0.66666600  0.33333300  0.10433676
   0.33333300  0.66666600  0.13652591
   0.33681613  0.16840807  0.45092727
   0.49940030 -0.00119940  0.45060493
   0.33333267  0.66666633  0.45024456
   0.49940030  0.50059870  0.45060493
   0.83159093  0.16840807  0.45092727
   0.99999967  0.99999933  0.45126790
   0.83159093  0.66318287  0.45092727
   0.00119840  0.50059870  0.45060493
Direct configuration=    18
   0.67040784 -0.00002269  0.11963896
   0.32956847 -0.00002269  0.11963896
   0.00002269  0.32959116  0.11963896
   0.00002269  0.67043053  0.11963896
   0.32956847  0.32959116  0.11963896
   0.67040784  0.67043053  0.11963896
   0.66666600  0.33333300  0.10433700
   0.33333300  0.66666600  0.13652757
   0.33681619  0.16840809  0.45092635
   0.49940029 -0.00119942  0.45060401
   0.33333267  0.66666633  0.45024362
   0.49940029  0.50059871  0.45060401
   0.83159091  0.16840809  0.45092635
   0.99999967  0.99999933  0.45126701
   0.83159091  0.66318281  0.45092635
   0.00119842  0.50059871  0.45060401
Direct configuration=    19
   0.67040776 -0.00002270  0.11964169
   0.32956854 -0.00002270  0.11964169
   0.00002270  0.32959124  0.11964169
   0.00002270  0.67043046  0.11964169
   0.32956854  0.32959124  0.11964169
   0.67040776  0.67043046  0.11964169
   0.66666600  0.33333300  0.10433771
   0.33333300  0.66666600  0.13653254
   0.33681636  0.16840818  0.45092361
   0.49940026 -0.00119948  0.45060123
   0.33333267  0.66666633  0.45024079
   0.49940026  0.50059874  0.45060123
   0.83159082  0.16840818  0.45092361
   0.99999967  0.99999933  0.45126431
   0.83159082  0.66318264  0.45092361
   0.00119848  0.50059874  0.45060123
Direct configuration=    20
   0.67040759 -0.00002272  0.11964716
   0.32956869 -0.00002272  0.11964716
   0.00002272  0.32959141  0.11964716
   0.00002272  0.67043031  0.11964716
   0.32956869  0.32959141  0.11964716
   0.67040759  0.67043031  0.11964716
   0.66666600  0.33333300  0.10433914
   0.33333300  0.66666600  0.13654247
   0.33681669  0.16840834  0.45091814
   0.49940020 -0.00119961  0.45059566
   0.33333267  0.66666633  0.45023514
   0.49940020  0.50059880  0.45059566
   0.83159066  0.16840834  0.45091814
   0.99999967  0.99999933  0.45125892
   0.83159066  0.66318231  0.45091814
   0.00119861  0.50059880  0.45059566
Direct configuration=    21
   0.67040725 -0.00002277  0.11965809
   0.32956898 -0.00002277  0.11965809
   0.00002277  0.32959175  0.11965809
   0.00002277  0.67043002  0.11965809
   0.32956898  0.32959175  0.11965809
   0.67040725  0.67043002  0.11965809
   0.66666600  0.33333300  0.10434199
   0.33333300  0.66666600  0.13656235
   0.33681736  0.16840868  0.45090718
   0.49940008 -0.00119985  0.45058454
   0.33333267  0.66666633  0.45022383
   0.49940008  0.50059892  0.45058454
   0.83159032  0.16840868  0.45090718
   0.99999967  0.99999933  0.45124813
   0.83159032  0.66318164  0.45090718
   0.00119885  0.50059892  0.45058454
Direct configuration=    22
   0.67040657 -0.00002286  0.11967996
   0.32956957 -0.00002286  0.11967996
   0.00002286  0.32959243  0.11967996
   0.00002286  0.67042943  0.11967996
   0.32956957  0.32959243  0.11967996
   0.67040657  0.67042943  0.11967996
   0.66666600  0.33333300  0.10434769
   0.33333300  0.66666600  0.13660211
   0.33681869  0.16840935  0.45088527
   0.49939983 -0.00120033  0.45056229
   0.33333267  0.66666633  0.45020122
   0.49939983  0.50059917  0.45056229
   0.83158965  0.16840935  0.45088527
   0.99999967  0.99999933  0.45122657
   0.83158965  0.66318031  0.45088527
   0.00119933  0.50059917  0.45056229
Direct configuration=    23
   0.67040520 -0.00002305  0.11972370
   0.32957075 -0.00002305  0.11972370
   0.00002305  0.32959380  0.11972370
   0.00002305  0.67042825  0.11972370
   0.32957075  0.32959380  0.11972370
   0.67040520  0.67042825  0.11972370
   0.66666600  0.33333300  0.10435909
   0.33333300  0.66666600  0.13668161
   0.33682136  0.16841068  0.45084144
   0.49939935 -0.00120131  0.45051779
   0.33333267  0.66666633  0.45015598
   0.49939935  0.50059965  0.45051779
   0.83158832  0.16841068  0.45084144
   0.99999967  0.99999933  0.45118343
   0.83158832  0.66317764  0.45084144
   0.00120031  0.50059965  0.45051779
Direct configuration=    24
   0.67040248 -0.00002342  0.11981117
   0.32957310 -0.00002342  0.11981117
   0.00002342  0.32959652  0.11981117
   0.00002342  0.67042590  0.11981117
   0.32957310  0.32959652  0.11981117
   0.67040248  0.67042590  0.11981117
   0.66666600  0.33333300  0.10438190
   0.33333300  0.66666600  0.13684063
   0.33682669  0.16841335  0.45075379
   0.49939838 -0.00120325  0.45042880
   0.33333267  0.66666633  0.45006552
   0.49939838  0.50060062  0.45042880
   0.83158565  0.16841335  0.45075379
   0.99999967  0.99999933  0.45109716
   0.83158565  0.66317231  0.45075379
   0.00120225  0.50060062  0.45042880
Direct configuration=    25
   0.67039703 -0.00002416  0.11998612
   0.32957781 -0.00002416  0.11998612
   0.00002416  0.32960197  0.11998612
   0.00002416  0.67042119  0.11998612
   0.32957781  0.32960197  0.11998612
   0.67039703  0.67042119  0.11998612
   0.66666600  0.33333300  0.10442752
   0.33333300  0.66666600  0.13715867
   0.33683736  0.16841868  0.45057848
   0.49939643 -0.00120713  0.45025082
   0.33333267  0.66666633  0.44988460
   0.49939643  0.50060257  0.45025082
   0.83158032  0.16841868  0.45057848
   0.99999967  0.99999933  0.45092461
   0.83158032  0.66316164  0.45057848
   0.00120613  0.50060257  0.45025082
Direct configuration=    26
   0.67038613 -0.00002564  0.12033601
   0.32958723 -0.00002564  0.12033601
   0.00002564  0.32961287  0.12033601
   0.00002564  0.67041177  0.12033601
   0.32958723  0.32961287  0.12033601
   0.67038613  0.67041177  0.12033601
   0.66666600  0.33333300  0.10451875
   0.33333300  0.66666600  0.13779474
   0.33685870  0.16842935  0.45022788
   0.49939255 -0.00121490  0.44989485
   0.33333267  0.66666633  0.44952275
   0.49939255  0.50060645  0.44989485
   0.83156965  0.16842935  0.45022788
   0.99999967  0.99999933  0.45057952
   0.83156965  0.66314030  0.45022788
   0.00121390  0.50060645  0.44989485
Direct configuration=    27
   0.67036434 -0.00002860  0.12103580
   0.32960606 -0.00002860  0.12103580
   0.00002860  0.32963466  0.12103580
   0.00002860  0.67039294  0.12103580
   0.32960606  0.32963466  0.12103580
   0.67036434  0.67039294  0.12103580
   0.66666600  0.33333300  0.10470121
   0.33333300  0.66666600  0.13906687
   0.33690137  0.16845069  0.44952666
   0.49938478 -0.00123044  0.44918291
   0.33333267  0.66666633  0.44879905
   0.49938478  0.50061422  0.44918291
   0.83154831  0.16845069  0.44952666
   0.99999967  0.99999933  0.44988934
   0.83154831  0.66309763  0.44952666
   0.00122944  0.50061422  0.44918291
Direct configuration=    28
   0.67032075 -0.00003453  0.12243538
   0.32964372 -0.00003453  0.12243538
   0.00003453  0.32967825  0.12243538
   0.00003453  0.67035528  0.12243538
   0.32964372  0.32967825  0.12243538
   0.67032075  0.67035528  0.12243538
   0.66666600  0.33333300  0.10506612
   0.33333300  0.66666600  0.14161115
   0.33698672  0.16849336  0.44812423
   0.49936924 -0.00126153  0.44775903
   0.33333267  0.66666633  0.44735165
   0.49936924  0.50062976  0.44775903
   0.83150564  0.16849336  0.44812423
   0.99999967  0.99999933  0.44850899
   0.83150564  0.66301228  0.44812423
   0.00126053  0.50062976  0.44775903
Direct configuration=    29
   0.67030275 -0.00003674  0.12247336
   0.32965951 -0.00003674  0.12247336
   0.00003674  0.32969625  0.12247336
   0.00003674  0.67033949  0.12247336
   0.32965951  0.32969625  0.12247336
   0.67030275  0.67033949  0.12247336
   0.66666600  0.33333300  0.10507727
   0.33333300  0.66666600  0.14167736
   0.33692059  0.16846030  0.44808604
   0.49938029 -0.00123942  0.44772094
   0.33333267  0.66666633  0.44731389
   0.49938029  0.50061871  0.44772094
   0.83153870  0.16846030  0.44808604
   0.99999967  0.99999933  0.44847039
   0.83153870  0.66307841  0.44808604
   0.00123842  0.50061871  0.44772094
Direct configuration=    30
   0.67024875 -0.00004337  0.12258728
   0.32970688 -0.00004337  0.12258728
   0.00004337  0.32975025  0.12258728
   0.00004337  0.67029212  0.12258728
   0.32970688  0.32975025  0.12258728
   0.67024875  0.67029212  0.12258728
   0.66666600  0.33333300  0.10511073
   0.33333300  0.66666600  0.14187600
   0.33672221  0.16836111  0.44797145
   0.49941344 -0.00117312  0.44760667
   0.33333267  0.66666633  0.44720061
   0.49941344  0.50058556  0.44760667
   0.83163789  0.16836111  0.44797145
   0.99999967  0.99999933  0.44835461
   0.83163789  0.66327679  0.44797145
   0.00117212  0.50058556  0.44760667
Direct configuration=    31
   0.67014075 -0.00005664  0.12281513
   0.32980161 -0.00005664  0.12281513
   0.00005664  0.32985825  0.12281513
   0.00005664  0.67019739  0.12281513
   0.32980161  0.32985825  0.12281513
   0.67014075  0.67019739  0.12281513
   0.66666600  0.33333300  0.10517763
   0.33333300  0.66666600  0.14227327
   0.33632546  0.16816273  0.44774227
   0.49947975 -0.00104051  0.44737814
   0.33333267  0.66666633  0.44697406
   0.49947975  0.50051925  0.44737814
   0.83183627  0.16816273  0.44774227
   0.99999967  0.99999933  0.44812304
   0.83183627  0.66367354  0.44774227
   0.00103951  0.50051925  0.44737814
Direct configuration=    32
   0.66992474 -0.00008319  0.12327083
   0.32999107 -0.00008319  0.12327083
   0.00008319  0.33007426  0.12327083
   0.00008319  0.67000793  0.12327083
   0.32999107  0.33007426  0.12327083
   0.66992474  0.67000793  0.12327083
   0.66666600  0.33333300  0.10531143
   0.33333300  0.66666600  0.14306782
   0.33553194  0.16776597  0.44728390
   0.49961236 -0.00077528  0.44692107
   0.33333267  0.66666633  0.44652096
   0.49961236  0.50038664  0.44692107
   0.83223303  0.16776597  0.44728390
   0.99999967  0.99999933  0.44765990
   0.83223303  0.66446706  0.44728390
   0.00077428  0.50038664  0.44692107
Direct configuration=    33
   0.66949273 -0.00013627  0.12418223
   0.33037000 -0.00013627  0.12418223
   0.00013627  0.33050627  0.12418223
   0.00013627  0.66962900  0.12418223
   0.33037000  0.33050627  0.12418223
   0.66949273  0.66962900  0.12418223
   0.66666600  0.33333300  0.10557904
   0.33333300  0.66666600  0.14465691
   0.33394491  0.16697246  0.44636718
   0.49987758 -0.00024484  0.44600692
   0.33333267  0.66666633  0.44561476
   0.49987758  0.50012142  0.44600692
   0.83302654  0.16697246  0.44636718
   0.99999967  0.99999933  0.44673362
   0.83302654  0.66605409  0.44636718
   0.00024384  0.50012142  0.44600692
Direct configuration=    34
   0.66862871 -0.00024244  0.12600502
   0.33112785 -0.00024244  0.12600502
   0.00024244  0.33137029  0.12600502
   0.00024244  0.66887115  0.12600502
   0.33112785  0.33137029  0.12600502
   0.66862871  0.66887115  0.12600502
   0.66666600  0.33333300  0.10611426
   0.33333300  0.66666600  0.14783509
   0.33077086  0.16538543  0.44453373
   0.50040803  0.00081606  0.44417864
   0.33333267  0.66666633  0.44380235
   0.50040803  0.49959097  0.44417864
   0.83461357  0.16538543  0.44453373
   0.99999967  0.99999933  0.44488106
   0.83461357  0.66922814  0.44453373
  -0.00081706  0.49959097  0.44417864
Direct configuration=    35
   0.66925189 -0.00016587  0.12469033
   0.33058124 -0.00016587  0.12469033
   0.00016587  0.33074711  0.12469033
   0.00016587  0.66941776  0.12469033
   0.33058124  0.33074711  0.12469033
   0.66925189  0.66941776  0.12469033
   0.66666600  0.33333300  0.10572823
   0.33333300  0.66666600  0.14554282
   0.33306015  0.16653008  0.44585611
   0.50002544  0.00005089  0.44549729
   0.33333267  0.66666633  0.44510955
   0.50002544  0.49997356  0.44549729
   0.83346892  0.16653008  0.44585611
   0.99999967  0.99999933  0.44621722
   0.83346892  0.66693885  0.44585611
  -0.00005189  0.49997356  0.44549729
Direct configuration=    36
   0.66914878 -0.00017234  0.12471651
   0.33067788 -0.00017234  0.12471651
   0.00017234  0.33085022  0.12471651
   0.00017234  0.66932112  0.12471651
   0.33067788  0.33085022  0.12471651
   0.66914878  0.66932112  0.12471651
   0.66666600  0.33333300  0.10576414
   0.33333300  0.66666600  0.14554082
   0.33308979  0.16654489  0.44582738
   0.50002640  0.00005280  0.44547803
   0.33333267  0.66666633  0.44510177
   0.50002640  0.49997260  0.44547803
   0.83345411  0.16654489  0.44582738
   0.99999967  0.99999933  0.44617799
   0.83345411  0.66690921  0.44582738
  -0.00005380  0.49997260  0.44547803
Direct configuration=    37
   0.66883944 -0.00019176  0.12479506
   0.33096780 -0.00019176  0.12479506
   0.00019176  0.33115956  0.12479506
   0.00019176  0.66903120  0.12479506
   0.33096780  0.33115956  0.12479506
   0.66883944  0.66903120  0.12479506
   0.66666600  0.33333300  0.10587185
   0.33333300  0.66666600  0.14553481
   0.33317869  0.16658934  0.44574119
   0.50002927  0.00005854  0.44542024
   0.33333267  0.66666633  0.44507842
   0.50002927  0.49996973  0.44542024
   0.83340966  0.16658934  0.44574119
   0.99999967  0.99999933  0.44606027
   0.83340966  0.66682031  0.44574119
  -0.00005954  0.49996973  0.44542024
Direct configuration=    38
   0.66822078 -0.00023059  0.12495217
   0.33154763 -0.00023059  0.12495217
   0.00023059  0.33177822  0.12495217
   0.00023059  0.66845137  0.12495217
   0.33154763  0.33177822  0.12495217
   0.66822078  0.66845137  0.12495217
   0.66666600  0.33333300  0.10608729
   0.33333300  0.66666600  0.14552281
   0.33335650  0.16667825  0.44556880
   0.50003501  0.00007003  0.44530465
   0.33333267  0.66666633  0.44503173
   0.50003501  0.49996399  0.44530465
   0.83332075  0.16667825  0.44556880
   0.99999967  0.99999933  0.44582485
   0.83332075  0.66664250  0.44556880
  -0.00007103  0.49996399  0.44530465
Direct configuration=    39
   0.66824698 -0.00021111  0.12499899
   0.33154091 -0.00021111  0.12499899
   0.00021111  0.33175202  0.12499899
   0.00021111  0.66845809  0.12499899
   0.33154091  0.33175202  0.12499899
   0.66824698  0.66845809  0.12499899
   0.66666600  0.33333300  0.10620167
   0.33333300  0.66666600  0.14543821
   0.33337401  0.16668700  0.44551362
   0.50001371  0.00002743  0.44528151
   0.33333267  0.66666633  0.44504368
   0.50001371  0.49998529  0.44528151
   0.83331200  0.16668700  0.44551362
   0.99999967  0.99999933  0.44573710
   0.83331200  0.66662499  0.44551362
  -0.00002843  0.49998529  0.44528151
Direct configuration=    40
   0.66832557 -0.00015268  0.12513947
   0.33152075 -0.00015268  0.12513947
   0.00015268  0.33167343  0.12513947
   0.00015268  0.66847825  0.12513947
   0.33152075  0.33167343  0.12513947
   0.66832557  0.66847825  0.12513947
   0.66666600  0.33333300  0.10654483
   0.33333300  0.66666600  0.14518441
   0.33342655  0.16671328  0.44534807
   0.49994982 -0.00010037  0.44521211
   0.33333267  0.66666633  0.44507953
   0.49994982  0.50004918  0.44521211
   0.83328572  0.16671328  0.44534807
   0.99999967  0.99999933  0.44547386
   0.83328572  0.66657245  0.44534807
   0.00009937  0.50004918  0.44521211
Direct configuration=    41
   0.66848276 -0.00003581  0.12542043
   0.33148043 -0.00003581  0.12542043
   0.00003581  0.33151624  0.12542043
   0.00003581  0.66851857  0.12542043
   0.33148043  0.33151624  0.12542043
   0.66848276  0.66851857  0.12542043
   0.66666600  0.33333300  0.10723115
   0.33333300  0.66666600  0.14467681
   0.33353164  0.16676582  0.44501698
   0.49982202 -0.00035595  0.44507330
   0.33333267  0.66666633  0.44515123
   0.49982202  0.50017698  0.44507330
   0.83323318  0.16676582  0.44501698
   0.99999967  0.99999933  0.44494738
   0.83323318  0.66646736  0.44501698
   0.00035495  0.50017698  0.44507330
Direct configuration=    42
   0.66879714  0.00019792  0.12598234
   0.33139978  0.00019792  0.12598234
  -0.00019792  0.33120186  0.12598234
  -0.00019792  0.66859922  0.12598234
   0.33139978  0.33120186  0.12598234
   0.66879714  0.66859922  0.12598234
   0.66666600  0.33333300  0.10860379
   0.33333300  0.66666600  0.14366162
   0.33374182  0.16687091  0.44435481
   0.49956644 -0.00086712  0.44479569
   0.33333267  0.66666633  0.44529462
   0.49956644  0.50043256  0.44479569
   0.83312809  0.16687091  0.44435481
   0.99999967  0.99999933  0.44389442
   0.83312809  0.66625718  0.44435481
   0.00086612  0.50043256  0.44479569
Direct configuration=    43
   0.66883406  0.00018729  0.12603950
   0.33135223  0.00018729  0.12603950
  -0.00018729  0.33116494  0.12603950
  -0.00018729  0.66864677  0.12603950
   0.33135223  0.33116494  0.12603950
   0.66883406  0.66864677  0.12603950
   0.66666600  0.33333300  0.10874076
   0.33333300  0.66666600  0.14355988
   0.33368728  0.16684364  0.44429326
   0.49962410 -0.00075180  0.44476233
   0.33333267  0.66666633  0.44528931
   0.49962410  0.50037490  0.44476233
   0.83315536  0.16684364  0.44429326
   0.99999967  0.99999933  0.44380625
   0.83315536  0.66631172  0.44429326
   0.00075080  0.50037490  0.44476233
Direct configuration=    44
   0.66894480  0.00015539  0.12621099
   0.33120958  0.00015539  0.12621099
  -0.00015539  0.33105420  0.12621099
  -0.00015539  0.66878942  0.12621099
   0.33120958  0.33105420  0.12621099
   0.66894480  0.66878942  0.12621099
   0.66666600  0.33333300  0.10915168
   0.33333300  0.66666600  0.14325466
   0.33352368  0.16676184  0.44410862
   0.49979709 -0.00040583  0.44466226
   0.33333267  0.66666633  0.44527339
   0.49979709  0.50020191  0.44466226
   0.83323716  0.16676184  0.44410862
   0.99999967  0.99999933  0.44354174
   0.83323716  0.66647532  0.44410862
   0.00040483  0.50020191  0.44466226
Direct configuration=    45
   0.66916630  0.00009159  0.12655395
   0.33092428  0.00009159  0.12655395
  -0.00009159  0.33083270  0.12655395
  -0.00009159  0.66907472  0.12655395
   0.33092428  0.33083270  0.12655395
   0.66916630  0.66907472  0.12655395
   0.66666600  0.33333300  0.10997351
   0.33333300  0.66666600  0.14264421
   0.33319647  0.16659824  0.44373933
   0.50014306  0.00028612  0.44446211
   0.33333267  0.66666633  0.44524154
   0.50014306  0.49985594  0.44446211
   0.83340076  0.16659824  0.44373933
   0.99999967  0.99999933  0.44301273
   0.83340076  0.66680253  0.44373933
  -0.00028712  0.49985594  0.44446211
Direct configuration=    46
   0.66906813  0.00011986  0.12640194
   0.33105073  0.00011986  0.12640194
  -0.00011986  0.33093087  0.12640194
  -0.00011986  0.66894827  0.12640194
   0.33105073  0.33093087  0.12640194
   0.66906813  0.66894827  0.12640194
   0.66666600  0.33333300  0.10960927
   0.33333300  0.66666600  0.14291476
   0.33334149  0.16667075  0.44390300
   0.49998972 -0.00002056  0.44455082
   0.33333267  0.66666633  0.44525566
   0.49998972  0.50000928  0.44455082
   0.83332825  0.16667075  0.44390300
   0.99999967  0.99999933  0.44324719
   0.83332825  0.66665751  0.44390300
   0.00001956  0.50000928  0.44455082
Direct configuration=    47
   0.66905446  0.00008850  0.12640830
   0.33103303  0.00008850  0.12640830
  -0.00008850  0.33094454  0.12640830
  -0.00008850  0.66896597  0.12640830
   0.33103303  0.33094454  0.12640830
   0.66905446  0.66896597  0.12640830
   0.66666600  0.33333300  0.10961808
   0.33333300  0.66666600  0.14291904
   0.33333605  0.16666802  0.44391210
   0.49999524 -0.00000951  0.44453014
   0.33333267  0.66666633  0.44519693
   0.49999524  0.50000376  0.44453014
   0.83333098  0.16666802  0.44391210