   2   2   0  16
  0.3962651E+02  0.2470000E-09  0.2470000E-09  0.1500000E-08  0.5000000E-15
  1.000000000000000E-004
  CAR 
 Graphene                                
     43.71042102    -24.85737796  301     -2.26592329      1.00000000
    -24.857  0.0000E+00  0.0000E+00
    -24.629  0.0000E+00  0.0000E+00
    -24.400  0.0000E+00  0.0000E+00
    -24.172  0.0000E+00  0.0000E+00
    -23.943  0.0000E+00  0.0000E+00
    -23.715  0.0000E+00  0.0000E+00
    -23.486  0.0000E+00  0.0000E+00
    -23.257  0.0000E+00  0.0000E+00
    -23.029  0.0000E+00  0.0000E+00
    -22.800  0.0000E+00  0.0000E+00
    -22.572  0.0000E+00  0.0000E+00
    -22.343  0.0000E+00  0.0000E+00
    -22.115  0.3732E-10  0.8529E-11
    -21.886  0.1208E-04  0.2762E-05
    -21.658  0.9873E-03  0.2284E-03
    -21.429  0.3209E-02  0.9620E-03
    -21.200  0.3024E-02  0.1653E-02
    -20.972  0.4129E-02  0.2597E-02
    -20.743  0.3490E-03  0.2677E-02
    -20.515  0.6332E-02  0.4124E-02
    -20.286  0.2475E-02  0.4689E-02
    -20.058  0.1964E-02  0.5138E-02
    -19.829  0.1251E-02  0.5424E-02
    -19.601  0.7551E-02  0.7150E-02
    -19.372  0.2144E-02  0.7640E-02
    -19.143  0.2221E-02  0.8148E-02
    -18.915  0.1426E-02  0.8474E-02
    -18.686  0.3956E-02  0.9378E-02
    -18.458  0.4372E-02  0.1038E-01
    -18.229  0.6140E-02  0.1178E-01
    -18.001  0.1127E-03  0.1181E-01
    -17.772  0.1821E-02  0.1222E-01
    -17.543  0.2364E-02  0.1276E-01
    -17.315  0.7016E-02  0.1437E-01
    -17.086  0.3424E-02  0.1515E-01
    -16.858  0.5572E-02  0.1642E-01
    -16.629  0.1791E-02  0.1683E-01
    -16.401  0.1628E-02  0.1720E-01
    -16.172  0.9788E-03  0.1743E-01
    -15.944  0.9553E-02  0.1961E-01
    -15.715  0.4869E-03  0.1972E-01
    -15.486  0.6687E-03  0.1988E-01
    -15.258  0.1163E-02  0.2014E-01
    -15.029  0.2576E-02  0.2073E-01
    -14.801  0.6683E-02  0.2226E-01
    -14.572  0.4098E-02  0.2319E-01
    -14.344  0.1232E-03  0.2322E-01
    -14.115  0.6252E-02  0.2465E-01
    -13.887  0.4131E-02  0.2559E-01
    -13.658  0.3541E-02  0.2640E-01
    -13.429  0.4178E-02  0.2736E-01
    -13.201  0.8484E-05  0.2736E-01
    -12.972  0.6072E-03  0.2750E-01
    -12.744  0.9765E-02  0.2973E-01
    -12.515  0.1781E-02  0.3014E-01
    -12.287  0.5069E-06  0.3014E-01
    -12.058  0.8708E-04  0.3016E-01
    -11.829  0.9315E-02  0.3229E-01
    -11.601  0.8654E-02  0.3427E-01
    -11.372  0.1892E-03  0.3431E-01
    -11.144  0.2624E-02  0.3491E-01
    -10.915  0.1097E-02  0.3516E-01
    -10.687  0.6028E-02  0.3654E-01
    -10.458  0.3298E-02  0.3729E-01
    -10.230  0.7261E-02  0.3895E-01
    -10.001  0.3730E-02  0.3980E-01
     -9.772  0.3893E-02  0.4069E-01
     -9.544  0.1238E-01  0.4352E-01
     -9.315  0.1339E-02  0.4383E-01
     -9.087  0.9988E-02  0.4611E-01
     -8.858  0.5737E-02  0.4742E-01
     -8.630  0.1496E-01  0.5084E-01
     -8.401  0.1309E-01  0.5383E-01
     -8.173  0.6038E-02  0.5521E-01
     -7.944  0.8943E-02  0.5726E-01
     -7.715  0.6440E-03  0.5740E-01
     -7.487  0.7092E-02  0.5903E-01
     -7.258  0.1502E-01  0.6246E-01
     -7.030  0.4155E-02  0.6341E-01
     -6.801  0.5718E-02  0.6471E-01
     -6.573  0.7073E-03  0.6488E-01
     -6.344  0.7095E-02  0.6650E-01
     -6.116  0.8120E-02  0.6835E-01
     -5.887  0.9324E-02  0.7048E-01
     -5.658  0.2253E-02  0.7100E-01
     -5.430  0.4668E-02  0.7207E-01
     -5.201  0.2403E-02  0.7262E-01
     -4.973  0.3609E-02  0.7344E-01
     -4.744  0.1017E-01  0.7576E-01
     -4.516  0.6228E-02  0.7719E-01
     -4.287  0.1541E-03  0.7722E-01
     -4.058  0.1093E-02  0.7747E-01
     -3.830  0.2548E-02  0.7805E-01
     -3.601  0.4167E-02  0.7901E-01
     -3.373  0.3126E-02  0.7972E-01
     -3.144  0.2359E-05  0.7972E-01
     -2.916  0.1118E-12  0.7972E-01
     -2.687  0.3129E-11  0.7972E-01
     -2.459  0.7830E-05  0.7972E-01
     -2.230  0.1680E-02  0.8011E-01
     -2.001  0.7429E-03  0.8028E-01
     -1.773  0.2234E-06  0.8028E-01
     -1.544  0.3784E-14  0.8028E-01
     -1.316  0.4909E-08  0.8028E-01
     -1.087  0.3995E-03  0.8037E-01
     -0.859  0.7538E-02  0.8209E-01
     -0.630  0.3497E-02  0.8289E-01
     -0.402  0.2137E-02  0.8338E-01
     -0.173  0.6322E-02  0.8482E-01
      0.056  0.1882E-03  0.8487E-01
      0.284  0.5217E-02  0.8606E-01
      0.513  0.5429E-02  0.8730E-01
      0.741  0.3901E-02  0.8819E-01
      0.970  0.1923E-03  0.8824E-01
      1.198  0.1642E-02  0.8861E-01
      1.427  0.5492E-02  0.8987E-01
      1.656  0.5685E-02  0.9117E-01
      1.884  0.3998E-02  0.9208E-01
      2.113  0.6221E-02  0.9350E-01
      2.341  0.7187E-02  0.9514E-01
      2.570  0.7218E-02  0.9679E-01
      2.798  0.1312E-01  0.9979E-01
      3.027  0.4717E-02  0.1009E+00
      3.255  0.4907E-02  0.1020E+00
      3.484  0.7622E-02  0.1037E+00
      3.713  0.1225E-01  0.1065E+00
      3.941  0.1087E-01  0.1090E+00
      4.170  0.1225E-01  0.1118E+00
      4.398  0.1622E-02  0.1122E+00
      4.627  0.1212E-01  0.1150E+00
      4.855  0.7035E-02  0.1166E+00
      5.084  0.1187E-01  0.1193E+00
      5.312  0.2058E-01  0.1240E+00
      5.541  0.1569E-01  0.1276E+00
      5.770  0.1913E-01  0.1319E+00
      5.998  0.2518E-01  0.1377E+00
      6.227  0.2417E-01  0.1432E+00
      6.455  0.1708E-01  0.1471E+00
      6.684  0.1774E-01  0.1512E+00
      6.912  0.1655E-01  0.1550E+00
      7.141  0.1661E-01  0.1588E+00
      7.369  0.1832E-01  0.1629E+00
      7.598  0.1307E-01  0.1659E+00
      7.827  0.2095E-01  0.1707E+00
      8.055  0.2985E-01  0.1775E+00
      8.284  0.6064E-02  0.1789E+00
      8.512  0.1412E-01  0.1822E+00
      8.741  0.2607E-01  0.1881E+00
      8.969  0.2061E-01  0.1928E+00
      9.198  0.2219E-01  0.1979E+00
      9.427  0.1822E-01  0.2021E+00
      9.655  0.1620E-01  0.2058E+00
      9.884  0.2594E-01  0.2117E+00
     10.112  0.1939E-01  0.2161E+00
     10.341  0.1386E-01  0.2193E+00
     10.569  0.1330E-01  0.2223E+00
     10.798  0.3564E-01  0.2305E+00
     11.026  0.2482E-01  0.2362E+00
     11.255  0.2857E-01  0.2427E+00
     11.484  0.2547E-01  0.2485E+00
     11.712  0.2759E-01  0.2548E+00
     11.941  0.1278E-01  0.2577E+00
     12.169  0.1526E-01  0.2612E+00
     12.398  0.1750E-01  0.2652E+00
     12.626  0.9815E-02  0.2675E+00
     12.855  0.1927E-01  0.2719E+00
     13.083  0.1914E-01  0.2762E+00
     13.312  0.1553E-01  0.2798E+00
     13.541  0.2780E-01  0.2861E+00
     13.769  0.1632E-01  0.2899E+00
     13.998  0.3639E-01  0.2982E+00
     14.226  0.1373E-01  0.3013E+00
     14.455  0.1655E-01  0.3051E+00
     14.683  0.2708E-01  0.3113E+00
     14.912  0.2676E-01  0.3174E+00
     15.141  0.3057E-01  0.3244E+00
     15.369  0.1852E-01  0.3286E+00
     15.598  0.2237E-01  0.3337E+00
     15.826  0.2044E-01  0.3384E+00
     16.055  0.2472E-01  0.3441E+00
     16.283  0.1743E-01  0.3481E+00
     16.512  0.2297E-01  0.3533E+00
     16.740  0.2042E-01  0.3580E+00
     16.969  0.2572E-01  0.3639E+00
     17.198  0.4322E-01  0.3737E+00
     17.426  0.1678E-01  0.3776E+00
     17.655  0.1789E-01  0.3817E+00
     17.883  0.7981E-02  0.3835E+00
     18.112  0.1969E-01  0.3880E+00
     18.340  0.4251E-01  0.3977E+00
     18.569  0.2357E-01  0.4031E+00
     18.797  0.3327E-02  0.4038E+00
     19.026  0.4058E-01  0.4131E+00
     19.255  0.2943E-01  0.4198E+00
     19.483  0.2501E-01  0.4256E+00
     19.712  0.2638E-01  0.4316E+00
     19.940  0.2644E-01  0.4376E+00
     20.169  0.2305E-01  0.4429E+00
     20.397  0.4158E-01  0.4524E+00
     20.626  0.2835E-01  0.4589E+00
     20.854  0.2837E-01  0.4654E+00
     21.083  0.1329E-01  0.4684E+00
     21.312  0.2472E-01  0.4741E+00
     21.540  0.1972E-01  0.4786E+00
     21.769  0.3448E-01  0.4864E+00
     21.997  0.3287E-01  0.4940E+00
     22.226  0.3817E-01  0.5027E+00
     22.454  0.2623E-01  0.5087E+00
     22.683  0.1388E-01  0.5118E+00
     22.912  0.4422E-01  0.5220E+00
     23.140  0.2589E-01  0.5279E+00
     23.369  0.2068E-01  0.5326E+00
     23.597  0.3213E-01  0.5399E+00
     23.826  0.3372E-01  0.5476E+00
     24.054  0.3619E-01  0.5559E+00
     24.283  0.2884E-01  0.5625E+00
     24.511  0.3093E-01  0.5696E+00
     24.740  0.2876E-01  0.5762E+00
     24.969  0.2629E-01  0.5822E+00
     25.197  0.1858E-01  0.5864E+00
     25.426  0.1679E-01  0.5902E+00
     25.654  0.2836E-01  0.5967E+00
     25.883  0.2535E-01  0.6025E+00
     26.111  0.3857E-01  0.6113E+00
     26.340  0.3767E-01  0.6199E+00
     26.568  0.2244E-01  0.6251E+00
     26.797  0.2327E-01  0.6304E+00
     27.026  0.3593E-01  0.6386E+00
     27.254  0.2906E-01  0.6452E+00
     27.483  0.2351E-01  0.6506E+00
     27.711  0.2688E-01  0.6568E+00
     27.940  0.4429E-01  0.6669E+00
     28.168  0.7144E-02  0.6685E+00
     28.397  0.1292E-01  0.6715E+00
     28.626  0.3240E-01  0.6789E+00
     28.854  0.2825E-01  0.6853E+00
     29.083  0.3104E-01  0.6924E+00
     29.311  0.3425E-01  0.7003E+00
     29.540  0.2219E-01  0.7053E+00
     29.768  0.3258E-01  0.7128E+00
     29.997  0.2471E-01  0.7184E+00
     30.225  0.3546E-01  0.7265E+00
     30.454  0.2520E-01  0.7323E+00
     30.683  0.3350E-01  0.7399E+00
     30.911  0.4482E-01  0.7502E+00
     31.140  0.2380E-01  0.7556E+00
     31.368  0.2497E-01  0.7613E+00
     31.597  0.3852E-01  0.7701E+00
     31.825  0.1808E-01  0.7743E+00
     32.054  0.2644E-01  0.7803E+00
     32.282  0.3844E-01  0.7891E+00
     32.511  0.2737E-01  0.7954E+00
     32.740  0.3239E-01  0.8028E+00
     32.968  0.4042E-01  0.8120E+00
     33.197  0.3310E-01  0.8196E+00
     33.425  0.2650E-01  0.8256E+00
     33.654  0.2856E-01  0.8321E+00
     33.882  0.3186E-01  0.8394E+00
     34.111  0.3460E-01  0.8473E+00
     34.339  0.3062E-01  0.8543E+00
     34.568  0.1532E-01  0.8578E+00
     34.797  0.2605E-01  0.8638E+00
     35.025  0.3333E-01  0.8714E+00
     35.254  0.4446E-01  0.8816E+00
     35.482  0.3788E-01  0.8902E+00
     35.711  0.2000E-01  0.8948E+00
     35.939  0.4625E-01  0.9054E+00
     36.168  0.3694E-01  0.9138E+00
     36.397  0.2734E-01  0.9201E+00
     36.625  0.1959E-01  0.9245E+00
     36.854  0.1097E-01  0.9270E+00
     37.082  0.3757E-01  0.9356E+00
     37.311  0.3308E-01  0.9432E+00
     37.539  0.1753E-01  0.9472E+00
     37.768  0.7307E-02  0.9489E+00
     37.996  0.1183E-01  0.9516E+00
     38.225  0.4163E-02  0.9525E+00
     38.454  0.3561E-02  0.9533E+00
     38.682  0.6363E-02  0.9548E+00
     38.911  0.7259E-02  0.9565E+00
     39.139  0.1094E-01  0.9590E+00
     39.368  0.2139E-02  0.9594E+00
     39.596  0.5328E-06  0.9594E+00
     39.825  0.7534E-14  0.9594E+00
     40.053  0.2645E-16  0.9594E+00
     40.282  0.1270E-07  0.9594E+00
     40.511  0.2915E-03  0.9595E+00
     40.739  0.2091E-02  0.9600E+00
     40.968  0.4824E-04  0.9600E+00
     41.196  0.1492E-09  0.9600E+00
     41.425  0.0000E+00  0.9600E+00
     41.653  0.0000E+00  0.9600E+00
     41.882  0.0000E+00  0.9600E+00
     42.111  0.0000E+00  0.9600E+00
     42.339  0.0000E+00  0.9600E+00
     42.568  0.0000E+00  0.9600E+00
     42.796  0.0000E+00  0.9600E+00
     43.025  0.0000E+00  0.9600E+00
     43.253  0.0000E+00  0.9600E+00
     43.482  0.0000E+00  0.9600E+00
     43.710  0.0000E+00  0.9600E+00
