       N       E                     dE             d eps       ncg     rms          rms(c)
DAV:   1     0.319831196139E+03    0.31983E+03   -0.26362E+04145248   0.959E+02
DAV:   2    -0.119499312766E+03   -0.43933E+03   -0.43143E+03182376   0.227E+02
DAV:   3    -0.151512157090E+03   -0.32013E+02   -0.31842E+02215424   0.701E+01
DAV:   4    -0.151988477399E+03   -0.47632E+00   -0.47581E+00204960   0.986E+00
DAV:   5    -0.152004799571E+03   -0.16322E-01   -0.16317E-01212616   0.158E+00    0.184E+01
DAV:   6    -0.143465805670E+03    0.85390E+01   -0.91202E+00215904   0.101E+01    0.106E+01
DAV:   7    -0.140536047695E+03    0.29298E+01   -0.86312E+00217560   0.977E+00    0.300E+00
DAV:   8    -0.140494764095E+03    0.41284E-01   -0.32746E-01205152   0.194E+00    0.831E-01
DAV:   9    -0.140479043440E+03    0.15721E-01   -0.23493E-02197808   0.596E-01    0.211E-01
DAV:  10    -0.140469948447E+03    0.90950E-02   -0.61936E-03194784   0.263E-01    0.117E-01
DAV:  11    -0.140462701695E+03    0.72468E-02   -0.77644E-03198264   0.247E-01    0.612E-02
DAV:  12    -0.140462166749E+03    0.53495E-03   -0.18606E-03166464   0.114E-01    0.498E-02
DAV:  13    -0.140464493082E+03   -0.23263E-02   -0.64636E-04171960   0.796E-02    0.201E-02
DAV:  14    -0.140466517688E+03   -0.20246E-02   -0.21883E-04180288   0.388E-02    0.110E-02
DAV:  15    -0.140467455710E+03   -0.93802E-03   -0.91407E-05177000   0.213E-02    0.494E-03
DAV:  16    -0.140467666551E+03   -0.21084E-03   -0.18762E-05181152   0.985E-03    0.146E-03
DAV:  17    -0.140467698032E+03   -0.31480E-04   -0.21911E-06182664   0.332E-03    0.629E-04
DAV:  18    -0.140467705089E+03   -0.70571E-05   -0.32179E-07139176   0.154E-03    0.276E-04
DAV:  19    -0.140467707243E+03   -0.21548E-05   -0.15520E-07131016   0.869E-04    0.119E-04
DAV:  20    -0.140467707837E+03   -0.59366E-06   -0.25246E-08165144   0.389E-04
   1 F= -.14222609E+03 E0= -.14222517E+03  d E =-.142226E+03
       N       E                     dE             d eps       ncg     rms          rms(c)
DAV:   1    -0.140416958022E+03    0.50749E-01   -0.14974E+01145248   0.127E+01    0.110E+00
DAV:   2    -0.140387770768E+03    0.29187E-01   -0.27790E-01195792   0.184E+00    0.575E-01
DAV:   3    -0.140383822703E+03    0.39481E-02   -0.48765E-02208464   0.676E-01    0.252E-01
DAV:   4    -0.140383885211E+03   -0.62509E-04   -0.72458E-03182160   0.233E-01    0.109E-01
DAV:   5    -0.140383862872E+03    0.22339E-04   -0.59393E-04176904   0.865E-02    0.190E-02
DAV:   6    -0.140383864323E+03   -0.14513E-05   -0.10346E-04204312   0.339E-02    0.123E-02
DAV:   7    -0.140383874486E+03   -0.10163E-04   -0.18410E-05217440   0.140E-02    0.264E-03
DAV:   8    -0.140383882090E+03   -0.76034E-05   -0.24677E-06193800   0.502E-03    0.172E-03
DAV:   9    -0.140383893502E+03   -0.11412E-04   -0.14567E-06166128   0.279E-03    0.143E-03
DAV:  10    -0.140383895715E+03   -0.22130E-05   -0.14914E-07159696   0.106E-03    0.123E-03
DAV:  11    -0.140383900582E+03   -0.48671E-05   -0.71178E-07159360   0.160E-03    0.573E-04
DAV:  12    -0.140383900876E+03   -0.29342E-06   -0.17176E-08172608   0.361E-04
   2 F= -.14214728E+03 E0= -.14214592E+03  d E =0.788068E-01
       N       E                     dE             d eps       ncg     rms          rms(c)
DAV:   1    -0.140496254749E+03   -0.11235E+00   -0.79071E+00145248   0.913E+00    0.827E-01
DAV:   2    -0.140481304357E+03    0.14950E-01   -0.14553E-01197016   0.136E+00    0.409E-01
DAV:   3    -0.140478981153E+03    0.23232E-02   -0.28710E-02199872   0.508E-01    0.163E-01
DAV:   4    -0.140478963035E+03    0.18119E-04   -0.39246E-03192840   0.173E-01    0.772E-02
DAV:   5    -0.140478956067E+03    0.69674E-05   -0.16026E-04159624   0.503E-02    0.122E-02
DAV:   6    -0.140478955129E+03    0.93829E-06   -0.44057E-05208536   0.217E-02    0.762E-03
DAV:   7    -0.140478958690E+03   -0.35612E-05   -0.93210E-06211128   0.109E-02    0.241E-03
DAV:   8    -0.140478961387E+03   -0.26971E-05   -0.14000E-06172224   0.413E-03    0.111E-03
DAV:   9    -0.140478968972E+03   -0.75848E-05   -0.62240E-07124968   0.218E-03    0.638E-04
DAV:  10    -0.140478971363E+03   -0.23906E-05   -0.10335E-07141384   0.904E-04    0.500E-04
DAV:  11    -0.140478973845E+03   -0.24823E-05   -0.12949E-07119928   0.714E-04    0.172E-04
DAV:  12    -0.140478974263E+03   -0.41778E-06   -0.13248E-08158712   0.287E-04
   3 F= -.14223897E+03 E0= -.14223793E+03  d E =-.128858E-01
       N       E                     dE             d eps       ncg     rms          rms(c)
DAV:   1    -0.140478781140E+03    0.19271E-03   -0.45828E-02145536   0.902E-01    0.467E-02
DAV:   2    -0.140478776002E+03    0.51379E-05   -0.62080E-04181368   0.109E-01    0.294E-02
DAV:   3    -0.140478774222E+03    0.17799E-05   -0.55744E-05175944   0.359E-02    0.689E-03
DAV:   4    -0.140478775287E+03   -0.10653E-05   -0.16908E-05160848   0.147E-02    0.343E-03
DAV:   5    -0.140478776425E+03   -0.11382E-05   -0.49363E-07117192   0.353E-03    0.788E-04
DAV:   6    -0.140478776372E+03    0.53209E-07   -0.14531E-07166848   0.176E-03
   4 F= -.14223945E+03 E0= -.14223841E+03  d E =-.472667E-03
       N       E                     dE             d eps       ncg     rms          rms(c)
DAV:   1    -0.140478124701E+03    0.65172E-03   -0.41248E-01145248   0.271E+00    0.140E-01
DAV:   2    -0.140478108206E+03    0.16496E-04   -0.55919E-03167016   0.326E-01    0.882E-02
DAV:   3    -0.140478070913E+03    0.37293E-04   -0.50203E-04157752   0.108E-01    0.208E-02
DAV:   4    -0.140478075774E+03   -0.48607E-05   -0.15145E-04203616   0.439E-02    0.102E-02
DAV:   5    -0.140478081127E+03   -0.53536E-05   -0.50013E-06204600   0.103E-02    0.238E-03
DAV:   6    -0.140478080862E+03    0.26530E-06   -0.75857E-07168120   0.350E-03
   5 F= -.14224077E+03 E0= -.14223974E+03  d E =-.179562E-02
       N       E                     dE             d eps       ncg     rms          rms(c)
DAV:   1    -0.140476409563E+03    0.16716E-02   -0.16497E+00145248   0.541E+00    0.280E-01
DAV:   2    -0.140476416498E+03   -0.69347E-05   -0.22437E-02181560   0.652E-01    0.176E-01
DAV:   3    -0.140476215549E+03    0.20095E-03   -0.19909E-03160656   0.215E-01    0.418E-02
DAV:   4    -0.140476233921E+03   -0.18372E-04   -0.60107E-04197256   0.874E-02    0.203E-02
DAV:   5    -0.140476241945E+03   -0.80235E-05   -0.19941E-05214464   0.203E-02    0.442E-03
DAV:   6    -0.140476241462E+03    0.48305E-06   -0.25826E-06199752   0.622E-03
   6 F= -.14224300E+03 E0= -.14224198E+03  d E =-.402334E-02
       N       E                     dE             d eps       ncg     rms          rms(c)
DAV:   1    -0.140471349529E+03    0.48924E-02   -0.65958E+00145248   0.108E+01    0.563E-01
DAV:   2    -0.140471686383E+03   -0.33685E-03   -0.90562E-02188448   0.131E+00    0.353E-01
DAV:   3    -0.140470632723E+03    0.10537E-02   -0.77388E-03168744   0.422E-01    0.886E-02
DAV:   4    -0.140470738530E+03   -0.10581E-03   -0.22453E-03197040   0.167E-01    0.405E-02
DAV:   5    -0.140470772318E+03   -0.33788E-04   -0.73208E-05222072   0.366E-02    0.863E-03
DAV:   6    -0.140470769960E+03    0.23576E-05   -0.64246E-06203808   0.933E-03    0.399E-03
DAV:   7    -0.140470774597E+03   -0.46367E-05   -0.15110E-06176112   0.452E-03    0.134E-03
DAV:   8    -0.140470781050E+03   -0.64532E-05   -0.91549E-07171240   0.268E-03    0.137E-03
DAV:   9    -0.140470786482E+03   -0.54319E-05   -0.42036E-07156168   0.154E-03    0.382E-04
DAV:  10    -0.140470789916E+03   -0.34337E-05   -0.33981E-07153264   0.117E-03    0.435E-04
DAV:  11    -0.140470790980E+03   -0.10647E-05   -0.74740E-08153600   0.647E-04    0.184E-04
DAV:  12    -0.140470791476E+03   -0.49622E-06   -0.24862E-08134208   0.367E-04
   7 F= -.14224580E+03 E0= -.14224483E+03  d E =-.682839E-02
       N       E                     dE             d eps       ncg     rms          rms(c)
DAV:   1    -0.140453541907E+03    0.17249E-01   -0.26338E+01145248   0.216E+01    0.115E+00
DAV:   2    -0.140456138763E+03   -0.25969E-02   -0.37570E-01181992   0.267E+00    0.710E-01
DAV:   3    -0.140452050323E+03    0.40884E-02   -0.28074E-02185928   0.793E-01    0.224E-01
DAV:   4    -0.140452537973E+03   -0.48765E-03   -0.71965E-03192504   0.292E-01    0.855E-02
DAV:   5    -0.140452615482E+03   -0.77510E-04   -0.25367E-04225960   0.636E-02    0.223E-02
DAV:   6    -0.140452606684E+03    0.87987E-05   -0.18436E-05211128   0.177E-02    0.831E-03
DAV:   7    -0.140452620402E+03   -0.13718E-04   -0.63484E-06175632   0.902E-03    0.267E-03
DAV:   8    -0.140452634178E+03   -0.13776E-04   -0.21668E-06175968   0.460E-03    0.214E-03
DAV:   9    -0.140452644274E+03   -0.10096E-04   -0.11775E-06178752   0.255E-03    0.913E-04
DAV:  10    -0.140452652229E+03   -0.79545E-05   -0.10039E-06179064   0.202E-03    0.694E-04
DAV:  11    -0.140452655154E+03   -0.29256E-05   -0.27212E-07154656   0.118E-03    0.323E-04
DAV:  12    -0.140452656011E+03   -0.85673E-06   -0.69358E-08147720   0.635E-04
   8 F= -.14224466E+03 E0= -.14224377E+03  d E =-.568338E-02
       N       E                     dE             d eps       ncg     rms          rms(c)
DAV:   1    -0.140465981257E+03   -0.13326E-01   -0.10399E+01145248   0.136E+01    0.719E-01
DAV:   2    -0.140466369534E+03   -0.38828E-03   -0.14274E-01165840   0.165E+00    0.443E-01
DAV:   3    -0.140464865016E+03    0.15045E-02   -0.11844E-02192672   0.516E-01    0.128E-01
DAV:   4    -0.140465099149E+03   -0.23413E-03   -0.32214E-03164760   0.197E-01    0.562E-02
DAV:   5    -0.140465154585E+03   -0.55436E-04   -0.10410E-04236928   0.425E-02    0.140E-02
DAV:   6    -0.140465154248E+03    0.33644E-06   -0.66261E-06199584   0.980E-03
   9 F= -.14224641E+03 E0= -.14224547E+03  d E =-.743740E-02
       N       E                     dE             d eps       ncg     rms          rms(c)
DAV:   1    -0.140465099862E+03    0.54723E-04   -0.24453E-03163296   0.209E-01    0.105E-02
DAV:   2    -0.140465102129E+03   -0.22675E-05   -0.33536E-05187056   0.249E-02    0.656E-03
DAV:   3    -0.140465105374E+03   -0.32444E-05   -0.32613E-06193176   0.834E-03    0.174E-03
DAV:   4    -0.140465107763E+03   -0.23889E-05   -0.82359E-07188280   0.324E-03    0.850E-04
DAV:   5    -0.140465111861E+03   -0.40988E-05   -0.11369E-07146568   0.107E-03    0.493E-04
DAV:   6    -0.140465116700E+03   -0.48387E-05   -0.13196E-07130008   0.929E-04    0.226E-04
DAV:   7    -0.140465119867E+03   -0.31670E-05   -0.13079E-07128232   0.760E-04    0.180E-04
DAV:   8    -0.140465120338E+03   -0.47100E-06   -0.54976E-09156840   0.253E-04
  10 F= -.14224654E+03 E0= -.14224560E+03  d E =-.130647E-03
       N       E                     dE             d eps       ncg     rms          rms(c)
DAV:   1    -0.140464951953E+03    0.16791E-03   -0.22284E-02150288   0.630E-01    0.324E-02
DAV:   2    -0.140464948462E+03    0.34901E-05   -0.30722E-04178368   0.761E-02    0.205E-02
DAV:   3    -0.140464948479E+03   -0.16052E-07   -0.27480E-05180024   0.251E-02    0.491E-03
DAV:   4    -0.140464949010E+03   -0.53122E-06   -0.82701E-06166296   0.102E-02
  11 F= -.14224686E+03 E0= -.14224592E+03  d E =-.453344E-03
       N       E                     dE             d eps       ncg     rms          rms(c)
DAV:   1    -0.140464599301E+03    0.34918E-03   -0.89112E-02146304   0.126E+00    0.646E-02
DAV:   2    -0.140464596334E+03    0.29667E-05   -0.12214E-03148272   0.152E-01    0.409E-02
DAV:   3    -0.140464587469E+03    0.88659E-05   -0.11015E-04161976   0.500E-02    0.983E-03
DAV:   4    -0.140464589973E+03   -0.25043E-05   -0.32594E-05202560   0.203E-02    0.481E-03
DAV:   5    -0.140464591177E+03   -0.12040E-05   -0.10284E-06164712   0.480E-03    0.112E-03
DAV:   6    -0.140464591129E+03    0.47974E-07   -0.22304E-07172632   0.199E-03
  12 F= -.14224750E+03 E0= -.14224656E+03  d E =-.108514E-02
       N       E                     dE             d eps       ncg     rms          rms(c)
DAV:   1    -0.140463848909E+03    0.74227E-03   -0.35654E-01145248   0.252E+00    0.130E-01
DAV:   2    -0.140463848950E+03   -0.40670E-07   -0.49284E-03172008   0.305E-01    0.822E-02
DAV:   3    -0.140463803695E+03    0.45255E-04   -0.44111E-04159840   0.101E-01    0.196E-02
DAV:   4    -0.140463808107E+03   -0.44124E-05   -0.13403E-04186624   0.413E-02    0.964E-03
DAV:   5    -0.140463812442E+03   -0.43347E-05   -0.44047E-06201984   0.978E-03    0.227E-03
DAV:   6    -0.140463812266E+03    0.17596E-06   -0.74517E-07166608   0.351E-03
  13 F= -.14224870E+03 E0= -.14224777E+03  d E =-.229203E-02
       N       E                     dE             d eps       ncg     rms          rms(c)
DAV:   1    -0.140462143925E+03    0.16685E-02   -0.14260E+00145248   0.504E+00    0.260E-01
DAV:   2    -0.140462164793E+03   -0.20868E-04   -0.19769E-02182688   0.611E-01    0.164E-01
DAV:   3    -0.140461983241E+03    0.18155E-03   -0.17490E-03161616   0.201E-01    0.393E-02
DAV:   4    -0.140461994983E+03   -0.11741E-04   -0.53090E-04188856   0.821E-02    0.192E-02
DAV:   5    -0.140462002793E+03   -0.78108E-05   -0.17332E-05213456   0.191E-02    0.424E-03
DAV:   6    -0.140462002263E+03    0.53014E-06   -0.25779E-06200952   0.630E-03
  14 F= -.14225089E+03 E0= -.14224998E+03  d E =-.447906E-02
       N       E                     dE             d eps       ncg     rms          rms(c)
DAV:   1    -0.140457860246E+03    0.41425E-02   -0.57019E+00145248   0.101E+01    0.521E-01
DAV:   2    -0.140458185087E+03   -0.32484E-03   -0.79694E-02186360   0.123E+00    0.329E-01
DAV:   3    -0.140457257669E+03    0.92742E-03   -0.68166E-03164376   0.396E-01    0.827E-02
DAV:   4    -0.140457344440E+03   -0.86772E-04   -0.19941E-03190584   0.157E-01    0.381E-02
DAV:   5    -0.140457364426E+03   -0.19986E-04   -0.64482E-05222096   0.347E-02    0.798E-03
DAV:   6    -0.140457362175E+03    0.22503E-05   -0.63841E-06202776   0.943E-03    0.364E-03
DAV:   7    -0.140457365270E+03   -0.30949E-05   -0.95523E-07151728   0.378E-03    0.107E-03
DAV:   8    -0.140457370697E+03   -0.54265E-05   -0.89400E-07169848   0.275E-03    0.138E-03
DAV:   9    -0.140457376083E+03   -0.53866E-05   -0.46680E-07157200   0.184E-03    0.356E-04
DAV:  10    -0.140457378823E+03   -0.27396E-05   -0.22516E-07152064   0.104E-03    0.307E-04
DAV:  11    -0.140457380146E+03   -0.13225E-05   -0.10301E-07150672   0.707E-04    0.236E-04
DAV:  12    -0.140457380657E+03   -0.51139E-06   -0.27226E-08135432   0.394E-04
  15 F= -.14225436E+03 E0= -.14225349E+03  d E =-.795304E-02
       N       E                     dE             d eps       ncg     rms          rms(c)
DAV:   1    -0.140444897906E+03    0.12482E-01   -0.22780E+01145248   0.201E+01    0.106E+00
DAV:   2    -0.140447258265E+03   -0.23604E-02   -0.32866E-01177216   0.250E+00    0.661E-01
DAV:   3    -0.140443413851E+03    0.38444E-02   -0.24959E-02176664   0.749E-01    0.204E-01
DAV:   4    -0.140443846285E+03   -0.43243E-03   -0.64895E-03185208   0.278E-01    0.788E-02
DAV:   5    -0.140443907744E+03   -0.61459E-04   -0.22496E-04223752   0.599E-02    0.209E-02
DAV:   6    -0.140443898887E+03    0.88568E-05   -0.17108E-05209856   0.170E-02    0.759E-03
DAV:   7    -0.140443906654E+03   -0.77674E-05   -0.35456E-06177696   0.722E-03    0.212E-03
DAV:   8    -0.140443917992E+03   -0.11338E-04   -0.21491E-06171216   0.457E-03    0.222E-03
DAV:   9    -0.140443928573E+03   -0.10580E-04   -0.13473E-06176400   0.293E-03    0.926E-04
DAV:  10    -0.140443935155E+03   -0.65826E-05   -0.70671E-07173016   0.182E-03    0.605E-04
DAV:  11    -0.140443938359E+03   -0.32043E-05   -0.30495E-07151128   0.120E-03    0.397E-04
DAV:  12    -0.140443939293E+03   -0.93396E-06   -0.76106E-08150000   0.667E-04
  16 F= -.14225751E+03 E0= -.14225671E+03  d E =-.111046E-01
       N       E                     dE             d eps       ncg     rms          rms(c)
DAV:   1    -0.140443253265E+03    0.68509E-03   -0.35423E-01145248   0.251E+00    0.129E-01
DAV:   2    -0.140443258083E+03   -0.48181E-05   -0.48570E-03174744   0.304E-01    0.817E-02
DAV:   3    -0.140443208028E+03    0.50055E-04   -0.43754E-04154560   0.101E-01    0.195E-02
DAV:   4    -0.140443212601E+03   -0.45736E-05   -0.13405E-04186072   0.413E-02    0.958E-03
DAV:   5    -0.140443216160E+03   -0.35587E-05   -0.42139E-06194856   0.968E-03    0.227E-03
DAV:   6    -0.140443215880E+03    0.28036E-06   -0.75060E-07166848   0.357E-03
  17 F= -.14225889E+03 E0= -.14225810E+03  d E =-.137942E-02
       N       E                     dE             d eps       ncg     rms          rms(c)
DAV:   1    -0.140440998244E+03    0.22179E-02   -0.31881E+00145248   0.754E+00    0.388E-01
DAV:   2    -0.140441113131E+03   -0.11489E-03   -0.44085E-02175920   0.914E-01    0.245E-01
DAV:   3    -0.140440633565E+03    0.47957E-03   -0.38789E-03157392   0.299E-01    0.596E-02
DAV:   4    -0.140440670721E+03   -0.37156E-04   -0.11597E-03189408   0.121E-01    0.282E-02
DAV:   5    -0.140440681215E+03   -0.10495E-04   -0.36194E-05218040   0.271E-02    0.591E-03
DAV:   6    -0.140440679984E+03    0.12316E-05   -0.45895E-06201480   0.828E-03    0.265E-03
DAV:   7    -0.140440681552E+03   -0.15686E-05   -0.65934E-07155640   0.313E-03    0.826E-04
DAV:   8    -0.140440684993E+03   -0.34407E-05   -0.40338E-07142296   0.188E-03    0.102E-03
DAV:   9    -0.140440688105E+03   -0.31115E-05   -0.22114E-07147288   0.129E-03    0.296E-04
DAV:  10    -0.140440689615E+03   -0.15108E-05   -0.12780E-07152616   0.821E-04    0.310E-04
DAV:  11    -0.140440690236E+03   -0.62056E-06   -0.37864E-08147696   0.504E-04
  18 F= -.14226273E+03 E0= -.14226196E+03  d E =-.521069E-02
       N       E                     dE             d eps       ncg     rms          rms(c)
DAV:   1    -0.140434900165E+03    0.57895E-02   -0.12743E+01145248   0.151E+01    0.782E-01
DAV:   2    -0.140435870165E+03   -0.97000E-03   -0.17933E-01174600   0.185E+00    0.492E-01
DAV:   3    -0.140433700215E+03    0.21699E-02   -0.14727E-02165696   0.579E-01    0.133E-01
DAV:   4    -0.140433917753E+03   -0.21754E-03   -0.40870E-03190680   0.222E-01    0.565E-02
DAV:   5    -0.140433955336E+03   -0.37583E-04   -0.12881E-04223464   0.468E-02    0.135E-02
DAV:   6    -0.140433950422E+03    0.49137E-05   -0.10085E-05210168   0.122E-02    0.556E-03
DAV:   7    -0.140433954196E+03   -0.37735E-05   -0.23242E-06179424   0.598E-03    0.155E-03
DAV:   8    -0.140433961632E+03   -0.74361E-05   -0.12137E-06171864   0.343E-03    0.174E-03
DAV:   9    -0.140433967929E+03   -0.62974E-05   -0.57848E-07162168   0.191E-03    0.504E-04
DAV:  10    -0.140433972397E+03   -0.44679E-05   -0.42388E-07161088   0.135E-03    0.467E-04
DAV:  11    -0.140433974247E+03   -0.18496E-05   -0.16209E-07153072   0.883E-04    0.292E-04
DAV:  12    -0.140433974806E+03   -0.55934E-06   -0.38806E-08138648   0.469E-04
  19 F= -.14226894E+03 E0= -.14226824E+03  d E =-.114267E-01
       N       E                     dE             d eps       ncg     rms          rms(c)
DAV:   1    -0.140412392207E+03    0.21582E-01   -0.50850E+01145248   0.301E+01    0.164E+00
DAV:   2    -0.140421209895E+03   -0.88177E-02   -0.76631E-01173592   0.382E+00    0.995E-01
DAV:   3    -0.140412380830E+03    0.88291E-02   -0.50955E-02202848   0.105E+00    0.384E-01
DAV:   4    -0.140413263085E+03   -0.88226E-03   -0.11848E-02184728   0.385E-01    0.125E-01
DAV:   5    -0.140413337666E+03   -0.74581E-04   -0.46908E-04226824   0.854E-02    0.264E-02
DAV:   6    -0.140413325221E+03    0.12445E-04   -0.28840E-05206712   0.221E-02    0.114E-02
DAV:   7    -0.140413344234E+03   -0.19013E-04   -0.13945E-05179424   0.132E-02    0.389E-03
DAV:   8    -0.140413362333E+03   -0.18099E-04   -0.29766E-06174576   0.554E-03    0.319E-03
DAV:   9    -0.140413380125E+03   -0.17792E-04   -0.25173E-06176112   0.401E-03    0.129E-03
DAV:  10    -0.140413389862E+03   -0.97371E-05   -0.13701E-06180336   0.250E-03    0.843E-04
DAV:  11    -0.140413394489E+03   -0.46274E-05   -0.58536E-07168672   0.169E-03    0.464E-04
DAV:  12    -0.140413395491E+03   -0.10016E-05   -0.95190E-08155472   0.796E-04    0.185E-04
DAV:  13    -0.140413395991E+03   -0.49993E-06   -0.39415E-08128424   0.463E-04
  20 F= -.14227507E+03 E0= -.14227451E+03  d E =-.175583E-01
       N       E                     dE             d eps       ncg     rms          rms(c)
DAV:   1    -0.140412338671E+03    0.10568E-02   -0.16897E+00145248   0.551E+00    0.279E-01
DAV:   2    -0.140412385423E+03   -0.46753E-04   -0.23023E-02173520   0.664E-01    0.177E-01
DAV:   3    -0.140412147918E+03    0.23751E-03   -0.20879E-03153696   0.220E-01    0.432E-02
DAV:   4    -0.140412163054E+03   -0.15135E-04   -0.62961E-04191736   0.900E-02    0.211E-02
DAV:   5    -0.140412172448E+03   -0.93941E-05   -0.19640E-05210504   0.204E-02    0.473E-03
DAV:   6    -0.140412171191E+03    0.12575E-05   -0.31617E-06203208   0.709E-03    0.182E-03
DAV:   7    -0.140412171485E+03   -0.29411E-06   -0.24427E-07156168   0.204E-03
  21 F= -.14227874E+03 E0= -.14227819E+03  d E =-.366307E-02
       N       E                     dE             d eps       ncg     rms          rms(c)
DAV:   1    -0.140404886337E+03    0.72849E-02   -0.15196E+01145248   0.165E+01    0.848E-01
DAV:   2    -0.140406153275E+03   -0.12669E-02   -0.21294E-01181824   0.202E+00    0.534E-01
DAV:   3    -0.140403565016E+03    0.25883E-02   -0.17481E-02176376   0.631E-01    0.149E-01
DAV:   4    -0.140403807928E+03   -0.24291E-03   -0.47655E-03190584   0.241E-01    0.624E-02
DAV:   5    -0.140403852015E+03   -0.44087E-04   -0.15726E-04224040   0.513E-02    0.154E-02
DAV:   6    -0.140403848927E+03    0.30888E-05   -0.12546E-05207168   0.141E-02    0.585E-03
DAV:   7    -0.140403851245E+03   -0.23183E-05   -0.20364E-06186480   0.591E-03    0.225E-03
DAV:   8    -0.140403858366E+03   -0.71210E-05   -0.17121E-06176544   0.451E-03    0.166E-03
DAV:   9    -0.140403864446E+03   -0.60800E-05   -0.66269E-07166704   0.242E-03    0.113E-03
DAV:  10    -0.140403870378E+03   -0.59319E-05   -0.63427E-07175680   0.184E-03    0.472E-04
DAV:  11    -0.140403873268E+03   -0.28900E-05   -0.27490E-07148224   0.114E-03    0.443E-04
DAV:  12    -0.140403873829E+03   -0.56149E-06   -0.40521E-08162864   0.524E-04
  22 F= -.14228529E+03 E0= -.14228482E+03  d E =-.102172E-01
       N       E                     dE             d eps       ncg     rms          rms(c)
DAV:   1    -0.140397849036E+03    0.60242E-02   -0.33690E+00145248   0.778E+00    0.395E-01
DAV:   2    -0.140397959903E+03   -0.11087E-03   -0.45986E-02175368   0.939E-01    0.250E-01
DAV:   3    -0.140397460129E+03    0.49977E-03   -0.41449E-03153624   0.309E-01    0.619E-02
DAV:   4    -0.140397499326E+03   -0.39197E-04   -0.12274E-03192000   0.125E-01    0.295E-02
DAV:   5    -0.140397512419E+03   -0.13093E-04   -0.38715E-05212640   0.281E-02    0.637E-03
DAV:   6    -0.140397509715E+03    0.27047E-05   -0.53871E-06203976   0.913E-03    0.262E-03
DAV:   7    -0.140397510279E+03   -0.56464E-06   -0.47979E-07155112   0.285E-03
  23 F= -.14228601E+03 E0= -.14228558E+03  d E =-.109379E-01
       N       E                     dE             d eps       ncg     rms          rms(c)
DAV:   1    -0.140395261521E+03    0.22482E-02   -0.24497E+00145248   0.665E+00    0.335E-01
DAV:   2    -0.140395291931E+03   -0.30410E-04   -0.32327E-02184320   0.789E-01    0.211E-01
DAV:   3    -0.140394954592E+03    0.33734E-03   -0.29031E-03158640   0.260E-01    0.513E-02
DAV:   4    -0.140394978350E+03   -0.23758E-04   -0.88420E-04200208   0.106E-01    0.244E-02
DAV:   5    -0.140394987328E+03   -0.89782E-05   -0.26661E-05213648   0.236E-02    0.544E-03
DAV:   6    -0.140394986276E+03    0.10516E-05   -0.39288E-06206904   0.787E-03    0.222E-03
DAV:   7    -0.140394987373E+03   -0.10970E-05   -0.39616E-07154560   0.251E-03    0.663E-04
DAV:   8    -0.140394990110E+03   -0.27371E-05   -0.29606E-07152064   0.177E-03    0.806E-04
DAV:   9    -0.140394992328E+03   -0.22179E-05   -0.14944E-07153696   0.111E-03    0.263E-04
DAV:  10    -0.140394993755E+03   -0.14271E-05   -0.11344E-07154200   0.772E-04    0.219E-04
DAV:  11    -0.140394994323E+03   -0.56811E-06   -0.35562E-08148512   0.488E-04
  24 F= -.14228947E+03 E0= -.14228906E+03  d E =-.345953E-02
       N       E                     dE             d eps       ncg     rms          rms(c)
DAV:   1    -0.140388449268E+03    0.65445E-02   -0.61292E+00145248   0.105E+01    0.529E-01
DAV:   2    -0.140388669965E+03   -0.22070E-03   -0.81436E-02174624   0.125E+00    0.334E-01
DAV:   3    -0.140387715410E+03    0.95455E-03   -0.71951E-03163824   0.407E-01    0.831E-02
DAV:   4    -0.140387807689E+03   -0.92279E-04   -0.21201E-03203208   0.164E-01    0.381E-02
DAV:   5    -0.140387834817E+03   -0.27128E-04   -0.63654E-05215760   0.350E-02    0.819E-03
DAV:   6    -0.140387832284E+03    0.25331E-05   -0.68214E-06201360   0.101E-02    0.361E-03
DAV:   7    -0.140387832898E+03   -0.61423E-06   -0.85461E-07168648   0.376E-03
  25 F= -.14229185E+03 E0= -.14229147E+03  d E =-.583712E-02
       N       E                     dE             d eps       ncg     rms          rms(c)
DAV:   1    -0.140386652692E+03    0.11796E-02   -0.10040E-01146472   0.134E+00    0.684E-02
DAV:   2    -0.140386651561E+03    0.11301E-05   -0.13144E-03187392   0.159E-01    0.431E-02
DAV:   3    -0.140386639885E+03    0.11676E-04   -0.11959E-04154968   0.526E-02    0.106E-02
DAV:   4    -0.140386642064E+03   -0.21784E-05   -0.36813E-05193248   0.218E-02    0.510E-03
DAV:   5    -0.140386643344E+03   -0.12797E-05   -0.11180E-06159480   0.494E-03    0.113E-03
DAV:   6    -0.140386643838E+03   -0.49425E-06   -0.23786E-07153672   0.198E-03
  26 F= -.14229189E+03 E0= -.14229151E+03  d E =-.587548E-02
       N       E                     dE             d eps       ncg     rms          rms(c)
DAV:   1    -0.140386771107E+03   -0.12776E-03   -0.51207E-02146232   0.100E+00    0.503E-02
DAV:   2    -0.140386784236E+03   -0.13129E-04   -0.69706E-04169104   0.116E-01    0.316E-02
DAV:   3    -0.140386777580E+03    0.66564E-05   -0.71151E-05157656   0.384E-02    0.113E-02
DAV:   4    -0.140386778725E+03   -0.11452E-05   -0.16238E-05195192   0.155E-02    0.551E-03
DAV:   5    -0.140386779416E+03   -0.69147E-06   -0.96961E-07128880   0.424E-03
  27 F= -.14229254E+03 E0= -.14229217E+03  d E =-.657466E-03
       N       E                     dE             d eps       ncg     rms          rms(c)
DAV:   1    -0.140386603561E+03    0.17516E-03   -0.12169E-02146016   0.489E-01    0.245E-02
DAV:   2    -0.140386606612E+03   -0.30503E-05   -0.16626E-04160224   0.564E-02    0.155E-02
DAV:   3    -0.140386605705E+03    0.90718E-06   -0.16896E-05155352   0.187E-02    0.560E-03
DAV:   4    -0.140386606024E+03   -0.31954E-06   -0.38271E-06188064   0.752E-03
  28 F= -.14229262E+03 E0= -.14229225E+03  d E =-.738036E-03
       N       E                     dE             d eps       ncg     rms          rms(c)
DAV:   1    -0.140386802883E+03   -0.19718E-03   -0.40487E-02145248   0.875E-01    0.423E-02
DAV:   2    -0.140386806322E+03   -0.34386E-05   -0.35341E-04161280   0.820E-02    0.264E-02
DAV:   3    -0.140386807045E+03   -0.72338E-06   -0.38806E-05150552   0.288E-02    0.615E-03
DAV:   4    -0.140386807615E+03   -0.56924E-06   -0.90265E-06193536   0.113E-02
  29 F= -.14229317E+03 E0= -.14229279E+03  d E =-.546131E-03
       N       E                     dE             d eps       ncg     rms          rms(c)
DAV:   1    -0.140386632399E+03    0.17465E-03   -0.48346E-02145248   0.956E-01    0.464E-02
DAV:   2    -0.140386637385E+03   -0.49859E-05   -0.42291E-04160776   0.898E-02    0.290E-02
DAV:   3    -0.140386638196E+03   -0.81180E-06   -0.46313E-05152112   0.314E-02    0.683E-03
DAV:   4    -0.140386638839E+03   -0.64270E-06   -0.10815E-05195480   0.123E-02    0.344E-03
DAV:   5    -0.140386639363E+03   -0.52401E-06   -0.45780E-07120024   0.292E-03
  30 F= -.14229338E+03 E0= -.14229300E+03  d E =-.755046E-03
       N       E                     dE             d eps       ncg     rms          rms(c)
DAV:   1    -0.140386694045E+03   -0.55206E-04   -0.17203E-02145248   0.591E-01    0.299E-02
DAV:   2    -0.140386701646E+03   -0.76014E-05   -0.25213E-04154272   0.722E-02    0.190E-02
DAV:   3    -0.140386700414E+03    0.12321E-05   -0.32451E-05152736   0.255E-02    0.718E-03
DAV:   4    -0.140386700776E+03   -0.36183E-06   -0.65205E-06181056   0.103E-02
  31 F= -.14229356E+03 E0= -.14229318E+03  d E =-.180689E-03
       N       E                     dE             d eps       ncg     rms          rms(c)
DAV:   1    -0.140386689579E+03    0.10835E-04   -0.22418E-04149088   0.675E-02    0.355E-03
DAV:   2    -0.140386689799E+03   -0.21982E-06   -0.33423E-06156144   0.820E-03
  32 F= -.14229356E+03 E0= -.14229318E+03  d E =-.183409E-03
       N       E                     dE             d eps       ncg     rms          rms(c)
DAV:   1    -0.140386736741E+03   -0.47161E-04   -0.98617E-04154320   0.138E-01    0.785E-03
DAV:   2    -0.140386737051E+03   -0.31033E-06   -0.13656E-05154968   0.157E-02    0.505E-03
DAV:   3    -0.140386737041E+03    0.10094E-07   -0.17840E-06177000   0.576E-03
  33 F= -.14229358E+03 E0= -.14229320E+03  d E =-.187596E-04
       N       E                     dE             d eps       ncg     rms          rms(c)
DAV:   1    -0.140386746905E+03   -0.98542E-05   -0.92051E-05187992   0.422E-02    0.263E-03
DAV:   2    -0.140386746917E+03   -0.11533E-07   -0.10890E-06145752   0.465E-03
  34 F= -.14229358E+03 E0= -.14229320E+03  d E =-.200003E-04
       N       E                     dE             d eps       ncg     rms          rms(c)
DAV:   1    -0.140386816604E+03   -0.69698E-04   -0.67955E-04153408   0.113E-01    0.590E-03
DAV:   2    -0.140386816446E+03    0.15726E-06   -0.69126E-06151632   0.117E-02
  35 F= -.14229360E+03 E0= -.14229321E+03  d E =-.127035E-04
       N       E                     dE             d eps       ncg     rms          rms(c)
DAV:   1    -0.140386932251E+03   -0.11565E-03   -0.23810E-03148080   0.212E-01    0.114E-02
DAV:   2    -0.140386932087E+03    0.16315E-06   -0.22711E-05152136   0.213E-02    0.715E-03
DAV:   3    -0.140386932911E+03   -0.82308E-06   -0.22894E-06133104   0.744E-03
  36 F= -.14229360E+03 E0= -.14229322E+03  d E =-.220851E-04
       N       E                     dE             d eps       ncg     rms          rms(c)
DAV:   1    -0.140387047153E+03   -0.11507E-03   -0.12476E-03148296   0.153E-01    0.805E-03
DAV:   2    -0.140387046996E+03    0.15690E-06   -0.17205E-05149808   0.182E-02    0.523E-03
DAV:   3    -0.140387047379E+03   -0.38208E-06   -0.16608E-06138912   0.621E-03
  37 F= -.14229361E+03 E0= -.14229323E+03  d E =-.672540E-05
       N       E                     dE             d eps       ncg     rms          rms(c)
DAV:   1    -0.140387053783E+03   -0.67861E-05   -0.54861E-06162408   0.102E-02    0.107E-03
DAV:   2    -0.140387053810E+03   -0.27438E-07   -0.97686E-08177096   0.149E-03
  38 F= -.14229361E+03 E0= -.14229323E+03  d E =-.689440E-05
       N       E                     dE             d eps       ncg     rms          rms(c)
DAV:   1    -0.140387174378E+03   -0.12060E-03   -0.98011E-04148296   0.135E-01    0.678E-03
DAV:   2    -0.140387173940E+03    0.43777E-06   -0.12928E-05148800   0.158E-02    0.430E-03
DAV:   3    -0.140387174197E+03   -0.25756E-06   -0.11276E-06132480   0.520E-03
  39 F= -.14229362E+03 E0= -.14229324E+03  d E =-.773810E-05
       N       E                     dE             d eps       ncg     rms          rms(c)
DAV:   1    -0.140387324748E+03   -0.15081E-03   -0.16583E-03146448   0.175E-01    0.918E-03
DAV:   2    -0.140387324103E+03    0.64474E-06   -0.21463E-05148320   0.205E-02    0.580E-03
DAV:   3    -0.140387324515E+03   -0.41142E-06   -0.20761E-06156960   0.691E-03
  40 F= -.14229362E+03 E0= -.14229324E+03  d E =-.123888E-04
       N       E                     dE             d eps       ncg     rms          rms(c)
DAV:   1    -0.140387434804E+03   -0.11070E-03   -0.72908E-04148176   0.115E-01    0.621E-03
DAV:   2    -0.140387434375E+03    0.42933E-06   -0.95119E-06149376   0.137E-02
  41 F= -.14229363E+03 E0= -.14229325E+03  d E =-.683247E-05
       N       E                     dE             d eps       ncg     rms          rms(c)
DAV:   1    -0.140387759208E+03   -0.32440E-03   -0.63437E-03145440   0.339E-01    0.178E-02
DAV:   2    -0.140387757324E+03    0.18835E-05   -0.83513E-05149016   0.403E-02    0.113E-02
DAV:   3    -0.140387758395E+03   -0.10711E-05   -0.80593E-06164952   0.136E-02    0.285E-03
DAV:   4    -0.140387758703E+03   -0.30733E-06   -0.23693E-06151416   0.559E-03
  42 F= -.14229365E+03 E0= -.14229326E+03  d E =-.222111E-04
       N       E                     dE             d eps       ncg     rms          rms(c)
DAV:   1    -0.140388381540E+03   -0.62315E-03   -0.25665E-02145248   0.681E-01    0.345E-02
DAV:   2    -0.140388378680E+03    0.28602E-05   -0.34748E-04149592   0.819E-02    0.218E-02
DAV:   3    -0.140388377409E+03    0.12717E-05   -0.32409E-05175248   0.271E-02    0.570E-03
DAV:   4    -0.140388378516E+03   -0.11074E-05   -0.93661E-06152088   0.111E-02    0.283E-03
DAV:   5    -0.140388379408E+03   -0.89196E-06   -0.29062E-07123144   0.262E-03
  43 F= -.14229365E+03 E0= -.14229326E+03  d E =-.249549E-04
       N       E                     dE             d eps       ncg     rms          rms(c)
DAV:   1    -0.140388099470E+03    0.27905E-03   -0.53981E-03145800   0.312E-01    0.159E-02
DAV:   2    -0.140388098477E+03    0.99383E-06   -0.72546E-05160128   0.374E-02    0.101E-02
DAV:   3    -0.140388098573E+03   -0.96799E-07   -0.68760E-06157296   0.125E-02
  44 F= -.14229365E+03 E0= -.14229326E+03  d E =-.280022E-04
       N       E                     dE             d eps       ncg     rms          rms(c)
DAV:   1    -0.140388198277E+03   -0.99800E-04   -0.64114E-04151608   0.108E-01    0.466E-03
DAV:   2    -0.140388198419E+03   -0.14169E-06   -0.96324E-06152520   0.133E-02
  45 F= -.14229365E+03 E0= -.14229326E+03  d E =-.281380E-04
       N       E                     dE             d eps       ncg     rms          rms(c)
DAV:   1    -0.140388260390E+03   -0.62113E-04   -0.21112E-04155856   0.622E-02    0.375E-03
DAV:   2    -0.140388260177E+03    0.21317E-06   -0.26251E-06155952   0.716E-03
  46 F= -.14229365E+03 E0= -.14229327E+03  d E =-.249827E-05
       N       E                     dE             d eps       ncg     rms          rms(c)
DAV:   1    -0.140388445931E+03   -0.18554E-03   -0.19767E-03145536   0.188E-01    0.986E-03
DAV:   2    -0.140388445094E+03    0.83770E-06   -0.25626E-05146784   0.223E-02    0.627E-03
DAV:   3    -0.140388445616E+03   -0.52206E-06   -0.24204E-06148032   0.739E-03
  47 F= -.14229366E+03 E0= -.14229327E+03  d E =-.101801E-04
       N       E                     dE             d eps       ncg     rms          rms(c)
DAV:   1    -0.140388815445E+03   -0.37035E-03   -0.80614E-03145248   0.380E-01    0.199E-02
DAV:   2    -0.140388812921E+03    0.25234E-05   -0.10666E-04145632   0.454E-02    0.126E-02
DAV:   3    -0.140388813814E+03   -0.89287E-06   -0.10135E-05159600   0.152E-02    0.308E-03
DAV:   4    -0.140388814235E+03   -0.42049E-06   -0.30200E-06150144   0.622E-03
  48 F= -.14229368E+03 E0= -.14229328E+03  d E =-.233909E-04
       N       E                     dE             d eps       ncg     rms          rms(c)
DAV:   1    -0.140389547260E+03   -0.73345E-03   -0.31979E-02145248   0.756E-01    0.385E-02
DAV:   2    -0.140389543358E+03    0.39021E-05   -0.42775E-04148704   0.906E-02    0.243E-02
DAV:   3    -0.140389541374E+03    0.19841E-05   -0.38982E-05176304   0.296E-02    0.610E-03
DAV:   4    -0.140389542736E+03   -0.13623E-05   -0.11291E-05151704   0.120E-02    0.295E-03
DAV:   5    -0.140389543778E+03   -0.10413E-05   -0.31542E-07122088   0.279E-03    0.633E-04
DAV:   6    -0.140389543799E+03   -0.21735E-07   -0.89253E-08168408   0.137E-03
  49 F= -.14229369E+03 E0= -.14229330E+03  d E =-.425608E-04
       N       E                     dE             d eps       ncg     rms          rms(c)
DAV:   1    -0.140390985542E+03   -0.14418E-02   -0.12796E-01145248   0.151E+00    0.775E-02
DAV:   2    -0.140390971363E+03    0.14179E-04   -0.17195E-03148632   0.182E-01    0.489E-02
DAV:   3    -0.140390962837E+03    0.85258E-05   -0.15786E-04170688   0.596E-02    0.123E-02
DAV:   4    -0.140390966373E+03   -0.35356E-05   -0.45920E-05150720   0.241E-02    0.592E-03
DAV:   5    -0.140390969436E+03   -0.30630E-05   -0.14125E-06171264   0.554E-03    0.128E-03
DAV:   6    -0.140390969463E+03   -0.27290E-07   -0.24717E-07153744   0.208E-03
  50 F= -.14229370E+03 E0= -.14229330E+03  d E =-.492175E-04
       N       E                     dE             d eps       ncg     rms          rms(c)
DAV:   1    -0.140391364943E+03   -0.39551E-03   -0.85819E-03145320   0.392E-01    0.202E-02
DAV:   2    -0.140391362620E+03    0.23227E-05   -0.11787E-04157200   0.476E-02    0.127E-02
DAV:   3    -0.140391363179E+03   -0.55878E-06   -0.10949E-05156264   0.158E-02    0.322E-03
DAV:   4    -0.140391363704E+03   -0.52544E-06   -0.32244E-06155160   0.646E-03
  51 F= -.14229373E+03 E0= -.14229332E+03  d E =-.251153E-04
       N       E                     dE             d eps       ncg     rms          rms(c)
DAV:   1    -0.140392526499E+03   -0.11633E-02   -0.77130E-02145248   0.117E+00    0.603E-02
DAV:   2    -0.140392521011E+03    0.54881E-05   -0.10505E-03146496   0.142E-01    0.380E-02
DAV:   3    -0.140392513942E+03    0.70692E-05   -0.96943E-05171744   0.467E-02    0.974E-03
DAV:   4    -0.140392516564E+03   -0.26223E-05   -0.27775E-05150552   0.189E-02    0.475E-03
DAV:   5    -0.140392518649E+03   -0.20850E-05   -0.83772E-07141360   0.441E-03    0.101E-03
DAV:   6    -0.140392518726E+03   -0.77022E-07   -0.20953E-07144384   0.203E-03
  52 F= -.14229378E+03 E0= -.14229337E+03  d E =-.737395E-04
       N       E                     dE             d eps       ncg     rms          rms(c)
DAV:   1    -0.140394734850E+03   -0.22162E-02   -0.30859E-01145248   0.235E+00    0.121E-01
DAV:   2    -0.140394712670E+03    0.22180E-04   -0.42176E-03148848   0.285E-01    0.762E-02
DAV:   3    -0.140394688776E+03    0.23894E-04   -0.38849E-04174720   0.936E-02    0.197E-02
DAV:   4    -0.140394694953E+03   -0.61766E-05   -0.11093E-04149496   0.377E-02    0.955E-03
DAV:   5    -0.140394700039E+03   -0.50860E-05   -0.37169E-06225312   0.869E-03    0.212E-03
DAV:   6    -0.140394700101E+03   -0.61737E-07   -0.52918E-07148392   0.295E-03
  53 F= -.14229375E+03 E0= -.14229333E+03  d E =-.460694E-04
       N       E                     dE             d eps       ncg     rms          rms(c)
DAV:   1    -0.140393251278E+03    0.14488E-02   -0.14228E-01145248   0.160E+00    0.819E-02
DAV:   2    -0.140393247451E+03    0.38271E-05   -0.19479E-03172656   0.193E-01    0.518E-02
DAV:   3    -0.140393232127E+03    0.15324E-04   -0.18032E-04168624   0.642E-02    0.129E-02
DAV:   4    -0.140393235081E+03   -0.29549E-05   -0.53189E-05149496   0.264E-02    0.638E-03
DAV:   5    -0.140393238095E+03   -0.30140E-05   -0.17281E-06161208   0.621E-03    0.142E-03
DAV:   6    -0.140393238128E+03   -0.32553E-07   -0.33658E-07139392   0.246E-03
  54 F= -.14229379E+03 E0= -.14229337E+03  d E =-.838817E-04
       N       E                     dE             d eps       ncg     rms          rms(c)
DAV:   1    -0.140393459169E+03   -0.22107E-03   -0.27289E-03152328   0.222E-01    0.115E-02
DAV:   2    -0.140393458014E+03    0.11550E-05   -0.34678E-05157776   0.259E-02    0.717E-03
DAV:   3    -0.140393458548E+03   -0.53450E-06   -0.32317E-06161088   0.855E-03
  55 F= -.14229381E+03 E0= -.14229339E+03  d E =-.227649E-04
       N       E                     dE             d eps       ncg     rms          rms(c)
DAV:   1    -0.140393967095E+03   -0.50908E-03   -0.15858E-02145272   0.535E-01    0.282E-02
DAV:   2    -0.140393964004E+03    0.30904E-05   -0.20107E-04147600   0.626E-02    0.176E-02
DAV:   3    -0.140393964538E+03   -0.53364E-06   -0.18863E-05153360   0.208E-02    0.433E-03
DAV:   4    -0.140393965189E+03   -0.65076E-06   -0.56241E-06150480   0.853E-03
  56 F= -.14229384E+03 E0= -.14229342E+03  d E =-.548158E-04
       N       E                     dE             d eps       ncg     rms          rms(c)
DAV:   1    -0.140394888874E+03   -0.92434E-03   -0.63069E-02145248   0.107E+00    0.552E-02
DAV:   2    -0.140394884175E+03    0.46986E-05   -0.80849E-04152232   0.125E-01    0.343E-02
DAV:   3    -0.140394879712E+03    0.44632E-05   -0.73341E-05178104   0.409E-02    0.863E-03
DAV:   4    -0.140394881609E+03   -0.18974E-05   -0.21382E-05152016   0.166E-02    0.416E-03
DAV:   5    -0.140394883063E+03   -0.14534E-05   -0.68683E-07148944   0.386E-03    0.968E-04
DAV:   6    -0.140394883073E+03   -0.10658E-07   -0.17126E-07164040   0.189E-03
  57 F= -.14229381E+03 E0= -.14229339E+03  d E =-.244660E-04
       N       E                     dE             d eps       ncg     rms          rms(c)
DAV:   1    -0.140394211877E+03    0.67119E-03   -0.35273E-02145248   0.798E-01    0.412E-02
DAV:   2    -0.140394208009E+03    0.38675E-05   -0.45415E-04171360   0.935E-02    0.257E-02
DAV:   3    -0.140394207410E+03    0.59896E-06   -0.41825E-05163632   0.310E-02    0.629E-03
DAV:   4    -0.140394208191E+03   -0.78039E-06   -0.12475E-05148776   0.127E-02    0.308E-03
DAV:   5    -0.140394209045E+03   -0.85458E-06   -0.38345E-07127536   0.295E-03
  58 F= -.14229385E+03 E0= -.14229343E+03  d E =-.596801E-04
       N       E                     dE             d eps       ncg     rms          rms(c)
DAV:   1    -0.140394518907E+03   -0.31072E-03   -0.63509E-03145584   0.341E-01    0.179E-02
DAV:   2    -0.140394517445E+03    0.14617E-05   -0.82305E-05145872   0.398E-02    0.113E-02
DAV:   3    -0.140394517865E+03   -0.42021E-06   -0.78299E-06149424   0.133E-02
  59 F= -.14229387E+03 E0= -.14229344E+03  d E =-.205293E-04
       N       E                     dE             d eps       ncg     rms          rms(c)
DAV:   1    -0.140394550886E+03   -0.33441E-04   -0.90461E-05151032   0.408E-02    0.313E-03
DAV:   2    -0.140394550895E+03   -0.96443E-08   -0.99997E-07177696   0.476E-03
  60 F= -.14229387E+03 E0= -.14229345E+03  d E =-.214959E-04
       N       E                     dE             d eps       ncg     rms          rms(c)
DAV:   1    -0.140394615614E+03   -0.64728E-04   -0.30823E-04149688   0.755E-02    0.396E-03
DAV:   2    -0.140394615480E+03    0.13318E-06   -0.38721E-06148560   0.859E-03
  61 F= -.14229387E+03 E0= -.14229345E+03  d E =-.219589E-04
       N       E                     dE             d eps       ncg     rms          rms(c)
DAV:   1    -0.140394742282E+03   -0.12667E-03   -0.11853E-03146352   0.148E-01    0.824E-03
DAV:   2    -0.140394741964E+03    0.31835E-06   -0.14206E-05146904   0.168E-02    0.515E-03
DAV:   3    -0.140394742341E+03   -0.37735E-06   -0.14125E-06133416   0.574E-03
  62 F= -.14229387E+03 E0= -.14229345E+03  d E =-.776178E-05
       N       E                     dE             d eps       ncg     rms          rms(c)
DAV:   1    -0.140394790486E+03   -0.48522E-04   -0.19438E-04148704   0.599E-02    0.357E-03
DAV:   2    -0.140394790412E+03    0.73739E-07   -0.24657E-06151440   0.698E-03
  63 F= -.14229388E+03 E0= -.14229345E+03  d E =-.870821E-05
       N       E                     dE             d eps       ncg     rms          rms(c)
DAV:   1    -0.140394883296E+03   -0.92810E-04   -0.73966E-04146832   0.117E-01    0.653E-03
DAV:   2    -0.140394883082E+03    0.21375E-06   -0.86485E-06147888   0.131E-02
  64 F= -.14229387E+03 E0= -.14229345E+03  d E =-.717679E-05
       N       E                     dE             d eps       ncg     rms          rms(c)
DAV:   1    -0.140394812654E+03    0.70642E-04   -0.46042E-04150888   0.917E-02    0.445E-03
DAV:   2    -0.140394812610E+03    0.44050E-07   -0.66834E-06150312   0.112E-02
  65 F= -.14229388E+03 E0= -.14229345E+03  d E =-.900120E-05
       N       E                     dE             d eps       ncg     rms          rms(c)
DAV:   1    -0.140394871353E+03   -0.58699E-04   -0.49655E-04146712   0.976E-02    0.497E-03
DAV:   2    -0.140394871429E+03   -0.75765E-07   -0.78136E-06145968   0.118E-02
  66 F= -.14229388E+03 E0= -.14229345E+03  d E =-.221169E-05
       N       E                     dE             d eps       ncg     rms          rms(c)
DAV:   1    -0.140394860079E+03    0.11274E-04   -0.23757E-05155544   0.212E-02    0.822E-04
DAV:   2    -0.140394860152E+03   -0.72414E-07   -0.60869E-07115272   0.315E-03
  67 F= -.14229388E+03 E0= -.14229345E+03  d E =-.243023E-05
       N       E                     dE             d eps       ncg     rms          rms(c)
DAV:   1    -0.140394877171E+03   -0.17092E-04   -0.71460E-05150672   0.361E-02    0.162E-03
DAV:   2    -0.140394877148E+03    0.22679E-07   -0.66158E-07117624   0.372E-03
  68 F= -.14229388E+03 E0= -.14229346E+03  d E =-.103283E-05
       N       E                     dE             d eps       ncg     rms          rms(c)
DAV:   1    -0.140394899570E+03   -0.22400E-04   -0.13141E-04146544   0.492E-02    0.236E-03
DAV:   2    -0.140394899523E+03    0.46920E-07   -0.12043E-06141984   0.487E-03
  69 F= -.14229388E+03 E0= -.14229346E+03  d E =-.147623E-05
       N       E                     dE             d eps       ncg     rms          rms(c)
DAV:   1    -0.140394913480E+03   -0.13909E-04   -0.44187E-05149088   0.298E-02    0.149E-03
DAV:   2    -0.140394913454E+03    0.25430E-07   -0.59354E-07120216   0.360E-03
  70 F= -.14229388E+03 E0= -.14229346E+03  d E =-.366140E-06
       N       E                     dE             d eps       ncg     rms          rms(c)
DAV:   1    -0.140394913652E+03   -0.17265E-06   -0.11773E-07123336   0.160E-03    0.336E-04
DAV:   2    -0.140394913659E+03   -0.71132E-08   -0.23298E-08159504   0.711E-04
  71 F= -.14229388E+03 E0= -.14229346E+03  d E =-.413408E-06
       N       E                     dE             d eps       ncg     rms          rms(c)
DAV:   1    -0.140394913535E+03    0.11733E-06   -0.99973E-09126360   0.496E-04    0.599E-05
DAV:   2    -0.140394913537E+03   -0.17744E-08   -0.21063E-09156864   0.200E-04
  72 F= -.14229388E+03 E0= -.14229346E+03  d E =-.424514E-06
       N       E                     dE             d eps       ncg     rms          rms(c)
DAV:   1    -0.140394919034E+03   -0.54995E-05   -0.62474E-06163512   0.112E-02    0.516E-04
DAV:   2    -0.140394919028E+03    0.63519E-08   -0.71314E-08114696   0.119E-03
  73 F= -.14229388E+03 E0= -.14229346E+03  d E =-.562212E-07
