  16  16   0  16
  0.2005463E+02  0.4970000E-09  0.4970000E-09  0.1500000E-08  0.5000000E-15
  1.000000000000000E-004
  CAR 
 Lattice                                 
      9.64067225    -21.10448201  301     -0.21931593      1.00000000
    -21.104  0.0000E+00  0.0000E+00  0.0000E+00  0.0000E+00
    -21.002  0.0000E+00  0.0000E+00  0.0000E+00  0.0000E+00
    -20.900  0.0000E+00  0.0000E+00  0.0000E+00  0.0000E+00
    -20.797  0.0000E+00  0.0000E+00  0.0000E+00  0.0000E+00
    -20.695  0.0000E+00  0.0000E+00  0.0000E+00  0.0000E+00
    -20.592  0.0000E+00  0.0000E+00  0.0000E+00  0.0000E+00
    -20.490  0.0000E+00  0.0000E+00  0.0000E+00  0.0000E+00
    -20.387  0.0000E+00  0.0000E+00  0.0000E+00  0.0000E+00
    -20.285  0.8816E-19  0.8816E-19  0.9035E-20  0.9035E-20
    -20.182  0.5304E-14  0.5304E-14  0.5436E-15  0.5436E-15
    -20.080  0.4418E-10  0.4418E-10  0.4529E-11  0.4529E-11
    -19.977  0.5288E-07  0.5288E-07  0.5424E-08  0.5424E-08
    -19.875  0.9847E-05  0.9847E-05  0.1015E-05  0.1015E-05
    -19.772  0.3139E-03  0.3139E-03  0.3319E-04  0.3319E-04
    -19.670  0.2074E-02  0.2074E-02  0.2457E-03  0.2457E-03
    -19.567  0.4287E-02  0.4287E-02  0.6851E-03  0.6851E-03
    -19.465  0.4743E-02  0.4743E-02  0.1171E-02  0.1171E-02
    -19.362  0.5101E-02  0.5101E-02  0.1694E-02  0.1694E-02
    -19.260  0.4422E-02  0.4422E-02  0.2147E-02  0.2147E-02
    -19.157  0.5545E-02  0.5545E-02  0.2715E-02  0.2715E-02
    -19.055  0.4415E-02  0.4415E-02  0.3168E-02  0.3168E-02
    -18.952  0.4545E-02  0.4545E-02  0.3634E-02  0.3634E-02
    -18.850  0.6150E-02  0.6150E-02  0.4264E-02  0.4264E-02
    -18.747  0.3987E-02  0.3987E-02  0.4673E-02  0.4673E-02
    -18.645  0.4196E-02  0.4196E-02  0.5103E-02  0.5103E-02
    -18.542  0.6324E-02  0.6324E-02  0.5751E-02  0.5751E-02
    -18.440  0.5334E-02  0.5334E-02  0.6297E-02  0.6297E-02
    -18.337  0.3123E-02  0.3123E-02  0.6617E-02  0.6617E-02
    -18.235  0.4810E-02  0.4810E-02  0.7110E-02  0.7110E-02
    -18.132  0.7048E-02  0.7048E-02  0.7833E-02  0.7833E-02
    -18.030  0.4732E-02  0.4732E-02  0.8318E-02  0.8318E-02
    -17.927  0.3868E-02  0.3868E-02  0.8714E-02  0.8714E-02
    -17.825  0.3374E-02  0.3374E-02  0.9060E-02  0.9060E-02
    -17.723  0.7050E-02  0.7050E-02  0.9782E-02  0.9782E-02
    -17.620  0.6633E-02  0.6633E-02  0.1046E-01  0.1046E-01
    -17.518  0.3583E-02  0.3583E-02  0.1083E-01  0.1083E-01
    -17.415  0.3575E-02  0.3575E-02  0.1120E-01  0.1120E-01
    -17.313  0.4426E-02  0.4426E-02  0.1165E-01  0.1165E-01
    -17.210  0.6726E-02  0.6726E-02  0.1234E-01  0.1234E-01
    -17.108  0.6800E-02  0.6800E-02  0.1304E-01  0.1304E-01
    -17.005  0.4733E-02  0.4733E-02  0.1352E-01  0.1352E-01
    -16.903  0.2450E-02  0.2450E-02  0.1377E-01  0.1377E-01
    -16.800  0.3950E-02  0.3950E-02  0.1418E-01  0.1418E-01
    -16.698  0.7054E-02  0.7054E-02  0.1490E-01  0.1490E-01
    -16.595  0.6643E-02  0.6643E-02  0.1558E-01  0.1558E-01
    -16.493  0.5519E-02  0.5519E-02  0.1615E-01  0.1615E-01
    -16.390  0.4591E-02  0.4591E-02  0.1662E-01  0.1662E-01
    -16.288  0.3143E-02  0.3143E-02  0.1694E-01  0.1694E-01
    -16.185  0.2826E-02  0.2826E-02  0.1723E-01  0.1723E-01
    -16.083  0.8901E-02  0.8901E-02  0.1814E-01  0.1814E-01
    -15.980  0.1049E-01  0.1049E-01  0.1922E-01  0.1922E-01
    -15.878  0.1029E-01  0.1029E-01  0.2027E-01  0.2027E-01
    -15.775  0.1052E-01  0.1052E-01  0.2135E-01  0.2135E-01
    -15.673  0.1051E-01  0.1051E-01  0.2243E-01  0.2243E-01
    -15.570  0.1035E-01  0.1035E-01  0.2349E-01  0.2349E-01
    -15.468  0.1165E-01  0.1165E-01  0.2468E-01  0.2468E-01
    -15.365  0.1728E-01  0.1728E-01  0.2645E-01  0.2645E-01
    -15.263  0.1453E-01  0.1453E-01  0.2794E-01  0.2794E-01
    -15.160  0.1454E-01  0.1454E-01  0.2943E-01  0.2943E-01
    -15.058  0.1133E-01  0.1133E-01  0.3059E-01  0.3059E-01
    -14.955  0.9179E-02  0.9179E-02  0.3153E-01  0.3153E-01
    -14.853  0.7145E-02  0.7145E-02  0.3226E-01  0.3226E-01
    -14.750  0.8877E-02  0.8877E-02  0.3317E-01  0.3317E-01
    -14.648  0.1125E-01  0.1125E-01  0.3433E-01  0.3433E-01
    -14.546  0.1024E-01  0.1024E-01  0.3538E-01  0.3538E-01
    -14.443  0.1229E-01  0.1229E-01  0.3664E-01  0.3664E-01
    -14.341  0.1020E-01  0.1020E-01  0.3768E-01  0.3768E-01
    -14.238  0.9450E-02  0.9450E-02  0.3865E-01  0.3865E-01
    -14.136  0.1066E-01  0.1066E-01  0.3974E-01  0.3974E-01
    -14.033  0.1361E-01  0.1361E-01  0.4114E-01  0.4114E-01
    -13.931  0.9087E-02  0.9087E-02  0.4207E-01  0.4207E-01
    -13.828  0.4724E-02  0.4724E-02  0.4255E-01  0.4255E-01
    -13.726  0.2740E-02  0.2740E-02  0.4283E-01  0.4283E-01
    -13.623  0.4668E-02  0.4668E-02  0.4331E-01  0.4331E-01
    -13.521  0.7002E-02  0.7002E-02  0.4403E-01  0.4403E-01
    -13.418  0.7157E-02  0.7157E-02  0.4476E-01  0.4476E-01
    -13.316  0.7138E-02  0.7138E-02  0.4549E-01  0.4549E-01
    -13.213  0.6794E-02  0.6794E-02  0.4619E-01  0.4619E-01
    -13.111  0.7470E-02  0.7470E-02  0.4696E-01  0.4696E-01
    -13.008  0.7270E-02  0.7270E-02  0.4770E-01  0.4770E-01
    -12.906  0.5391E-02  0.5391E-02  0.4825E-01  0.4825E-01
    -12.803  0.8380E-02  0.8380E-02  0.4911E-01  0.4911E-01
    -12.701  0.1096E-01  0.1096E-01  0.5024E-01  0.5024E-01
    -12.598  0.1161E-01  0.1161E-01  0.5143E-01  0.5143E-01
    -12.496  0.1376E-01  0.1376E-01  0.5284E-01  0.5284E-01
    -12.393  0.1435E-01  0.1435E-01  0.5431E-01  0.5431E-01
    -12.291  0.1295E-01  0.1295E-01  0.5563E-01  0.5563E-01
    -12.188  0.1542E-01  0.1542E-01  0.5721E-01  0.5721E-01
    -12.086  0.1417E-01  0.1417E-01  0.5866E-01  0.5866E-01
    -11.983  0.1764E-01  0.1764E-01  0.6047E-01  0.6047E-01
    -11.881  0.1824E-01  0.1824E-01  0.6234E-01  0.6234E-01
    -11.778  0.1085E-01  0.1085E-01  0.6345E-01  0.6345E-01
    -11.676  0.8300E-02  0.8300E-02  0.6430E-01  0.6430E-01
    -11.573  0.5921E-02  0.5921E-02  0.6491E-01  0.6491E-01
    -11.471  0.6971E-02  0.6971E-02  0.6562E-01  0.6562E-01
    -11.369  0.5964E-02  0.5964E-02  0.6624E-01  0.6624E-01
    -11.266  0.4749E-02  0.4749E-02  0.6672E-01  0.6672E-01
    -11.164  0.4543E-02  0.4543E-02  0.6719E-01  0.6719E-01
    -11.061  0.4601E-02  0.4601E-02  0.6766E-01  0.6766E-01
    -10.959  0.5116E-02  0.5116E-02  0.6818E-01  0.6818E-01
    -10.856  0.9243E-02  0.9243E-02  0.6913E-01  0.6913E-01
    -10.754  0.1197E-01  0.1197E-01  0.7036E-01  0.7036E-01
    -10.651  0.1094E-01  0.1094E-01  0.7148E-01  0.7148E-01
    -10.549  0.1431E-01  0.1431E-01  0.7295E-01  0.7295E-01
    -10.446  0.1768E-01  0.1768E-01  0.7476E-01  0.7476E-01
    -10.344  0.1098E-01  0.1098E-01  0.7588E-01  0.7588E-01
    -10.241  0.9354E-02  0.9354E-02  0.7684E-01  0.7684E-01
    -10.139  0.8167E-02  0.8167E-02  0.7768E-01  0.7768E-01
    -10.036  0.1028E-01  0.1028E-01  0.7873E-01  0.7873E-01
     -9.934  0.1035E-01  0.1035E-01  0.7979E-01  0.7979E-01
     -9.831  0.1128E-01  0.1128E-01  0.8095E-01  0.8095E-01
     -9.729  0.7931E-02  0.7931E-02  0.8176E-01  0.8176E-01
     -9.626  0.1191E-01  0.1191E-01  0.8298E-01  0.8298E-01
     -9.524  0.1766E-01  0.1766E-01  0.8479E-01  0.8479E-01
     -9.421  0.1210E-01  0.1210E-01  0.8603E-01  0.8603E-01
     -9.319  0.1638E-01  0.1638E-01  0.8771E-01  0.8771E-01
     -9.216  0.1990E-01  0.1990E-01  0.8975E-01  0.8975E-01
     -9.114  0.1403E-01  0.1403E-01  0.9119E-01  0.9119E-01
     -9.011  0.7234E-02  0.7234E-02  0.9193E-01  0.9193E-01
     -8.909  0.1612E-01  0.1612E-01  0.9358E-01  0.9358E-01
     -8.806  0.2464E-01  0.2464E-01  0.9611E-01  0.9611E-01
     -8.704  0.1065E-01  0.1065E-01  0.9720E-01  0.9720E-01
     -8.601  0.5194E-02  0.5194E-02  0.9773E-01  0.9773E-01
     -8.499  0.1548E-01  0.1548E-01  0.9932E-01  0.9932E-01
     -8.396  0.1883E-01  0.1883E-01  0.1012E+00  0.1012E+00
     -8.294  0.1494E-01  0.1494E-01  0.1028E+00  0.1028E+00
     -8.192  0.1219E-01  0.1219E-01  0.1040E+00  0.1040E+00
     -8.089  0.1420E-01  0.1420E-01  0.1055E+00  0.1055E+00
     -7.987  0.1193E-01  0.1193E-01  0.1067E+00  0.1067E+00
     -7.884  0.1376E-01  0.1376E-01  0.1081E+00  0.1081E+00
     -7.782  0.2226E-01  0.2226E-01  0.1104E+00  0.1104E+00
     -7.679  0.2346E-01  0.2346E-01  0.1128E+00  0.1128E+00
     -7.577  0.1527E-01  0.1527E-01  0.1144E+00  0.1144E+00
     -7.474  0.1206E-01  0.1206E-01  0.1156E+00  0.1156E+00
     -7.372  0.1501E-01  0.1501E-01  0.1171E+00  0.1171E+00
     -7.269  0.1859E-01  0.1859E-01  0.1190E+00  0.1190E+00
     -7.167  0.1866E-01  0.1866E-01  0.1210E+00  0.1210E+00
     -7.064  0.1622E-01  0.1622E-01  0.1226E+00  0.1226E+00
     -6.962  0.1874E-01  0.1874E-01  0.1245E+00  0.1245E+00
     -6.859  0.1863E-01  0.1863E-01  0.1265E+00  0.1265E+00
     -6.757  0.2317E-01  0.2317E-01  0.1288E+00  0.1288E+00
     -6.654  0.2964E-01  0.2964E-01  0.1319E+00  0.1319E+00
     -6.552  0.3560E-01  0.3560E-01  0.1355E+00  0.1355E+00
     -6.449  0.3097E-01  0.3097E-01  0.1387E+00  0.1387E+00
     -6.347  0.1900E-01  0.1900E-01  0.1406E+00  0.1406E+00
     -6.244  0.1845E-01  0.1845E-01  0.1425E+00  0.1425E+00
     -6.142  0.1771E-01  0.1771E-01  0.1443E+00  0.1443E+00
     -6.039  0.1803E-01  0.1803E-01  0.1462E+00  0.1462E+00
     -5.937  0.1527E-01  0.1527E-01  0.1478E+00  0.1478E+00
     -5.834  0.1390E-01  0.1390E-01  0.1492E+00  0.1492E+00
     -5.732  0.1968E-01  0.1968E-01  0.1512E+00  0.1512E+00
     -5.629  0.1878E-01  0.1878E-01  0.1531E+00  0.1531E+00
     -5.527  0.8993E-02  0.8993E-02  0.1540E+00  0.1540E+00
     -5.424  0.9057E-02  0.9057E-02  0.1550E+00  0.1550E+00
     -5.322  0.1726E-01  0.1726E-01  0.1567E+00  0.1567E+00
     -5.219  0.2125E-01  0.2125E-01  0.1589E+00  0.1589E+00
     -5.117  0.1333E-01  0.1333E-01  0.1603E+00  0.1603E+00
     -5.015  0.1150E-01  0.1150E-01  0.1615E+00  0.1615E+00
     -4.912  0.1639E-01  0.1639E-01  0.1631E+00  0.1631E+00
     -4.810  0.1911E-01  0.1911E-01  0.1651E+00  0.1651E+00
     -4.707  0.9651E-02  0.9651E-02  0.1661E+00  0.1661E+00
     -4.605  0.9082E-02  0.9082E-02  0.1670E+00  0.1670E+00
     -4.502  0.1720E-01  0.1720E-01  0.1688E+00  0.1688E+00
     -4.400  0.2172E-01  0.2172E-01  0.1710E+00  0.1710E+00
     -4.297  0.2224E-01  0.2224E-01  0.1733E+00  0.1733E+00
     -4.195  0.1952E-01  0.1952E-01  0.1753E+00  0.1753E+00
     -4.092  0.1765E-01  0.1765E-01  0.1771E+00  0.1771E+00
     -3.990  0.2126E-01  0.2126E-01  0.1793E+00  0.1793E+00
     -3.887  0.2602E-01  0.2602E-01  0.1819E+00  0.1819E+00
     -3.785  0.2803E-01  0.2803E-01  0.1848E+00  0.1848E+00
     -3.682  0.2628E-01  0.2628E-01  0.1875E+00  0.1875E+00
     -3.580  0.2239E-01  0.2239E-01  0.1898E+00  0.1898E+00
     -3.477  0.1863E-01  0.1863E-01  0.1917E+00  0.1917E+00
     -3.375  0.1506E-01  0.1506E-01  0.1933E+00  0.1933E+00
     -3.272  0.1109E-01  0.1109E-01  0.1944E+00  0.1944E+00
     -3.170  0.8247E-02  0.8247E-02  0.1952E+00  0.1952E+00
     -3.067  0.1065E-01  0.1065E-01  0.1963E+00  0.1963E+00
     -2.965  0.1715E-01  0.1715E-01  0.1981E+00  0.1981E+00
     -2.862  0.1389E-01  0.1389E-01  0.1995E+00  0.1995E+00
     -2.760  0.1111E-01  0.1111E-01  0.2006E+00  0.2006E+00
     -2.657  0.1035E-01  0.1035E-01  0.2017E+00  0.2017E+00
     -2.555  0.1155E-01  0.1155E-01  0.2029E+00  0.2029E+00
     -2.452  0.1436E-01  0.1436E-01  0.2044E+00  0.2044E+00
     -2.350  0.1629E-01  0.1629E-01  0.2060E+00  0.2060E+00
     -2.247  0.9016E-02  0.9016E-02  0.2070E+00  0.2070E+00
     -2.145  0.9987E-02  0.9987E-02  0.2080E+00  0.2080E+00
     -2.042  0.8429E-02  0.8429E-02  0.2088E+00  0.2088E+00
     -1.940  0.7305E-02  0.7305E-02  0.2096E+00  0.2096E+00
     -1.838  0.5519E-02  0.5519E-02  0.2102E+00  0.2102E+00
     -1.735  0.8012E-02  0.8012E-02  0.2110E+00  0.2110E+00
     -1.633  0.9943E-02  0.9943E-02  0.2120E+00  0.2120E+00
     -1.530  0.9408E-02  0.9408E-02  0.2130E+00  0.2130E+00
     -1.428  0.8218E-02  0.8218E-02  0.2138E+00  0.2138E+00
     -1.325  0.5337E-02  0.5337E-02  0.2143E+00  0.2143E+00
     -1.223  0.5233E-02  0.5233E-02  0.2149E+00  0.2149E+00
     -1.120  0.5111E-02  0.5111E-02  0.2154E+00  0.2154E+00
     -1.018  0.7443E-02  0.7443E-02  0.2162E+00  0.2162E+00
     -0.915  0.7480E-02  0.7480E-02  0.2169E+00  0.2169E+00
     -0.813  0.3918E-02  0.3918E-02  0.2173E+00  0.2173E+00
     -0.710  0.1803E-02  0.1803E-02  0.2175E+00  0.2175E+00
     -0.608  0.9552E-03  0.9552E-03  0.2176E+00  0.2176E+00
     -0.505  0.2943E-02  0.2943E-02  0.2179E+00  0.2179E+00
     -0.403  0.3532E-02  0.3532E-02  0.2183E+00  0.2183E+00
     -0.300  0.2017E-02  0.2017E-02  0.2185E+00  0.2185E+00
     -0.198  0.3573E-02  0.3573E-02  0.2189E+00  0.2189E+00
     -0.095  0.5438E-02  0.5438E-02  0.2194E+00  0.2194E+00
      0.007  0.3380E-02  0.3380E-02  0.2198E+00  0.2198E+00
      0.110  0.2668E-02  0.2668E-02  0.2200E+00  0.2200E+00
      0.212  0.6031E-02  0.6031E-02  0.2207E+00  0.2207E+00
      0.315  0.1172E-01  0.1172E-01  0.2219E+00  0.2219E+00
      0.417  0.1155E-01  0.1155E-01  0.2230E+00  0.2230E+00
      0.520  0.1062E-01  0.1062E-01  0.2241E+00  0.2241E+00
      0.622  0.4875E-02  0.4875E-02  0.2246E+00  0.2246E+00
      0.725  0.4040E-02  0.4040E-02  0.2250E+00  0.2250E+00
      0.827  0.1176E-01  0.1176E-01  0.2262E+00  0.2262E+00
      0.930  0.9078E-02  0.9078E-02  0.2272E+00  0.2272E+00
      1.032  0.1737E-02  0.1737E-02  0.2274E+00  0.2274E+00
      1.135  0.3648E-02  0.3648E-02  0.2277E+00  0.2277E+00
      1.237  0.1105E-01  0.1105E-01  0.2289E+00  0.2289E+00
      1.339  0.1828E-01  0.1828E-01  0.2307E+00  0.2307E+00
      1.442  0.1718E-01  0.1718E-01  0.2325E+00  0.2325E+00
      1.544  0.1365E-01  0.1365E-01  0.2339E+00  0.2339E+00
      1.647  0.9567E-02  0.9567E-02  0.2349E+00  0.2349E+00
      1.749  0.6014E-02  0.6014E-02  0.2355E+00  0.2355E+00
      1.852  0.1189E-01  0.1189E-01  0.2367E+00  0.2367E+00
      1.954  0.1305E-01  0.1305E-01  0.2380E+00  0.2380E+00
      2.057  0.1287E-01  0.1287E-01  0.2394E+00  0.2394E+00
      2.159  0.1091E-01  0.1091E-01  0.2405E+00  0.2405E+00
      2.262  0.8547E-02  0.8547E-02  0.2414E+00  0.2414E+00
      2.364  0.1108E-01  0.1108E-01  0.2425E+00  0.2425E+00
      2.467  0.5996E-02  0.5996E-02  0.2431E+00  0.2431E+00
      2.569  0.8539E-02  0.8539E-02  0.2440E+00  0.2440E+00
      2.672  0.1566E-01  0.1566E-01  0.2456E+00  0.2456E+00
      2.774  0.1514E-01  0.1514E-01  0.2471E+00  0.2471E+00
      2.877  0.1074E-01  0.1074E-01  0.2482E+00  0.2482E+00
      2.979  0.8888E-02  0.8888E-02  0.2492E+00  0.2492E+00
      3.082  0.1124E-01  0.1124E-01  0.2503E+00  0.2503E+00
      3.184  0.1840E-01  0.1840E-01  0.2522E+00  0.2522E+00
      3.287  0.1886E-01  0.1886E-01  0.2541E+00  0.2541E+00
      3.389  0.1339E-01  0.1339E-01  0.2555E+00  0.2555E+00
      3.492  0.1481E-01  0.1481E-01  0.2570E+00  0.2570E+00
      3.594  0.2318E-01  0.2318E-01  0.2594E+00  0.2594E+00
      3.697  0.2373E-01  0.2373E-01  0.2618E+00  0.2618E+00
      3.799  0.1637E-01  0.1637E-01  0.2635E+00  0.2635E+00
      3.902  0.1575E-01  0.1575E-01  0.2651E+00  0.2651E+00
      4.004  0.2308E-01  0.2308E-01  0.2675E+00  0.2675E+00
      4.107  0.2546E-01  0.2546E-01  0.2701E+00  0.2701E+00
      4.209  0.1702E-01  0.1702E-01  0.2718E+00  0.2718E+00
      4.312  0.2169E-01  0.2169E-01  0.2741E+00  0.2741E+00
      4.414  0.2504E-01  0.2504E-01  0.2766E+00  0.2766E+00
      4.516  0.2073E-01  0.2073E-01  0.2787E+00  0.2787E+00
      4.619  0.1975E-01  0.1975E-01  0.2808E+00  0.2808E+00
      4.721  0.2375E-01  0.2375E-01  0.2832E+00  0.2832E+00
      4.824  0.2249E-01  0.2249E-01  0.2855E+00  0.2855E+00
      4.926  0.2415E-01  0.2415E-01  0.2880E+00  0.2880E+00
      5.029  0.2838E-01  0.2838E-01  0.2909E+00  0.2909E+00
      5.131  0.3101E-01  0.3101E-01  0.2941E+00  0.2941E+00
      5.234  0.2686E-01  0.2686E-01  0.2968E+00  0.2968E+00
      5.336  0.2183E-01  0.2183E-01  0.2991E+00  0.2991E+00
      5.439  0.2380E-01  0.2380E-01  0.3015E+00  0.3015E+00
      5.541  0.2642E-01  0.2642E-01  0.3042E+00  0.3042E+00
      5.644  0.2526E-01  0.2526E-01  0.3068E+00  0.3068E+00
      5.746  0.2529E-01  0.2529E-01  0.3094E+00  0.3094E+00
      5.849  0.2121E-01  0.2121E-01  0.3116E+00  0.3116E+00
      5.951  0.2659E-01  0.2659E-01  0.3143E+00  0.3143E+00
      6.054  0.2895E-01  0.2895E-01  0.3173E+00  0.3173E+00
      6.156  0.2261E-01  0.2262E-01  0.3196E+00  0.3196E+00
      6.259  0.2037E-01  0.2037E-01  0.3217E+00  0.3217E+00
      6.361  0.1657E-01  0.1657E-01  0.3234E+00  0.3234E+00
      6.464  0.1706E-01  0.1706E-01  0.3251E+00  0.3251E+00
      6.566  0.2569E-01  0.2569E-01  0.3277E+00  0.3277E+00
      6.669  0.3033E-01  0.3033E-01  0.3308E+00  0.3308E+00
      6.771  0.2980E-01  0.2980E-01  0.3339E+00  0.3339E+00
      6.874  0.2208E-01  0.2208E-01  0.3362E+00  0.3362E+00
      6.976  0.2612E-01  0.2612E-01  0.3388E+00  0.3388E+00
      7.079  0.2874E-01  0.2874E-01  0.3418E+00  0.3418E+00
      7.181  0.2961E-01  0.2961E-01  0.3448E+00  0.3448E+00
      7.284  0.3904E-01  0.3904E-01  0.3488E+00  0.3488E+00
      7.386  0.4203E-01  0.4203E-01  0.3531E+00  0.3531E+00
      7.489  0.3374E-01  0.3374E-01  0.3566E+00  0.3566E+00
      7.591  0.2800E-01  0.2800E-01  0.3595E+00  0.3595E+00
      7.693  0.2841E-01  0.2841E-01  0.3624E+00  0.3624E+00
      7.796  0.3353E-01  0.3353E-01  0.3658E+00  0.3658E+00
      7.898  0.3337E-01  0.3337E-01  0.3692E+00  0.3692E+00
      8.001  0.2861E-01  0.2861E-01  0.3722E+00  0.3722E+00
      8.103  0.1761E-01  0.1762E-01  0.3740E+00  0.3740E+00
      8.206  0.8238E-02  0.8238E-02  0.3748E+00  0.3748E+00
      8.308  0.1742E-02  0.1742E-02  0.3750E+00  0.3750E+00
      8.411  0.1445E-03  0.1445E-03  0.3750E+00  0.3750E+00
      8.513  0.4974E-05  0.4974E-05  0.3750E+00  0.3750E+00
      8.616  0.3541E-07  0.3541E-07  0.3750E+00  0.3750E+00
      8.718  0.3607E-10  0.3607E-10  0.3750E+00  0.3750E+00
      8.821  0.4820E-14  0.4821E-14  0.3750E+00  0.3750E+00
      8.923  0.1175E-18  0.1175E-18  0.3750E+00  0.3750E+00
      9.026  0.0000E+00  0.0000E+00  0.3750E+00  0.3750E+00
      9.128  0.0000E+00  0.0000E+00  0.3750E+00  0.3750E+00
      9.231  0.0000E+00  0.0000E+00  0.3750E+00  0.3750E+00
      9.333  0.0000E+00  0.0000E+00  0.3750E+00  0.3750E+00
      9.436  0.0000E+00  0.0000E+00  0.3750E+00  0.3750E+00
      9.538  0.0000E+00  0.0000E+00  0.3750E+00  0.3750E+00
      9.641  0.0000E+00  0.0000E+00  0.3750E+00  0.3750E+00
