    8    8  128    1
  0.4338553E+02  0.5169000E-09  0.5169000E-09  0.1500000E-08  0.5000000E-15
  1.000000000000000E-004
  CAR 
 Lattice                                 
     30   1861     24
 
  0.0000000E+00  0.0000000E+00  0.0000000E+00  0.2687450E-03
      1        -19.884770   1.000000
      2        -15.983180   1.000000
      3        -15.983004   1.000000
      4        -13.641826   1.000000
      5        -13.641771   1.000000
      6        -12.573306   1.000000
      7        -11.250068   1.000000
      8         -8.688689   1.000000
      9         -8.456642   1.000000
     10         -6.304363   1.000000
     11         -6.304181   1.000000
     12         -4.480749   1.000000
     13         -4.480661   1.000000
     14         -3.791964   0.999996
     15         -3.791785   0.999996
     16         -1.963915   0.000000
     17         -0.227785   0.000000
     18         -0.227752   0.000000
     19          0.431761   0.000000
     20          0.841342   0.000000
     21          1.844286   0.000000
     22          2.268482   0.000000
     23          4.234175   0.000000
     24          4.857215   0.000000
 
  0.1639344E-01  0.1383809E-17  0.0000000E+00  0.5374899E-03
      1        -19.883710   1.000000
      2        -15.988519   1.000000
      3        -15.984858   1.000000
      4        -13.643203   1.000000
      5        -13.637867   1.000000
      6        -12.568070   1.000000
      7        -11.243632   1.000000
      8         -8.687084   1.000000
      9         -8.458776   1.000000
     10         -6.309059   1.000000
     11         -6.305259   1.000000
     12         -4.485579   1.000000
     13         -4.481473   1.000000
     14         -3.797355   0.999997
     15         -3.794630   0.999997
     16         -1.973646   0.000000
     17         -0.225346   0.000000
     18         -0.213368   0.000000
     19          0.436134   0.000000
     20          0.843350   0.000000
     21          1.846459   0.000000
     22          2.270501   0.000000
     23          4.236158   0.000000
     24          4.859401   0.000000
 
  0.1383809E-17  0.1639344E-01  0.0000000E+00  0.5374899E-03
      1        -19.883710   1.000000
      2        -15.988482   1.000000
      3        -15.984895   1.000000
      4        -13.643231   1.000000
      5        -13.637839   1.000000
      6        -12.568070   1.000000
      7        -11.243632   1.000000
      8         -8.687084   1.000000
      9         -8.458776   1.000000
     10         -6.309036   1.000000
     11         -6.305281   1.000000
     12         -4.485549   1.000000
     13         -4.481503   1.000000
     14         -3.797387   0.999997
     15         -3.794598   0.999997
     16         -1.973646   0.000000
     17         -0.225319   0.000000
     18         -0.213394   0.000000
     19          0.436133   0.000000
     20          0.843350   0.000000
     21          1.846459   0.000000
     22          2.270501   0.000000
     23          4.236158   0.000000
     24          4.859401   0.000000
 
 -0.1639344E-01  0.1639344E-01  0.0000000E+00  0.5374899E-03
      1        -19.883710   1.000000
      2        -15.988627   1.000000
      3        -15.984750   1.000000
      4        -13.643183   1.000000
      5        -13.637886   1.000000
      6        -12.568071   1.000000
      7        -11.243631   1.000000
      8         -8.687084   1.000000
      9         -8.458776   1.000000
     10         -6.309181   1.000000
     11         -6.305136   1.000000
     12         -4.485625   1.000000
     13         -4.481427   1.000000
     14         -3.797501   0.999997
     15         -3.794484   0.999997
     16         -1.973647   0.000000
     17         -0.225339   0.000000
     18         -0.213372   0.000000
     19          0.436133   0.000000
     20          0.843350   0.000000
     21          1.846458   0.000000
     22          2.270501   0.000000
     23          4.236158   0.000000
     24          4.859401   0.000000
 
  0.3278689E-01  0.1253609E-17  0.0000000E+00  0.5374899E-03
      1        -19.880537   1.000000
      2        -16.004724   1.000000
      3        -15.990054   1.000000
      4        -13.647503   1.000000
      5        -13.626127   1.000000
      6        -12.552358   1.000000
      7        -11.224453   1.000000
      8         -8.682288   1.000000
      9         -8.465399   1.000000
     10         -6.323648   1.000000
     11         -6.308181   1.000000
     12         -4.500370   1.000000
     13         -4.484018   1.000000
     14         -3.814224   0.999999
     15         -3.802806   0.999998
     16         -2.001815   0.000000
     17         -0.218389   0.000000
     18         -0.171683   0.000000
     19          0.449353   0.000000
     20          0.849372   0.000000
     21          1.852979   0.000000
     22          2.276554   0.000000
     23          4.242100   0.000000
     24          4.865890   0.000000
 
  0.1253609E-17  0.3278689E-01  0.0000000E+00  0.5374899E-03
      1        -19.880537   1.000000
      2        -16.004688   1.000000
      3        -15.990090   1.000000
      4        -13.647531   1.000000
      5        -13.626099   1.000000
      6        -12.552357   1.000000
      7        -11.224454   1.000000
      8         -8.682289   1.000000
      9         -8.465399   1.000000
     10         -6.323626   1.000000
     11         -6.308203   1.000000
     12         -4.500341   1.000000
     13         -4.484048   1.000000
     14         -3.814255   0.999999
     15         -3.802775   0.999998
     16         -2.001815   0.000000
     17         -0.218363   0.000000
     18         -0.171708   0.000000
     19          0.449353   0.000000
     20          0.849372   0.000000
     21          1.852979   0.000000
     22          2.276554   0.000000
     23          4.242100   0.000000
     24          4.865891   0.000000
 
 -0.3278689E-01  0.3278689E-01  0.0000000E+00  0.5374899E-03
      1        -19.880537   1.000000
      2        -16.004833   1.000000
      3        -15.989945   1.000000
      4        -13.647482   1.000000
      5        -13.626145   1.000000
      6        -12.552361   1.000000
      7        -11.224452   1.000000
      8         -8.682288   1.000000
      9         -8.465399   1.000000
     10         -6.323772   1.000000
     11         -6.308057   1.000000
     12         -4.500416   1.000000
     13         -4.483972   1.000000
     14         -3.814370   0.999999
     15         -3.802660   0.999998
     16         -2.001817   0.000000
     17         -0.218383   0.000000
     18         -0.171683   0.000000
     19          0.449349   0.000000
     20          0.849372   0.000000
     21          1.852978   0.000000
     22          2.276554   0.000000
     23          4.242100   0.000000
     24          4.865890   0.000000
 
  0.4918033E-01 -0.1038672E-17  0.0000000E+00  0.5374899E-03
      1        -19.875255   1.000000
      2        -16.031224   1.000000
      3        -15.998561   1.000000
      4        -13.654847   1.000000
      5        -13.606716   1.000000
      6        -12.526138   1.000000
      7        -11.192864   1.000000
      8         -8.674287   1.000000
      9         -8.476449   1.000000
     10         -6.347763   1.000000
     11         -6.312836   1.000000
     12         -4.524844   1.000000
     13         -4.488116   1.000000
     14         -3.842083   1.000000
     15         -3.816308   0.999999
     16         -2.045379   0.000000
     17         -0.206824   0.000000
     18         -0.106246   0.000000
     19          0.471937   0.000000
     20          0.859405   0.000000
     21          1.863862   0.000000
     22          2.286640   0.000000
     23          4.252007   0.000000
     24          4.876539   0.000000
 
 -0.1038672E-17  0.4918033E-01  0.0000000E+00  0.5374899E-03
      1        -19.875255   1.000000
      2        -16.031188   1.000000
      3        -15.998597   1.000000
      4        -13.654875   1.000000
      5        -13.606689   1.000000
      6        -12.526137   1.000000
      7        -11.192864   1.000000
      8         -8.674287   1.000000
      9         -8.476449   1.000000
     10         -6.347740   1.000000
     11         -6.312858   1.000000
     12         -4.524815   1.000000
     13         -4.488145   1.000000
     14         -3.842113   1.000000
     15         -3.816277   0.999999
     16         -2.045380   0.000000
     17         -0.206797   0.000000
     18         -0.106270   0.000000
     19          0.471937   0.000000
     20          0.859405   0.000000
     21          1.863862   0.000000
     22          2.286640   0.000000
     23          4.252007   0.000000
     24          4.876539   0.000000
 
 -0.4918033E-01  0.4918033E-01  0.0000000E+00  0.5374899E-03
      1        -19.875254   1.000000
      2        -16.031333   1.000000
      3        -15.998453   1.000000
      4        -13.654825   1.000000
      5        -13.606734   1.000000
      6        -12.526144   1.000000
      7        -11.192861   1.000000
      8         -8.674287   1.000000
      9         -8.476449   1.000000
     10         -6.347887   1.000000
     11         -6.312712   1.000000
     12         -4.524889   1.000000
     13         -4.488070   1.000000
     14         -3.842228   1.000000
     15         -3.816162   0.999999
     16         -2.045385   0.000000
     17         -0.206817   0.000000
     18         -0.106238   0.000000
     19          0.471928   0.000000
     20          0.859405   0.000000
     21          1.863861   0.000000
     22          2.286640   0.000000
     23          4.252007   0.000000
     24          4.876537   0.000000
 
  0.6557377E-01  0.5549308E-17  0.0000000E+00  0.5374899E-03
      1        -19.867881   1.000000
      2        -16.067318   1.000000
      3        -16.010170   1.000000
      4        -13.665418   1.000000
      5        -13.579871   1.000000
      6        -12.489437   1.000000
      7        -11.149364   1.000000
      8         -8.663097   1.000000
      9         -8.492059   1.000000
     10         -6.381237   1.000000
     11         -6.318960   1.000000
     12         -4.558781   1.000000
     13         -4.493740   1.000000
     14         -3.880775   1.000000
     15         -3.835046   1.000000
     16         -2.100625   0.000000
     17         -0.190668   0.000000
     18         -0.022274   0.000000
     19          0.504857   0.000000
     20          0.873444   0.000000
     21          1.879135   0.000000
     22          2.300757   0.000000
     23          4.265875   0.000000
     24          4.891141   0.000000
 
  0.5549308E-17  0.6557377E-01  0.0000000E+00  0.5374899E-03
      1        -19.867881   1.000000
      2        -16.067283   1.000000
      3        -16.010205   1.000000
      4        -13.665446   1.000000
      5        -13.579844   1.000000
      6        -12.489435   1.000000
      7        -11.149365   1.000000
      8         -8.663097   1.000000
      9         -8.492060   1.000000
     10         -6.381215   1.000000
     11         -6.318982   1.000000
     12         -4.558752   1.000000
     13         -4.493769   1.000000
     14         -3.880805   1.000000
     15         -3.835016   1.000000
     16         -2.100626   0.000000
     17         -0.190642   0.000000
     18         -0.022297   0.000000
     19          0.504856   0.000000
     20          0.873444   0.000000
     21          1.879135   0.000000
     22          2.300757   0.000000
     23          4.265875   0.000000
     24          4.891142   0.000000
 
 -0.6557377E-01  0.6557377E-01  0.0000000E+00  0.5374899E-03
      1        -19.867881   1.000000
      2        -16.067426   1.000000
      3        -16.010062   1.000000
      4        -13.665394   1.000000
      5        -13.579888   1.000000
      6        -12.489448   1.000000
      7        -11.149360   1.000000
      8         -8.663097   1.000000
      9         -8.492060   1.000000
     10         -6.381361   1.000000
     11         -6.318835   1.000000
     12         -4.558825   1.000000
     13         -4.493694   1.000000
     14         -3.880919   1.000000
     15         -3.834902   1.000000
     16         -2.100634   0.000000
     17         -0.190662   0.000000
     18         -0.022255   0.000000
     19          0.504840   0.000000
     20          0.873444   0.000000
     21          1.879134   0.000000
     22          2.300757   0.000000
     23          4.265875   0.000000
     24          4.891139   0.000000
 
  0.8196721E-01 -0.2567071E-17  0.0000000E+00  0.5374899E-03
      1        -19.858440   1.000000
      2        -16.112117   1.000000
      3        -16.024605   1.000000
      4        -13.679317   1.000000
      5        -13.545900   1.000000
      6        -12.442432   1.000000
      7        -11.094593   1.000000
      8         -8.648717   1.000000
      9         -8.512326   1.000000
     10         -6.423782   1.000000
     11         -6.326177   1.000000
     12         -4.601820   1.000000
     13         -4.500813   1.000000
     14         -3.930217   1.000000
     15         -3.858836   1.000000
     16         -2.163766   0.000000
     17         -0.170151   0.000000
     18          0.074566   0.000000
     19          0.549860   0.000000
     20          0.891483   0.000000
     21          1.898840   0.000000
     22          2.318900   0.000000
     23          4.283704   0.000000
     24          4.909465   0.000000
 
  0.1213729E-16  0.8196721E-01  0.0000000E+00  0.5374899E-03
      1        -19.858441   1.000000
      2        -16.112082   1.000000
      3        -16.024640   1.000000
      4        -13.679344   1.000000
      5        -13.545874   1.000000
      6        -12.442429   1.000000
      7        -11.094595   1.000000
      8         -8.648717   1.000000
      9         -8.512327   1.000000
     10         -6.423761   1.000000
     11         -6.326198   1.000000
     12         -4.601792   1.000000
     13         -4.500842   1.000000
     14         -3.930247   1.000000
     15         -3.858806   1.000000
     16         -2.163768   0.000000
     17         -0.170125   0.000000
     18          0.074545   0.000000
     19          0.549858   0.000000
     20          0.891483   0.000000
     21          1.898840   0.000000
     22          2.318900   0.000000
     23          4.283704   0.000000
     24          4.909465   0.000000
 
 -0.8196721E-01  0.8196721E-01  0.0000000E+00  0.5374899E-03
      1        -19.858440   1.000000
      2        -16.112224   1.000000
      3        -16.024499   1.000000
      4        -13.679290   1.000000
      5        -13.545916   1.000000
      6        -12.442447   1.000000
      7        -11.094587   1.000000
      8         -8.648717   1.000000
      9         -8.512328   1.000000
     10         -6.423907   1.000000
     11         -6.326051   1.000000
     12         -4.601863   1.000000
     13         -4.500767   1.000000
     14         -3.930359   1.000000
     15         -3.858693   1.000000
     16         -2.163779   0.000000
     17         -0.170144   0.000000
     18          0.074600   0.000000
     19          0.549832   0.000000
     20          0.891483   0.000000
     21          1.898838   0.000000
     22          2.318900   0.000000
     23          4.283704   0.000000
     24          4.909462   0.000000
 
  0.9836066E-01 -0.2077343E-17  0.0000000E+00  0.5374899E-03
      1        -19.846955   1.000000
      2        -16.164617   1.000000
      3        -16.041546   1.000000
      4        -13.696502   1.000000
      5        -13.505168   1.000000
      6        -12.385462   1.000000
      7        -11.029261   1.000000
      8         -8.631174   1.000000
      9         -8.537456   1.000000
     10         -6.475075   1.000000
     11         -6.334038   1.000000
     12         -4.653560   1.000000
     13         -4.509241   1.000000
     14         -3.990061   1.000000
     15         -3.887554   1.000000
     16         -2.231580   0.000000
     17         -0.145410   0.000000
     18          0.177383   0.000000
     19          0.609748   0.000000
     20          0.913517   0.000000
     21          1.923038   0.000000
     22          2.341068   0.000000
     23          4.305489   0.000000
     24          4.931314   0.000000
 
 -0.2077343E-17  0.9836066E-01  0.0000000E+00  0.5374899E-03
      1        -19.846955   1.000000
      2        -16.164583   1.000000
      3        -16.041580   1.000000
      4        -13.696528   1.000000
      5        -13.505142   1.000000
      6        -12.385459   1.000000
      7        -11.029264   1.000000
      8         -8.631174   1.000000
      9         -8.537457   1.000000
     10         -6.475054   1.000000
     11         -6.334058   1.000000
     12         -4.653533   1.000000
     13         -4.509270   1.000000
     14         -3.990090   1.000000
     15         -3.887524   1.000000
     16         -2.231582   0.000000
     17         -0.145384   0.000000
     18          0.177365   0.000000
     19          0.609744   0.000000
     20          0.913517   0.000000
     21          1.923038   0.000000
     22          2.341068   0.000000
     23          4.305489   0.000000
     24          4.931315   0.000000
 
 -0.9836066E-01  0.9836066E-01  0.0000000E+00  0.5374899E-03
      1        -19.846954   1.000000
      2        -16.164724   1.000000
      3        -16.041441   1.000000
      4        -13.696473   1.000000
      5        -13.505182   1.000000
      6        -12.385482   1.000000
      7        -11.029254   1.000000
      8         -8.631173   1.000000
      9         -8.537458   1.000000
     10         -6.475200   1.000000
     11         -6.333912   1.000000
     12         -4.653602   1.000000
     13         -4.509195   1.000000
     14         -3.990201   1.000000
     15         -3.887413   1.000000
     16         -2.231597   0.000000
     17         -0.145403   0.000000
     18          0.177435   0.000000
     19          0.609706   0.000000
     20          0.913517   0.000000
     21          1.923036   0.000000
     22          2.341068   0.000000
     23          4.305489   0.000000
     24          4.931311   0.000000
 
  0.1147541E+00  0.6279042E-18  0.0000000E+00  0.5374899E-03
      1        -19.833473   1.000000
      2        -16.223767   1.000000
      3        -16.060639   1.000000
      4        -13.716765   1.000000
      5        -13.458087   1.000000
      6        -12.319085   1.000000
      7        -10.954121   1.000000
      8         -8.610496   1.000000
      9         -8.567565   1.000000
     10         -6.534779   1.000000
     11         -6.342070   1.000000
     12         -4.713417   1.000000
     13         -4.518919   1.000000
     14         -4.059879   1.000000
     15         -3.920939   1.000000
     16         -2.301481   0.000000
     17         -0.116899   0.000000
     18          0.279176   0.000000
     19          0.688128   0.000000
     20          0.939536   0.000000
     21          1.951820   0.000000
     22          2.367253   0.000000
     23          4.331218   0.000000
     24          4.956487   0.000000
 
  0.7566798E-17  0.1147541E+00  0.0000000E+00  0.5374899E-03
      1        -19.833474   1.000000
      2        -16.223733   1.000000
      3        -16.060673   1.000000
      4        -13.716791   1.000000
      5        -13.458062   1.000000
      6        -12.319081   1.000000
      7        -10.954125   1.000000
      8         -8.610496   1.000000
      9         -8.567567   1.000000
     10         -6.534758   1.000000
     11         -6.342090   1.000000
     12         -4.713391   1.000000
     13         -4.518948   1.000000
     14         -4.059908   1.000000
     15         -3.920910   1.000000
     16         -2.301484   0.000000
     17         -0.116873   0.000000
     18          0.279161   0.000000
     19          0.688122   0.000000
     20          0.939536   0.000000
     21          1.951821   0.000000
     22          2.367253   0.000000
     23          4.331218   0.000000
     24          4.956488   0.000000
 
 -0.1147541E+00  0.1147541E+00  0.0000000E+00  0.5374899E-03
      1        -19.833472   1.000000
      2        -16.223873   1.000000
      3        -16.060536   1.000000
      4        -13.716734   1.000000
      5        -13.458099   1.000000
      6        -12.319111   1.000000
      7        -10.954112   1.000000
      8         -8.610495   1.000000
      9         -8.567568   1.000000
     10         -6.534905   1.000000
     11         -6.341943   1.000000
     12         -4.713458   1.000000
     13         -4.518873   1.000000
     14         -4.060017   1.000000
     15         -3.920801   1.000000
     16         -2.301502   0.000000
     17         -0.116892   0.000000
     18          0.279246   0.000000
     19          0.688073   0.000000
     20          0.939536   0.000000
     21          1.951817   0.000000
     22          2.367253   0.000000
     23          4.331218   0.000000
     24          4.956483   0.000000
 
  0.1311475E+00  0.1109862E-16  0.0000000E+00  0.5374899E-03
      1        -19.818036   1.000000
      2        -16.288517   1.000000
      3        -16.081515   1.000000
      4        -13.739753   1.000000
      5        -13.405086   1.000000
      6        -12.243985   1.000000
      7        -10.869901   1.000000
      8         -8.602791   1.000000
      9         -8.586701   1.000000
     10         -6.602393   1.000000
     11         -6.349734   1.000000
     12         -4.780797   1.000000
     13         -4.529694   1.000000
     14         -4.139356   1.000000
     15         -3.958628   1.000000
     16         -2.371522   0.000000
     17         -0.084769   0.000000
     18          0.374144   0.000000
     19          0.787973   0.000000
     20          0.969534   0.000000
     21          1.985319   0.000000
     22          2.397454   0.000000
     23          4.360887   0.000000
     24          4.984838   0.000000
 
  0.1109862E-16  0.1311475E+00  0.0000000E+00  0.5374899E-03
      1        -19.818037   1.000000
      2        -16.288485   1.000000
      3        -16.081548   1.000000
      4        -13.739778   1.000000
      5        -13.405061   1.000000
      6        -12.243980   1.000000
      7        -10.869906   1.000000
      8         -8.602793   1.000000
      9         -8.586701   1.000000
     10         -6.602372   1.000000
     11         -6.349752   1.000000
     12         -4.780771   1.000000
     13         -4.529722   1.000000
     14         -4.139384   1.000000
     15         -3.958599   1.000000
     16         -2.371525   0.000000
     17         -0.084743   0.000000
     18          0.374133   0.000000
     19          0.787964   0.000000
     20          0.969535   0.000000
     21          1.985320   0.000000
     22          2.397454   0.000000
     23          4.360887   0.000000
     24          4.984839   0.000000
 
 -0.1311475E+00  0.1311475E+00  0.0000000E+00  0.5374899E-03
      1        -19.818035   1.000000
      2        -16.288622   1.000000
      3        -16.081413   1.000000
      4        -13.739719   1.000000
      5        -13.405096   1.000000
      6        -12.244015   1.000000
      7        -10.869890   1.000000
      8         -8.602795   1.000000
      9         -8.586700   1.000000
     10         -6.602519   1.000000
     11         -6.349606   1.000000
     12         -4.780836   1.000000
     13         -4.529648   1.000000
     14         -4.139491   1.000000
     15         -3.958491   1.000000
     16         -2.371546   0.000000
     17         -0.084761   0.000000
     18          0.374227   0.000000
     19          0.787908   0.000000
     20          0.969534   0.000000
     21          1.985315   0.000000
     22          2.397454   0.000000
     23          4.360887   0.000000
     24          4.984835   0.000000
 
  0.1475410E+00 -0.3116015E-17  0.0000000E+00  0.5374899E-03
      1        -19.800692   1.000000
      2        -16.357863   1.000000
      3        -16.103806   1.000000
      4        -13.765018   1.000000
      5        -13.346612   1.000000
      6        -12.160953   1.000000
      7        -10.777323   1.000000
      8         -8.643239   1.000000
      9         -8.559763   1.000000
     10         -6.677459   1.000000
     11         -6.356536   1.000000
     12         -4.855055   1.000000
     13         -4.541425   1.000000
     14         -4.228047   1.000000
     15         -4.000356   1.000000
     16         -2.440317   0.000000
     17         -0.049197   0.000000
     18          0.459974   0.000000
     19          0.909270   0.000000
     20          1.003500   0.000000
     21          2.023737   0.000000
     22          2.431662   0.000000
     23          4.394507   0.000000
     24          5.016184   0.000000
 
 -0.3116015E-17  0.1475410E+00  0.0000000E+00  0.5374899E-03
      1        -19.800693   1.000000
      2        -16.357831   1.000000
      3        -16.103838   1.000000
      4        -13.765042   1.000000
      5        -13.346588   1.000000
      6        -12.160948   1.000000
      7        -10.777329   1.000000
      8         -8.643242   1.000000
      9         -8.559763   1.000000
     10         -6.677437   1.000000
     11         -6.356553   1.000000
     12         -4.855030   1.000000
     13         -4.541453   1.000000
     14         -4.228074   1.000000
     15         -4.000328   1.000000
     16         -2.440320   0.000000
     17         -0.049171   0.000000
     18          0.459967   0.000000
     19          0.909259   0.000000
     20          1.003500   0.000000
     21          2.023737   0.000000
     22          2.431662   0.000000
     23          4.394507   0.000000
     24          5.016185   0.000000
 
 -0.1475410E+00  0.1475410E+00  0.0000000E+00  0.5374899E-03
      1        -19.800690   1.000000
      2        -16.357967   1.000000
      3        -16.103706   1.000000
      4        -13.764983   1.000000
      5        -13.346620   1.000000
      6        -12.160988   1.000000
      7        -10.777309   1.000000
      8         -8.643244   1.000000
      9         -8.559762   1.000000
     10         -6.677585   1.000000
     11         -6.356407   1.000000
     12         -4.855094   1.000000
     13         -4.541379   1.000000
     14         -4.228179   1.000000
     15         -4.000222   1.000000
     16         -2.440344   0.000000
     17         -0.049188   0.000000
     18          0.460065   0.000000
     19          0.909202   0.000000
     20          1.003500   0.000000
     21          2.023731   0.000000
     22          2.431662   0.000000
     23          4.394507   0.000000
     24          5.016181   0.000000
 
  0.1639344E+00  0.8181266E-17  0.0000000E+00  0.5374899E-03
      1        -19.781526   1.000000
      2        -16.430856   1.000000
      3        -16.127153   1.000000
      4        -13.792056   1.000000
      5        -13.283124   1.000000
      6        -12.070812   1.000000
      7        -10.677062   1.000000
      8         -8.689012   1.000000
      9         -8.529825   1.000000
     10         -6.759481   1.000000
     11         -6.361985   1.000000
     12         -4.935469   1.000000
     13         -4.553955   1.000000
     14         -4.325455   1.000000
     15         -4.045813   1.000000
     16         -2.506977   0.000000
     17         -0.010615   0.000000
     18          0.537832   0.000000
     19          1.041428   0.000000
     20          1.048366   0.000000
     21          2.067370   0.000000
     22          2.469877   0.000000
     23          4.432025   0.000000
     24          5.050367   0.000000
 
  0.8181266E-17  0.1639344E+00  0.0000000E+00  0.5374899E-03
      1        -19.781527   1.000000
      2        -16.430824   1.000000
      3        -16.127184   1.000000
      4        -13.792080   1.000000
      5        -13.283100   1.000000
      6        -12.070806   1.000000
      7        -10.677068   1.000000
      8         -8.689016   1.000000
      9         -8.529826   1.000000
     10         -6.759460   1.000000
     11         -6.362001   1.000000
     12         -4.935445   1.000000
     13         -4.553983   1.000000
     14         -4.325482   1.000000
     15         -4.045786   1.000000
     16         -2.506980   0.000000
     17         -0.010589   0.000000
     18          0.537827   0.000000
     19          1.041428   0.000000
     20          1.048352   0.000000
     21          2.067370   0.000000
     22          2.469877   0.000000
     23          4.432025   0.000000
     24          5.050367   0.000000
 
 -0.1639344E+00  0.1639344E+00  0.0000000E+00  0.5374899E-03
      1        -19.781523   1.000000
      2        -16.430960   1.000000
      3        -16.127054   1.000000
      4        -13.792021   1.000000
      5        -13.283129   1.000000
      6        -12.070850   1.000000
      7        -10.677046   1.000000
      8         -8.689018   1.000000
      9         -8.529824   1.000000
     10         -6.759608   1.000000
     11         -6.361855   1.000000
     12         -4.935507   1.000000
     13         -4.553910   1.000000
     14         -4.325585   1.000000
     15         -4.045683   1.000000
     16         -2.507008   0.000000
     17         -0.010606   0.000000
     18          0.537925   0.000000
     19          1.041428   0.000000
     20          1.048300   0.000000
     21          2.067361   0.000000
     22          2.469876   0.000000
     23          4.432025   0.000000
     24          5.050364   0.000000
 
  0.1803279E+00  0.2294480E-17  0.0000000E+00  0.5374899E-03
      1        -19.760604   1.000000
      2        -16.506617   1.000000
      3        -16.151210   1.000000
      4        -13.820364   1.000000
      5        -13.215073   1.000000
      6        -11.974370   1.000000
      7        -10.569762   1.000000