<?xml version="1.0" encoding="ISO-8859-1"?>
<modeling>
 <generator>
  <i name="program" type="string">vasp </i>
  <i name="version" type="string">5.4.4.18Apr17-6-g9f103f2a35  </i>
  <i name="subversion" type="string">(build Mar 30 2023 15:39:25) complex            parallel </i>
  <i name="platform" type="string">LinuxIFC </i>
  <i name="date" type="string">2023 09 12 </i>
  <i name="time" type="string">03:56:05 </i>
 </generator>
 <incar>
  <i type="string" name="SYSTEM"> BC3</i>
  <i type="int" name="ISTART">     0</i>
  <i type="string" name="PREC">accurate</i>
  <i type="string" name="ALGO"> Normal</i>
  <i type="int" name="ISPIN">     1</i>
  <i type="int" name="ICHARG">     2</i>
  <i type="int" name="IBRION">     2</i>
  <i name="EDIFF">      0.00000100</i>
  <i name="EDIFFG">     -0.01000000</i>
  <i type="int" name="NSW">   100</i>
  <i type="int" name="ISIF">     2</i>
  <i name="ENCUT">    450.00000000</i>
  <i type="int" name="ISMEAR">     0</i>
  <i name="SIGMA">      0.10000000</i>
  <i type="logical" name="LWAVE"> F  </i>
  <i type="logical" name="LCHARG"> F  </i>
  <v type="int" name="KPOINT_BSE">    -1     0     0     0</v>
  <i type="string" name="GGA"> PE</i>
 </incar>
 <structure name="primitive_cell" >
  <crystal>
   <varray name="basis" >
    <v>       4.47648500       2.58450000       0.00000000 </v>
    <v>      -4.47648500       2.58450000       0.00000000 </v>
    <v>       0.00000000       0.00000000      15.00000000 </v>
   </varray>
   <i name="volume">    347.08426447 </i>
   <varray name="rec_basis" >
    <v>       0.11169478       0.19346102       0.00000000 </v>
    <v>      -0.11169478       0.19346102       0.00000000 </v>
    <v>       0.00000000       0.00000000       0.06666667 </v>
   </varray>
  </crystal>
  <varray name="positions" >
   <v>       0.33833034      -0.33083568       0.25000000 </v>
   <v>       0.16373946       0.31999962       0.25000000 </v>
   <v>       0.16376430      -0.15623616       0.25000000 </v>
   <v>      -0.31250150      -0.15627000       0.25000000 </v>
   <v>      -0.15373264      -0.31500406       0.25000000 </v>
   <v>       0.32250218       0.16126397       0.25000000 </v>
   <v>      -0.15376137       0.16123684       0.25000000 </v>
   <v>      -0.32834478       0.33584146       0.25000000 </v>
  </varray>
 </structure>
 <varray name="primitive_index" >
  <v type="int" >        1 </v>
  <v type="int" >        3 </v>
  <v type="int" >        5 </v>
  <v type="int" >        7 </v>
  <v type="int" >        8 </v>
  <v type="int" >        4 </v>
  <v type="int" >        6 </v>
  <v type="int" >        2 </v>
 </varray>
 <kpoints>
  <generation param="Gamma">
   <v type="int" name="divisions">      36       36        1 </v>
   <v name="usershift">      0.00000000       0.00000000       0.00000000 </v>
   <v name="genvec1">      0.02777778       0.00000000       0.00000000 </v>
   <v name="genvec2">      0.00000000       0.02777778       0.00000000 </v>
   <v name="genvec3">      0.00000000       0.00000000       1.00000000 </v>
   <v name="shift">      0.00000000       0.00000000       0.00000000 </v>
  </generation>
  <varray name="kpointlist" >
   <v>       0.00000000       0.00000000       0.00000000 </v>
   <v>       0.02777778       0.00000000       0.00000000 </v>
   <v>       0.05555556       0.00000000       0.00000000 </v>
   <v>       0.08333333       0.00000000       0.00000000 </v>
   <v>       0.11111111       0.00000000       0.00000000 </v>
   <v>       0.13888889       0.00000000       0.00000000 </v>
   <v>       0.16666667       0.00000000       0.00000000 </v>
   <v>       0.19444444       0.00000000       0.00000000 </v>
   <v>       0.22222222       0.00000000       0.00000000 </v>
   <v>       0.25000000       0.00000000       0.00000000 </v>
   <v>       0.27777778       0.00000000       0.00000000 </v>
   <v>       0.30555556       0.00000000       0.00000000 </v>
   <v>       0.33333333       0.00000000       0.00000000 </v>
   <v>       0.36111111       0.00000000       0.00000000 </v>
   <v>       0.38888889       0.00000000       0.00000000 </v>
   <v>       0.41666667       0.00000000       0.00000000 </v>
   <v>       0.44444444       0.00000000       0.00000000 </v>
   <v>       0.47222222       0.00000000       0.00000000 </v>
   <v>       0.50000000       0.00000000       0.00000000 </v>
   <v>       0.00000000       0.02777778       0.00000000 </v>
   <v>       0.02777778       0.02777778       0.00000000 </v>
   <v>       0.05555556       0.02777778       0.00000000 </v>
   <v>       0.08333333       0.02777778       0.00000000 </v>
   <v>       0.11111111       0.02777778       0.00000000 </v>
   <v>       0.13888889       0.02777778       0.00000000 </v>
   <v>       0.16666667       0.02777778       0.00000000 </v>
   <v>       0.19444444       0.02777778       0.00000000 </v>
   <v>       0.22222222       0.02777778       0.00000000 </v>
   <v>       0.25000000       0.02777778       0.00000000 </v>
   <v>       0.27777778       0.02777778       0.00000000 </v>
   <v>       0.30555556       0.02777778       0.00000000 </v>
   <v>       0.33333333       0.02777778       0.00000000 </v>
   <v>       0.36111111       0.02777778       0.00000000 </v>
   <v>       0.38888889       0.02777778       0.00000000 </v>
   <v>       0.41666667       0.02777778       0.00000000 </v>
   <v>       0.44444444       0.02777778       0.00000000 </v>
   <v>       0.47222222       0.02777778       0.00000000 </v>
   <v>       0.50000000       0.02777778       0.00000000 </v>
   <v>      -0.47222222       0.02777778       0.00000000 </v>
   <v>      -0.44444444       0.02777778       0.00000000 </v>
   <v>      -0.41666667       0.02777778       0.00000000 </v>
   <v>      -0.38888889       0.02777778       0.00000000 </v>
   <v>      -0.36111111       0.02777778       0.00000000 </v>
   <v>      -0.33333333       0.02777778       0.00000000 </v>
   <v>      -0.30555556       0.02777778       0.00000000 </v>
   <v>      -0.27777778       0.02777778       0.00000000 </v>
   <v>      -0.25000000       0.02777778       0.00000000 </v>
   <v>      -0.22222222       0.02777778       0.00000000 </v>
   <v>      -0.19444444       0.02777778       0.00000000 </v>
   <v>      -0.16666667       0.02777778       0.00000000 </v>
   <v>      -0.13888889       0.02777778       0.00000000 </v>
   <v>      -0.11111111       0.02777778       0.00000000 </v>
   <v>      -0.08333333       0.02777778       0.00000000 </v>
   <v>      -0.05555556       0.02777778       0.00000000 </v>
   <v>      -0.02777778       0.02777778       0.00000000 </v>
   <v>       0.00000000       0.05555556       0.00000000 </v>
   <v>       0.02777778       0.05555556       0.00000000 </v>
   <v>       0.05555556       0.05555556       0.00000000 </v>
   <v>       0.08333333       0.05555556       0.00000000 </v>
   <v>       0.11111111       0.05555556       0.00000000 </v>
   <v>       0.13888889       0.05555556       0.00000000 </v>
   <v>       0.16666667       0.05555556       0.00000000 </v>
   <v>       0.19444444       0.05555556       0.00000000 </v>
   <v>       0.22222222       0.05555556       0.00000000 </v>
   <v>       0.25000000       0.05555556       0.00000000 </v>
   <v>       0.27777778       0.05555556       0.00000000 </v>
   <v>       0.30555556       0.05555556       0.00000000 </v>
   <v>       0.33333333       0.05555556       0.00000000 </v>
   <v>       0.36111111       0.05555556       0.00000000 </v>
   <v>       0.38888889       0.05555556       0.00000000 </v>
   <v>       0.41666667       0.05555556       0.00000000 </v>
   <v>       0.44444444       0.05555556       0.00000000 </v>
   <v>       0.47222222       0.05555556       0.00000000 </v>
   <v>       0.50000000       0.05555556       0.00000000 </v>
   <v>      -0.47222222       0.05555556       0.00000000 </v>
   <v>      -0.44444444       0.05555556       0.00000000 </v>
   <v>      -0.41666667       0.05555556       0.00000000 </v>
   <v>      -0.38888889       0.05555556       0.00000000 </v>
   <v>      -0.36111111       0.05555556       0.00000000 </v>
   <v>      -0.33333333       0.05555556       0.00000000 </v>
   <v>      -0.30555556       0.05555556       0.00000000 </v>
   <v>      -0.27777778       0.05555556       0.00000000 </v>
   <v>      -0.25000000       0.05555556       0.00000000 </v>
   <v>      -0.22222222       0.05555556       0.00000000 </v>
   <v>      -0.19444444       0.05555556       0.00000000 </v>
   <v>      -0.16666667       0.05555556       0.00000000 </v>
   <v>      -0.13888889       0.05555556       0.00000000 </v>
   <v>      -0.11111111       0.05555556       0.00000000 </v>
   <v>      -0.08333333       0.05555556       0.00000000 </v>
   <v>      -0.05555556       0.05555556       0.00000000 </v>
   <v>      -0.02777778       0.05555556       0.00000000 </v>
   <v>       0.00000000       0.08333333       0.00000000 </v>
   <v>       0.02777778       0.08333333       0.00000000 </v>
   <v>       0.05555556       0.08333333       0.00000000 </v>
   <v>       0.08333333       0.08333333       0.00000000 </v>
   <v>       0.11111111       0.08333333       0.00000000 </v>
   <v>       0.13888889       0.08333333       0.00000000 </v>
   <v>       0.16666667       0.08333333       0.00000000 </v>
   <v>       0.19444444       0.08333333       0.00000000 </v>
   <v>       0.22222222       0.08333333       0.00000000 </v>
   <v>       0.25000000       0.08333333       0.00000000 </v>
   <v>       0.27777778       0.08333333       0.00000000 </v>
   <v>       0.30555556       0.08333333       0.00000000 </v>
   <v>       0.33333333       0.08333333       0.00000000 </v>
   <v>       0.36111111       0.08333333       0.00000000 </v>
   <v>       0.38888889       0.08333333       0.00000000 </v>
   <v>       0.41666667       0.08333333       0.00000000 </v>
   <v>       0.44444444       0.08333333       0.00000000 </v>
   <v>       0.47222222       0.08333333       0.00000000 </v>
   <v>       0.50000000       0.08333333       0.00000000 </v>
   <v>      -0.47222222       0.08333333       0.00000000 </v>
   <v>      -0.44444444       0.08333333       0.00000000 </v>
   <v>      -0.41666667       0.08333333       0.00000000 </v>
   <v>      -0.38888889       0.08333333       0.00000000 </v>
   <v>      -0.36111111       0.08333333       0.00000000 </v>
   <v>      -0.33333333       0.08333333       0.00000000 </v>
   <v>      -0.30555556       0.08333333       0.00000000 </v>
   <v>      -0.27777778       0.08333333       0.00000000 </v>
   <v>      -0.25000000       0.08333333       0.00000000 </v>
   <v>      -0.22222222       0.08333333       0.00000000 </v>
   <v>      -0.19444444       0.08333333       0.00000000 </v>
   <v>      -0.16666667       0.08333333       0.00000000 </v>
   <v>      -0.13888889       0.08333333       0.00000000 </v>
   <v>      -0.11111111       0.08333333       0.00000000 </v>
   <v>      -0.08333333       0.08333333       0.00000000 </v>
   <v>      -0.05555556       0.08333333       0.00000000 </v>
   <v>      -0.02777778       0.08333333       0.00000000 </v>
   <v>       0.00000000       0.11111111       0.00000000 </v>
   <v>       0.02777778       0.11111111       0.00000000 </v>
   <v>       0.05555556       0.11111111       0.00000000 </v>
   <v>       0.08333333       0.11111111       0.00000000 </v>
   <v>       0.11111111       0.11111111       0.00000000 </v>
   <v>       0.13888889       0.11111111       0.00000000 </v>
   <v>       0.16666667       0.11111111       0.00000000 </v>
   <v>       0.19444444       0.11111111       0.00000000 </v>
   <v>       0.22222222       0.11111111       0.00000000 </v>
   <v>       0.25000000       0.11111111       0.00000000 </v>
   <v>       0.27777778       0.11111111       0.00000000 </v>
   <v>       0.30555556       0.11111111       0.00000000 </v>
   <v>       0.33333333       0.11111111       0.00000000 </v>
   <v>       0.36111111       0.11111111       0.00000000 </v>
   <v>       0.38888889       0.11111111       0.00000000 </v>
   <v>       0.41666667       0.11111111       0.00000000 </v>
   <v>       0.44444444       0.11111111       0.00000000 </v>
   <v>       0.47222222       0.11111111       0.00000000 </v>
   <v>       0.50000000       0.11111111       0.00000000 </v>
   <v>      -0.47222222       0.11111111       0.00000000 </v>
   <v>      -0.44444444       0.11111111       0.00000000 </v>
   <v>      -0.41666667       0.11111111       0.00000000 </v>
   <v>      -0.38888889       0.11111111       0.00000000 </v>
   <v>      -0.36111111       0.11111111       0.00000000 </v>
   <v>      -0.33333333       0.11111111       0.00000000 </v>
   <v>      -0.30555556       0.11111111       0.00000000 </v>
   <v>      -0.27777778       0.11111111       0.00000000 </v>
   <v>      -0.25000000       0.11111111       0.00000000 </v>
   <v>      -0.22222222       0.11111111       0.00000000 </v>
   <v>      -0.19444444       0.11111111       0.00000000 </v>
   <v>      -0.16666667       0.11111111       0.00000000 </v>
   <v>      -0.13888889       0.11111111       0.00000000 </v>
   <v>      -0.11111111       0.11111111       0.00000000 </v>
   <v>      -0.08333333       0.11111111       0.00000000 </v>
   <v>      -0.05555556       0.11111111       0.00000000 </v>
   <v>      -0.02777778       0.11111111       0.00000000 </v>
   <v>       0.00000000       0.13888889       0.00000000 </v>
   <v>       0.02777778       0.13888889       0.00000000 </v>
   <v>       0.05555556       0.13888889       0.00000000 </v>
   <v>       0.08333333       0.13888889       0.00000000 </v>
   <v>       0.11111111       0.13888889       0.00000000 </v>
   <v>       0.13888889       0.13888889       0.00000000 </v>
   <v>       0.16666667       0.13888889       0.00000000 </v>
   <v>       0.19444444       0.13888889       0.00000000 </v>
   <v>       0.22222222       0.13888889       0.00000000 </v>
   <v>       0.25000000       0.13888889       0.00000000 </v>
   <v>       0.27777778       0.13888889       0.00000000 </v>
   <v>       0.30555556       0.13888889       0.00000000 </v>
   <v>       0.33333333       0.13888889       0.00000000 </v>
   <v>       0.36111111       0.13888889       0.00000000 </v>
   <v>       0.38888889       0.13888889       0.00000000 </v>
   <v>       0.41666667       0.13888889       0.00000000 </v>
   <v>       0.44444444       0.13888889       0.00000000 </v>
   <v>       0.47222222       0.13888889       0.00000000 </v>
   <v>       0.50000000       0.13888889       0.00000000 </v>
   <v>      -0.47222222       0.13888889       0.00000000 </v>
   <v>      -0.44444444       0.13888889       0.00000000 </v>
   <v>      -0.41666667       0.13888889       0.00000000 </v>
   <v>      -0.38888889       0.13888889       0.00000000 </v>
   <v>      -0.36111111       0.13888889       0.00000000 </v>
   <v>      -0.33333333       0.13888889       0.00000000 </v>
   <v>      -0.30555556       0.13888889       0.00000000 </v>
   <v>      -0.27777778       0.13888889       0.00000000 </v>
   <v>      -0.25000000       0.13888889       0.00000000 </v>
   <v>      -0.22222222       0.13888889       0.00000000 </v>
   <v>      -0.19444444       0.13888889       0.00000000 </v>
   <v>      -0.16666667       0.13888889       0.00000000 </v>
   <v>      -0.13888889       0.13888889       0.00000000 </v>
   <v>      -0.11111111       0.13888889       0.00000000 </v>
   <v>      -0.08333333       0.13888889       0.00000000 </v>
   <v>      -0.05555556       0.13888889       0.00000000 </v>
   <v>      -0.02777778       0.13888889       0.00000000 </v>
   <v>       0.00000000       0.16666667       0.00000000 </v>
   <v>       0.02777778       0.16666667       0.00000000 </v>
   <v>       0.05555556       0.16666667       0.00000000 </v>
   <v>       0.08333333       0.16666667       0.00000000 </v>
   <v>       0.11111111       0.16666667       0.00000000 </v>
   <v>       0.13888889       0.16666667       0.00000000 </v>
   <v>       0.16666667       0.16666667       0.00000000 </v>
   <v>       0.19444444       0.16666667       0.00000000 </v>
   <v>       0.22222222       0.16666667       0.00000000 </v>
   <v>       0.25000000       0.16666667       0.00000000 </v>
   <v>       0.27777778       0.16666667       0.00000000 </v>
   <v>       0.30555556       0.16666667       0.00000000 </v>
   <v>       0.33333333       0.16666667       0.00000000 </v>
   <v>       0.36111111       0.16666667       0.00000000 </v>
   <v>       0.38888889       0.16666667       0.00000000 </v>
   <v>       0.41666667       0.16666667       0.00000000 </v>
   <v>       0.44444444       0.16666667       0.00000000 </v>
   <v>       0.47222222       0.16666667       0.00000000 </v>
   <v>       0.50000000       0.16666667       0.00000000 </v>
   <v>      -0.47222222       0.16666667       0.00000000 </v>
   <v>      -0.44444444       0.16666667       0.00000000 </v>
   <v>      -0.41666667       0.16666667       0.00000000 </v>
   <v>      -0.38888889       0.16666667       0.00000000 </v>
   <v>      -0.36111111       0.16666667       0.00000000 </v>
   <v>      -0.33333333       0.16666667       0.00000000 </v>
   <v>      -0.30555556       0.16666667       0.00000000 </v>
   <v>      -0.27777778       0.16666667       0.00000000 </v>
   <v>      -0.25000000       0.16666667       0.00000000 </v>
   <v>      -0.22222222       0.16666667       0.00000000 </v>
   <v>      -0.19444444       0.16666667       0.00000000 </v>
   <v>      -0.16666667       0.16666667       0.00000000 </v>
   <v>      -0.13888889       0.16666667       0.00000000 </v>
   <v>      -0.11111111       0.16666667       0.00000000 </v>
   <v>      -0.08333333       0.16666667       0.00000000 </v>
   <v>      -0.05555556       0.16666667       0.00000000 </v>
   <v>      -0.02777778       0.16666667       0.00000000 </v>
   <v>       0.00000000       0.19444444       0.00000000 </v>
   <v>       0.02777778       0.19444444       0.00000000 </v>
   <v>       0.05555556       0.19444444       0.00000000 </v>
   <v>       0.08333333       0.19444444       0.00000000 </v>
   <v>       0.11111111       0.19444444       0.00000000 </v>
   <v>       0.13888889       0.19444444       0.00000000 </v>
   <v>       0.16666667       0.19444444       0.00000000 </v>
   <v>       0.19444444       0.19444444       0.00000000 </v>
   <v>       0.22222222       0.19444444       0.00000000 </v>
   <v>       0.25000000       0.19444444       0.00000000 </v>
   <v>       0.27777778       0.19444444       0.00000000 </v>
   <v>       0.30555556       0.19444444       0.00000000 </v>
   <v>       0.33333333       0.19444444       0.00000000 </v>
   <v>       0.36111111       0.19444444       0.00000000 </v>
   <v>       0.38888889       0.19444444       0.00000000 </v>
   <v>       0.41666667       0.19444444       0.00000000 </v>
   <v>       0.44444444       0.19444444       0.00000000 </v>
   <v>       0.47222222       0.19444444       0.00000000 </v>
   <v>       0.50000000       0.19444444       0.00000000 </v>
   <v>      -0.47222222       0.19444444       0.00000000 </v>
   <v>      -0.44444444       0.19444444       0.00000000 </v>
   <v>      -0.41666667       0.19444444       0.00000000 </v>
   <v>      -0.38888889       0.19444444       0.00000000 </v>
   <v>      -0.36111111       0.19444444       0.00000000 </v>
   <v>      -0.33333333       0.19444444       0.00000000 </v>
   <v>      -0.30555556       0.19444444       0.00000000 </v>
   <v>      -0.27777778       0.19444444       0.00000000 </v>
   <v>      -0.25000000       0.19444444       0.00000000 </v>
   <v>      -0.22222222       0.19444444       0.00000000 </v>
   <v>      -0.19444444       0.19444444       0.00000000 </v>
   <v>      -0.16666667       0.19444444       0.00000000 </v>
   <v>      -0.13888889       0.19444444       0.00000000 </v>
   <v>      -0.11111111       0.19444444       0.00000000 </v>
   <v>      -0.08333333       0.19444444       0.00000000 </v>
   <v>      -0.05555556       0.19444444       0.00000000 </v>
   <v>      -0.02777778       0.19444444       0.00000000 </v>
   <v>       0.00000000       0.22222222       0.00000000 </v>
   <v>       0.02777778       0.22222222       0.00000000 </v>
   <v>       0.05555556       0.22222222       0.00000000 </v>
   <v>       0.08333333       0.22222222       0.00000000 </v>
   <v>       0.11111111       0.22222222       0.00000000 </v>
   <v>       0.13888889       0.22222222       0.00000000 </v>
   <v>       0.16666667       0.22222222       0.00000000 </v>
   <v>       0.19444444       0.22222222       0.00000000 </v>
   <v>       0.22222222       0.22222222       0.00000000 </v>
   <v>       0.25000000       0.22222222       0.00000000 </v>
   <v>       0.27777778       0.22222222       0.00000000 </v>
   <v>       0.30555556       0.22222222       0.00000000 </v>
   <v>       0.33333333       0.22222222       0.00000000 </v>
   <v>       0.36111111       0.22222222       0.00000000 </v>
   <v>       0.38888889       0.22222222       0.00000000 </v>
   <v>       0.41666667       0.22222222       0.00000000 </v>
   <v>       0.44444444       0.22222222       0.00000000 </v>
   <v>       0.47222222       0.22222222       0.00000000 </v>
   <v>       0.50000000       0.22222222       0.00000000 </v>
   <v>      -0.47222222       0.22222222       0.00000000 </v>
   <v>      -0.44444444       0.22222222       0.00000000 </v>
   <v>      -0.41666667       0.22222222       0.00000000 </v>
   <v>      -0.38888889       0.22222222       0.00000000 </v>
   <v>      -0.36111111       0.22222222       0.00000000 </v>
   <v>      -0.33333333       0.22222222       0.00000000 </v>
   <v>      -0.30555556       0.22222222       0.00000000 </v>
   <v>      -0.27777778       0.22222222       0.00000000 </v>
   <v>      -0.25000000       0.22222222       0.00000000 </v>
   <v>      -0.22222222       0.22222222       0.00000000 </v>
   <v>      -0.19444444       0.22222222       0.00000000 </v>
   <v>      -0.16666667       0.22222222       0.00000000 </v>
   <v>      -0.13888889       0.22222222       0.00000000 </v>
   <v>      -0.11111111       0.22222222       0.00000000 </v>
   <v>      -0.08333333       0.22222222       0.00000000 </v>
   <v>      -0.05555556       0.22222222       0.00000000 </v>
   <v>      -0.02777778       0.22222222       0.00000000 </v>
   <v>       0.00000000       0.25000000       0.00000000 </v>
   <v>       0.02777778       0.25000000       0.00000000 </v>
   <v>       0.05555556       0.25000000       0.00000000 </v>
   <v>       0.08333333       0.25000000       0.00000000 </v>
   <v>       0.11111111       0.25000000       0.00000000 </v>
   <v>       0.13888889       0.25000000       0.00000000 </v>
   <v>       0.16666667       0.25000000       0.00000000 </v>
   <v>       0.19444444       0.25000000       0.00000000 </v>
   <v>       0.22222222       0.25000000       0.00000000 </v>
   <v>       0.25000000       0.25000000       0.00000000 </v>
   <v>       0.27777778       0.25000000       0.00000000 </v>
   <v>       0.30555556       0.25000000       0.00000000 </v>
   <v>       0.33333333       0.25000000       0.00000000 </v>
   <v>       0.36111111       0.25000000       0.00000000 </v>
   <v>       0.38888889       0.25000000       0.00000000 </v>
   <v>       0.41666667       0.25000000       0.00000000 </v>
   <v>       0.44444444       0.25000000       0.00000000 </v>
   <v>       0.47222222       0.25000000       0.00000000 </v>
   <v>       0.50000000       0.25000000       0.00000000 </v>
   <v>      -0.47222222       0.25000000       0.00000000 </v>
   <v>      -0.44444444       0.25000000       0.00000000 </v>
   <v>      -0.41666667       0.25000000       0.00000000 </v>
   <v>      -0.38888889       0.25000000       0.00000000 </v>
   <v>      -0.36111111       0.25000000       0.00000000 </v>
   <v>      -0.33333333       0.25000000       0.00000000 </v>
   <v>      -0.30555556       0.25000000       0.00000000 </v>
   <v>      -0.27777778       0.25000000       0.00000000 </v>
   <v>      -0.25000000       0.25000000       0.00000000 </v>
   <v>      -0.22222222       0.25000000       0.00000000 </v>
   <v>      -0.19444444       0.25000000       0.00000000 </v>
   <v>      -0.16666667       0.25000000       0.00000000 </v>
   <v>      -0.13888889       0.25000000       0.00000000 </v>
   <v>      -0.11111111       0.25000000       0.00000000 </v>
   <v>      -0.08333333       0.25000000       0.00000000 </v>
   <v>      -0.05555556       0.25000000       0.00000000 </v>
   <v>      -0.02777778       0.25000000       0.00000000 </v>
   <v>       0.00000000       0.27777778       0.00000000 </v>
   <v>       0.02777778       0.27777778       0.00000000 </v>
   <v>       0.05555556       0.27777778       0.00000000 </v>
   <v>       0.08333333       0.27777778       0.00000000 </v>
   <v>       0.11111111       0.27777778       0.00000000 </v>
   <v>       0.13888889       0.27777778       0.00000000 </v>
   <v>       0.16666667       0.27777778       0.00000000 </v>
   <v>       0.19444444       0.27777778       0.00000000 </v>
   <v>       0.22222222       0.27777778       0.00000000 </v>
   <v>       0.25000000       0.27777778       0.00000000 </v>
   <v>       0.27777778       0.27777778       0.00000000 </v>
   <v>       0.30555556       0.27777778       0.00000000 </v>
   <v>       0.33333333       0.27777778       0.00000000 </v>
   <v>       0.36111111       0.27777778       0.00000000 </v>
   <v>       0.38888889       0.27777778       0.00000000 </v>
   <v>       0.41666667       0.27777778       0.00000000 </v>
   <v>       0.44444444       0.27777778       0.00000000 </v>
   <v>       0.47222222       0.27777778       0.00000000 </v>
   <v>       0.50000000       0.27777778       0.00000000 </v>
   <v>      -0.47222222       0.27777778       0.00000000 </v>
   <v>      -0.44444444       0.27777778       0.00000000 </v>
   <v>      -0.41666667       0.27777778       0.00000000 </v>
   <v>      -0.38888889       0.27777778       0.00000000 </v>
   <v>      -0.36111111       0.27777778       0.00000000 </v>
   <v>      -0.33333333       0.27777778       0.00000000 </v>
   <v>      -0.30555556       0.27777778       0.00000000 </v>
   <v>      -0.27777778       0.27777778       0.00000000 </v>
   <v>      -0.25000000       0.27777778       0.00000000 </v>
   <v>      -0.22222222       0.27777778       0.00000000 </v>
   <v>      -0.19444444       0.27777778       0.00000000 </v>
   <v>      -0.16666667       0.27777778       0.00000000 </v>
   <v>      -0.13888889       0.27777778       0.00000000 </v>
   <v>      -0.11111111       0.27777778       0.00000000 </v>
   <v>      -0.08333333       0.27777778       0.00000000 </v>
   <v>      -0.05555556       0.27777778       0.00000000 </v>
   <v>      -0.02777778       0.27777778       0.00000000 </v>
   <v>       0.00000000       0.30555556       0.00000000 </v>
   <v>       0.02777778       0.30555556       0.00000000 </v>
   <v>       0.05555556       0.30555556       0.00000000 </v>
   <v>       0.08333333       0.30555556       0.00000000 </v>
   <v>       0.11111111       0.30555556       0.00000000 </v>
   <v>       0.13888889       0.30555556       0.00000000 </v>
   <v>       0.16666667       0.30555556       0.00000000 </v>
   <v>       0.19444444       0.30555556       0.00000000 </v>
   <v>       0.22222222       0.30555556       0.00000000 </v>
   <v>       0.25000000       0.30555556       0.00000000 </v>
   <v>       0.27777778       0.30555556       0.00000000 </v>
   <v>       0.30555556       0.30555556       0.00000000 </v>
   <v>       0.33333333       0.30555556       0.00000000 </v>
   <v>       0.36111111       0.30555556       0.00000000 </v>
   <v>       0.38888889       0.30555556       0.00000000 </v>
   <v>       0.41666667       0.30555556       0.00000000 </v>
   <v>       0.44444444       0.30555556       0.00000000 </v>
   <v>       0.47222222       0.30555556       0.00000000 </v>
   <v>       0.50000000       0.30555556       0.00000000 </v>
   <v>      -0.47222222       0.30555556       0.00000000 </v>
   <v>      -0.44444444       0.30555556       0.00000000 </v>
   <v>      -0.41666667       0.30555556       0.00000000 </v>
   <v>      -0.38888889       0.30555556       0.00000000 </v>
   <v>      -0.36111111       0.30555556       0.00000000 </v>
   <v>      -0.33333333       0.30555556       0.00000000 </v>
   <v>      -0.30555556       0.30555556       0.00000000 </v>
   <v>      -0.27777778       0.30555556       0.00000000 </v>
   <v>      -0.25000000       0.30555556       0.00000000 </v>
   <v>      -0.22222222       0.30555556       0.00000000 </v>
   <v>      -0.19444444       0.30555556       0.00000000 </v>
   <v>      -0.16666667       0.30555556       0.00000000 </v>
   <v>      -0.13888889       0.30555556       0.00000000 </v>
   <v>      -0.11111111       0.30555556       0.00000000 </v>
   <v>      -0.08333333       0.30555556       0.00000000 </v>
   <v>      -0.05555556       0.30555556       0.00000000 </v>
   <v>      -0.02777778       0.30555556       0.00000000 </v>
   <v>       0.00000000       0.33333333       0.00000000 </v>
   <v>       0.02777778       0.33333333       0.00000000 </v>
   <v>       0.05555556       0.33333333       0.00000000 </v>
   <v>       0.08333333       0.33333333       0.00000000 </v>
   <v>       0.11111111       0.33333333       0.00000000 </v>
   <v>       0.13888889       0.33333333       0.00000000 </v>
   <v>       0.16666667       0.33333333       0.00000000 </v>
   <v>       0.19444444       0.33333333       0.00000000 </v>
   <v>       0.22222222       0.33333333       0.00000000 </v>
   <v>       0.25000000       0.33333333       0.00000000 </v>
   <v>       0.27777778       0.33333333       0.00000000 </v>
   <v>       0.30555556       0.33333333       0.00000000 </v>
   <v>       0.33333333       0.33333333       0.00000000 </v>
   <v>       0.36111111       0.33333333       0.00000000 </v>
   <v>       0.38888889       0.33333333       0.00000000 </v>
   <v>       0.41666667       0.33333333       0.00000000 </v>
   <v>       0.44444444       0.33333333       0.00000000 </v>
   <v>       0.47222222       0.33333333       0.00000000 </v>
   <v>       0.50000000       0.33333333       0.00000000 </v>
   <v>      -0.47222222       0.33333333       0.00000000 </v>
   <v>      -0.44444444       0.33333333       0.00000000 </v>
   <v>      -0.41666667       0.33333333       0.00000000 </v>
   <v>      -0.38888889       0.33333333       0.00000000 </v>
   <v>      -0.36111111       0.33333333       0.00000000 </v>
   <v>      -0.33333333       0.33333333       0.00000000 </v>
   <v>      -0.30555556       0.33333333       0.00000000 </v>
   <v>      -0.27777778       0.33333333       0.00000000 </v>
   <v>      -0.25000000       0.33333333       0.00000000 </v>
   <v>      -0.22222222       0.33333333       0.00000000 </v>
   <v>      -0.19444444       0.33333333       0.00000000 </v>
   <v>      -0.16666667       0.33333333       0.00000000 </v>
   <v>      -0.13888889       0.33333333       0.00000000 </v>
   <v>      -0.11111111       0.33333333       0.00000000 </v>
   <v>      -0.08333333       0.33333333       0.00000000 </v>
   <v>      -0.05555556       0.33333333       0.00000000 </v>
   <v>      -0.02777778       0.33333333       0.00000000 </v>
   <v>       0.00000000       0.36111111       0.00000000 </v>
   <v>       0.02777778       0.36111111       0.00000000 </v>
   <v>       0.05555556       0.36111111       0.00000000 </v>
   <v>       0.08333333       0.36111111       0.00000000 </v>
   <v>       0.11111111       0.36111111       0.00000000 </v>
   <v>       0.13888889       0.36111111       0.00000000 </v>
   <v>       0.16666667       0.36111111       0.00000000 </v>
   <v>       0.19444444       0.36111111       0.00000000 </v>
   <v>       0.22222222       0.36111111       0.00000000 </v>
   <v>       0.25000000       0.36111111       0.00000000 </v>
   <v>       0.27777778       0.36111111       0.00000000 </v>
   <v>       0.30555556       0.36111111       0.00000000 </v>
   <v>       0.33333333       0.36111111       0.00000000 </v>
   <v>       0.36111111       0.36111111       0.00000000 </v>
   <v>       0.38888889       0.36111111       0.00000000 </v>
   <v>       0.41666667       0.36111111       0.00000000 </v>
   <v>       0.44444444       0.36111111       0.00000000 </v>
   <v>       0.47222222       0.36111111       0.00000000 </v>
   <v>       0.50000000       0.36111111       0.00000000 </v>
   <v>      -0.47222222       0.36111111       0.00000000 </v>
   <v>      -0.44444444       0.36111111       0.00000000 </v>
   <v>      -0.41666667       0.36111111       0.00000000 </v>
   <v>      -0.38888889       0.36111111       0.00000000 </v>
   <v>      -0.36111111       0.36111111       0.00000000 </v>
   <v>      -0.33333333       0.36111111       0.00000000 </v>
   <v>      -0.30555556       0.36111111       0.00000000 </v>
   <v>      -0.27777778       0.36111111       0.00000000 </v>
   <v>      -0.25000000       0.36111111       0.00000000 </v>
   <v>      -0.22222222       0.36111111       0.00000000 </v>
   <v>      -0.19444444       0.36111111       0.00000000 </v>
   <v>      -0.16666667       0.36111111       0.00000000 </v>
   <v>      -0.13888889       0.36111111       0.00000000 </v>
   <v>      -0.11111111       0.36111111       0.00000000 </v>
   <v>      -0.08333333       0.36111111       0.00000000 </v>
   <v>      -0.05555556       0.36111111       0.00000000 </v>
   <v>      -0.02777778       0.36111111       0.00000000 </v>
   <v>       0.00000000       0.38888889       0.00000000 </v>
   <v>       0.02777778       0.38888889       0.00000000 </v>
   <v>       0.05555556       0.38888889       0.00000000 </v>
   <v>       0.08333333       0.38888889       0.00000000 </v>
   <v>       0.11111111       0.38888889       0.00000000 </v>
   <v>       0.13888889       0.38888889       0.00000000 </v>
   <v>       0.16666667       0.38888889       0.00000000 </v>
   <v>       0.19444444       0.38888889       0.00000000 </v>
   <v>       0.22222222       0.38888889       0.00000000 </v>
   <v>       0.25000000       0.38888889       0.00000000 </v>
   <v>       0.27777778       0.38888889       0.00000000 </v>
   <v>       0.30555556       0.38888889       0.00000000 </v>
   <v>       0.33333333       0.38888889       0.00000000 </v>
   <v>       0.36111111       0.38888889       0.00000000 </v>
   <v>       0.38888889       0.38888889       0.00000000 </v>
   <v>       0.41666667       0.38888889       0.00000000 </v>
   <v>       0.44444444       0.38888889       0.00000000 </v>
   <v>       0.47222222       0.38888889       0.00000000 </v>
   <v>       0.50000000       0.38888889       0.00000000 </v>
   <v>      -0.47222222       0.38888889       0.00000000 </v>
   <v>      -0.44444444       0.38888889       0.00000000 </v>
   <v>      -0.41666667       0.38888889       0.00000000 </v>
   <v>      -0.38888889       0.38888889       0.00000000 </v>
   <v>      -0.36111111       0.38888889       0.00000000 </v>
   <v>      -0.33333333       0.38888889       0.00000000 </v>
   <v>      -0.30555556       0.38888889       0.00000000 </v>
   <v>      -0.27777778       0.38888889       0.00000000 </v>
   <v>      -0.25000000       0.38888889       0.00000000 </v>
   <v>      -0.22222222       0.38888889       0.00000000 </v>
   <v>      -0.19444444       0.38888889       0.00000000 </v>
   <v>      -0.16666667       0.38888889       0.00000000 </v>
   <v>      -0.13888889       0.38888889       0.00000000 </v>
   <v>      -0.11111111       0.38888889       0.00000000 </v>
   <v>      -0.08333333       0.38888889       0.00000000 </v>
   <v>      -0.05555556       0.38888889       0.00000000 </v>
   <v>      -0.02777778       0.38888889       0.00000000 </v>
   <v>       0.00000000       0.41666667       0.00000000 </v>
   <v>       0.02777778       0.41666667       0.00000000 </v>
   <v>       0.05555556       0.41666667       0.00000000 </v>
   <v>       0.08333333       0.41666667       0.00000000 </v>
   <v>       0.11111111       0.41666667       0.00000000 </v>
   <v>       0.13888889       0.41666667       0.00000000 </v>
   <v>       0.16666667       0.41666667       0.00000000 </v>
   <v>       0.19444444       0.41666667       0.00000000 </v>
   <v>       0.22222222       0.41666667       0.00000000 </v>
   <v>       0.25000000       0.41666667       0.00000000 </v>
   <v>       0.27777778       0.41666667       0.00000000 </v>
   <v>       0.30555556       0.41666667       0.00000000 </v>
   <v>       0.33333333       0.41666667       0.00000000 </v>
   <v>       0.36111111       0.41666667       0.00000000 </v>
   <v>       0.38888889       0.41666667       0.00000000 </v>
   <v>       0.41666667       0.41666667       0.00000000 </v>
   <v>       0.44444444       0.41666667       0.00000000 </v>
   <v>       0.47222222       0.41666667       0.00000000 </v>
   <v>       0.50000000       0.41666667       0.00000000 </v>
   <v>      -0.47222222       0.41666667       0.00000000 </v>
   <v>      -0.44444444       0.41666667       0.00000000 </v>
   <v>      -0.41666667       0.41666667       0.00000000 </v>
   <v>      -0.38888889       0.41666667       0.00000000 </v>
   <v>      -0.36111111       0.41666667       0.00000000 </v>
   <v>      -0.33333333       0.41666667       0.00000000 </v>
   <v>      -0.30555556       0.41666667       0.00000000 </v>
   <v>      -0.27777778       0.41666667       0.00000000 </v>
   <v>      -0.25000000       0.41666667       0.00000000 </v>
   <v>      -0.22222222       0.41666667       0.00000000 </v>
   <v>      -0.19444444       0.41666667       0.00000000 </v>
   <v>      -0.16666667       0.41666667       0.00000000 </v>
   <v>      -0.13888889       0.41666667       0.00000000 </v>
   <v>      -0.11111111       0.41666667       0.00000000 </v>
   <v>      -0.08333333       0.41666667       0.00000000 </v>
   <v>      -0.05555556       0.41666667       0.00000000 </v>
   <v>      -0.02777778       0.41666667       0.00000000 </v>
   <v>       0.00000000       0.44444444       0.00000000 </v>
   <v>       0.02777778       0.44444444       0.00000000 </v>
   <v>       0.05555556       0.44444444       0.00000000 </v>
   <v>       0.08333333       0.44444444       0.00000000 </v>
   <v>       0.11111111       0.44444444       0.00000000 </v>
   <v>       0.13888889       0.44444444       0.00000000 </v>
   <v>       0.16666667       0.44444444       0.00000000 </v>
   <v>       0.19444444       0.44444444       0.00000000 </v>
   <v>       0.22222222       0.44444444       0.00000000 </v>
   <v>       0.25000000       0.44444444       0.00000000 </v>
   <v>       0.27777778       0.44444444       0.00000000 </v>
   <v>       0.30555556       0.44444444       0.00000000 </v>
   <v>       0.33333333       0.44444444       0.00000000 </v>
   <v>       0.36111111       0.44444444       0.00000000 </v>
   <v>       0.38888889       0.44444444       0.00000000 </v>
   <v>       0.41666667       0.44444444       0.00000000 </v>
   <v>       0.44444444       0.44444444       0.00000000 </v>
   <v>       0.47222222       0.44444444       0.00000000 </v>
   <v>       0.50000000       0.44444444       0.00000000 </v>
   <v>      -0.47222222       0.44444444       0.00000000 </v>
   <v>      -0.44444444       0.44444444       0.00000000 </v>
   <v>      -0.41666667       0.44444444       0.00000000 </v>
   <v>      -0.38888889       0.44444444       0.00000000 </v>
   <v>      -0.36111111       0.44444444       0.00000000 </v>
   <v>      -0.33333333       0.44444444       0.00000000 </v>
   <v>      -0.30555556       0.44444444       0.00000000 </v>
   <v>      -0.27777778       0.44444444       0.00000000 </v>
   <v>      -0.25000000       0.44444444       0.00000000 </v>
   <v>      -0.22222222       0.44444444       0.00000000 </v>
   <v>      -0.19444444       0.44444444       0.00000000 </v>
   <v>      -0.16666667       0.44444444       0.00000000 </v>
   <v>      -0.13888889       0.44444444       0.00000000 </v>
   <v>      -0.11111111       0.44444444       0.00000000 </v>
   <v>      -0.08333333       0.44444444       0.00000000 </v>
   <v>      -0.05555556       0.44444444       0.00000000 </v>
   <v>      -0.02777778       0.44444444       0.00000000 </v>
   <v>       0.00000000       0.47222222       0.00000000 </v>
   <v>       0.02777778       0.47222222       0.00000000 </v>
   <v>       0.05555556       0.47222222       0.00000000 </v>
   <v>       0.08333333       0.47222222       0.00000000 </v>
   <v>       0.11111111       0.47222222       0.00000000 </v>
   <v>       0.13888889       0.47222222       0.00000000 </v>
   <v>       0.16666667       0.47222222       0.00000000 </v>
   <v>       0.19444444       0.47222222       0.00000000 </v>
   <v>       0.22222222       0.47222222       0.00000000 </v>
   <v>       0.25000000       0.47222222       0.00000000 </v>
   <v>       0.27777778       0.47222222       0.00000000 </v>
   <v>       0.30555556       0.47222222       0.00000000 </v>
   <v>       0.33333333       0.47222222       0.00000000 </v>
   <v>       0.36111111       0.47222222       0.00000000 </v>
   <v>       0.38888889       0.47222222       0.00000000 </v>
   <v>       0.41666667       0.47222222       0.00000000 </v>
   <v>       0.44444444       0.47222222       0.00000000 </v>
   <v>       0.47222222       0.47222222       0.00000000 </v>
   <v>       0.50000000       0.47222222       0.00000000 </v>
   <v>      -0.47222222       0.47222222       0.00000000 </v>
   <v>      -0.44444444       0.47222222       0.00000000 </v>
   <v>      -0.41666667       0.47222222       0.00000000 </v>
   <v>      -0.38888889       0.47222222       0.00000000 </v>
   <v>      -0.36111111       0.47222222       0.00000000 </v>
   <v>      -0.33333333       0.47222222       0.00000000 </v>
   <v>      -0.30555556       0.47222222       0.00000000 </v>
   <v>      -0.27777778       0.47222222       0.00000000 </v>
   <v>      -0.25000000       0.47222222       0.00000000 </v>
   <v>      -0.22222222       0.47222222       0.00000000 </v>
   <v>      -0.19444444       0.47222222       0.00000000 </v>
   <v>      -0.16666667       0.47222222       0.00000000 </v>
   <v>      -0.13888889       0.47222222       0.00000000 </v>
   <v>      -0.11111111       0.47222222       0.00000000 </v>
   <v>      -0.08333333       0.47222222       0.00000000 </v>
   <v>      -0.05555556       0.47222222       0.00000000 </v>
   <v>      -0.02777778       0.47222222       0.00000000 </v>
   <v>       0.00000000       0.50000000       0.00000000 </v>
   <v>       0.02777778       0.50000000       0.00000000 </v>
   <v>       0.05555556       0.50000000       0.00000000 </v>
   <v>       0.08333333       0.50000000       0.00000000 </v>
   <v>       0.11111111       0.50000000       0.00000000 </v>
   <v>       0.13888889       0.50000000       0.00000000 </v>
   <v>       0.16666667       0.50000000       0.00000000 </v>
   <v>       0.19444444       0.50000000       0.00000000 </v>
   <v>       0.22222222       0.50000000       0.00000000 </v>
   <v>       0.25000000       0.50000000       0.00000000 </v>
   <v>       0.27777778       0.50000000       0.00000000 </v>
   <v>       0.30555556       0.50000000       0.00000000 </v>
   <v>       0.33333333       0.50000000       0.00000000 </v>
   <v>       0.36111111       0.50000000       0.00000000 </v>
   <v>       0.38888889       0.50000000       0.00000000 </v>
   <v>       0.41666667       0.50000000       0.00000000 </v>
   <v>       0.44444444       0.50000000       0.00000000 </v>
   <v>       0.47222222       0.50000000       0.00000000 </v>
   <v>       0.50000000       0.50000000       0.00000000 </v>
  </varray>
  <varray name="weights" >
   <v>       0.00077160 </v>
   <v>       0.00154321 </v>
   <v>       0.00154321 </v>
   <v>       0.00154321 </v>
   <v>       0.00154321 </v>
   <v>       0.00154321 </v>
   <v>       0.00154321 </v>
   <v>       0.00154321 </v>
   <v>       0.00154321 </v>
   <v>       0.00154321 </v>
   <v>       0.00154321 </v>
   <v>       0.00154321 </v>
   <v>       0.00154321 </v>
   <v>       0.00154321 </v>
   <v>       0.00154321 </v>
   <v>       0.00154321 </v>
   <v>       0.00154321 </v>
   <v>       0.00154321 </v>
   <v>       0.00077160 </v>
   <v>       0.00154321 </v>
   <v>       0.00154321 </v>
   <v>       0.00154321 </v>
   <v>       0.00154321 </v>
   <v>       0.00154321 </v>
   <v>       0.00154321 </v>
   <v>       0.00154321 </v>
   <v>       0.00154321 </v>
   <v>       0.00154321 </v>
   <v>       0.00154321 </v>
   <v>       0.00154321 </v>
   <v>       0.00154321 </v>
   <v>       0.00154321 </v>
   <v>       0.00154321 </v>
   <v>       0.00154321 </v>
   <v>       0.00154321 </v>
   <v>       0.00154321 </v>
   <v>       0.00154321 </v>
   <v>       0.00154321 </v>
   <v>       0.00154321 </v>
   <v>       0.00154321 </v>
   <v>       0.00154321 </v>
   <v>       0.00154321 </v>
   <v>       0.00154321 </v>
   <v>       0.00154321 </v>
   <v>       0.00154321 </v>
   <v>       0.00154321 </v>
   <v>       0.00154321 </v>
   <v>       0.00154321 </v>
   <v>       0.00154321 </v>
   <v>       0.00154321 </v>
   <v>       0.00154321 </v>
   <v>       0.00154321 </v>
   <v>       0.00154321 </v>
   <v>       0.00154321 </v>
   <v>       0.00154321 </v>
   <v>       0.00154321 </v>
   <v>       0.00154321 </v>
   <v>       0.00154321 </v>
   <v>       0.00154321 </v>
   <v>       0.00154321 </v>
   <v>       0.00154321 </v>
   <v>       0.00154321 </v>
   <v>       0.00154321 </v>
   <v>       0.00154321 </v>
   <v>       0.00154321 </v>
   <v>       0.00154321 </v>
   <v>       0.00154321 </v>
   <v>       0.00154321 </v>
   <v>       0.00154321 </v>
   <v>       0.00154321 </v>
   <v>       0.00154321 </v>
   <v>       0.00154321 </v>
   <v>       0.00154321 </v>
   <v>       0.00154321 </v>
   <v>       0.00154321 </v>
   <v>       0.00154321 </v>
   <v>       0.00154321 </v>
   <v>       0.00154321 </v>
   <v>       0.00154321 </v>
   <v>       0.00154321 </v>
   <v>       0.00154321 </v>
   <v>       0.00154321 </v>
   <v>       0.00154321 </v>
   <v>       0.00154321 </v>
   <v>       0.00154321 </v>
   <v>       0.00154321 </v>
   <v>       0.00154321 </v>
   <v>       0.00154321 </v>
   <v>       0.00154321 </v>
   <v>       0.00154321 </v>
   <v>       0.00154321 </v>
   <v>       0.00154321 </v>
   <v>       0.00154321 </v>
   <v>       0.00154321 </v>
   <v>       0.00154321 </v>
   <v>       0.00154321 </v>
   <v>       0.00154321 </v>
   <v>       0.00154321 </v>
   <v>       0.00154321 </v>
   <v>       0.00154321 </v>
   <v>       0.00154321 </v>
   <v>       0.00154321 </v>
   <v>       0.00154321 </v>
   <v>       0.00154321 </v>
   <v>       0.00154321 </v>
   <v>       0.00154321 </v>
   <v>       0.00154321 </v>
   <v>       0.00154321 </v>
   <v>       0.00154321 </v>
   <v>       0.00154321 </v>
   <v>       0.00154321 </v>
   <v>       0.00154321 </v>
   <v>       0.00154321 </v>
   <v>       0.00154321 </v>
   <v>       0.00154321 </v>
   <v>       0.00154321 </v>
   <v>       0.00154321 </v>
   <v>       0.00154321 </v>
   <v>       0.00154321 </v>
   <v>       0.00154321 </v>
   <v>       0.00154321 </v>
   <v>       0.00154321 </v>
   <v>       0.00154321 </v>
   <v>       0.00154321 </v>
   <v>       0.00154321 </v>
   <v>       0.00154321 </v>
   <v>       0.00154321 </v>
   <v>       0.00154321 </v>
   <v>       0.00154321 </v>
   <v>       0.00154321 </v>
   <v>       0.00154321 </v>
   <v>       0.00154321 </v>
   <v>       0.00154321 </v>
   <v>       0.00154321 </v>
   <v>       0.00154321 </v>
   <v>       0.00154321 </v>
   <v>       0.00154321 </v>
   <v>       0.00154321 </v>
   <v>       0.00154321 </v>
   <v>       0.00154321 </v>
   <v>       0.00154321 </v>
   <v>       0.00154321 </v>
   <v>       0.00154321 </v>
   <v>       0.00154321 </v>
   <v>       0.00154321 </v>
   <v>       0.00154321 </v>
   <v>       0.00154321 </v>
   <v>       0.00154321 </v>
   <v>       0.00154321 </v>
   <v>       0.00154321 </v>
   <v>       0.00154321 </v>
   <v>       0.00154321 </v>
   <v>       0.00154321 </v>
   <v>       0.00154321 </v>
   <v>       0.00154321 </v>
   <v>       0.00154321 </v>
   <v>       0.00154321 </v>
   <v>       0.00154321 </v>
   <v>       0.00154321 </v>
   <v>       0.00154321 </v>
   <v>       0.00154321 </v>
   <v>       0.00154321 </v>
   <v>       0.00154321 </v>
   <v>       0.00154321 </v>
   <v>       0.00154321 </v>
   <v>       0.00154321 </v>
   <v>       0.00154321 </v>
   <v>       0.00154321 </v>
   <v>       0.00154321 </v>
   <v>       0.00154321 </v>
   <v>       0.00154321 </v>
   <v>       0.00154321 </v>
   <v>       0.00154321 </v>
   <v>       0.00154321 </v>
   <v>       0.00154321 </v>
   <v>       0.00154321 </v>
   <v>       0.00154321 </v>
   <v>       0.00154321 </v>
   <v>       0.00154321 </v>
   <v>       0.00154321 </v>
   <v>       0.00154321 </v>
   <v>       0.00154321 </v>
   <v>       0.00154321 </v>
   <v>       0.00154321 </v>
   <v>       0.00154321 </v>
   <v>       0.00154321 </v>
   <v>       0.00154321 </v>
   <v>       0.00154321 </v>
   <v>       0.00154321 </v>
   <v>       0.00154321 </v>
   <v>       0.00154321 </v>
   <v>       0.00154321 </v>
   <v>       0.00154321 </v>
   <v>       0.00154321 </v>
   <v>       0.00154321 </v>
   <v>       0.00154321 </v>
   <v>       0.00154321 </v>
   <v>       0.00154321 </v>
   <v>       0.00154321 </v>
   <v>       0.00154321 </v>
   <v>       0.00154321 </v>
   <v>       0.00154321 </v>
   <v>       0.00154321 </v>
   <v>       0.00154321 </v>
   <v>       0.00154321 </v>
   <v>       0.00154321 </v>
   <v>       0.00154321 </v>
   <v>       0.00154321 </v>
   <v>       0.00154321 </v>
   <v>       0.00154321 </v>
   <v>       0.00154321 </v>
   <v>       0.00154321 </v>
   <v>       0.00154321 </v>
   <v>       0.00154321 </v>
   <v>       0.00154321 </v>
   <v>       0.00154321 </v>
   <v>       0.00154321 </v>
   <v>       0.00154321 </v>
   <v>       0.00154321 </v>
   <v>       0.00154321 </v>
   <v>       0.00154321 </v>
   <v>       0.00154321 </v>
   <v>       0.00154321 </v>
   <v>       0.00154321 </v>
   <v>       0.00154321 </v>
   <v>       0.00154321 </v>
   <v>       0.00154321 </v>
   <v>       0.00154321 </v>
   <v>       0.00154321 </v>
   <v>       0.00154321 </v>
   <v>       0.00154321 </v>
   <v>       0.00154321 </v>
   <v>       0.00154321 </v>
   <v>       0.00154321 </v>
   <v>       0.00154321 </v>
   <v>       0.00154321 </v>
   <v>       0.00154321 </v>
   <v>       0.00154321 </v>
   <v>       0.00154321 </v>
   <v>       0.00154321 </v>
   <v>       0.00154321 </v>
   <v>       0.00154321 </v>
   <v>       0.00154321 </v>
   <v>       0.00154321 </v>
   <v>       0.00154321 </v>
   <v>       0.00154321 </v>
   <v>       0.00154321 </v>
   <v>       0.00154321 </v>
   <v>       0.00154321 </v>
   <v>       0.00154321 </v>
   <v>       0.00154321 </v>
   <v>       0.00154321 </v>
   <v>       0.00154321 </v>
   <v>       0.00154321 </v>
   <v>       0.00154321 </v>
   <v>       0.00154321 </v>
   <v>       0.00154321 </v>
   <v>       0.00154321 </v>
   <v>       0.00154321 </v>
   <v>       0.00154321 </v>
   <v>       0.00154321 </v>
   <v>       0.00154321 </v>
   <v>       0.00154321 </v>
   <v>       0.00154321 </v>
   <v>       0.00154321 </v>
   <v>       0.00154321 </v>
   <v>       0.00154321 </v>
   <v>       0.00154321 </v>
   <v>       0.00154321 </v>
   <v>       0.00154321 </v>
   <v>       0.00154321 </v>
   <v>       0.00154321 </v>
   <v>       0.00154321 </v>
   <v>       0.00154321 </v>
   <v>       0.00154321 </v>
   <v>       0.00154321 </v>
   <v>       0.00154321 </v>
   <v>       0.00154321 </v>
   <v>       0.00154321 </v>
   <v>       0.00154321 </v>
   <v>       0.00154321 </v>
   <v>       0.00154321 </v>
   <v>       0.00154321 </v>
   <v>       0.00154321 </v>
   <v>       0.00154321 </v>
   <v>       0.00154321 </v>
   <v>       0.00154321 </v>
   <v>       0.00154321 </v>
   <v>       0.00154321 </v>
   <v>       0.00154321 </v>
   <v>       0.00154321 </v>
   <v>       0.00154321 </v>
   <v>       0.00154321 </v>
   <v>       0.00154321 </v>
   <v>       0.00154321 </v>
   <v>       0.00154321 </v>
   <v>       0.00154321 </v>
   <v>       0.00154321 </v>
   <v>       0.00154321 </v>
   <v>       0.00154321 </v>
   <v>       0.00154321 </v>
   <v>       0.00154321 </v>
   <v>       0.00154321 </v>
   <v>       0.00154321 </v>
   <v>       0.00154321 </v>
   <v>       0.00154321 </v>
   <v>       0.00154321 </v>
   <v>       0.00154321 </v>
   <v>       0.00154321 </v>
   <v>       0.00154321 </v>
   <v>       0.00154321 </v>
   <v>       0.00154321 </v>
   <v>       0.00154321 </v>
   <v>       0.00154321 </v>
   <v>       0.00154321 </v>
   <v>       0.00154321 </v>
   <v>       0.00154321 </v>
   <v>       0.00154321 </v>
   <v>       0.00154321 </v>
   <v>       0.00154321 </v>
   <v>       0.00154321 </v>
   <v>       0.00154321 </v>
   <v>       0.00154321 </v>
   <v>       0.00154321 </v>
   <v>       0.00154321 </v>
   <v>       0.00154321 </v>
   <v>       0.00154321 </v>
   <v>       0.00154321 </v>
   <v>       0.00154321 </v>
   <v>       0.00154321 </v>
   <v>       0.00154321 </v>
   <v>       0.00154321 </v>
   <v>       0.00154321 </v>
   <v>       0.00154321 </v>
   <v>       0.00154321 </v>
   <v>       0.00154321 </v>
   <v>       0.00154321 </v>
   <v>       0.00154321 </v>
   <v>       0.00154321 </v>
   <v>       0.00154321 </v>
   <v>       0.00154321 </v>
   <v>       0.00154321 </v>
   <v>       0.00154321 </v>
   <v>       0.00154321 </v>
   <v>       0.00154321 </v>
   <v>       0.00154321 </v>
   <v>       0.00154321 </v>
   <v>       0.00154321 </v>
   <v>       0.00154321 </v>
   <v>       0.00154321 </v>
   <v>       0.00154321 </v>
   <v>       0.00154321 </v>
   <v>       0.00154321 </v>
   <v>       0.00154321 </v>
   <v>       0.00154321 </v>
   <v>       0.00154321 </v>
   <v>       0.00154321 </v>
   <v>       0.00154321 </v>
   <v>       0.00154321 </v>
   <v>       0.00154321 </v>
   <v>       0.00154321 </v>
   <v>       0.00154321 </v>
   <v>       0.00154321 </v>
   <v>       0.00154321 </v>
   <v>       0.00154321 </v>
   <v>       0.00154321 </v>
   <v>       0.00154321 </v>
   <v>       0.00154321 </v>
   <v>       0.00154321 </v>
   <v>       0.00154321 </v>
   <v>       0.00154321 </v>
   <v>       0.00154321 </v>
   <v>       0.00154321 </v>
   <v>       0.00154321 </v>
   <v>       0.00154321 </v>
   <v>       0.00154321 </v>
   <v>       0.00154321 </v>
   <v>       0.00154321 </v>
   <v>       0.00154321 </v>
   <v>       0.00154321 </v>
   <v>       0.00154321 </v>
   <v>       0.00154321 </v>
   <v>       0.00154321 </v>
   <v>       0.00154321 </v>
   <v>       0.00154321 </v>
   <v>       0.00154321 </v>
   <v>       0.00154321 </v>
   <v>       0.00154321 </v>
   <v>       0.00154321 </v>
   <v>       0.00154321 </v>
   <v>       0.00154321 </v>
   <v>       0.00154321 </v>
   <v>       0.00154321 </v>
   <v>       0.00154321 </v>
   <v>       0.00154321 </v>
   <v>       0.00154321 </v>
   <v>       0.00154321 </v>
   <v>       0.00154321 </v>
   <v>       0.00154321 </v>
   <v>       0.00154321 </v>
   <v>       0.00154321 </v>
   <v>       0.00154321 </v>
   <v>       0.00154321 </v>
   <v>       0.00154321 </v>
   <v>       0.00154321 </v>
   <v>       0.00154321 </v>
   <v>       0.00154321 </v>
   <v>       0.00154321 </v>
   <v>       0.00154321 </v>
   <v>       0.00154321 </v>
   <v>       0.00154321 </v>
   <v>       0.00154321 </v>
   <v>       0.00154321 </v>
   <v>       0.00154321 </v>
   <v>       0.00154321 </v>
   <v>       0.00154321 </v>
   <v>       0.00154321 </v>
   <v>       0.00154321 </v>
   <v>       0.00154321 </v>
   <v>       0.00154321 </v>
   <v>       0.00154321 </v>
   <v>       0.00154321 </v>
   <v>       0.00154321 </v>
   <v>       0.00154321 </v>
   <v>       0.00154321 </v>
   <v>       0.00154321 </v>
   <v>       0.00154321 </v>
   <v>       0.00154321 </v>
   <v>       0.00154321 </v>
   <v>       0.00154321 </v>
   <v>       0.00154321 </v>
   <v>       0.00154321 </v>
   <v>       0.00154321 </v>
   <v>       0.00154321 </v>
   <v>       0.00154321 </v>
   <v>       0.00154321 </v>
   <v>       0.00154321 </v>
   <v>       0.00154321 </v>
   <v>       0.00154321 </v>
   <v>       0.00154321 </v>
   <v>       0.00154321 </v>
   <v>       0.00154321 </v>
   <v>       0.00154321 </v>
   <v>       0.00154321 </v>
   <v>       0.00154321 </v>
   <v>       0.00154321 </v>
   <v>       0.00154321 </v>
   <v>       0.00154321 </v>
   <v>       0.00154321 </v>
   <v>       0.00154321 </v>
   <v>       0.00154321 </v>
   <v>       0.00154321 </v>
   <v>       0.00154321 </v>
   <v>       0.00154321 </v>
   <v>       0.00154321 </v>
   <v>       0.00154321 </v>
   <v>       0.00154321 </v>
   <v>       0.00154321 </v>
   <v>       0.00154321 </v>
   <v>       0.00154321 </v>
   <v>       0.00154321 </v>
   <v>       0.00154321 </v>
   <v>       0.00154321 </v>
   <v>       0.00154321 </v>
   <v>       0.00154321 </v>
   <v>       0.00154321 </v>
   <v>       0.00154321 </v>
   <v>       0.00154321 </v>
   <v>       0.00154321 </v>
   <v>       0.00154321 </v>
   <v>       0.00154321 </v>
   <v>       0.00154321 </v>
   <v>       0.00154321 </v>
   <v>       0.00154321 </v>
   <v>       0.00154321 </v>
   <v>       0.00154321 </v>
   <v>       0.00154321 </v>
   <v>       0.00154321 </v>
   <v>       0.00154321 </v>
   <v>       0.00154321 </v>
   <v>       0.00154321 </v>
   <v>       0.00154321 </v>
   <v>       0.00154321 </v>
   <v>       0.00154321 </v>
   <v>       0.00154321 </v>
   <v>       0.00154321 </v>
   <v>       0.00154321 </v>
   <v>       0.00154321 </v>
   <v>       0.00154321 </v>
   <v>       0.00154321 </v>
   <v>       0.00154321 </v>
   <v>       0.00154321 </v>
   <v>       0.00154321 </v>
   <v>       0.00154321 </v>
   <v>       0.00154321 </v>
   <v>       0.00154321 </v>
   <v>       0.00154321 </v>
   <v>       0.00154321 </v>
   <v>       0.00154321 </v>
   <v>       0.00154321 </v>
   <v>       0.00154321 </v>
   <v>       0.00154321 </v>
   <v>       0.00154321 </v>
   <v>       0.00154321 </v>
   <v>       0.00154321 </v>
   <v>       0.00154321 </v>
   <v>       0.00154321 </v>
   <v>       0.00154321 </v>
   <v>       0.00154321 </v>
   <v>       0.00154321 </v>
   <v>       0.00154321 </v>
   <v>       0.00154321 </v>
   <v>       0.00154321 </v>
   <v>       0.00154321 </v>
   <v>       0.00154321 </v>
   <v>       0.00154321 </v>
   <v>       0.00154321 </v>
   <v>       0.00154321 </v>
   <v>       0.00154321 </v>
   <v>       0.00154321 </v>
   <v>       0.00154321 </v>
   <v>       0.00154321 </v>
   <v>       0.00154321 </v>
   <v>       0.00154321 </v>
   <v>       0.00154321 </v>
   <v>       0.00154321 </v>
   <v>       0.00154321 </v>
   <v>       0.00154321 </v>
   <v>       0.00154321 </v>
   <v>       0.00154321 </v>
   <v>       0.00154321 </v>
   <v>       0.00154321 </v>
   <v>       0.00154321 </v>
   <v>       0.00154321 </v>
   <v>       0.00154321 </v>
   <v>       0.00154321 </v>
   <v>       0.00154321 </v>
   <v>       0.00154321 </v>
   <v>       0.00154321 </v>
   <v>       0.00154321 </v>
   <v>       0.00154321 </v>
   <v>       0.00154321 </v>
   <v>       0.00154321 </v>
   <v>       0.00154321 </v>
   <v>       0.00154321 </v>
   <v>       0.00154321 </v>
   <v>       0.00154321 </v>
   <v>       0.00154321 </v>
   <v>       0.00154321 </v>
   <v>       0.00154321 </v>
   <v>       0.00154321 </v>
   <v>       0.00154321 </v>
   <v>       0.00154321 </v>
   <v>       0.00154321 </v>
   <v>       0.00154321 </v>
   <v>       0.00154321 </v>
   <v>       0.00154321 </v>
   <v>       0.00154321 </v>
   <v>       0.00154321 </v>
   <v>       0.00154321 </v>
   <v>       0.00154321 </v>
   <v>       0.00154321 </v>
   <v>       0.00154321 </v>
   <v>       0.00154321 </v>
   <v>       0.00154321 </v>
   <v>       0.00154321 </v>
   <v>       0.00154321 </v>
   <v>       0.00154321 </v>
   <v>       0.00154321 </v>
   <v>       0.00154321 </v>
   <v>       0.00154321 </v>
   <v>       0.00154321 </v>
   <v>       0.00154321 </v>
   <v>       0.00154321 </v>
   <v>       0.00154321 </v>
   <v>       0.00154321 </v>
   <v>       0.00154321 </v>
   <v>       0.00154321 </v>
   <v>       0.00154321 </v>
   <v>       0.00154321 </v>
   <v>       0.00154321 </v>
   <v>       0.00154321 </v>
   <v>       0.00154321 </v>
   <v>       0.00154321 </v>
   <v>       0.00154321 </v>
   <v>       0.00154321 </v>
   <v>       0.00154321 </v>
   <v>       0.00154321 </v>
   <v>       0.00154321 </v>
   <v>       0.00154321 </v>
   <v>       0.00154321 </v>
   <v>       0.00154321 </v>
   <v>       0.00154321 </v>
   <v>       0.00154321 </v>
   <v>       0.00154321 </v>
   <v>       0.00154321 </v>
   <v>       0.00154321 </v>
   <v>       0.00154321 </v>
   <v>       0.00154321 </v>
   <v>       0.00154321 </v>
   <v>       0.00154321 </v>
   <v>       0.00154321 </v>
   <v>       0.00154321 </v>
   <v>       0.00154321 </v>
   <v>       0.00154321 </v>
   <v>       0.00154321 </v>
   <v>       0.00154321 </v>
   <v>       0.00154321 </v>
   <v>       0.00154321 </v>
   <v>       0.00154321 </v>
   <v>       0.00154321 </v>
   <v>       0.00154321 </v>
   <v>       0.00154321 </v>
   <v>       0.00154321 </v>
   <v>       0.00154321 </v>
   <v>       0.00154321 </v>
   <v>       0.00154321 </v>
   <v>       0.00154321 </v>
   <v>       0.00154321 </v>
   <v>       0.00154321 </v>
   <v>       0.00154321 </v>
   <v>       0.00154321 </v>
   <v>       0.00154321 </v>
   <v>       0.00154321 </v>
   <v>       0.00154321 </v>
   <v>       0.00154321 </v>
   <v>       0.00154321 </v>
   <v>       0.00154321 </v>
   <v>       0.00154321 </v>
   <v>       0.00154321 </v>
   <v>       0.00154321 </v>
   <v>       0.00077160 </v>
   <v>       0.00154321 </v>
   <v>       0.00154321 </v>
   <v>       0.00154321 </v>
   <v>       0.00154321 </v>
   <v>       0.00154321 </v>
   <v>       0.00154321 </v>
   <v>       0.00154321 </v>
   <v>       0.00154321 </v>
   <v>       0.00154321 </v>
   <v>       0.00154321 </v>
   <v>       0.00154321 </v>
   <v>       0.00154321 </v>
   <v>       0.00154321 </v>
   <v>       0.00154321 </v>
   <v>       0.00154321 </v>
   <v>       0.00154321 </v>
   <v>       0.00154321 </v>
   <v>       0.00077160 </v>
  </varray>
 </kpoints>
 <parameters>
  <separator name="general" >
   <i type="string" name="SYSTEM">BC3</i>
   <i type="logical" name="LCOMPAT"> F  </i>
  </separator>
  <separator name="electronic" >
   <i type="string" name="PREC">accura</i>
   <i name="ENMAX">    450.00000000</i>
   <i name="ENAUG">    644.87300000</i>
   <i name="EDIFF">      0.00000100</i>
   <i type="int" name="IALGO">    38</i>
   <i type="int" name="IWAVPR">    11</i>
   <i type="int" name="NBANDS">    32</i>
   <i name="NELECT">     30.00000000</i>
   <i type="int" name="TURBO">     0</i>
   <i type="int" name="IRESTART">     0</i>
   <i type="int" name="NREBOOT">     0</i>
   <i type="int" name="NMIN">     0</i>
   <i name="EREF">      0.00000000</i>
   <separator name="electronic smearing" >
    <i type="int" name="ISMEAR">     0</i>
    <i name="SIGMA">      0.10000000</i>
    <i name="KSPACING">      0.50000000</i>
    <i type="logical" name="KGAMMA"> T  </i>
   </separator>
   <separator name="electronic projectors" >
    <i type="logical" name="LREAL"> F  </i>
    <v name="ROPT">      0.00000000      0.00000000</v>
    <i type="int" name="LMAXPAW">  -100</i>
    <i type="int" name="LMAXMIX">     2</i>
    <i type="logical" name="NLSPLINE"> F  </i>
   </separator>
   <separator name="electronic startup" >
    <i type="int" name="ISTART">     0</i>
    <i type="int" name="ICHARG">     2</i>
    <i type="int" name="INIWAV">     1</i>
   </separator>
   <separator name="electronic spin" >
    <i type="int" name="ISPIN">     1</i>
    <i type="logical" name="LNONCOLLINEAR"> F  </i>
    <v name="MAGMOM">      1.00000000      1.00000000      1.00000000      1.00000000      1.00000000      1.00000000      1.00000000      1.00000000</v>
    <i name="NUPDOWN">     -1.00000000</i>
    <i type="logical" name="LSORBIT"> F  </i>
    <v name="SAXIS">      0.00000000      0.00000000      1.00000000</v>
    <i type="logical" name="LSPIRAL"> F  </i>
    <v name="QSPIRAL">      0.00000000      0.00000000      0.00000000</v>
    <i type="logical" name="LZEROZ"> F  </i>
   </separator>
   <separator name="electronic exchange-correlation" >
    <i type="logical" name="LASPH"> F  </i>
    <i type="logical" name="LMETAGGA"> F  </i>
   </separator>
   <separator name="electronic convergence" >
    <i type="int" name="NELM">    60</i>
    <i type="int" name="NELMDL">    -5</i>
    <i type="int" name="NELMIN">     2</i>
    <i name="ENINI">    450.00000000</i>
    <separator name="electronic convergence detail" >
     <i type="logical" name="LDIAG"> T  </i>
     <i type="logical" name="LSUBROT"> F  </i>
     <i name="WEIMIN">      0.00100000</i>
     <i name="EBREAK">      0.00000001</i>
     <i name="DEPER">      0.30000000</i>
     <i type="int" name="NRMM">     4</i>
     <i name="TIME">      0.40000000</i>
    </separator>
   </separator>
   <separator name="electronic mixer" >
    <i name="AMIX">      0.40000000</i>
    <i name="BMIX">      1.00000000</i>
    <i name="AMIN">      0.10000000</i>
    <i name="AMIX_MAG">      1.60000000</i>
    <i name="BMIX_MAG">      1.00000000</i>
    <separator name="electronic mixer details" >
     <i type="int" name="IMIX">     4</i>
     <i type="logical" name="MIXFIRST"> F  </i>
     <i type="int" name="MAXMIX">   -45</i>
     <i name="WC">    100.00000000</i>
     <i type="int" name="INIMIX">     1</i>
     <i type="int" name="MIXPRE">     1</i>
     <i type="int" name="MREMOVE">     5</i>
    </separator>
   </separator>
   <separator name="electronic dipolcorrection" >
    <i type="logical" name="LDIPOL"> F  </i>
    <i type="logical" name="LMONO"> F  </i>
    <i type="int" name="IDIPOL">     0</i>
    <i name="EPSILON">      1.00000000</i>
    <v name="DIPOL">   -100.00000000   -100.00000000   -100.00000000</v>
    <i name="EFIELD">      0.00000000</i>
   </separator>
  </separator>
  <separator name="grids" >
   <i type="int" name="NGX">    36</i>
   <i type="int" name="NGY">    36</i>
   <i type="int" name="NGZ">   108</i>
   <i type="int" name="NGXF">    72</i>
   <i type="int" name="NGYF">    72</i>
   <i type="int" name="NGZF">   216</i>
   <i type="logical" name="ADDGRID"> F  </i>
  </separator>
  <separator name="ionic" >
   <i type="int" name="NSW">   100</i>
   <i type="int" name="IBRION">     2</i>
   <i type="int" name="MDALGO">     0</i>
   <i type="int" name="ISIF">     2</i>
   <i name="PSTRESS">      0.00000000</i>
   <i name="EDIFFG">     -0.01000000</i>
   <i type="int" name="NFREE">     1</i>
   <i name="POTIM">      0.50000000</i>
   <i name="SMASS">     -3.00000000</i>
   <i name="SCALEE">      1.00000000</i>
  </separator>
  <separator name="ionic md" >
   <i name="TEBEG">      0.00010000</i>
   <i name="TEEND">      0.00010000</i>
   <i type="int" name="NBLOCK">     1</i>
   <i type="int" name="KBLOCK">   100</i>
   <i type="int" name="NPACO">   256</i>
   <i name="APACO">     16.00000000</i>
  </separator>
  <separator name="symmetry" >
   <i type="int" name="ISYM">     2</i>
   <i name="SYMPREC">      0.00001000</i>
  </separator>
  <separator name="dos" >
   <i type="int" name="LORBIT">     0</i>
   <v name="RWIGS">     -1.00000000     -1.00000000</v>
   <i type="int" name="NEDOS">   301</i>
   <i name="EMIN">     10.00000000</i>
   <i name="EMAX">    -10.00000000</i>
   <i name="EFERMI">      0.00000000</i>
  </separator>
  <separator name="writing" >
   <i type="int" name="NWRITE">     2</i>
   <i type="logical" name="LWAVE"> F  </i>
   <i type="logical" name="LDOWNSAMPLE"> F  </i>
   <i type="logical" name="LCHARG"> F  </i>
   <i type="logical" name="LPARD"> F  </i>
   <i type="logical" name="LVTOT"> F  </i>
   <i type="logical" name="LVHAR"> F  </i>
   <i type="logical" name="LELF"> F  </i>
   <i type="logical" name="LOPTICS"> F  </i>
   <v name="STM">      0.00000000      0.00000000      0.00000000      0.00000000      0.00000000      0.00000000      0.00000000</v>
  </separator>
  <separator name="performance" >
   <i type="int" name="NPAR">    16</i>
   <i type="int" name="NSIM">     4</i>
   <i type="int" name="NBLK">    -1</i>
   <i type="logical" name="LPLANE"> T  </i>
   <i type="logical" name="LSCALAPACK"> T  </i>
   <i type="logical" name="LSCAAWARE"> F  </i>
   <i type="logical" name="LSCALU"> F  </i>
   <i type="logical" name="LASYNC"> F  </i>
   <i type="logical" name="LORBITALREAL"> F  </i>
  </separator>
  <separator name="miscellaneous" >
   <i type="int" name="IDIOT">     3</i>
   <i type="int" name="ISPECIAL">     0</i>
   <i type="logical" name="LMUSIC"> F  </i>
   <v name="POMASS">     10.81100000     12.01100000</v>
   <v name="DARWINR">      0.00000000      0.00000000</v>
   <v name="DARWINV">      1.00000000      1.00000000</v>
   <i type="logical" name="LCORR"> T  </i>
  </separator>
  <i type="logical" name="GGA_COMPAT"> T  </i>
  <i type="logical" name="LBERRY"> F  </i>
  <i type="int" name="ICORELEVEL">     0</i>
  <i type="logical" name="LDAU"> F  </i>
  <i type="int" name="I_CONSTRAINED_M">     0</i>
  <separator name="electronic exchange-correlation" >
   <i type="string" name="GGA">PE</i>
   <i type="int" name="VOSKOWN">     0</i>
   <i type="logical" name="LHFCALC"> F  </i>
   <i type="string" name="PRECFOCK"></i>
   <i type="logical" name="LSYMGRAD"> F  </i>
   <i type="logical" name="LHFONE"> F  </i>
   <i type="logical" name="LRHFCALC"> F  </i>
   <i type="logical" name="LTHOMAS"> F  </i>
   <i type="logical" name="LMODELHF"> F  </i>
   <i name="ENCUT4O">     -1.00000000</i>
   <i type="int" name="EXXOEP">     0</i>
   <i type="int" name="FOURORBIT">     0</i>
   <i name="AEXX">      0.00000000</i>
   <i name="HFALPHA">      0.00000000</i>
   <i name="MCALPHA">      0.00000000</i>
   <i name="ALDAX">      1.00000000</i>
   <i name="AGGAX">      1.00000000</i>
   <i name="ALDAC">      1.00000000</i>
   <i name="AGGAC">      1.00000000</i>
   <i type="int" name="NKREDX">     1</i>
   <i type="int" name="NKREDY">     1</i>
   <i type="int" name="NKREDZ">     1</i>
   <i type="logical" name="SHIFTRED"> F  </i>
   <i type="logical" name="ODDONLY"> F  </i>
   <i type="logical" name="EVENONLY"> F  </i>
   <i type="int" name="LMAXFOCK">     0</i>
   <i type="int" name="NMAXFOCKAE">     0</i>
   <i type="logical" name="LFOCKAEDFT"> F  </i>
   <i name="HFSCREEN">      0.00000000</i>
   <i name="HFSCREENC">      0.00000000</i>
   <i type="int" name="NBANDSGWLOW">     0</i>
  </separator>
  <separator name="vdW DFT" >
   <i type="logical" name="LUSE_VDW"> F  </i>
   <i name="Zab_VDW">     -0.84910000</i>
   <i name="PARAM1">      0.12340000</i>
   <i name="PARAM2">      1.00000000</i>
   <i name="PARAM3">      0.00000000</i>
  </separator>
  <separator name="model GW" >
   <i type="int" name="MODEL_GW">     0</i>
   <i name="MODEL_EPS0">     26.03131984</i>
   <i name="MODEL_ALPHA">      1.00000000</i>
  </separator>
  <separator name="linear response parameters" >
   <i type="logical" name="LEPSILON"> F  </i>
   <i type="logical" name="LRPA"> F  </i>
   <i type="logical" name="LNABLA"> F  </i>
   <i type="logical" name="LVEL"> F  </i>
   <i type="int" name="KINTER">     0</i>
   <i name="CSHIFT">      0.10000000</i>
   <i name="OMEGAMAX">     -1.00000000</i>
   <i name="DEG_THRESHOLD">      0.00200000</i>
   <i name="RTIME">     -0.10000000</i>
   <i name="WPLASMAI">      0.00000000</i>
   <v name="DFIELD">      0.00000000      0.00000000      0.00000000</v>
   <v name="WPLASMA">      0.00000000      0.00000000      0.00000000      0.00000000      0.00000000      0.00000000      0.00000000      0.00000000      0.00000000</v>
  </separator>
  <separator name="orbital magnetization" >
   <i type="logical" name="NUCIND"> F  </i>
   <v name="MAGPOS">      0.00000000      0.00000000      0.00000000</v>
   <i type="logical" name="LNICSALL"> T  </i>
   <i type="logical" name="ORBITALMAG"> F  </i>
   <i type="logical" name="LMAGBLOCH"> F  </i>
   <i type="logical" name="LCHIMAG"> F  </i>
   <i type="logical" name="LGAUGE"> T  </i>
   <i type="int" name="MAGATOM">     0</i>
   <v name="MAGDIPOL">      0.00000000      0.00000000      0.00000000</v>
   <v name="AVECCONST">      0.00000000      0.00000000      0.00000000</v>
  </separator>
  <separator name="response functions" >
   <i type="logical" name="LADDER"> F  </i>
   <i type="logical" name="LRPAFORCE"> F  </i>
   <i type="logical" name="LFXC"> F  </i>
   <i type="logical" name="LHARTREE"> T  </i>
   <i type="int" name="IBSE">     0</i>
   <v type="int" name="KPOINT">    -1     0     0     0</v>
   <i type="logical" name="LTCTE"> F  </i>
   <i type="logical" name="LTETE"> F  </i>
   <i type="logical" name="LTRIPLET"> F  </i>
   <i type="logical" name="LFXCEPS"> F  </i>
   <i type="logical" name="LFXHEG"> F  </i>
   <i type="int" name="NATURALO">     2</i>
   <i type="logical" name="L2ORDER"> F  </i>
   <i type="logical" name="LMP2LT"> F  </i>
   <i type="logical" name="LUSEW"> F  </i>
   <i name="ENCUTGW">     -2.00000000</i>
   <i name="ENCUTGWSOFT">     -2.00000000</i>
   <i name="ENCUTLF">     -1.00000000</i>
   <i type="int" name="LMAXMP2">    -1</i>
   <i name="SCISSOR">      0.00000000</i>
   <i type="int" name="NOMEGA">     0</i>
   <i type="int" name="NOMEGAR">     0</i>
   <i type="int" name="NBANDSGW">    -1</i>
   <i type="int" name="NBANDSO">    -1</i>
   <i type="int" name="NBANDSV">    -1</i>
   <i type="int" name="NELM">     1</i>
   <i type="int" name="NELMHF">     1</i>
   <i type="int" name="DIM">     3</i>
   <i type="int" name="ANTIRES">     0</i>
   <i name="OMEGAMAX">    -30.00000000</i>
   <i name="OMEGAMIN">    -30.00000000</i>
   <i name="OMEGATL">   -200.00000000</i>
   <i type="int" name="OMEGAGRID">   140</i>
   <i name="CSHIFT">     -0.10000000</i>
   <i type="logical" name="SELFENERGY"> F  </i>
   <i type="logical" name="LSPECTRAL"> F  </i>
   <i type="logical" name="LSPECTRALGW"> F  </i>
   <i type="logical" name="LSINGLES"> F  </i>
   <i type="logical" name="LFERMIGW"> F  </i>
   <i type="logical" name="ODDONLYGW"> F  </i>
   <i type="logical" name="EVENONLYGW"> F  </i>
   <i type="int" name="NKREDLFX">     1</i>
   <i type="int" name="NKREDLFY">     1</i>
   <i type="int" name="NKREDLFZ">     1</i>
   <i type="int" name="MAXMEM">  2800</i>
   <i type="int" name="TELESCOPE">     0</i>
   <i type="int" name="TAUPAR">     1</i>
   <i type="int" name="OMEGAPAR">    -1</i>
   <i name="LAMBDA">      1.00000000</i>
  </separator>
  <separator name="External order field" >
   <i name="OFIELD_KAPPA">      0.00000000</i>
   <v name="OFIELD_K">      0.00000000      0.00000000      0.00000000</v>
   <i name="OFIELD_Q6_NEAR">      0.00000000</i>
   <i name="OFIELD_Q6_FAR">      0.00000000</i>
   <i name="OFIELD_A">      0.00000000</i>
  </separator>
 </parameters>
 <atominfo>
  <atoms>       8 </atoms>
  <types>       2 </types>
  <array name="atoms" >
   <dimension dim="1">ion</dimension>
   <field type="string">element</field>
   <field type="int">atomtype</field>
   <set>
    <rc><c>B </c><c>   1</c></rc>
    <rc><c>B </c><c>   1</c></rc>
    <rc><c>C </c><c>   2</c></rc>
    <rc><c>C </c><c>   2</c></rc>
    <rc><c>C </c><c>   2</c></rc>
    <rc><c>C </c><c>   2</c></rc>
    <rc><c>C </c><c>   2</c></rc>
    <rc><c>C </c><c>   2</c></rc>
   </set>
  </array>
  <array name="atomtypes" >
   <dimension dim="1">type</dimension>
   <field type="int">atomspertype</field>
   <field type="string">element</field>
   <field>mass</field>
   <field>valence</field>
   <field type="string">pseudopotential</field>
   <set>
    <rc><c>   2</c><c>B </c><c>     10.81100000</c><c>      3.00000000</c><c>  PAW_PBE B 06Sep2000                   </c></rc>
    <rc><c>   6</c><c>C </c><c>     12.01100000</c><c>      4.00000000</c><c>  PAW_PBE C 08Apr2002                   </c></rc>
   </set>
  </array>
 </atominfo>
 <structure name="initialpos" >
  <crystal>
   <varray name="basis" >
    <v>       4.47648500       2.58450000       0.00000000 </v>
    <v>      -4.47648500       2.58450000       0.00000000 </v>
    <v>       0.00000000       0.00000000      15.00000000 </v>
   </varray>
   <i name="volume">    347.08426447 </i>
   <varray name="rec_basis" >
    <v>       0.11169478       0.19346102       0.00000000 </v>
    <v>      -0.11169478       0.19346102       0.00000000 </v>
    <v>       0.00000000       0.00000000       0.06666667 </v>
   </varray>
  </crystal>
  <varray name="positions" >
   <v>       0.33833034       0.66916432       0.25000000 </v>
   <v>       0.67165522       0.33584146       0.25000000 </v>
   <v>       0.16373946       0.31999962       0.25000000 </v>
   <v>       0.32250218       0.16126397       0.25000000 </v>
   <v>       0.16376430       0.84376384       0.25000000 </v>
   <v>       0.84623863       0.16123684       0.25000000 </v>
   <v>       0.68749850       0.84373000       0.25000000 </v>
   <v>       0.84626736       0.68499594       0.25000000 </v>
  </varray>
 </structure>
 <calculation>
  <scstep>
   <time name="dav">   45.78   45.84</time>
   <time name="total">   45.85   45.91</time>
   <energy>
    <i name="alphaZ">     14.61461864 </i>
    <i name="ewald">   2603.47533640 </i>
    <i name="hartreedc">  -3361.43975615 </i>
    <i name="XCdc">     91.18491800 </i>
    <i name="pawpsdc">    738.13200929 </i>
    <i name="pawaedc">   -739.83780425 </i>
    <i name="eentropy">     -0.01576898 </i>
    <i name="bandstr">   -190.05785174 </i>
    <i name="atom">   1025.20389953 </i>
    <i name="e_fr_energy">    181.25960074 </i>
    <i name="e_wo_entrp">    181.27536972 </i>
    <i name="e_0_energy">    181.26748523 </i>
   </energy>
  </scstep>
  <scstep>
   <time name="dav">   68.14   68.22</time>
   <time name="total">   68.14   68.23</time>
   <energy>
    <i name="e_fr_energy">    -50.43391661 </i>
    <i name="e_wo_entrp">    -50.43371310 </i>
    <i name="e_0_energy">    -50.43381486 </i>
   </energy>
  </scstep>
  <scstep>
   <time name="dav">   59.44   59.50</time>
   <time name="total">   59.44   59.50</time>
   <energy>
    <i name="e_fr_energy">    -72.93073711 </i>
    <i name="e_wo_entrp">    -72.93073711 </i>
    <i name="e_0_energy">    -72.93073711 </i>
   </energy>
  </scstep>
  <scstep>
   <time name="dav">   59.62   59.69</time>
   <time name="total">   59.62   59.69</time>
   <energy>
    <i name="e_fr_energy">    -73.46934918 </i>
    <i name="e_wo_entrp">    -73.46934918 </i>
    <i name="e_0_energy">    -73.46934918 </i>
   </energy>
  </scstep>
  <scstep>
   <time name="dav">   55.80   55.86</time>
   <time name="total">   57.71   57.78</time>
   <energy>
    <i name="e_fr_energy">    -73.48146376 </i>
    <i name="e_wo_entrp">    -73.48146376 </i>
    <i name="e_0_energy">    -73.48146376 </i>
   </energy>
  </scstep>
  <scstep>
   <time name="dav">   60.41   60.47</time>
   <time name="total">   62.39   62.44</time>
   <energy>
    <i name="e_fr_energy">    -68.97528185 </i>
    <i name="e_wo_entrp">    -68.97528185 </i>
    <i name="e_0_energy">    -68.97528185 </i>
   </energy>
[...]
       <r>  -19.3122    1.0000 </r>
       <r>  -17.5937    1.0000 </r>
       <r>  -16.5026    1.0000 </r>
       <r>  -14.1161    1.0000 </r>
       <r>  -11.9291    1.0000 </r>
       <r>  -10.0768    1.0000 </r>
       <r>   -9.7919    1.0000 </r>
       <r>   -9.0418    1.0000 </r>
       <r>   -7.7234    1.0000 </r>
       <r>   -7.6092    1.0000 </r>
       <r>   -7.1232    1.0000 </r>
       <r>   -6.5984    1.0000 </r>
       <r>   -6.1403    1.0000 </r>
       <r>   -5.0476    1.0000 </r>
       <r>   -4.8538    1.0000 </r>
       <r>   -3.0444    0.0000 </r>
       <r>    0.4993    0.0000 </r>
       <r>    1.7860    0.0000 </r>
       <r>    2.4990    0.0000 </r>
       <r>    2.9046    0.0000 </r>
       <r>    3.3742    0.0000 </r>
       <r>    3.7621    0.0000 </r>
       <r>    3.9202    0.0000 </r>
       <r>    4.3325    0.0000 </r>
       <r>    4.8461    0.0000 </r>
       <r>    5.5008    0.0000 </r>
       <r>    5.5333    0.0000 </r>
       <r>    5.8834    0.0000 </r>
       <r>    5.9001    0.0000 </r>
       <r>    6.3631    0.0000 </r>
       <r>    6.4285    0.0000 </r>
       <r>    6.5457    0.0000 </r>
      </set>
      <set comment="kpoint 649">
       <r>  -19.3108    1.0000 </r>
       <r>  -17.6102    1.0000 </r>
       <r>  -16.4682    1.0000 </r>
       <r>  -14.1689    1.0000 </r>
       <r>  -11.8741    1.0000 </r>
       <r>  -10.0259    1.0000 </r>
       <r>   -9.7958    1.0000 </r>
       <r>   -9.1478    1.0000 </r>
       <r>   -7.6189    1.0000 </r>
       <r>   -7.6000    1.0000 </r>
       <r>   -7.2433    1.0000 </r>
       <r>   -6.6305    1.0000 </r>
       <r>   -6.1053    1.0000 </r>
       <r>   -5.0211    1.0000 </r>
       <r>   -4.7819    1.0000 </r>
       <r>   -3.1278    0.0000 </r>
       <r>    0.6510    0.0000 </r>
       <r>    1.6350    0.0000 </r>
       <r>    2.5833    0.0000 </r>
       <r>    2.7862    0.0000 </r>
       <r>    3.4519    0.0000 </r>
       <r>    3.6532    0.0000 </r>
       <r>    4.0060    0.0000 </r>
       <r>    4.2121    0.0000 </r>
       <r>    4.9992    0.0000 </r>
       <r>    5.3870    0.0000 </r>
       <r>    5.5640    0.0000 </r>
       <r>    5.9386    0.0000 </r>
       <r>    6.0918    0.0000 </r>
       <r>    6.2839    0.0000 </r>
       <r>    6.4414    0.0000 </r>
       <r>    6.6519    0.0000 </r>
      </set>
      <set comment="kpoint 650">
       <r>  -19.3104    1.0000 </r>
       <r>  -17.6157    1.0000 </r>
       <r>  -16.4563    1.0000 </r>
       <r>  -14.1870    1.0000 </r>
       <r>  -11.8553    1.0000 </r>
       <r>  -10.0073    1.0000 </r>
       <r>   -9.7934    1.0000 </r>
       <r>   -9.1894    1.0000 </r>
       <r>   -7.5967    1.0000 </r>
       <r>   -7.5606    1.0000 </r>
       <r>   -7.3067    1.0000 </r>
       <r>   -6.6415    1.0000 </r>
       <r>   -6.0932    1.0000 </r>
       <r>   -5.0121    1.0000 </r>
       <r>   -4.7561    1.0000 </r>
       <r>   -3.1576    0.0000 </r>
       <r>    0.7139    0.0000 </r>
       <r>    1.5724    0.0000 </r>
       <r>    2.6772    0.0000 </r>
       <r>    2.6810    0.0000 </r>
       <r>    3.5182    0.0000 </r>
       <r>    3.5763    0.0000 </r>
       <r>    4.1013    0.0000 </r>
       <r>    4.1052    0.0000 </r>
       <r>    5.0834    0.0000 </r>
       <r>    5.3150    0.0000 </r>
       <r>    5.5630    0.0000 </r>
       <r>    5.9663    0.0000 </r>
       <r>    6.2466    0.0000 </r>
       <r>    6.3008    0.0000 </r>
       <r>    6.4218    0.0000 </r>
       <r>    6.4454    0.0000 </r>
      </set>
     </set>
    </set>
   </array>
  </eigenvalues>
  <separator name="orbital magnetization" >
   <v name="MAGDIPOLOUT">      0.00000000      0.00000000      0.00000000</v>
  </separator>
  <dos>
   <i name="efermi">     -3.47643926 </i>
   <total>
    <array>
     <dimension dim="1">gridpoints</dimension>
     <dimension dim="2">spin</dimension>
     <field>energy</field>
     <field>total</field>
     <field>integrated</field>
     <set>
      <set comment="spin 1">
       <r>   -21.2855     0.0000     0.0000 </r>
       <r>   -21.1828     0.0000     0.0000 </r>
       <r>   -21.0801     0.0000     0.0000 </r>
       <r>   -20.9774     0.0000     0.0000 </r>
       <r>   -20.8747     0.0000     0.0000 </r>
       <r>   -20.7720     0.0000     0.0000 </r>
       <r>   -20.6692     0.0000     0.0000 </r>
       <r>   -20.5665     0.0000     0.0000 </r>
       <r>   -20.4638     0.0000     0.0000 </r>
       <r>   -20.3611     0.0000     0.0000 </r>
       <r>   -20.2584     0.0000     0.0000 </r>
       <r>   -20.1557     0.0000     0.0000 </r>
       <r>   -20.0530     0.0037     0.0004 </r>
       <r>   -19.9502     0.1199     0.0127 </r>
       <r>   -19.8475     0.8107     0.0960 </r>
       <r>   -19.7448     1.7138     0.2720 </r>
       <r>   -19.6421     2.0797     0.4856 </r>
       <r>   -19.5394     2.3428     0.7263 </r>
       <r>   -19.4367     2.8791     1.0220 </r>
       <r>   -19.3339     3.9944     1.4323 </r>
       <r>   -19.2312     3.9246     1.8354 </r>
       <r>   -19.1285     1.4560     1.9849 </r>
       <r>   -19.0258     0.1436     1.9997 </r>
       <r>   -18.9231     0.0029     2.0000 </r>
       <r>   -18.8204     0.0000     2.0000 </r>
       <r>   -18.7177     0.0000     2.0000 </r>
       <r>   -18.6149     0.0000     2.0000 </r>
       <r>   -18.5122     0.0000     2.0000 </r>
       <r>   -18.4095     0.0000     2.0000 </r>
       <r>   -18.3068     0.0000     2.0000 </r>
       <r>   -18.2041     0.0000     2.0000 </r>
       <r>   -18.1014     0.0000     2.0000 </r>
       <r>   -17.9986     0.0000     2.0000 </r>
       <r>   -17.8959     0.0000     2.0000 </r>
       <r>   -17.7932     0.0036     2.0004 </r>
       <r>   -17.6905     0.1359     2.0143 </r>
       <r>   -17.5878     1.0583     2.1230 </r>
       <r>   -17.4851     2.5276     2.3827 </r>
       <r>   -17.3824     3.2262     2.7140 </r>
       <r>   -17.2796     2.7295     2.9944 </r>
       <r>   -17.1769     1.9704     3.1968 </r>
       <r>   -17.0742     1.8459     3.3864 </r>
       <r>   -16.9715     1.9117     3.5828 </r>
       <r>   -16.8688     2.0100     3.7892 </r>
       <r>   -16.7661     2.1477     4.0098 </r>
       <r>   -16.6633     2.3615     4.2524 </r>
       <r>   -16.5606     2.7746     4.5374 </r>
       <r>   -16.4579     3.4450     4.8912 </r>
       <r>   -16.3552     3.3955     5.2400 </r>
       <r>   -16.2525     2.5971     5.5068 </r>
       <r>   -16.1498     2.0550     5.7178 </r>
       <r>   -16.0471     1.6436     5.8867 </r>
       <r>   -15.9443     0.9089     5.9800 </r>
       <r>   -15.8416     0.1858     5.9991 </r>
       <r>   -15.7389     0.0088     6.0000 </r>
       <r>   -15.6362     0.0001     6.0000 </r>
       <r>   -15.5335     0.0000     6.0000 </r>
       <r>   -15.4308     0.0000     6.0000 </r>
       <r>   -15.3281     0.0000     6.0000 </r>
       <r>   -15.2253     0.0000     6.0000 </r>
       <r>   -15.1226     0.0000     6.0000 </r>
       <r>   -15.0199     0.0000     6.0000 </r>
       <r>   -14.9172     0.0000     6.0000 </r>
       <r>   -14.8145     0.0000     6.0000 </r>
       <r>   -14.7118     0.0000     6.0000 </r>
       <r>   -14.6090     0.0000     6.0000 </r>
       <r>   -14.5063     0.0000     6.0000 </r>
       <r>   -14.4036     0.0004     6.0000 </r>
       <r>   -14.3009     0.0301     6.0031 </r>
       <r>   -14.1982     0.4128     6.0455 </r>
       <r>   -14.0955     1.4271     6.1921 </r>
       <r>   -13.9928     2.1028     6.4081 </r>
       <r>   -13.8900     2.4318     6.6579 </r>
       <r>   -13.7873     2.9961     6.9656 </r>
       <r>   -13.6846     3.5308     7.3283 </r>
       <r>   -13.5819     2.7527     7.6111 </r>
       <r>   -13.4792     1.8437     7.8004 </r>
       <r>   -13.3765     1.5554     7.9602 </r>
       <r>   -13.2737     1.4487     8.1090 </r>
       <r>   -13.1710     1.3831     8.2511 </r>
       <r>   -13.0683     1.3267     8.3873 </r>
       <r>   -12.9656     1.2806     8.5189 </r>
       <r>   -12.8629     1.2692     8.6493 </r>
       <r>   -12.7602     1.4428     8.7974 </r>
       <r>   -12.6575     1.8538     8.9879 </r>
       <r>   -12.5547     1.9993     9.1932 </r>
       <r>   -12.4520     1.8846     9.3868 </r>
       <r>   -12.3493     1.7403     9.5655 </r>
       <r>   -12.2466     1.6132     9.7312 </r>
       <r>   -12.1439     1.5121     9.8866 </r>
       <r>   -12.0412     1.4214    10.0326 </r>
       <r>   -11.9384     1.3158    10.1677 </r>
       <r>   -11.8357     1.0105    10.2715 </r>
       <r>   -11.7330     0.5789    10.3310 </r>
       <r>   -11.6303     0.4651    10.3787 </r>
       <r>   -11.5276     0.4414    10.4241 </r>
       <r>   -11.4249     0.4898    10.4744 </r>
       <r>   -11.3222     0.4782    10.5235 </r>
       <r>   -11.2194     0.6474    10.5900 </r>
       <r>   -11.1167     0.7548    10.6675 </r>
       <r>   -11.0140     0.8981    10.7598 </r>
       <r>   -10.9113     0.9493    10.8573 </r>
       <r>   -10.8086     1.3444    10.9954 </r>
       <r>   -10.7059     1.4856    11.1480 </r>
       <r>   -10.6032     1.7029    11.3229 </r>
       <r>   -10.5004     1.7204    11.4996 </r>
       <r>   -10.3977     1.9856    11.7036 </r>
       <r>   -10.2950     2.2134    11.9309 </r>
       <r>   -10.1923     2.2667    12.1637 </r>
       <r>   -10.0896     1.6842    12.3367 </r>
       <r>    -9.9869     1.3024    12.4705 </r>
       <r>    -9.8841     1.6847    12.6435 </r>
       <r>    -9.7814     2.6148    12.9121 </r>
       <r>    -9.6787     2.6750    13.1869 </r>
       <r>    -9.5760     2.2655    13.4196 </r>
       <r>    -9.4733     2.0215    13.6272 </r>
       <r>    -9.3706     1.8980    13.8222 </r>
       <r>    -9.2679     1.8621    14.0134 </r>
       <r>    -9.1651     1.9694    14.2157 </r>
       <r>    -9.0624     2.1824    14.4399 </r>
       <r>    -8.9597     2.4348    14.6900 </r>
       <r>    -8.8570     2.6306    14.9602 </r>
       <r>    -8.7543     2.4766    15.2146 </r>
       <r>    -8.6516     2.6519    15.4869 </r>
       <r>    -8.5488     3.0030    15.7954 </r>
       <r>    -8.4461     2.8143    16.0845 </r>
       <r>    -8.3434     2.3316    16.3240 </r>
       <r>    -8.2407     2.0605    16.5356 </r>
       <r>    -8.1380     1.9975    16.7408 </r>
       <r>    -8.0353     2.4707    16.9946 </r>
       <r>    -7.9326     3.1570    17.3188 </r>
       <r>    -7.8298     4.0010    17.7298 </r>
       <r>    -7.7271     4.3979    18.1815 </r>
       <r>    -7.6244     4.3502    18.6284 </r>
       <r>    -7.5217     3.8895    19.0279 </r>
       <r>    -7.4190     2.5895    19.2938 </r>
       <r>    -7.3163     1.7352    19.4721 </r>
       <r>    -7.2135     2.0009    19.6776 </r>
       <r>    -7.1108     2.0946    19.8927 </r>
       <r>    -7.0081     1.7467    20.0721 </r>
       <r>    -6.9054     1.6194    20.2385 </r>
       <r>    -6.8027     1.6280    20.4057 </r>
       <r>    -6.7000     1.8476    20.5955 </r>
       <r>    -6.5973     2.6938    20.8722 </r>
       <r>    -6.4945     4.2042    21.3040 </r>
       <r>    -6.3918     6.8035    22.0028 </r>
       <r>    -6.2891     7.9450    22.8189 </r>
       <r>    -6.1864     5.8048    23.4151 </r>
       <r>    -6.0837     3.9480    23.8207 </r>
       <r>    -5.9810     2.6949    24.0975 </r>
       <r>    -5.8783     2.3346    24.3373 </r>
       <r>    -5.7755     2.3612    24.5798 </r>
       <r>    -5.6728     2.4356    24.8300 </r>
       <r>    -5.5701     2.5287    25.0897 </r>
       <r>    -5.4674     2.6402    25.3609 </r>
       <r>    -5.3647     2.7920    25.6477 </r>
       <r>    -5.2620     2.9643    25.9522 </r>
       <r>    -5.1592     3.2599    26.2870 </r>
       <r>    -5.0565     3.7085    26.6679 </r>
       <r>    -4.9538     4.1783    27.0971 </r>
       <r>    -4.8511     4.3495    27.5438 </r>
       <r>    -4.7484     4.7288    28.0296 </r>
       <r>    -4.6457     4.6285    28.5050 </r>
       <r>    -4.5430     3.9469    28.9104 </r>
       <r>    -4.4402     2.8059    29.1986 </r>
       <r>    -4.3375     1.6083    29.3638 </r>
       <r>    -4.2348     1.2682    29.4940 </r>
       <r>    -4.1321     1.2070    29.6180 </r>
       <r>    -4.0294     1.1636    29.7375 </r>
       <r>    -3.9267     1.1170    29.8523 </r>
       <r>    -3.8239     0.9437    29.9492 </r>
       <r>    -3.7212     0.4329    29.9937 </r>
       <r>    -3.6185     0.0599    29.9998 </r>
       <r>    -3.5158     0.0017    30.0000 </r>
       <r>    -3.4131     0.0000    30.0000 </r>
       <r>    -3.3104     0.0050    30.0005 </r>
       <r>    -3.2077     0.1260    30.0135 </r>
       <r>    -3.1049     0.7007    30.0854 </r>
       <r>    -3.0022     1.3305    30.2221 </r>
       <r>    -2.8995     1.6034    30.3868 </r>
       <r>    -2.7968     1.8450    30.5763 </r>
       <r>    -2.6941     2.3012    30.8127 </r>
       <r>    -2.5914     2.7160    31.0916 </r>
       <r>    -2.4886     2.2370    31.3214 </r>
       <r>    -2.3859     1.6217    31.4880 </r>
       <r>    -2.2832     1.2406    31.6154 </r>
       <r>    -2.1805     1.0154    31.7197 </r>
       <r>    -2.0778     0.8304    31.8050 </r>
       <r>    -1.9751     0.6432    31.8711 </r>
       <r>    -1.8724     0.4437    31.9166 </r>
       <r>    -1.7696     0.2980    31.9473 </r>
       <r>    -1.6669     0.2293    31.9708 </r>
       <r>    -1.5642     0.1529    31.9865 </r>
       <r>    -1.4615     0.0925    31.9960 </r>
       <r>    -1.3588     0.0440    32.0005 </r>
       <r>    -1.2561     0.0499    32.0057 </r>
       <r>    -1.1534     0.1108    32.0170 </r>
       <r>    -1.0506     0.1719    32.0347 </r>
       <r>    -0.9479     0.2497    32.0603 </r>
       <r>    -0.8452     0.3213    32.0933 </r>
       <r>    -0.7425     0.4058    32.1350 </r>
       <r>    -0.6398     0.5040    32.1868 </r>
       <r>    -0.5371     0.6009    32.2485 </r>
       <r>    -0.4343     0.7604    32.3266 </r>
       <r>    -0.3316     0.9329    32.4225 </r>
       <r>    -0.2289     1.5823    32.5850 </r>
       <r>    -0.1262     2.7273    32.8651 </r>
       <r>    -0.0235     2.9713    33.1703 </r>
       <r>     0.0792     2.1538    33.3916 </r>
       <r>     0.1819     1.7126    33.5675 </r>
       <r>     0.2847     1.4532    33.7167 </r>
       <r>     0.3874     1.3748    33.8579 </r>
       <r>     0.4901     1.4353    34.0054 </r>
       <r>     0.5928     1.5213    34.1616 </r>
       <r>     0.6955     1.3585    34.3012 </r>
       <r>     0.7982     1.1328    34.4175 </r>
       <r>     0.9010     1.3846    34.5598 </r>
       <r>     1.0037     1.7655    34.7411 </r>
       <r>     1.1064     1.8842    34.9346 </r>
       <r>     1.2091     1.9380    35.1337 </r>
       <r>     1.3118     2.0098    35.3401 </r>
       <r>     1.4145     2.1139    35.5573 </r>
       <r>     1.5172     2.2698    35.7904 </r>
       <r>     1.6200     2.4408    36.0411 </r>
       <r>     1.7227     2.3505    36.2826 </r>
       <r>     1.8254     2.4286    36.5320 </r>
       <r>     1.9281     2.7586    36.8154 </r>
       <r>     2.0308     3.0169    37.1253 </r>
       <r>     2.1335     2.9990    37.4333 </r>
       <r>     2.2363     3.2030    37.7623 </r>
       <r>     2.3390     3.6434    38.1365 </r>
       <r>     2.4417     3.8645    38.5335 </r>
       <r>     2.5444     3.8900    38.9330 </r>
       <r>     2.6471     3.8332    39.3268 </r>
       <r>     2.7498     3.8870    39.7260 </r>
       <r>     2.8525     3.7897    40.1153 </r>
       <r>     2.9553     3.8631    40.5121 </r>
       <r>     3.0580     3.7862    40.9010 </r>
       <r>     3.1607     3.8224    41.2936 </r>
       <r>     3.2634     3.7876    41.6826 </r>
       <r>     3.3661     3.8093    42.0739 </r>
       <r>     3.4688     3.7839    42.4626 </r>
       <r>     3.5715     3.8096    42.8539 </r>
       <r>     3.6743     3.7473    43.2388 </r>
       <r>     3.7770     3.8391    43.6331 </r>
       <r>     3.8797     3.8617    44.0298 </r>
       <r>     3.9824     4.0742    44.4483 </r>
       <r>     4.0851     3.8884    44.8476 </r>
       <r>     4.1878     3.2659    45.1831 </r>
       <r>     4.2906     3.2873    45.5208 </r>
       <r>     4.3933     4.3190    45.9644 </r>
       <r>     4.4960     4.9508    46.4729 </r>
       <r>     4.5987     4.7445    46.9602 </r>
       <r>     4.7014     4.8267    47.4560 </r>
       <r>     4.8041     4.9819    47.9677 </r>
       <r>     4.9068     5.3992    48.5223 </r>
       <r>     5.0096     5.9961    49.1382 </r>
       <r>     5.1123     6.0104    49.7556 </r>
       <r>     5.2150     6.7119    50.4450 </r>
       <r>     5.3177     7.0168    51.1657 </r>
       <r>     5.4204     7.5682    51.9431 </r>
       <r>     5.5231     8.1337    52.7785 </r>
       <r>     5.6259     7.4415    53.5429 </r>
       <r>     5.7286     6.0759    54.1670 </r>
       <r>     5.8313     6.5229    54.8370 </r>
       <r>     5.9340     8.1615    55.6753 </r>
       <r>     6.0367     7.5981    56.4557 </r>
       <r>     6.1394     7.2759    57.2031 </r>
       <r>     6.2421     6.7607    57.8975 </r>
       <r>     6.3449     7.2882    58.6461 </r>
       <r>     6.4476     7.4812    59.4145 </r>
       <r>     6.5503     6.8895    60.1222 </r>
       <r>     6.6530     6.3288    60.7722 </r>
       <r>     6.7557     6.4834    61.4382 </r>
       <r>     6.8584     6.8730    62.1442 </r>
       <r>     6.9612     6.1937    62.7803 </r>
       <r>     7.0639     4.4107    63.2334 </r>
       <r>     7.1666     2.7980    63.5208 </r>
       <r>     7.2693     1.4314    63.6678 </r>
       <r>     7.3720     0.9306    63.7634 </r>
       <r>     7.4747     0.6491    63.8301 </r>
       <r>     7.5774     0.4397    63.8752 </r>
       <r>     7.6802     0.3428    63.9104 </r>
       <r>     7.7829     0.2671    63.9379 </r>
       <r>     7.8856     0.1967    63.9581 </r>
       <r>     7.9883     0.2255    63.9812 </r>
       <r>     8.0910     0.1398    63.9956 </r>
       <r>     8.1937     0.0377    63.9995 </r>
       <r>     8.2964     0.0049    64.0000 </r>
       <r>     8.3992     0.0002    64.0000 </r>
       <r>     8.5019     0.0000    64.0000 </r>
       <r>     8.6046     0.0000    64.0000 </r>
       <r>     8.7073     0.0000    64.0000 </r>
       <r>     8.8100     0.0000    64.0000 </r>
       <r>     8.9127     0.0000    64.0000 </r>
       <r>     9.0155     0.0000    64.0000 </r>
       <r>     9.1182     0.0000    64.0000 </r>
       <r>     9.2209     0.0000    64.0000 </r>
       <r>     9.3236     0.0000    64.0000 </r>
       <r>     9.4263     0.0000    64.0000 </r>
       <r>     9.5290     0.0000    64.0000 </r>
      </set>
     </set>
    </array>
   </total>
  </dos>
 </calculation>
 <structure name="finalpos" >
  <crystal>
   <varray name="basis" >
    <v>       4.47648500       2.58450000       0.00000000 </v>
    <v>      -4.47648500       2.58450000       0.00000000 </v>
    <v>       0.00000000       0.00000000      15.00000000 </v>
   </varray>
   <i name="volume">    347.08426447 </i>
   <varray name="rec_basis" >
    <v>       0.11169478       0.19346102       0.00000000 </v>
    <v>      -0.11169478       0.19346102       0.00000000 </v>
    <v>       0.00000000       0.00000000       0.06666667 </v>
   </varray>
  </crystal>
  <varray name="positions" >
   <v>       0.33833034       0.66916432       0.25000000 </v>
   <v>       0.67165522       0.33584146       0.25000000 </v>
   <v>       0.16373946       0.31999962       0.25000000 </v>
   <v>       0.32250218       0.16126397       0.25000000 </v>
   <v>       0.16376430       0.84376384       0.25000000 </v>
   <v>       0.84623863       0.16123684       0.25000000 </v>
   <v>       0.68749850       0.84373000       0.25000000 </v>
   <v>       0.84626736       0.68499594       0.25000000 </v>
  </varray>
 </structure>
</modeling>
