<?xml version="1.0" encoding="ISO-8859-1"?>
<modeling>
 <generator>
  <i name="program" type="string">vasp </i>
  <i name="version" type="string">6.3.2  </i>
  <i name="subversion" type="string">27Jun22 (build Dec 22 2022 13:13:19) complex                          parallel </i>
  <i name="platform" type="string">LinuxIFC </i>
  <i name="date" type="string">2023 08 21 </i>
  <i name="time" type="string">17:12:15 </i>
 </generator>
 <incar>
  <i type="string" name="SYSTEM">Lattice</i>
  <i type="int" name="ISTART">     0</i>
  <i type="string" name="PREC">Accurate</i>
  <i type="string" name="ALGO">Normal</i>
  <i type="int" name="ISPIN">     2</i>
  <i type="int" name="ICHARG">     2</i>
  <i type="int" name="NELM">    64</i>
  <i type="int" name="IBRION">     2</i>
  <i name="EDIFF">      0.00000100</i>
  <i name="EDIFFG">     -0.00100000</i>
  <i type="int" name="NSW">   128</i>
  <i type="int" name="ISIF">     2</i>
  <i name="ENCUT">    450.00000000</i>
  <i name="POTIM">      0.50000000</i>
  <i type="int" name="ISMEAR">     0</i>
  <i name="SIGMA">      0.10000000</i>
  <i type="logical" name="LWAVE"> F  </i>
  <i type="logical" name="LCHARG"> F  </i>
  <i type="string" name="GGA">PE</i>
  <i type="int" name="IVDW">    12</i>
 </incar>
 <primitive_cell>
  <structure name="primitive_cell" >
   <crystal>
    <varray name="basis" >
     <v>       4.27816549       2.47000000       0.00000000 </v>
     <v>      -4.27816549       2.47000000       0.00000000 </v>
     <v>       0.00000000       0.00000000      15.00000000 </v>
    </varray>
    <i name="volume">    317.01206316 </i>
    <varray name="rec_basis" >
     <v>       0.11687252       0.20242915       0.00000000 </v>
     <v>      -0.11687252       0.20242915       0.00000000 </v>
     <v>       0.00000000       0.00000000       0.06666667 </v>
    </varray>
   </crystal>
   <varray name="positions" >
    <v>       0.66888689       1.00000000       0.10000000 </v>
    <v>       0.33111211       1.00000000       0.10000000 </v>
    <v>       1.00000000       0.33111211       0.10000000 </v>
    <v>       1.00000000       0.66888689       0.10000000 </v>
    <v>       0.33111211       0.33111211       0.10000000 </v>
    <v>       0.66888689       0.66888689       0.10000000 </v>
    <v>       0.66666600       0.33333300       0.09922189 </v>
    <v>       0.33333300       0.66666600       0.10077811 </v>
    <v>       0.33333267       0.16666633       0.47060000 </v>
    <v>       0.49999967       0.99999933       0.47060000 </v>
    <v>       0.33333267       0.66666633       0.47060000 </v>
    <v>       0.49999967       0.49999933       0.47060000 </v>
    <v>       0.83333267       0.16666633       0.47060000 </v>
    <v>       0.99999967       0.99999933       0.47060000 </v>
    <v>       0.83333267       0.66666633       0.47060000 </v>
    <v>       0.99999967       0.49999933       0.47060000 </v>
   </varray>
  </structure>
  <varray name="primitive_index" >
   <v type="int" >        1 </v>
   <v type="int" >        2 </v>
   <v type="int" >        3 </v>
   <v type="int" >        4 </v>
   <v type="int" >        5 </v>
   <v type="int" >        6 </v>
   <v type="int" >        7 </v>
   <v type="int" >        8 </v>
   <v type="int" >        9 </v>
   <v type="int" >       10 </v>
   <v type="int" >       11 </v>
   <v type="int" >       12 </v>
   <v type="int" >       13 </v>
   <v type="int" >       14 </v>
   <v type="int" >       15 </v>
   <v type="int" >       16 </v>
  </varray>
 </primitive_cell>
 <kpoints>
  <generation param="Gamma">
   <v type="int" name="divisions">      12       12        1 </v>
   <v name="usershift">      0.00000000       0.00000000       0.00000000 </v>
   <v name="genvec1">      0.08333333      -0.00000000       0.00000000 </v>
   <v name="genvec2">     -0.00000000       0.08333333       0.00000000 </v>
   <v name="genvec3">      0.00000000       0.00000000       1.00000000 </v>
   <v name="shift">      0.00000000       0.00000000       0.00000000 </v>
  </generation>
  <varray name="kpointlist" >
   <v>       0.00000000       0.00000000       0.00000000 </v>
   <v>       0.08333333      -0.00000000       0.00000000 </v>
   <v>       0.16666667       0.00000000       0.00000000 </v>
   <v>       0.25000000       0.00000000       0.00000000 </v>
   <v>       0.33333333       0.00000000       0.00000000 </v>
   <v>       0.41666667       0.00000000       0.00000000 </v>
   <v>       0.50000000       0.00000000       0.00000000 </v>
   <v>       0.08333333       0.08333333       0.00000000 </v>
   <v>       0.16666667       0.08333333       0.00000000 </v>
   <v>       0.25000000       0.08333333       0.00000000 </v>
   <v>       0.33333333       0.08333333       0.00000000 </v>
   <v>       0.41666667       0.08333333       0.00000000 </v>
   <v>       0.16666667       0.16666667       0.00000000 </v>
   <v>       0.25000000       0.16666667       0.00000000 </v>
   <v>       0.33333333       0.16666667       0.00000000 </v>
   <v>       0.41666667       0.16666667       0.00000000 </v>
   <v>       0.25000000       0.25000000       0.00000000 </v>
   <v>       0.33333333       0.25000000       0.00000000 </v>
   <v>       0.33333333       0.33333333       0.00000000 </v>
  </varray>
  <varray name="weights" >
   <v>       0.00694444 </v>
   <v>       0.04166667 </v>
   <v>       0.04166667 </v>
   <v>       0.04166667 </v>
   <v>       0.04166667 </v>
   <v>       0.04166667 </v>
   <v>       0.02083333 </v>
   <v>       0.04166667 </v>
   <v>       0.08333333 </v>
   <v>       0.08333333 </v>
   <v>       0.08333333 </v>
   <v>       0.08333333 </v>
   <v>       0.04166667 </v>
   <v>       0.08333333 </v>
   <v>       0.08333333 </v>
   <v>       0.04166667 </v>
   <v>       0.04166667 </v>
   <v>       0.08333333 </v>
   <v>       0.01388889 </v>
  </varray>
 </kpoints>
 <parameters>
  <separator name="general" >
   <i type="string" name="SYSTEM">Lattice</i>
   <i type="logical" name="LCOMPAT"> F  </i>
  </separator>
  <separator name="electronic" >
   <i type="string" name="PREC">accura</i>
   <i name="ENMAX">    450.00000000</i>
   <i name="ENAUG">    644.87300000</i>
   <i name="EDIFF">      0.00000100</i>
   <i type="int" name="IALGO">    38</i>
   <i type="int" name="IWAVPR">    11</i>
   <i type="int" name="NBANDS">    48</i>
   <i type="int" name="NBANDSLOW">    -1</i>
   <i type="int" name="NBANDSHIGH">    -1</i>
   <i name="NELECT">     56.00000000</i>
   <i type="int" name="TURBO">     0</i>
   <i type="int" name="IRESTART">     0</i>
   <i type="int" name="NREBOOT">     0</i>
   <i type="int" name="NMIN">     0</i>
   <i name="EREF">      0.00000000</i>
   <separator name="electronic smearing" >
    <i type="int" name="ISMEAR">     0</i>
    <i name="SIGMA">      0.10000000</i>
    <i name="KSPACING">      0.50000000</i>
    <i type="logical" name="KGAMMA"> T  </i>
    <i type="logical" name="KBLOWUP"> T  </i>
   </separator>
   <separator name="electronic projectors" >
    <i type="logical" name="LREAL"> F  </i>
    <v name="ROPT">      0.00000000      0.00000000</v>
    <i type="int" name="LMAXPAW">  -100</i>
    <i type="int" name="LMAXMIX">     2</i>
    <i type="logical" name="NLSPLINE"> F  </i>
   </separator>
   <separator name="electronic startup" >
    <i type="int" name="ISTART">     0</i>
    <i type="int" name="ICHARG">     2</i>
    <i type="int" name="INIWAV">     1</i>
   </separator>
   <separator name="electronic spin" >
    <i type="int" name="ISPIN">     2</i>
    <i type="logical" name="LNONCOLLINEAR"> F  </i>
    <v name="MAGMOM">      1.00000000      1.00000000      1.00000000      1.00000000      1.00000000      1.00000000      1.00000000      1.00000000      1.00000000      1.00000000      1.00000000      1.00000000      1.00000000      1.00000000      1.00000000      1.00000000</v>
    <i name="NUPDOWN">     -1.00000000</i>
    <i type="logical" name="LSORBIT"> F  </i>
    <v name="SAXIS">      0.00000000      0.00000000      1.00000000</v>
    <i type="logical" name="LSPIRAL"> F  </i>
    <v name="QSPIRAL">      0.00000000      0.00000000      0.00000000</v>
    <i type="logical" name="LZEROZ"> F  </i>
   </separator>
   <separator name="electronic exchange-correlation" >
    <i type="logical" name="LASPH"> F  </i>
    <i type="logical" name="LMETAGGA"> F  </i>
   </separator>
   <separator name="electronic convergence" >
    <i type="int" name="NELM">    64</i>
    <i type="int" name="NELMDL">    -5</i>
    <i type="int" name="NELMIN">     2</i>
    <i name="ENINI">    450.00000000</i>
    <separator name="electronic convergence detail" >
     <i type="logical" name="LDIAG"> T  </i>
     <i type="logical" name="LSUBROT"> F  </i>
     <i name="WEIMIN">      0.00100000</i>
     <i name="EBREAK">      0.00000001</i>
     <i name="DEPER">      0.30000000</i>
     <i type="int" name="NRMM">     4</i>
     <i name="TIME">      0.40000000</i>
    </separator>
   </separator>
   <separator name="electronic mixer" >
    <i name="AMIX">      0.40000000</i>
    <i name="BMIX">      1.00000000</i>
    <i name="AMIN">      0.10000000</i>
    <i name="AMIX_MAG">      1.60000000</i>
    <i name="BMIX_MAG">      1.00000000</i>
    <separator name="electronic mixer details" >
     <i type="int" name="IMIX">     4</i>
     <i type="logical" name="MIXFIRST"> F  </i>
     <i type="int" name="MAXMIX">   -45</i>
     <i name="WC">    100.00000000</i>
     <i type="int" name="INIMIX">     1</i>
     <i type="int" name="MIXPRE">     1</i>
     <i type="int" name="MREMOVE">     5</i>
    </separator>
   </separator>
   <separator name="electronic dipolcorrection" >
    <i type="logical" name="LDIPOL"> F  </i>
    <i type="logical" name="LMONO"> F  </i>
    <i type="int" name="IDIPOL">     0</i>
    <i name="EPSILON">      1.00000000</i>
    <v name="DIPOL">   -100.00000000   -100.00000000   -100.00000000</v>
    <i name="EFIELD">      0.00000000</i>
   </separator>
  </separator>
  <separator name="grids" >
   <i type="int" name="NGX">    36</i>
   <i type="int" name="NGY">    36</i>
   <i type="int" name="NGZ">   108</i>
   <i type="int" name="NGXF">    72</i>
   <i type="int" name="NGYF">    72</i>
   <i type="int" name="NGZF">   216</i>
   <i type="logical" name="ADDGRID"> F  </i>
  </separator>
  <separator name="ionic" >
   <i type="int" name="NSW">   128</i>
   <i type="int" name="IBRION">     2</i>
   <i type="int" name="MDALGO">     0</i>
   <i type="int" name="ISIF">     2</i>
   <i name="PSTRESS">      0.00000000</i>
   <i name="EDIFFG">     -0.00100000</i>
   <i type="int" name="NFREE">     1</i>
   <i name="POTIM">      0.50000000</i>
   <i name="SMASS">     -3.00000000</i>
   <i name="SCALEE">      1.00000000</i>
  </separator>
  <separator name="ionic md" >
   <i name="TEBEG">      0.00010000</i>
   <i name="TEEND">      0.00010000</i>
   <i type="int" name="NBLOCK">     1</i>
   <i type="int" name="KBLOCK">   128</i>
   <i type="int" name="NPACO">   256</i>
   <i name="APACO">     10.00000000</i>
  </separator>
  <separator name="symmetry" >
   <i type="int" name="ISYM">     2</i>
   <i name="SYMPREC">      0.00001000</i>
  </separator>
  <separator name="dos" >
   <i type="int" name="LORBIT">     0</i>
   <v name="RWIGS">     -1.00000000     -1.00000000</v>
   <i type="int" name="NEDOS">   301</i>
   <i name="EMIN">     10.00000000</i>
   <i name="EMAX">    -10.00000000</i>
   <i name="EFERMI">      0.00000000</i>
  </separator>
  <separator name="writing" >
   <i type="int" name="NWRITE">     2</i>
   <i type="logical" name="LWAVE"> F  </i>
   <i type="logical" name="LDOWNSAMPLE"> F  </i>
   <i type="logical" name="LCHARG"> F  </i>
   <i type="logical" name="LPARD"> F  </i>
   <i type="logical" name="LVTOT"> F  </i>
   <i type="logical" name="LVHAR"> F  </i>
   <i type="logical" name="LELF"> F  </i>
   <i type="logical" name="LOPTICS"> F  </i>
   <v name="STM">      0.00000000      0.00000000      0.00000000      0.00000000      0.00000000      0.00000000      0.00000000</v>
  </separator>
  <separator name="performance" >
   <i type="int" name="NPAR">    48</i>
   <i type="int" name="NSIM">     4</i>
   <i type="int" name="NBLK">    -1</i>
   <i type="logical" name="LPLANE"> T  </i>
   <i type="logical" name="LSCALAPACK"> T  </i>
   <i type="logical" name="LSCAAWARE"> F  </i>
   <i type="logical" name="LSCALU"> F  </i>
   <i type="logical" name="LASYNC"> F  </i>
   <i type="logical" name="LORBITALREAL"> F  </i>
  </separator>
  <separator name="miscellaneous" >
   <i type="int" name="IDIOT">     3</i>
   <i type="int" name="PHON_NSTRUCT">    -1</i>
   <i type="logical" name="LMUSIC"> F  </i>
   <v name="POMASS">     10.81100000     12.01100000</v>
   <v name="DARWINR">      0.00000000      0.00000000</v>
   <v name="DARWINV">      1.00000000      1.00000000</v>
   <i type="logical" name="LCORR"> T  </i>
  </separator>
  <i type="logical" name="GGA_COMPAT"> T  </i>
  <i type="logical" name="LBERRY"> F  </i>
  <i type="int" name="ICORELEVEL">     0</i>
  <i type="logical" name="LDAU"> F  </i>
  <i type="int" name="I_CONSTRAINED_M">     0</i>
  <separator name="electronic exchange-correlation" >
   <i type="string" name="GGA">PE</i>
   <i type="int" name="VOSKOWN">     0</i>
   <i type="logical" name="LHFCALC"> F  </i>
   <i type="string" name="PRECFOCK"></i>
   <i type="logical" name="LSYMGRAD"> F  </i>
   <i type="logical" name="LHFONE"> F  </i>
   <i type="logical" name="LRHFCALC"> F  </i>
   <i type="logical" name="LTHOMAS"> F  </i>
   <i type="logical" name="LMODELHF"> F  </i>
   <i type="logical" name="LFOCKACE"> F  </i>
   <i name="ENCUT4O">     -1.00000000</i>
   <i type="int" name="EXXOEP">     0</i>
   <i type="int" name="FOURORBIT">     0</i>
   <i name="AEXX">      0.00000000</i>
   <i name="HFALPHA">      0.00000000</i>
   <i name="MCALPHA">      0.00000000</i>
   <i name="ALDAX">      1.00000000</i>
   <i name="AGGAX">      1.00000000</i>
   <i name="ALDAC">      1.00000000</i>
   <i name="AGGAC">      1.00000000</i>
   <i type="int" name="NKREDX">     1</i>
   <i type="int" name="NKREDY">     1</i>
   <i type="int" name="NKREDZ">     1</i>
   <i type="logical" name="SHIFTRED"> F  </i>
   <i type="logical" name="ODDONLY"> F  </i>
   <i type="logical" name="EVENONLY"> F  </i>
   <i type="int" name="LMAXFOCK">     0</i>
   <i type="int" name="NMAXFOCKAE">     0</i>
   <i type="logical" name="LFOCKAEDFT"> F  </i>
   <i name="HFSCREEN">      0.00000000</i>
   <i name="HFSCREENC">      0.00000000</i>
   <i type="int" name="NBANDSGWLOW">     0</i>
  </separator>
  <separator name="vdW DFT" >
   <i type="logical" name="LUSE_VDW"> F  </i>
   <i name="Zab_VDW">     -0.84910000</i>
   <i name="PARAM1">      0.12340000</i>
   <i name="PARAM2">      1.00000000</i>
   <i name="PARAM3">      0.00000000</i>
  </separator>
  <separator name="model GW" >
   <i type="int" name="MODEL_GW">     0</i>
   <i name="MODEL_EPS0">     11.88795237</i>
   <i name="MODEL_ALPHA">      1.00000000</i>
  </separator>
  <separator name="linear response parameters" >
   <i type="logical" name="LEPSILON"> F  </i>
   <i type="logical" name="LRPA"> F  </i>
   <i type="logical" name="LNABLA"> F  </i>
   <i type="logical" name="LVEL"> F  </i>
   <i name="CSHIFT">      0.10000000</i>
   <i name="OMEGAMAX">     -1.00000000</i>
   <i name="DEG_THRESHOLD">      0.00200000</i>
   <i name="RTIME">     -0.10000000</i>
   <i name="WPLASMAI">      0.00000000</i>
   <v name="DFIELD">      0.00000000      0.00000000      0.00000000</v>
   <v name="WPLASMA">      0.00000000      0.00000000      0.00000000      0.00000000      0.00000000      0.00000000      0.00000000      0.00000000      0.00000000</v>
  </separator>
  <separator name="orbital magnetization" >
   <i type="logical" name="NUCIND"> F  </i>
   <v name="MAGPOS">      0.00000000      0.00000000      0.00000000</v>
   <i type="logical" name="LNICSALL"> T  </i>
   <i type="logical" name="ORBITALMAG"> F  </i>
   <i type="logical" name="LMAGBLOCH"> F  </i>
   <i type="logical" name="LCHIMAG"> F  </i>
   <i type="logical" name="LGAUGE"> T  </i>
   <i type="int" name="MAGATOM">     0</i>
   <v name="MAGDIPOL">      0.00000000      0.00000000      0.00000000</v>
   <v name="AVECCONST">      0.00000000      0.00000000      0.00000000</v>
  </separator>
  <separator name="response functions" >
   <i type="logical" name="LFINITE_TEMPERATURE"> F  </i>
   <i type="logical" name="LADDER"> F  </i>
   <i type="logical" name="LRPAFORCE"> F  </i>
   <i type="logical" name="LFXC"> F  </i>
   <i type="logical" name="LHARTREE"> T  </i>
   <i type="int" name="IBSE">     0</i>
   <v type="int" name="KPOINT">    -1     0     0     0</v>
   <i type="logical" name="LTCTC"> F  </i>
   <i type="logical" name="LTCTE"> F  </i>
   <i type="logical" name="LTETE"> F  </i>
   <i type="logical" name="LTRIPLET"> F  </i>
   <i type="logical" name="LFXCEPS"> F  </i>
   <i type="logical" name="LFXHEG"> F  </i>
   <i type="int" name="NATURALO">     2</i>
   <i type="logical" name="LHOLEGF"> F  </i>
   <i type="logical" name="L2ORDER"> F  </i>
   <i type="logical" name="LDMP1"> F  </i>
   <i type="logical" name="LMP2LT"> F  </i>
   <i type="logical" name="LSMP2LT"> F  </i>
   <i type="logical" name="LGWLF"> F  </i>
   <i name="ENCUTGW">     -2.00000000</i>
   <i name="ENCUTGWSOFT">     -2.00000000</i>
   <i name="ENCUTLF">     -1.00000000</i>
   <i type="logical" name="LESF_SPLINES"> F  </i>
   <i type="int" name="LMAXMP2">    -1</i>
   <i name="SCISSOR">      0.00000000</i>
   <i type="int" name="NOMEGA">     0</i>
   <i type="int" name="NOMEGAR">     0</i>
   <i type="int" name="NBANDSGW">    -1</i>
   <i type="int" name="NBANDSO">    -1</i>
   <i type="int" name="NBANDSV">    -1</i>
   <i type="int" name="NELMGW">     1</i>
   <i type="int" name="NELMHF">     1</i>
   <i type="int" name="DIM">     3</i>
   <i type="int" name="IESPILON">     4</i>
   <i type="int" name="ANTIRES">     0</i>
   <i name="OMEGAMAX">    -30.00000000</i>
   <i name="OMEGAMIN">    -30.00000000</i>
   <i name="OMEGATL">   -200.00000000</i>
   <i type="int" name="OMEGAGRID">     0</i>
   <i name="CSHIFT">     -0.10000000</i>
   <i type="logical" name="LSELFENERGY"> F  </i>
   <i type="logical" name="LSPECTRAL"> F  </i>
   <i type="logical" name="LSPECTRALGW"> F  </i>
   <i type="logical" name="LSINGLES"> F  </i>
   <i type="logical" name="LFERMIGW"> F  </i>
   <i type="logical" name="ODDONLYGW"> F  </i>
   <i type="logical" name="EVENONLYGW"> F  </i>
   <i type="int" name="NKREDLFX">     1</i>
   <i type="int" name="NKREDLFY">     1</i>
   <i type="int" name="NKREDLFZ">     1</i>
   <i type="int" name="MAXMEM">  2800</i>
   <i type="int" name="TELESCOPE">     0</i>
   <i type="int" name="NTAUPAR">    -1</i>
   <i type="int" name="NOMEGAPAR">    -1</i>
   <i name="DAMP_NEWTON">      0.80000001</i>
   <i name="LAMBDA">      1.00000000</i>
  </separator>
  <separator name="External order field" >
   <i name="OFIELD_KAPPA">      0.00000000</i>
   <v name="OFIELD_K">      0.00000000      0.00000000      0.00000000</v>
   <i name="OFIELD_Q6_NEAR">      0.00000000</i>
   <i name="OFIELD_Q6_FAR">      0.00000000</i>
   <i name="OFIELD_A">      0.00000000</i>
  </separator>
  <separator name="optional k-points parameters" >
   <i type="int" name="KPOINTS_OPT_MODE">     1</i>
   <i type="logical" name="LKPOINTS_OPT"> F  </i>
  </separator>
  <separator name="solvation model" >
   <i type="logical" name="LSOL"> F  </i>
  </separator>
 </parameters>
 <atominfo>
  <atoms>      16 </atoms>
  <types>       2 </types>
  <array name="atoms" >
   <dimension dim="1">ion</dimension>
   <field type="string">element</field>
   <field type="int">atomtype</field>
   <set>
    <rc><c>B </c><c>   1</c></rc>
    <rc><c>B </c><c>   1</c></rc>
    <rc><c>B </c><c>   1</c></rc>
    <rc><c>B </c><c>   1</c></rc>
    <rc><c>B </c><c>   1</c></rc>
    <rc><c>B </c><c>   1</c></rc>
    <rc><c>B </c><c>   1</c></rc>
    <rc><c>B </c><c>   1</c></rc>
    <rc><c>C </c><c>   2</c></rc>
    <rc><c>C </c><c>   2</c></rc>
    <rc><c>C </c><c>   2</c></rc>
    <rc><c>C </c><c>   2</c></rc>
    <rc><c>C </c><c>   2</c></rc>
    <rc><c>C </c><c>   2</c></rc>
    <rc><c>C </c><c>   2</c></rc>
    <rc><c>C </c><c>   2</c></rc>
   </set>
  </array>
  <array name="atomtypes" >
   <dimension dim="1">type</dimension>
   <field type="int">atomspertype</field>
   <field type="string">element</field>
   <field>mass</field>
   <field>valence</field>
   <field type="string">pseudopotential</field>
   <set>
    <rc><c>   8</c><c>B </c><c>     10.81100000</c><c>      3.00000000</c><c>  PAW_PBE B 06Sep2000                   </c></rc>
    <rc><c>   8</c><c>C </c><c>     12.01100000</c><c>      4.00000000</c><c>  PAW_PBE C 08Apr2002                   </c></rc>
   </set>
  </array>
 </atominfo>
 <structure name="initialpos" >
  <crystal>
   <varray name="basis" >
    <v>       4.27816549       2.47000000       0.00000000 </v>
    <v>      -4.27816549       2.47000000       0.00000000 </v>
    <v>       0.00000000       0.00000000      15.00000000 </v>
   </varray>
   <i name="volume">    317.01206316 </i>
   <varray name="rec_basis" >
    <v>       0.11687252       0.20242915       0.00000000 </v>
    <v>      -0.11687252       0.20242915       0.00000000 </v>
    <v>       0.00000000       0.00000000       0.06666667 </v>
   </varray>
  </crystal>
  <varray name="positions" >
   <v>       0.66888689       0.00000000       0.10000000 </v>
   <v>       0.33111211       0.00000000       0.10000000 </v>
   <v>       0.00000000       0.33111211       0.10000000 </v>
   <v>       0.00000000       0.66888689       0.10000000 </v>
   <v>       0.33111211       0.33111211       0.10000000 </v>
   <v>       0.66888689       0.66888689       0.10000000 </v>
   <v>       0.66666600       0.33333300       0.09922189 </v>
   <v>       0.33333300       0.66666600       0.10077811 </v>
   <v>       0.33333267       0.16666633       0.47060000 </v>
   <v>       0.49999967       0.99999933       0.47060000 </v>
   <v>       0.33333267       0.66666633       0.47060000 </v>
   <v>       0.49999967       0.49999933       0.47060000 </v>
   <v>       0.83333267       0.16666633       0.47060000 </v>
   <v>       0.99999967       0.99999933       0.47060000 </v>
   <v>       0.83333267       0.66666633       0.47060000 </v>
   <v>       0.99999967       0.49999933       0.47060000 </v>
  </varray>
 </structure>
 <calculation>
  <scstep>
   <time name="dav">    1.44    1.47</time>
   <time name="total">    1.48    1.52</time>
   <energy>
    <i name="alphaZ">     61.42931329 </i>
    <i name="ewald">   1912.32885033 </i>
    <i name="hartreedc">  -3320.09128730 </i>
    <i name="XCdc">    164.20650188 </i>
    <i name="pawpsdc">   1214.24570090 </i>
    <i name="pawaedc">  -1211.68112031 </i>
    <i name="eentropy">     -0.02105860 </i>
    <i name="bandstr">   -380.41869225 </i>
    <i name="atom">   1746.50554237 </i>
    <i name="e_fr_energy">    186.50375030 </i>
    <i name="e_wo_entrp">    186.52480890 </i>
    <i name="e_0_energy">    186.51427960 </i>
   </energy>
  </scstep>
  <scstep>
   <time name="dav">    2.28    2.32</time>
   <time name="total">    2.28    2.32</time>
   <energy>
    <i name="e_fr_energy">   -119.30493262 </i>
    <i name="e_wo_entrp">   -119.29451418 </i>
    <i name="e_0_energy">   -119.29972340 </i>
   </energy>
  </scstep>
  <scstep>
   <time name="dav">    2.53    2.56</time>
   <time name="total">    2.53    2.56</time>
   <energy>
    <i name="e_fr_energy">   -128.53914276 </i>
    <i name="e_wo_entrp">   -128.52709454 </i>
    <i name="e_0_energy">   -128.53311865 </i>
   </energy>
  </scstep>
  <scstep>
   <time name="dav">    2.34    2.37</time>
   <time name="total">    2.34    2.37</time>
   <energy>
    <i name="e_fr_energy">   -128.57468124 </i>
    <i name="e_wo_entrp">   -128.56260912 </i>
    <i name="e_0_energy">   -128.56864518 </i>
   </energy>
  </scstep>
  <scstep>
   <time name="dav">    2.31    2.33</time>
   <time name="total">    2.41    2.45</time>
   <energy>
    <i name="e_fr_energy">   -128.57471927 </i>
    <i name="e_wo_entrp">   -128.56264726 </i>
    <i name="e_0_energy">   -128.56868326 </i>
   </energy>
  </scstep>
  <scstep>
   <time name="dav">    1.95    1.98</time>
   <time name="total">    2.09    2.14</time>
   <energy>
    <i name="e_fr_energy">    -94.82336589 </i>
    <i name="e_wo_entrp">    -94.81100726 </i>
    <i name="e_0_energy">    -94.81718657 </i>
   </energy>
  </scstep>
  <scstep>
   <time name="dav">    2.24    2.26</time>
   <time name="total">    2.38    2.43</time>
   <energy>
    <i name="e_fr_energy">   -105.85750750 </i>
    <i name="e_wo_entrp">   -105.84850154 </i>
    <i name="e_0_energy">   -105.85300452 </i>
   </energy>
  </scstep>
  <scstep>
   <time name="dav">    2.24    2.27</time>
   <time name="total">    2.38    2.42</time>
   <energy>
    <i name="e_fr_energy">   -111.48664050 </i>
    <i name="e_wo_entrp">   -111.47770721 </i>
    <i name="e_0_energy">   -111.48217386 </i>
   </energy>
  </scstep>
  <scstep>
   <time name="dav">    2.10    2.12</time>
   <time name="total">    2.23    2.26</time>
   <energy>
    <i name="e_fr_energy">   -116.70336213 </i>
    <i name="e_wo_entrp">   -116.70121645 </i>
    <i name="e_0_energy">   -116.70228929 </i>
   </energy>
  </scstep>
  <scstep>
   <time name="dav">    2.36    2.38</time>
   <time name="total">    2.49    2.52</time>
   <energy>
    <i name="e_fr_energy">   -120.90123745 </i>
    <i name="e_wo_entrp">   -120.89623749 </i>
    <i name="e_0_energy">   -120.89873747 </i>
   </energy>
  </scstep>
  <scstep>
   <time name="dav">    2.11    2.13</time>
   <time name="total">    2.25    2.28</time>
   <energy>
    <i name="e_fr_energy">   -122.69272575 </i>
    <i name="e_wo_entrp">   -122.68951152 </i>
    <i name="e_0_energy">   -122.69111864 </i>
   </energy>
  </scstep>
  <scstep>
   <time name="dav">    2.38    2.39</time>
   <time name="total">    2.51    2.53</time>
   <energy>
    <i name="e_fr_energy">   -123.67553600 </i>
    <i name="e_wo_entrp">   -123.67049538 </i>
    <i name="e_0_energy">   -123.67301569 </i>
   </energy>
  </scstep>
  <scstep>
   <time name="dav">    2.13    2.15</time>
   <time name="total">    2.26    2.28</time>
   <energy>
    <i name="e_fr_energy">   -123.97482318 </i>
    <i name="e_wo_entrp">   -123.96877582 </i>
    <i name="e_0_energy">   -123.97179950 </i>
   </energy>
  </scstep>
  <scstep>
   <time name="dav">    1.86    1.87</time>
   <time name="total">    1.98    2.01</time>
   <energy>
    <i name="e_fr_energy">   -124.02879159 </i>
    <i name="e_wo_entrp">   -124.02273660 </i>
    <i name="e_0_energy">   -124.02576410 </i>
   </energy>
  </scstep>
  <scstep>
   <time name="dav">    1.78    1.80</time>
   <time name="total">    1.91    1.94</time>
   <energy>
    <i name="e_fr_energy">   -124.05221864 </i>
    <i name="e_wo_entrp">   -124.04617992 </i>
    <i name="e_0_energy">   -124.04919928 </i>
   </energy>
  </scstep>
  <scstep>
   <time name="dav">    1.71    1.72</time>
   <time name="total">    1.84    1.87</time>
   <energy>
    <i name="e_fr_energy">   -124.05408945 </i>
    <i name="e_wo_entrp">   -124.04805216 </i>
    <i name="e_0_energy">   -124.05107080 </i>
   </energy>
  </scstep>
  <scstep>
   <time name="dav">    1.53    1.54</time>
   <time name="total">    1.65    1.67</time>
   <energy>
    <i name="e_fr_energy">   -124.05446235 </i>
    <i name="e_wo_entrp">   -124.04842485 </i>
    <i name="e_0_energy">   -124.05144360 </i>
   </energy>
  </scstep>
  <scstep>
   <time name="dav">    1.75    1.76</time>
   <time name="total">    1.87    1.89</time>
   <energy>
    <i name="e_fr_energy">   -124.05449391 </i>
    <i name="e_wo_entrp">   -124.04845003 </i>
    <i name="e_0_energy">   -124.05147197 </i>
   </energy>
  </scstep>
  <scstep>
   <time name="dav">    1.49    1.50</time>
   <time name="total">    1.61    1.64</time>
   <energy>
    <i name="e_fr_energy">   -124.05454878 </i>
    <i name="e_wo_entrp">   -124.04850297 </i>
    <i name="e_0_energy">   -124.05152588 </i>
   </energy>
  </scstep>
  <scstep>
   <time name="dav">    1.60    1.62</time>
   <time name="total">    1.74    1.76</time>
   <energy>
    <i name="e_fr_energy">   -124.05457510 </i>
    <i name="e_wo_entrp">   -124.04853193 </i>
    <i name="e_0_energy">   -124.05155352 </i>
   </energy>
  </scstep>
  <scstep>
   <time name="dav">    1.48    1.49</time>
   <time name="total">    1.61    1.63</time>
   <energy>
    <i name="e_fr_energy">   -124.05462776 </i>
    <i name="e_wo_entrp">   -124.04858624 </i>
    <i name="e_0_energy">   -124.05160700 </i>
   </energy>
  </scstep>
  <scstep>
   <time name="dav">    1.73    1.74</time>
   <time name="total">    1.85    1.87</time>
   <energy>
    <i name="e_fr_energy">   -124.05465269 </i>
    <i name="e_wo_entrp">   -124.04861060 </i>
    <i name="e_0_energy">   -124.05163164 </i>
   </energy>
  </scstep>
  <scstep>
   <time name="dav">    2.17    2.19</time>
   <time name="total">    2.29    2.32</time>
   <energy>
    <i name="e_fr_energy">   -124.05465730 </i>
    <i name="e_wo_entrp">   -124.04861484 </i>
    <i name="e_0_energy">   -124.05163607 </i>
   </energy>
  </scstep>
  <scstep>
   <time name="dav">    2.03    2.04</time>
   <time name="total">    2.15    2.18</time>
   <energy>
    <i name="e_fr_energy">   -124.05466005 </i>
    <i name="e_wo_entrp">   -124.04861755 </i>
    <i name="e_0_energy">   -124.05163880 </i>
   </energy>
  </scstep>
  <scstep>
   <time name="dav">    1.82    1.84</time>
   <time name="total">    1.95    1.97</time>
   <energy>
    <i name="e_fr_energy">   -124.05466150 </i>
    <i name="e_wo_entrp">   -124.04861909 </i>
    <i name="e_0_energy">   -124.05164030 </i>
   </energy>
  </scstep>
  <scstep>
   <time name="dav">    2.47    2.48</time>
   <time name="total">    2.50    2.52</time>
   <energy>
    <i name="alphaZ">     61.42931329 </i>
    <i name="ewald">   1912.32885033 </i>
    <i name="hartreedc">  -3523.98215972 </i>
    <i name="XCdc">    169.28648983 </i>
    <i name="pawpsdc">   6039.27752603 </i>
    <i name="pawaedc">  -6038.74661196 </i>
    <i name="eentropy">     -0.00604232 </i>
    <i name="bandstr">   -490.14756964 </i>
    <i name="atom">   1746.50554237 </i>
    <i name="e_fr_energy">   -124.05466179 </i>
    <i name="e_wo_entrp">   -124.04861948 </i>
    <i name="e_0_energy">   -124.05164064 </i>
   </energy>
  </scstep>
  <structure>
   <crystal>
    <varray name="basis" >
     <v>       4.27816549       2.47000000       0.00000000 </v>
     <v>      -4.27816549       2.47000000       0.00000000 </v>
     <v>       0.00000000       0.00000000      15.00000000 </v>
    </varray>
    <i name="volume">    317.01206316 </i>
    <varray name="rec_basis" >
     <v>       0.11687252       0.20242915       0.00000000 </v>
     <v>      -0.11687252       0.20242915       0.00000000 </v>
     <v>       0.00000000       0.00000000       0.06666667 </v>
    </varray>
   </crystal>
   <varray name="positions" >
    <v>       0.66888689       0.00000000       0.10000000 </v>
    <v>       0.33111211       0.00000000       0.10000000 </v>
    <v>       0.00000000       0.33111211       0.10000000 </v>
    <v>       0.00000000       0.66888689       0.10000000 </v>
    <v>       0.33111211       0.33111211       0.10000000 </v>
    <v>       0.66888689       0.66888689       0.10000000 </v>
    <v>       0.66666600       0.33333300       0.09922189 </v>
    <v>       0.33333300       0.66666600       0.10077811 </v>
    <v>       0.33333267       0.16666633       0.47060000 </v>
    <v>       0.49999967       0.99999933       0.47060000 </v>
    <v>       0.33333267       0.66666633       0.47060000 </v>
    <v>       0.49999967       0.49999933       0.47060000 </v>
    <v>       0.83333267       0.16666633       0.47060000 </v>
    <v>       0.99999967       0.99999933       0.47060000 </v>
    <v>       0.83333267       0.66666633       0.47060000 </v>
    <v>       0.99999967       0.49999933       0.47060000 </v>
   </varray>
  </structure>
  <varray name="forces" >
   <v>       0.24208472       0.13977307       0.00812208 </v>
   <v>      -0.24208939      -0.13976498       0.00812208 </v>
   <v>       0.24208472      -0.13977307       0.00812208 </v>
   <v>      -0.24208939       0.13976498       0.00812208 </v>
   <v>       0.00000467      -0.27953805       0.00812208 </v>
   <v>       0.00000467       0.27953805       0.00812208 </v>
   <v>       0.00000000      -0.00000000       0.00325923 </v>
   <v>       0.00000000      -0.00000000       0.01441498 </v>
   <v>      -0.00027440      -0.00047527      -0.00821791 </v>
   <v>      -0.00010588       0.00018340      -0.00838162 </v>
   <v>       0.00000000       0.00000000      -0.00858080 </v>
   <v>       0.00021177       0.00000000      -0.00838162 </v>
   <v>       0.00054880      -0.00000000      -0.00821791 </v>
   <v>       0.00000000       0.00000000      -0.00802728 </v>
   <v>      -0.00027440       0.00047527      -0.00821791 </v>
   <v>      -0.00010588      -0.00018340      -0.00838162 </v>
  </varray>
  <varray name="stress" >
   <v>      41.38161532       0.00000000       0.00000000 </v>
   <v>       0.00000000      41.38161532       0.00000000 </v>
   <v>       0.00000000       0.00000000      -3.65948474 </v>
  </varray>
  <energy>
   <i name="e_fr_energy">   -125.56027504 </i>
   <i name="e_wo_entrp">   -125.55423272 </i>
   <i name="e_0_energy">   -125.55725388 </i>
  </energy>
  <time name="totalsc">   56.16   56.94</time>
 </calculation>
 <calculation>
  <scstep>
   <time name="dav">    1.48    1.50</time>
   <time name="total">    1.61    1.64</time>
   <energy>
    <i name="alphaZ">     61.42931329 </i>
    <i name="ewald">   1910.36717497 </i>
    <i name="hartreedc">  -3523.15270582 </i>
    <i name="XCdc">    169.23018093 </i>
    <i name="pawpsdc">   6039.27888567 </i>
    <i name="pawaedc">  -6038.74797466 </i>
    <i name="eentropy">     -0.00581324 </i>
    <i name="bandstr">   -488.96830833 </i>
    <i name="atom">   1746.50554237 </i>
    <i name="e_fr_energy">   -124.06370483 </i>
    <i name="e_wo_entrp">   -124.05789159 </i>
    <i name="e_0_energy">   -124.06079821 </i>
   </energy>
  </scstep>
  <scstep>
   <time name="dav">    2.24    2.26</time>
   <time name="total">    2.38    2.41</time>
   <energy>
    <i name="e_fr_energy">   -124.05474904 </i>
    <i name="e_wo_entrp">   -124.04876452 </i>
    <i name="e_0_energy">   -124.05175678 </i>
   </energy>
  </scstep>
  <scstep>
   <time name="dav">    2.00    2.01</time>
   <time name="total">    2.13    2.15</time>
   <energy>
    <i name="e_fr_energy">   -124.05338552 </i>
    <i name="e_wo_entrp">   -124.04738245 </i>
    <i name="e_0_energy">   -124.05038398 </i>
   </energy>
  </scstep>
  <scstep>
   <time name="dav">    2.43    2.45</time>
   <time name="total">    2.56    2.59</time>
   <energy>
    <i name="e_fr_energy">   -124.05333504 </i>
    <i name="e_wo_entrp">   -124.04735543 </i>
    <i name="e_0_energy">   -124.05034523 </i>
   </energy>
  </scstep>
  <scstep>
   <time name="dav">    2.03    2.05</time>
   <time name="total">    2.16    2.19</time>
   <energy>
    <i name="e_fr_energy">   -124.05333529 </i>
    <i name="e_wo_entrp">   -124.04734990 </i>
    <i name="e_0_energy">   -124.05034259 </i>
   </energy>
  </scstep>
  <scstep>
   <time name="dav">    1.53    1.54</time>
   <time name="total">    1.65    1.68</time>
   <energy>
    <i name="e_fr_energy">   -124.05333752 </i>
    <i name="e_wo_entrp">   -124.04735320 </i>
    <i name="e_0_energy">   -124.05034536 </i>
   </energy>
  </scstep>
  <scstep>
   <time name="dav">    1.90    1.91</time>
   <time name="total">    2.02    2.05</time>
   <energy>
    <i name="e_fr_energy">   -124.05334031 </i>
    <i name="e_wo_entrp">   -124.04735679 </i>
    <i name="e_0_energy">   -124.05034855 </i>
   </energy>
  </scstep>
  <scstep>
   <time name="dav">    1.53    1.54</time>
   <time name="total">    1.66    1.68</time>
   <energy>
    <i name="e_fr_energy">   -124.05334407 </i>
    <i name="e_wo_entrp">   -124.04736119 </i>
    <i name="e_0_energy">   -124.05035263 </i>
   </energy>
  </scstep>
  <scstep>
   <time name="dav">    1.53    1.54</time>
   <time name="total">    1.66    1.68</time>
   <energy>
    <i name="e_fr_energy">   -124.05334844 </i>
    <i name="e_wo_entrp">   -124.04736558 </i>
    <i name="e_0_energy">   -124.05035701 </i>
   </energy>
  </scstep>
  <scstep>
   <time name="dav">    1.59    1.60</time>
   <time name="total">    1.71    1.73</time>
   <energy>
    <i name="e_fr_energy">   -124.05335042 </i>
    <i name="e_wo_entrp">   -124.04736756 </i>
    <i name="e_0_energy">   -124.05035899 </i>
   </energy>
  </scstep>
  <scstep>
   <time name="dav">    1.97    1.98</time>
   <time name="total">    2.00    2.01</time>
   <energy>
    <i name="alphaZ">     61.42931329 </i>
    <i name="ewald">   1910.36717497 </i>
    <i name="hartreedc">  -3522.14686230 </i>
    <i name="XCdc">    169.21149675 </i>
    <i name="pawpsdc">   6011.63551353 </i>
    <i name="pawaedc">  -6011.09638183 </i>
    <i name="eentropy">     -0.00598284 </i>
    <i name="bandstr">   -489.95316496 </i>
    <i name="atom">   1746.50554237 </i>
    <i name="e_fr_energy">   -124.05335104 </i>
    <i name="e_wo_entrp">   -124.04736820 </i>
    <i name="e_0_energy">   -124.05035962 </i>
   </energy>
  </scstep>
  <structure>
   <crystal>
    <varray name="basis" >
     <v>       4.27816549       2.47000000       0.00000000 </v>
     <v>      -4.27816549       2.47000000       0.00000000 </v>
     <v>       0.00000000       0.00000000      15.00000000 </v>
    </varray>
    <i name="volume">    317.01206316 </i>
    <varray name="rec_basis" >
     <v>       0.11687252       0.20242915       0.00000000 </v>
     <v>      -0.11687252       0.20242915       0.00000000 </v>
     <v>       0.00000000       0.00000000       0.06666667 </v>
    </varray>
   </crystal>
   <varray name="positions" >
    <v>       0.67161680       0.00000005       0.10002612 </v>
    <v>       0.32838225       0.00000005       0.10002612 </v>
    <v>      -0.00000005       0.32838220       0.10002612 </v>
    <v>      -0.00000005       0.67161675       0.10002612 </v>
    <v>       0.32838225       0.32838220       0.10002612 </v>
    <v>       0.67161680       0.67161675       0.10002612 </v>
    <v>       0.66666600       0.33333300       0.09923237 </v>
    <v>       0.33333300       0.66666600       0.10082447 </v>
    <v>       0.33332648       0.16666324       0.47057357 </v>
    <v>       0.50000086       0.00000172       0.47057304 </v>
    <v>       0.33333267       0.66666633       0.47057240 </v>
    <v>       0.50000086       0.49999814       0.47057304 </v>
    <v>       0.83333576       0.16666324       0.47057357 </v>
    <v>       0.99999967       0.99999933       0.47057418 </v>
    <v>       0.83333576       0.66667252       0.47057357 </v>
    <v>       0.99999728       0.49999814       0.47057304 </v>
   </varray>
  </structure>
  <varray name="forces" >
   <v>      -0.26076914      -0.15056709       0.00821828 </v>
   <v>       0.26077950       0.15054916       0.00821828 </v>
   <v>      -0.26076914       0.15056709       0.00821828 </v>
   <v>       0.26077950      -0.15054916       0.00821828 </v>
   <v>      -0.00001035       0.30111625       0.00821828 </v>
   <v>      -0.00001035      -0.30111625       0.00821828 </v>
   <v>      -0.00000000       0.00000000       0.00641519 </v>
   <v>      -0.00000000       0.00000000       0.01068832 </v>
   <v>       0.00075153       0.00130168      -0.00824950 </v>
   <v>       0.00028413      -0.00049214      -0.00835097 </v>
   <v>      -0.00000000       0.00000000      -0.00844431 </v>
   <v>      -0.00056827      -0.00000000      -0.00835097 </v>
   <v>      -0.00150305       0.00000000      -0.00824950 </v>
   <v>       0.00000000       0.00000000      -0.00816748 </v>
   <v>       0.00075153      -0.00130168      -0.00824950 </v>
   <v>       0.00028413       0.00049214      -0.00835097 </v>
  </varray>
  <varray name="stress" >
   <v>      39.07354409       0.00000000       0.00000000 </v>
   <v>       0.00000000      39.07354409       0.00000000 </v>
   <v>      -0.00000000       0.00000000      -3.66067911 </v>
  </varray>
  <energy>
   <i name="e_fr_energy">   -125.55931317 </i>
   <i name="e_wo_entrp">   -125.55333033 </i>
   <i name="e_0_energy">   -125.55632175 </i>
  </energy>
  <time name="totalsc">   22.98   23.27</time>
 </calculation>
 <calculation>
  <scstep>
   <time name="dav">    1.43    1.44</time>
   <time name="total">    1.55    1.57</time>
   <energy>
    <i name="alphaZ">     61.42931329 </i>
    <i name="ewald">   1911.35925114 </i>
    <i name="hartreedc">  -3522.55112956 </i>
    <i name="XCdc">    169.23994729 </i>
    <i name="pawpsdc">   6011.63642925 </i>
    <i name="pawaedc">  -6011.09729919 </i>
    <i name="eentropy">     -0.00590213 </i>
    <i name="bandstr">   -490.57882113 </i>
    <i name="atom">   1746.50554237 </i>
    <i name="e_fr_energy">   -124.06266868 </i>
    <i name="e_wo_entrp">   -124.05676655 </i>
    <i name="e_0_energy">   -124.05971761 </i>
   </energy>
  </scstep>
  <scstep>
   <time name="dav">    2.14    2.16</time>
   <time name="total">    2.26    2.29</time>
   <energy>
    <i name="e_fr_energy">   -124.06027286 </i>
    <i name="e_wo_entrp">   -124.05430361 </i>
    <i name="e_0_energy">   -124.05728824 </i>
   </energy>
  </scstep>
  <scstep>
   <time name="dav">    2.55    2.57</time>
   <time name="total">    2.68    2.71</time>
   <energy>
    <i name="e_fr_energy">   -124.05990553 </i>
    <i name="e_wo_entrp">   -124.05389721 </i>
    <i name="e_0_energy">   -124.05690137 </i>
   </energy>
  </scstep>
  <scstep>
   <time name="dav">    2.19    2.21</time>
   <time name="total">    2.32    2.35</time>
   <energy>
    <i name="e_fr_energy">   -124.05989186 </i>
    <i name="e_wo_entrp">   -124.05387841 </i>
    <i name="e_0_energy">   -124.05688513 </i>
   </energy>
  </scstep>
  <scstep>
   <time name="dav">    2.63    2.65</time>
   <time name="total">    2.67    2.69</time>
   <energy>
    <i name="alphaZ">     61.42931329 </i>
    <i name="ewald">   1911.35925114 </i>
    <i name="hartreedc">  -3523.05034368 </i>
    <i name="XCdc">    169.24939515 </i>
    <i name="pawpsdc">   6025.53193130 </i>
    <i name="pawaedc">  -6024.99682111 </i>
    <i name="eentropy">     -0.00601254 </i>
    <i name="bandstr">   -490.08214782 </i>
    <i name="atom">   1746.50554237 </i>
    <i name="e_fr_energy">   -124.05989191 </i>
    <i name="e_wo_entrp">   -124.05387937 </i>
    <i name="e_0_energy">   -124.05688564 </i>
   </energy>
  </scstep>
  <structure>
   <crystal>
    <varray name="basis" >
     <v>       4.27816549       2.47000000       0.00000000 </v>
     <v>      -4.27816549       2.47000000       0.00000000 </v>
     <v>       0.00000000       0.00000000      15.00000000 </v>
    </varray>
    <i name="volume">    317.01206316 </i>
    <varray name="rec_basis" >
     <v>       0.11687252       0.20242915       0.00000000 </v>
     <v>      -0.11687252       0.20242915       0.00000000 </v>
     <v>       0.00000000       0.00000000       0.06666667 </v>
    </varray>
   </crystal>
   <varray name="positions" >
    <v>       0.67019180       0.00000003       0.10001249 </v>
    <v>       0.32980723       0.00000003       0.10001249 </v>
    <v>      -0.00000003       0.32980720       0.10001249 </v>
    <v>      -0.00000003       0.67019177       0.10001249 </v>
    <v>       0.32980723       0.32980720       0.10001249 </v>
    <v>       0.67019180       0.67019177       0.10001249 </v>
    <v>       0.66666600       0.33333300       0.09922690 </v>
    <v>       0.33333300       0.66666600       0.10080027 </v>
    <v>       0.33332971       0.16666485       0.47058737 </v>
    <v>       0.50000024       0.00000047       0.47058711 </v>
    <v>       0.33333267       0.66666633       0.47058681 </v>
    <v>       0.50000024       0.49999876       0.47058711 </v>
    <v>       0.83333415       0.16666485       0.47058737 </v>
    <v>       0.99999967       0.99999933       0.47058766 </v>
    <v>       0.83333415       0.66666929       0.47058737 </v>
    <v>       0.99999853       0.49999876       0.47058711 </v>
   </varray>
  </structure>
  <varray name="forces" >
   <v>       0.00083665       0.00047969       0.00816741 </v>
   <v>      -0.00083375      -0.00048471       0.00816741 </v>
   <v>       0.00083665      -0.00047969       0.00816741 </v>
   <v>      -0.00083375       0.00048471       0.00816741 </v>
   <v>      -0.00000290      -0.00096440       0.00816741 </v>
   <v>      -0.00000290       0.00096440       0.00816741 </v>
   <v>       0.00000000      -0.00000000       0.00473363 </v>
   <v>       0.00000000       0.00000000       0.01259883 </v>
   <v>       0.00021518       0.00037269      -0.00822357 </v>
   <v>       0.00008024      -0.00013898      -0.00835836 </v>
   <v>      -0.00000000      -0.00000000      -0.00850691 </v>
   <v>      -0.00016048      -0.00000000      -0.00835836 </v>
   <v>      -0.00043035      -0.00000000      -0.00822357 </v>
   <v>       0.00000000      -0.00000000      -0.00808424 </v>
   <v>       0.00021518      -0.00037269      -0.00822357 </v>
   <v>       0.00008024       0.00013898      -0.00835836 </v>
  </varray>
  <varray name="stress" >
   <v>      40.16579070       0.00000000       0.00000000 </v>
   <v>       0.00000000      40.16579070       0.00000000 </v>
   <v>       0.00000000       0.00000000      -3.64794290 </v>
  </varray>
  <energy>
   <i name="e_fr_energy">   -125.56567473 </i>
   <i name="e_wo_entrp">   -125.55966218 </i>
   <i name="e_0_energy">   -125.56266845 </i>
  </energy>
  <time name="totalsc">   12.94   13.09</time>
 </calculation>
 <calculation>
  <scstep>
   <time name="dav">    1.58    1.59</time>
   <time name="total">    1.71    1.73</time>
   <energy>
    <i name="alphaZ">     61.42931329 </i>
    <i name="ewald">   1911.35365317 </i>
    <i name="hartreedc">  -3523.05120821 </i>
    <i name="XCdc">    169.24909479 </i>
    <i name="pawpsdc">   6025.65039130 </i>
    <i name="pawaedc">  -6025.11527625 </i>
    <i name="eentropy">     -0.00601255 </i>
    <i name="bandstr">   -490.07538901 </i>
    <i name="atom">   1746.50554237 </i>
    <i name="e_fr_energy">   -124.05989110 </i>
    <i name="e_wo_entrp">   -124.05387855 </i>
    <i name="e_0_energy">   -124.05688483 </i>
   </energy>
  </scstep>
  <scstep>
   <time name="dav">    1.93    1.95</time>
   <time name="total">    1.97    1.98</time>
   <energy>
    <i name="alphaZ">     61.42931329 </i>
    <i name="ewald">   1911.35365317 </i>
    <i name="hartreedc">  -3523.05354693 </i>
    <i name="XCdc">    169.24912366 </i>
    <i name="pawpsdc">   6025.60241783 </i>
    <i name="pawaedc">  -6025.06729920 </i>
    <i name="eentropy">     -0.00601286 </i>
    <i name="bandstr">   -490.07308268 </i>
    <i name="atom">   1746.50554237 </i>
    <i name="e_fr_energy">   -124.05989136 </i>
    <i name="e_wo_entrp">   -124.05387850 </i>
    <i name="e_0_energy">   -124.05688493 </i>
   </energy>
  </scstep>
  <structure>
   <crystal>
    <varray name="basis" >
     <v>       4.27816549       2.47000000       0.00000000 </v>
     <v>      -4.27816549       2.47000000       0.00000000 </v>
     <v>       0.00000000       0.00000000      15.00000000 </v>
    </varray>
    <i name="volume">    317.01206316 </i>
    <varray name="rec_basis" >
     <v>       0.11687252       0.20242915       0.00000000 </v>
     <v>      -0.11687252       0.20242915       0.00000000 </v>
     <v>       0.00000000       0.00000000       0.06666667 </v>
    </varray>
   </crystal>
   <varray name="positions" >
    <v>       0.67019957       0.00000003       0.10001256 </v>
    <v>       0.32979946       0.00000003       0.10001256 </v>
    <v>      -0.00000003       0.32979943       0.10001256 </v>
    <v>      -0.00000003       0.67019954       0.10001256 </v>
    <v>       0.32979946       0.32979943       0.10001256 </v>
    <v>       0.67019957       0.67019954       0.10001256 </v>
    <v>       0.66666600       0.33333300       0.09922693 </v>
    <v>       0.33333300       0.66666600       0.10080041 </v>
    <v>       0.33332969       0.16666485       0.47058729 </v>
    <v>       0.50000024       0.00000048       0.47058704 </v>
    <v>       0.33333267       0.66666633       0.47058673 </v>
    <v>       0.50000024       0.49999876       0.47058704 </v>
    <v>       0.83333415       0.16666485       0.47058729 </v>
    <v>       0.99999967       0.99999933       0.47058759 </v>
    <v>       0.83333415       0.66666931       0.47058729 </v>
    <v>       0.99999852       0.49999876       0.47058704 </v>
   </varray>
  </structure>
  <varray name="forces" >
   <v>      -0.00173346      -0.00100346       0.00816011 </v>
   <v>       0.00173575       0.00099949       0.00816011 </v>
   <v>      -0.00173346       0.00100346       0.00816011 </v>
   <v>       0.00173575      -0.00099949       0.00816011 </v>
   <v>      -0.00000229       0.00200295       0.00816011 </v>
   <v>      -0.00000229      -0.00200295       0.00816011 </v>
   <v>       0.00000000       0.00000000       0.00476003 </v>
   <v>       0.00000000       0.00000000       0.01257677 </v>
   <v>       0.00021902       0.00037935      -0.00821894 </v>
   <v>       0.00008170      -0.00014150      -0.00835297 </v>
   <v>       0.00000000       0.00000000      -0.00850089 </v>
   <v>      -0.00016339       0.00000000      -0.00835297 </v>
   <v>      -0.00043804       0.00000000      -0.00821894 </v>
   <v>       0.00000000       0.00000000      -0.00808084 </v>
   <v>       0.00021902      -0.00037935      -0.00821894 </v>
   <v>       0.00008170       0.00014150      -0.00835297 </v>
  </varray>
  <varray name="stress" >
   <v>      40.16730459       0.00000000      -0.00000000 </v>
   <v>       0.00000000      40.16730459       0.00000000 </v>
   <v>       0.00000000       0.00000000      -3.65029901 </v>
  </varray>
  <energy>
   <i name="e_fr_energy">   -125.56567517 </i>
   <i name="e_wo_entrp">   -125.55966230 </i>
   <i name="e_0_energy">   -125.56266874 </i>
  </energy>
  <time name="totalsc">    5.11    5.16</time>
 </calculation>
 <calculation>
  <scstep>
   <time name="dav">    1.51    1.52</time>
   <time name="total">    1.64    1.66</time>
   <energy>
    <i name="alphaZ">     61.42931329 </i>
    <i name="ewald">   1911.35614416 </i>
    <i name="hartreedc">  -3523.05787633 </i>
    <i name="XCdc">    169.24923846 </i>
    <i name="pawpsdc">   6025.56105059 </i>
    <i name="pawaedc">  -6025.02592753 </i>
    <i name="eentropy">     -0.00601278 </i>
    <i name="bandstr">   -490.07136459 </i>
    <i name="atom">   1746.50554237 </i>
    <i name="e_fr_energy">   -124.05989235 </i>
    <i name="e_wo_entrp">   -124.05387957 </i>
    <i name="e_0_energy">   -124.05688596 </i>
   </energy>
  </scstep>
  <scstep>
   <time name="dav">    2.19    2.21</time>
   <time name="total">    2.23    2.24</time>
   <energy>
    <i name="alphaZ">     61.42931329 </i>
    <i name="ewald">   1911.35614416 </i>
    <i name="hartreedc">  -3523.06055407 </i>
    <i name="XCdc">    169.24928308 </i>
    <i name="pawpsdc">   6025.56571069 </i>
    <i name="pawaedc">  -6025.03059155 </i>
    <i name="eentropy">     -0.00601289 </i>
    <i name="bandstr">   -490.06872763 </i>
    <i name="atom">   1746.50554237 </i>
    <i name="e_fr_energy">   -124.05989255 </i>
    <i name="e_wo_entrp">   -124.05387967 </i>
    <i name="e_0_energy">   -124.05688611 </i>
   </energy>
  </scstep>
  <structure>
   <crystal>
    <varray name="basis" >
     <v>       4.27816549       2.47000000       0.00000000 </v>
     <v>      -4.27816549       2.47000000       0.00000000 </v>
     <v>       0.00000000       0.00000000      15.00000000 </v>
    </varray>
    <i name="volume">    317.01206316 </i>
    <varray name="rec_basis" >
     <v>       0.11687252       0.20242915       0.00000000 </v>
     <v>      -0.11687252       0.20242915       0.00000000 </v>
     <v>       0.00000000       0.00000000       0.06666667 </v>
    </varray>
   </crystal>
   <varray name="positions" >
    <v>       0.67019611       0.00000003       0.10001253 </v>
    <v>       0.32980292       0.00000003       0.10001253 </v>
    <v>      -0.00000003       0.32980289       0.10001253 </v>
    <v>      -0.00000003       0.67019608       0.10001253 </v>
    <v>       0.32980292       0.32980289       0.10001253 </v>
    <v>       0.67019611       0.67019608       0.10001253 </v>
    <v>       0.66666600       0.33333300       0.09922691 </v>
    <v>       0.33333300       0.66666600       0.10080035 </v>
    <v>       0.33332970       0.16666485       0.47058732 </v>
    <v>       0.50000024       0.00000048       0.47058707 </v>
    <v>       0.33333267       0.66666633       0.47058676 </v>
    <v>       0.50000024       0.49999876       0.47058707 </v>
    <v>       0.83333415       0.16666485       0.47058732 </v>
    <v>       0.99999967       0.99999933       0.47058762 </v>
    <v>       0.83333415       0.66666930       0.47058732 </v>
    <v>       0.99999852       0.49999876       0.47058707 </v>
   </varray>
  </structure>
  <varray name="forces" >
   <v>      -0.00144384      -0.00083624       0.00815936 </v>
   <v>       0.00144613       0.00083228       0.00815936 </v>
   <v>      -0.00144384       0.00083624       0.00815936 </v>
   <v>       0.00144613      -0.00083228       0.00815936 </v>
   <v>      -0.00000228       0.00166853       0.00815936 </v>
   <v>      -0.00000228      -0.00166853       0.00815936 </v>
   <v>      -0.00000000      -0.00000000       0.00476875 </v>
   <v>       0.00000000      -0.00000000       0.01258673 </v>
   <v>       0.00021748       0.00037668      -0.00822062 </v>
   <v>       0.00008107      -0.00014042      -0.00835498 </v>
   <v>      -0.00000000      -0.00000000      -0.00850284 </v>
   <v>      -0.00016215      -0.00000000      -0.00835498 </v>
   <v>      -0.00043496      -0.00000000      -0.00822062 </v>
   <v>       0.00000000      -0.00000000      -0.00808199 </v>
   <v>       0.00021748      -0.00037668      -0.00822062 </v>
   <v>       0.00008107       0.00014042      -0.00835498 </v>
  </varray>
  <varray name="stress" >
   <v>      40.17037786       0.00000000      -0.00000000 </v>
   <v>       0.00000000      40.17037786       0.00000000 </v>
   <v>       0.00000000       0.00000000      -3.64959756 </v>
  </varray>
  <energy>
   <i name="e_fr_energy">   -125.56567592 </i>
   <i name="e_wo_entrp">   -125.55966303 </i>
   <i name="e_0_energy">   -125.56266947 </i>
  </energy>
  <time name="totalsc">    5.31    5.36</time>
 </calculation>
 <calculation>
  <scstep>
   <time name="dav">    1.57    1.58</time>
   <time name="total">    1.69    1.71</time>
   <energy>
    <i name="alphaZ">     61.42931329 </i>
    <i name="ewald">   1911.35769757 </i>
    <i name="hartreedc">  -3523.06415693 </i>
    <i name="XCdc">    169.24936860 </i>
    <i name="pawpsdc">   6025.56485428 </i>
    <i name="pawaedc">  -6025.02973749 </i>
    <i name="eentropy">     -0.00601292 </i>
    <i name="bandstr">   -490.06676188 </i>
    <i name="atom">   1746.50554237 </i>
    <i name="e_fr_energy">   -124.05989311 </i>
    <i name="e_wo_entrp">   -124.05388019 </i>
    <i name="e_0_energy">   -124.05688665 </i>
   </energy>
  </scstep>
  <scstep>
   <time name="dav">    2.30    2.31</time>
   <time name="total">    2.33    2.34</time>
   <energy>
    <i name="alphaZ">     61.42931329 </i>
    <i name="ewald">   1911.35769757 </i>
    <i name="hartreedc">  -3523.06588251 </i>
    <i name="XCdc">    169.24939399 </i>
    <i name="pawpsdc">   6025.57405770 </i>
    <i name="pawaedc">  -6025.03894372 </i>
    <i name="eentropy">     -0.00601300 </i>
    <i name="bandstr">   -490.06505890 </i>
    <i name="atom">   1746.50554237 </i>
    <i name="e_fr_energy">   -124.05989322 </i>
    <i name="e_wo_entrp">   -124.05388021 </i>
    <i name="e_0_energy">   -124.05688672 </i>
   </energy>
  </scstep>
  <structure>
   <crystal>
    <varray name="basis" >
     <v>       4.27816549       2.47000000       0.00000000 </v>
     <v>      -4.27816549       2.47000000       0.00000000 </v>
     <v>       0.00000000       0.00000000      15.00000000 </v>
    </varray>
    <i name="volume">    317.01206316 </i>
    <varray name="rec_basis" >
     <v>       0.11687252       0.20242915       0.00000000 </v>
     <v>      -0.11687252       0.20242915       0.00000000 </v>
     <v>       0.00000000       0.00000000       0.06666667 </v>
    </varray>
   </crystal>
   <varray name="positions" >
    <v>       0.67019395       0.00000003       0.10001251 </v>
    <v>       0.32980507       0.00000003       0.10001251 </v>
    <v>      -0.00000003       0.32980505       0.10001251 </v>
    <v>      -0.00000003       0.67019393       0.10001251 </v>
    <v>       0.32980507       0.32980505       0.10001251 </v>
    <v>       0.67019395       0.67019393       0.10001251 </v>
    <v>       0.66666600       0.33333300       0.09922691 </v>
    <v>       0.33333300       0.66666600       0.10080031 </v>
    <v>       0.33332970       0.16666485       0.47058735 </v>
    <v>       0.50000024       0.00000048       0.47058709 </v>
    <v>       0.33333267       0.66666633       0.47058679 </v>
    <v>       0.50000024       0.49999876       0.47058709 </v>
    <v>       0.83333415       0.16666485       0.47058735 </v>
    <v>       0.99999967       0.99999933       0.47058764 </v>
    <v>       0.83333415       0.66666930       0.47058735 </v>
    <v>       0.99999852       0.49999876       0.47058709 </v>
   </varray>
  </structure>
  <varray name="forces" >
   <v>      -0.00101111      -0.00058651       0.00816133 </v>
   <v>       0.00101349       0.00058240       0.00816133 </v>
   <v>      -0.00101111       0.00058651       0.00816133 </v>
   <v>       0.00101349      -0.00058240       0.00816133 </v>
   <v>      -0.00000238       0.00116891       0.00816133 </v>
   <v>      -0.00000238      -0.00116891       0.00816133 </v>
   <v>       0.00000000       0.00000000       0.00477110 </v>
   <v>       0.00000000       0.00000000       0.01259574 </v>
   <v>       0.00021665       0.00037525      -0.00822347 </v>
   <v>       0.00008077      -0.00013989      -0.00835796 </v>
   <v>       0.00000000       0.00000000      -0.00850597 </v>
   <v>      -0.00016153      -0.00000000      -0.00835796 </v>
   <v>      -0.00043330       0.00000000      -0.00822347 </v>
   <v>       0.00000000       0.00000000      -0.00808452 </v>
   <v>       0.00021665      -0.00037525      -0.00822347 </v>
   <v>       0.00008077       0.00013989      -0.00835796 </v>
  </varray>
  <varray name="stress" >
   <v>      40.17232017       0.00000000       0.00000000 </v>
   <v>       0.00000000      40.17232017       0.00000000 </v>
   <v>       0.00000000       0.00000000      -3.65332121 </v>
  </varray>
  <energy>
   <i name="e_fr_energy">   -125.56567631 </i>
   <i name="e_wo_entrp">   -125.55966330 </i>
   <i name="e_0_energy">   -125.56266980 </i>
  </energy>
  <time name="totalsc">    5.46    5.51</time>
 </calculation>
 <calculation>
  <scstep>
   <time name="dav">    1.58    1.59</time>
   <time name="total">    1.71    1.73</time>
   <energy>
    <i name="alphaZ">     61.42931329 </i>
    <i name="ewald">   1911.35847434 </i>
    <i name="hartreedc">  -3523.06820934 </i>
    <i name="XCdc">    169.24944052 </i>
    <i name="pawpsdc">   6025.58058410 </i>
    <i name="pawaedc">  -6025.04547174 </i>
    <i name="eentropy">     -0.00601304 </i>
    <i name="bandstr">   -490.06355398 </i>
    <i name="atom">   1746.50554237 </i>
    <i name="e_fr_energy">   -124.05989349 </i>
    <i name="e_wo_entrp">   -124.05388046 </i>
    <i name="e_0_energy">   -124.05688698 </i>
   </energy>
  </scstep>
  <scstep>
   <time name="dav">    2.33    2.34</time>
   <time name="total">    2.36    2.38</time>
   <energy>
    <i name="alphaZ">     61.42931329 </i>
    <i name="ewald">   1911.35847434 </i>
    <i name="hartreedc">  -3523.06926595 </i>
    <i name="XCdc">    169.24945432 </i>
    <i name="pawpsdc">   6025.58654537 </i>
    <i name="pawaedc">  -6025.05143442 </i>
    <i name="eentropy">     -0.00601308 </i>
    <i name="bandstr">   -490.06250979 </i>
    <i name="atom">   1746.50554237 </i>
    <i name="e_fr_energy">   -124.05989355 </i>
    <i name="e_wo_entrp">   -124.05388047 </i>
    <i name="e_0_energy">   -124.05688701 </i>
   </energy>
  </scstep>
  <structure>
   <crystal>
    <varray name="basis" >
     <v>       4.27816549       2.47000000       0.00000000 </v>
     <v>      -4.27816549       2.47000000       0.00000000 </v>
     <v>       0.00000000       0.00000000      15.00000000 </v>
    </varray>
    <i name="volume">    317.01206316 </i>
    <varray name="rec_basis" >
     <v>       0.11687252       0.20242915       0.00000000 </v>
     <v>      -0.11687252       0.20242915       0.00000000 </v>
     <v>       0.00000000       0.00000000       0.06666667 </v>
    </varray>
   </crystal>
   <varray name="positions" >
    <v>       0.67019287       0.00000003       0.10001250 </v>
    <v>       0.32980615       0.00000003       0.10001250 </v>
    <v>      -0.00000003       0.32980613       0.10001250 </v>
    <v>      -0.00000003       0.67019285       0.10001250 </v>
    <v>       0.32980615       0.32980613       0.10001250 </v>
    <v>       0.67019287       0.67019285       0.10001250 </v>
    <v>       0.66666600       0.33333300       0.09922690 </v>
    <v>       0.33333300       0.66666600       0.10080029 </v>
    <v>       0.33332971       0.16666485       0.47058736 </v>
    <v>       0.50000024       0.00000048       0.47058710 </v>
    <v>       0.33333267       0.66666633       0.47058680 </v>
    <v>       0.50000024       0.49999876       0.47058710 </v>
    <v>       0.83333415       0.16666485       0.47058736 </v>
    <v>       0.99999967       0.99999933       0.47058765 </v>
    <v>       0.83333415       0.66666929       0.47058736 </v>
    <v>       0.99999852       0.49999876       0.47058710 </v>
   </varray>
  </structure>
  <varray name="forces" >
   <v>      -0.00077615      -0.00045090       0.00816307 </v>
   <v>       0.00077856       0.00044672       0.00816307 </v>
   <v>      -0.00077615       0.00045090       0.00816307 </v>
   <v>       0.00077856      -0.00044672       0.00816307 </v>
   <v>      -0.00000241       0.00089761       0.00816307 </v>
   <v>      -0.00000241      -0.00089761       0.00816307 </v>
   <v>       0.00000000       0.00000000       0.00477377 </v>
   <v>       0.00000000      -0.00000000       0.01260163 </v>
   <v>       0.00021624       0.00037453      -0.00822581 </v>
   <v>       0.00008061      -0.00013962      -0.00836037 </v>
   <v>       0.00000000      -0.00000000      -0.00850847 </v>
   <v>      -0.00016122       0.00000000      -0.00836037 </v>
   <v>      -0.00043247       0.00000000      -0.00822581 </v>
   <v>       0.00000000      -0.00000000      -0.00808681 </v>
   <v>       0.00021624      -0.00037453      -0.00822581 </v>
   <v>       0.00008061       0.00013962      -0.00836037 </v>
  </varray>
  <varray name="stress" >
   <v>      40.17339581       0.00000000       0.00000000 </v>
   <v>       0.00000000      40.17339581       0.00000000 </v>
   <v>      -0.00000000       0.00000000      -3.65577564 </v>
  </varray>
  <energy>
   <i name="e_fr_energy">   -125.56567650 </i>
   <i name="e_wo_entrp">   -125.55966342 </i>
   <i name="e_0_energy">   -125.56266996 </i>
  </energy>
  <time name="totalsc">    5.51    5.57</time>
 </calculation>
 <calculation>
  <scstep>
   <time name="dav">    1.67    1.68</time>
   <time name="total">    1.80    1.82</time>
   <energy>
    <i name="alphaZ">     61.42931329 </i>
    <i name="ewald">   1911.35886273 </i>
    <i name="hartreedc">  -3523.07052817 </i>
    <i name="XCdc">    169.24947760 </i>
    <i name="pawpsdc">   6025.59047690 </i>
    <i name="pawaedc">  -6025.05536665 </i>
    <i name="eentropy">     -0.00601309 </i>
    <i name="bandstr">   -490.06165865 </i>
    <i name="atom">   1746.50554237 </i>
    <i name="e_fr_energy">   -124.05989367 </i>
    <i name="e_wo_entrp">   -124.05388058 </i>
    <i name="e_0_energy">   -124.05688713 </i>
   </energy>
  </scstep>
  <scstep>
   <time name="dav">    2.24    2.26</time>
   <time name="total">    2.27    2.29</time>
   <energy>
    <i name="alphaZ">     61.42931329 </i>
    <i name="ewald">   1911.35886273 </i>
    <i name="hartreedc">  -3523.07123021 </i>
    <i name="XCdc">    169.24948620 </i>
    <i name="pawpsdc">   6025.59397077 </i>
    <i name="pawaedc">  -6025.05886131 </i>
    <i name="eentropy">     -0.00601311 </i>
    <i name="bandstr">   -490.06096444 </i>
    <i name="atom">   1746.50554237 </i>
    <i name="e_fr_energy">   -124.05989370 </i>
    <i name="e_wo_entrp">   -124.05388059 </i>
    <i name="e_0_energy">   -124.05688714 </i>
   </energy>
  </scstep>
  <structure>
   <crystal>
    <varray name="basis" >
     <v>       4.27816549       2.47000000       0.00000000 </v>
     <v>      -4.27816549       2.47000000       0.00000000 </v>
     <v>       0.00000000       0.00000000      15.00000000 </v>
    </varray>
    <i name="volume">    317.01206316 </i>
    <varray name="rec_basis" >
     <v>       0.11687252       0.20242915       0.00000000 </v>
     <v>      -0.11687252       0.20242915       0.00000000 </v>
     <v>       0.00000000       0.00000000       0.06666667 </v>
    </varray>
   </crystal>
   <varray name="positions" >
    <v>       0.67019234       0.00000003       0.10001249 </v>
    <v>       0.32980669       0.00000003       0.10001249 </v>
    <v>      -0.00000003       0.32980666       0.10001249 </v>
    <v>      -0.00000003       0.67019231       0.10001249 </v>
    <v>       0.32980669       0.32980666       0.10001249 </v>
    <v>       0.67019234       0.67019231       0.10001249 </v>
    <v>       0.66666600       0.33333300       0.09922690 </v>
    <v>       0.33333300       0.66666600       0.10080028 </v>
    <v>       0.33332971       0.16666485       0.47058736 </v>
    <v>       0.50000024       0.00000048       0.47058711 </v>
    <v>       0.33333267       0.66666633       0.47058680 </v>
    <v>       0.50000024       0.49999876       0.47058711 </v>
    <v>       0.83333415       0.16666485       0.47058736 </v>
    <v>       0.99999967       0.99999933       0.47058765 </v>
    <v>       0.83333415       0.66666929       0.47058736 </v>
    <v>       0.99999852       0.49999876       0.47058711 </v>
   </varray>
  </structure>
  <varray name="forces" >
   <v>      -0.00065956      -0.00038359       0.00816412 </v>
   <v>       0.00066198       0.00037940       0.00816412 </v>
   <v>      -0.00065956       0.00038359       0.00816412 </v>
   <v>       0.00066198      -0.00037940       0.00816412 </v>
   <v>      -0.00000242       0.00076299       0.00816412 </v>
   <v>      -0.00000242      -0.00076299       0.00816412 </v>
   <v>       0.00000000      -0.00000000       0.00477542 </v>
   <v>       0.00000000      -0.00000000       0.01260478 </v>
   <v>       0.00021603       0.00037417      -0.00822717 </v>
   <v>       0.00008053      -0.00013949      -0.00836176 </v>
   <v>      -0.00000000      -0.00000000      -0.00850998 </v>
   <v>      -0.00016106      -0.00000000      -0.00836176 </v>
   <v>      -0.00043205      -0.00000000      -0.00822717 </v>
   <v>       0.00000000      -0.00000000      -0.00808815 </v>
   <v>       0.00021603      -0.00037417      -0.00822717 </v>
   <v>       0.00008053       0.00013949      -0.00836176 </v>
  </varray>
  <varray name="stress" >
   <v>      40.17396227       0.00000000      -0.00000000 </v>
   <v>       0.00000000      40.17396227       0.00000000 </v>
   <v>      -0.00000000       0.00000000      -3.65708492 </v>
  </varray>
  <energy>
   <i name="e_fr_energy">   -125.56567658 </i>
   <i name="e_wo_entrp">   -125.55966347 </i>
   <i name="e_0_energy">   -125.56267002 </i>
  </energy>
  <time name="totalsc">    5.53    5.59</time>
 </calculation>
 <calculation>
  <scstep>
   <time name="dav">    1.43    1.45</time>
   <time name="total">    1.56    1.58</time>
   <energy>
    <i name="alphaZ">     61.42931329 </i>
    <i name="ewald">   1911.96995129 </i>
    <i name="hartreedc">  -3523.68318380 </i>
    <i name="XCdc">    169.24948301 </i>
    <i name="pawpsdc">   6025.59617479 </i>
    <i name="pawaedc">  -6025.06106567 </i>
    <i name="eentropy">     -0.00601321 </i>
    <i name="bandstr">   -490.06010371 </i>
    <i name="atom">   1746.50554237 </i>
    <i name="e_fr_energy">   -124.05990166 </i>
    <i name="e_wo_entrp">   -124.05388845 </i>
    <i name="e_0_energy">   -124.05689506 </i>
   </energy>
  </scstep>
  <scstep>
   <time name="dav">    1.53    1.54</time>
   <time name="total">    1.65    1.67</time>
   <energy>
    <i name="e_fr_energy">   -124.05990027 </i>
    <i name="e_wo_entrp">   -124.05388688 </i>
    <i name="e_0_energy">   -124.05689358 </i>
   </energy>
  </scstep>
  <scstep>
   <time name="dav">    1.75    1.77</time>
   <time name="total">    1.79    1.80</time>
   <energy>
    <i name="alphaZ">     61.42931329 </i>
    <i name="ewald">   1911.96995129 </i>
    <i name="hartreedc">  -3523.69213160 </i>
    <i name="XCdc">    169.24951010 </i>
    <i name="pawpsdc">   6025.59482204 </i>
    <i name="pawaedc">  -6025.05970980 </i>
    <i name="eentropy">     -0.00601325 </i>
    <i name="bandstr">   -490.05118403 </i>
    <i name="atom">   1746.50554237 </i>
    <i name="e_fr_energy">   -124.05989960 </i>
    <i name="e_wo_entrp">   -124.05388635 </i>
    <i name="e_0_energy">   -124.05689298 </i>
   </energy>
  </scstep>
  <structure>
   <crystal>
    <varray name="basis" >
     <v>       4.27816549       2.47000000       0.00000000 </v>
     <v>      -4.27816549       2.47000000       0.00000000 </v>
     <v>       0.00000000       0.00000000      15.00000000 </v>
    </varray>
    <i name="volume">    317.01206316 </i>
    <varray name="rec_basis" >
     <v>       0.11687252       0.20242915       0.00000000 </v>
     <v>      -0.11687252       0.20242915       0.00000000 </v>
     <v>       0.00000000       0.00000000       0.06666667 </v>
    </varray>
   </crystal>
   <varray name="positions" >
    <v>       0.67019226       0.00000000       0.10003607 </v>
    <v>       0.32980674       0.00000000       0.10003607 </v>
    <v>      -0.00000000       0.32980674       0.10003607 </v>
    <v>      -0.00000000       0.67019226       0.10003607 </v>
    <v>       0.32980674       0.32980674       0.10003607 </v>
    <v>       0.67019226       0.67019226       0.10003607 </v>
    <v>       0.66666600       0.33333300       0.09924068 </v>
    <v>       0.33333300       0.66666600       0.10083670 </v>
    <v>       0.33333406       0.16666703       0.47056360 </v>
    <v>       0.49999943      -0.00000115       0.47056296 </v>
    <v>       0.33333267       0.66666633       0.47056222 </v>
    <v>       0.49999943       0.49999957       0.47056296 </v>
    <v>       0.83333197       0.16666703       0.47056360 </v>
    <v>       0.99999967       0.99999933       0.47056429 </v>
    <v>       0.83333197       0.66666494       0.47056360 </v>
    <v>       0.00000015       0.49999957       0.47056296 </v>
   </varray>
  </structure>
  <varray name="forces" >
   <v>      -0.00063972      -0.00037124       0.00787001 </v>
   <v>       0.00064136       0.00036839       0.00787001 </v>
   <v>      -0.00063972       0.00037124       0.00787001 </v>
   <v>       0.00064136      -0.00036839       0.00787001 </v>
   <v>      -0.00000164       0.00073963       0.00787001 </v>
   <v>      -0.00000164      -0.00073963       0.00787001 </v>
   <v>       0.00000000       0.00000000       0.00446161 </v>
   <v>       0.00000000      -0.00000000       0.01241955 </v>
   <v>      -0.00053564      -0.00092775      -0.00797268 </v>
   <v>      -0.00018939       0.00032803      -0.00805286 </v>
   <v>      -0.00000000      -0.00000000      -0.00813042 </v>
   <v>       0.00037878       0.00000000      -0.00805286 </v>
   <v>       0.00107128      -0.00000000      -0.00797268 </v>
   <v>       0.00000000       0.00000000      -0.00789418 </v>
   <v>      -0.00053564       0.00092775      -0.00797268 </v>
   <v>      -0.00018939      -0.00032803      -0.00805286 </v>
  </varray>
  <varray name="stress" >
   <v>      40.17350755       0.00000000      -0.00000000 </v>
   <v>       0.00000000      40.17350755       0.00000000 </v>
   <v>       0.00000000       0.00000000      -3.66148224 </v>
  </varray>
  <energy>
   <i name="e_fr_energy">   -125.56572571 </i>
   <i name="e_wo_entrp">   -125.55971246 </i>
   <i name="e_0_energy">   -125.56271908 </i>
  </energy>
  <time name="totalsc">    6.42    6.50</time>
 </calculation>
 <calculation>
  <scstep>
   <time name="dav">    1.43    1.44</time>
   <time name="total">    1.55    1.58</time>
   <energy>
    <i name="alphaZ">     61.42931329 </i>
    <i name="ewald">   1913.80450335 </i>
    <i name="hartreedc">  -3525.52509520 </i>
    <i name="XCdc">    169.24947350 </i>
    <i name="pawpsdc">   6025.59732733 </i>
    <i name="pawaedc">  -6025.06221477 </i>
    <i name="eentropy">     -0.00601346 </i>
    <i name="bandstr">   -490.05277193 </i>
    <i name="atom">   1746.50554237 </i>
    <i name="e_fr_energy">   -124.05993552 </i>
    <i name="e_wo_entrp">   -124.05392206 </i>
    <i name="e_0_energy">   -124.05692879 </i>
   </energy>
  </scstep>
  <scstep>
   <time name="dav">    1.52    1.53</time>
   <time name="total">    1.65    1.67</time>
   <energy>
    <i name="e_fr_energy">   -124.05992195 </i>
    <i name="e_wo_entrp">   -124.05390799 </i>
    <i name="e_0_energy">   -124.05691497 </i>
   </energy>
  </scstep>
  <scstep>
   <time name="dav">    1.92    1.93</time>
   <time name="total">    2.05    2.08</time>
   <energy>
    <i name="e_fr_energy">   -124.05991602 </i>
    <i name="e_wo_entrp">   -124.05390249 </i>
    <i name="e_0_energy">   -124.05690925 </i>
   </energy>
  </scstep>
  <scstep>
   <time name="dav">    1.53    1.54</time>
   <time name="total">    1.56    1.58</time>
   <energy>
    <i name="alphaZ">     61.42931329 </i>
    <i name="ewald">   1913.80450335 </i>
    <i name="hartreedc">  -3525.54033438 </i>
    <i name="XCdc">    169.24952341 </i>
    <i name="pawpsdc">   6025.58951299 </i>
    <i name="pawaedc">  -6025.05439164 </i>
    <i name="eentropy">     -0.00601341 </i>
    <i name="bandstr">   -490.03757244 </i>
    <i name="atom">   1746.50554237 </i>
    <i name="e_fr_energy">   -124.05991646 </i>
    <i name="e_wo_entrp">   -124.05390305 </i>
    <i name="e_0_energy">   -124.05690975 </i>
   </energy>
  </scstep>
  <structure>
   <crystal>
    <varray name="basis" >
     <v>       4.27816549       2.47000000       0.00000000 </v>
     <v>      -4.27816549       2.47000000       0.00000000 </v>
     <v>       0.00000000       0.00000000      15.00000000 </v>
    </varray>
    <i name="volume">    317.01206316 </i>
    <varray name="rec_basis" >
     <v>       0.11687252       0.20242915       0.00000000 </v>
     <v>      -0.11687252       0.20242915       0.00000000 </v>
     <v>       0.00000000       0.00000000       0.06666667 </v>
    </varray>
   </crystal>
   <varray name="positions" >
    <v>       0.67019203      -0.00000007       0.10010681 </v>
    <v>       0.32980689      -0.00000007       0.10010681 </v>
    <v>       0.00000007       0.32980697       0.10010681 </v>
    <v>       0.00000007       0.67019211       0.10010681 </v>
    <v>       0.32980689       0.32980697       0.10010681 </v>
    <v>       0.67019203       0.67019211       0.10010681 </v>
    <v>       0.66666600       0.33333300       0.09928202 </v>
    <v>       0.33333300       0.66666600       0.10094597 </v>
    <v>       0.33334710       0.16667355       0.47049231 </v>
    <v>       0.49999700      -0.00000601       0.47049050 </v>
    <v>       0.33333267       0.66666633       0.47048848 </v>
    <v>       0.49999700       0.50000200       0.47049050 </v>
    <v>       0.83332545       0.16667355       0.47049231 </v>
    <v>       0.99999967       0.99999933       0.47049421 </v>
    <v>       0.83332545       0.66665190       0.47049231 </v>
    <v>       0.00000501       0.50000200       0.47049050 </v>
   </varray>
  </structure>
  <varray name="forces" >
   <v>      -0.00064838      -0.00037262       0.00819314 </v>
   <v>       0.00064689       0.00037521       0.00819314 </v>
   <v>      -0.00064838       0.00037262       0.00819314 </v>
   <v>       0.00064689      -0.00037521       0.00819314 </v>
   <v>       0.00000149       0.00074783       0.00819314 </v>
   <v>       0.00000149      -0.00074783       0.00819314 </v>
   <v>      -0.00000000       0.00000000       0.00449649 </v>
   <v>      -0.00000000       0.00000000       0.01282506 </v>
   <v>      -0.00271047      -0.00469468      -0.00835041 </v>
   <v>      -0.00098795       0.00171117      -0.00827603 </v>
   <v>      -0.00000000       0.00000000      -0.00814925 </v>
   <v>       0.00197589       0.00000000      -0.00827603 </v>
   <v>       0.00542095       0.00000000      -0.00835041 </v>
   <v>      -0.00000000       0.00000000      -0.00845186 </v>
   <v>      -0.00271047       0.00469468      -0.00835041 </v>
   <v>      -0.00098795      -0.00171117      -0.00827603 </v>
  </varray>
  <varray name="stress" >
   <v>      40.17240024       0.00000000      -0.00000000 </v>
   <v>       0.00000000      40.17240024       0.00000000 </v>
   <v>       0.00000000       0.00000000      -3.66595194 </v>
  </varray>
  <energy>
   <i name="e_fr_energy">   -125.56587241 </i>
   <i name="e_wo_entrp">   -125.55985900 </i>
   <i name="e_0_energy">   -125.56286571 </i>
  </energy>
  <time name="totalsc">    8.27    8.37</time>
 </calculation>
 <calculation>
  <scstep>
   <time name="dav">    1.44    1.45</time>
   <time name="total">    1.57    1.59</time>
   <energy>
    <i name="alphaZ">     61.42931329 </i>
    <i name="ewald">   1917.47939420 </i>
    <i name="hartreedc">  -3529.20982680 </i>
    <i name="XCdc">    169.24944852 </i>
    <i name="pawpsdc">   6025.58018864 </i>
    <i name="pawaedc">  -6025.04506957 </i>
    <i name="eentropy">     -0.00601393 </i>
    <i name="bandstr">   -490.04300178 </i>
    <i name="atom">   1746.50554237 </i>
    <i name="e_fr_energy">   -124.06002506 </i>
    <i name="e_wo_entrp">   -124.05401114 </i>
    <i name="e_0_energy">   -124.05701810 </i>
   </energy>
  </scstep>
  <scstep>
   <time name="dav">    1.52    1.53</time>
   <time name="total">    1.65    1.67</time>
   <energy>
    <i name="e_fr_energy">   -124.05997596 </i>
    <i name="e_wo_entrp">   -124.05396106 </i>
    <i name="e_0_energy">   -124.05696851 </i>
   </energy>
  </scstep>
  <scstep>
   <time name="dav">    1.96    1.97</time>
   <time name="total">    2.08    2.10</time>
   <energy>
    <i name="e_fr_energy">   -124.05994758 </i>
    <i name="e_wo_entrp">   -124.05393351 </i>
    <i name="e_0_energy">   -124.05694055 </i>
   </energy>
  </scstep>
  <scstep>
   <time name="dav">    1.87    1.89</time>
   <time name="total">    1.99    2.02</time>
   <energy>
    <i name="e_fr_energy">   -124.05994857 </i>
    <i name="e_wo_entrp">   -124.05393475 </i>
    <i name="e_0_energy">   -124.05694166 </i>
   </energy>
  </scstep>
  <scstep>
   <time name="dav">    1.44    1.46</time>
   <time name="total">    1.48    1.50</time>
   <energy>
[...]
       <r>     2.6824     1.8167    31.3210 </r>
       <r>     2.7862     1.7211    31.4997 </r>
       <r>     2.8900     1.2727    31.6318 </r>
       <r>     2.9938     1.2880    31.7655 </r>
       <r>     3.0976     1.2677    31.8970 </r>
       <r>     3.2014     1.4281    32.0453 </r>
       <r>     3.3052     2.4948    32.3042 </r>
       <r>     3.4090     2.5980    32.5739 </r>
       <r>     3.5128     2.3166    32.8144 </r>
       <r>     3.6166     1.5177    32.9719 </r>
       <r>     3.7204     1.7991    33.1587 </r>
       <r>     3.8242     3.0371    33.4739 </r>
       <r>     3.9280     2.9485    33.7800 </r>
       <r>     4.0318     2.4937    34.0388 </r>
       <r>     4.1356     2.1821    34.2653 </r>
       <r>     4.2394     2.1255    34.4859 </r>
       <r>     4.3432     2.6152    34.7574 </r>
       <r>     4.4470     3.4915    35.1198 </r>
       <r>     4.5508     2.8629    35.4170 </r>
       <r>     4.6546     2.5842    35.6852 </r>
       <r>     4.7584     3.7740    36.0769 </r>
       <r>     4.8622     3.4668    36.4368 </r>
       <r>     4.9660     2.6512    36.7120 </r>
       <r>     5.0698     2.4652    36.9679 </r>
       <r>     5.1736     4.0050    37.3836 </r>
       <r>     5.2774     4.1500    37.8144 </r>
       <r>     5.3812     3.4308    38.1705 </r>
       <r>     5.4850     3.1461    38.4970 </r>
       <r>     5.5888     3.0522    38.8139 </r>
       <r>     5.6926     3.3364    39.1602 </r>
       <r>     5.7964     3.2603    39.4986 </r>
       <r>     5.9002     2.8443    39.7938 </r>
       <r>     6.0040     3.0051    40.1058 </r>
       <r>     6.1078     2.5893    40.3745 </r>
       <r>     6.2116     2.7547    40.6605 </r>
       <r>     6.3154     2.3588    40.9053 </r>
       <r>     6.4192     2.5829    41.1734 </r>
       <r>     6.5230     2.5234    41.4353 </r>
       <r>     6.6268     2.7053    41.7161 </r>
       <r>     6.7306     2.6185    41.9879 </r>
       <r>     6.8344     3.2507    42.3254 </r>
       <r>     6.9382     3.6591    42.7052 </r>
       <r>     7.0420     3.9486    43.1150 </r>
       <r>     7.1458     3.3243    43.4601 </r>
       <r>     7.2496     3.2180    43.7941 </r>
       <r>     7.3534     4.1642    44.2264 </r>
       <r>     7.4572     4.8058    44.7252 </r>
       <r>     7.5610     3.8597    45.1258 </r>
       <r>     7.6648     4.1848    45.5602 </r>
       <r>     7.7686     5.0089    46.0801 </r>
       <r>     7.8724     4.3336    46.5300 </r>
       <r>     7.9762     3.7632    46.9206 </r>
       <r>     8.0800     3.9653    47.3322 </r>
       <r>     8.1838     3.1807    47.6623 </r>
       <r>     8.2876     2.0570    47.8759 </r>
       <r>     8.3914     0.9467    47.9741 </r>
       <r>     8.4952     0.1941    47.9943 </r>
       <r>     8.5990     0.0434    47.9988 </r>
       <r>     8.7028     0.0112    47.9999 </r>
       <r>     8.8066     0.0005    48.0000 </r>
       <r>     8.9104     0.0000    48.0000 </r>
       <r>     9.0142     0.0000    48.0000 </r>
       <r>     9.1180     0.0000    48.0000 </r>
       <r>     9.2218     0.0000    48.0000 </r>
       <r>     9.3256     0.0000    48.0000 </r>
       <r>     9.4294     0.0000    48.0000 </r>
       <r>     9.5332     0.0000    48.0000 </r>
       <r>     9.6370     0.0000    48.0000 </r>
       <r>     9.7408     0.0000    48.0000 </r>
       <r>     9.8446     0.0000    48.0000 </r>
       <r>     9.9484     0.0000    48.0000 </r>
      </set>
      <set comment="spin 2">
       <r>   -21.1914     0.0000     0.0000 </r>
       <r>   -21.0876     0.0000     0.0000 </r>
       <r>   -20.9838     0.0000     0.0000 </r>
       <r>   -20.8800     0.0000     0.0000 </r>
       <r>   -20.7762     0.0000     0.0000 </r>
       <r>   -20.6724     0.0000     0.0000 </r>
       <r>   -20.5686     0.0000     0.0000 </r>
       <r>   -20.4648     0.0000     0.0000 </r>
       <r>   -20.3610     0.0000     0.0000 </r>
       <r>   -20.2572     0.0000     0.0000 </r>
       <r>   -20.1534     0.0000     0.0000 </r>
       <r>   -20.0496     0.0000     0.0000 </r>
       <r>   -19.9458     0.0011     0.0001 </r>
       <r>   -19.8420     0.0385     0.0041 </r>
       <r>   -19.7382     0.2621     0.0313 </r>
       <r>   -19.6344     0.5447     0.0879 </r>
       <r>   -19.5306     0.6002     0.1502 </r>
       <r>   -19.4268     0.6473     0.2173 </r>
       <r>   -19.3230     0.5576     0.2752 </r>
       <r>   -19.2192     0.7057     0.3485 </r>
       <r>   -19.1154     0.5551     0.4061 </r>
       <r>   -19.0116     0.5775     0.4660 </r>
       <r>   -18.9078     0.7817     0.5472 </r>
       <r>   -18.8040     0.4974     0.5988 </r>
       <r>   -18.7002     0.5358     0.6544 </r>
       <r>   -18.5964     0.8046     0.7379 </r>
       <r>   -18.4926     0.6705     0.8075 </r>
       <r>   -18.3888     0.3881     0.8478 </r>
       <r>   -18.2850     0.6217     0.9124 </r>
       <r>   -18.1812     0.8929     1.0050 </r>
       <r>   -18.0774     0.5896     1.0662 </r>
       <r>   -17.9736     0.4871     1.1168 </r>
       <r>   -17.8698     0.4298     1.1614 </r>
       <r>   -17.7660     0.9092     1.2558 </r>
       <r>   -17.6622     0.8274     1.3417 </r>
       <r>   -17.5584     0.4411     1.3875 </r>
       <r>   -17.4546     0.4589     1.4351 </r>
       <r>   -17.3508     0.5638     1.4936 </r>
       <r>   -17.2470     0.8651     1.5834 </r>
       <r>   -17.1432     0.8505     1.6717 </r>
       <r>   -17.0394     0.5885     1.7328 </r>
       <r>   -16.9356     0.2991     1.7638 </r>
       <r>   -16.8318     0.5199     1.8178 </r>
       <r>   -16.7280     0.9030     1.9115 </r>
       <r>   -16.6242     0.8321     1.9979 </r>
       <r>   -16.5204     0.6898     2.0695 </r>
       <r>   -16.4166     0.5775     2.1295 </r>
       <r>   -16.3128     0.3833     2.1692 </r>
       <r>   -16.2090     0.3698     2.2076 </r>
       <r>   -16.1052     1.1178     2.3237 </r>
       <r>   -16.0014     1.1696     2.4451 </r>
       <r>   -15.8976     1.2215     2.5718 </r>
       <r>   -15.7938     1.3109     2.7079 </r>
       <r>   -15.6900     1.3295     2.8459 </r>
       <r>   -15.5862     1.2974     2.9806 </r>
       <r>   -15.4824     1.4820     3.1344 </r>
       <r>   -15.3786     2.1647     3.3591 </r>
       <r>   -15.2748     1.7861     3.5445 </r>
       <r>   -15.1710     1.7622     3.7274 </r>
       <r>   -15.0672     1.5955     3.8930 </r>
       <r>   -14.9634     1.2143     4.0191 </r>
       <r>   -14.8596     1.0336     4.1264 </r>
       <r>   -14.7558     1.1087     4.2415 </r>
       <r>   -14.6520     1.4001     4.3868 </r>
       <r>   -14.5482     1.1720     4.5084 </r>
       <r>   -14.4445     1.4535     4.6593 </r>
       <r>   -14.3407     1.2871     4.7929 </r>
       <r>   -14.2369     1.1881     4.9162 </r>
       <r>   -14.1331     1.4632     5.0681 </r>
       <r>   -14.0293     1.7256     5.2472 </r>
       <r>   -13.9255     1.1526     5.3669 </r>
       <r>   -13.8217     0.6536     5.4347 </r>
       <r>   -13.7179     0.3895     5.4751 </r>
       <r>   -13.6141     0.5172     5.5288 </r>
       <r>   -13.5103     0.9673     5.6292 </r>
       <r>   -13.4065     1.0728     5.7406 </r>
       <r>   -13.3027     0.9867     5.8430 </r>
       <r>   -13.1989     0.7818     5.9242 </r>
       <r>   -13.0951     1.0151     6.0295 </r>
       <r>   -12.9913     0.9145     6.1244 </r>
       <r>   -12.8875     0.6692     6.1939 </r>
       <r>   -12.7837     1.1034     6.3084 </r>
       <r>   -12.6799     1.2358     6.4367 </r>
       <r>   -12.5761     1.3428     6.5761 </r>
       <r>   -12.4723     1.7670     6.7595 </r>
       <r>   -12.3685     1.6412     6.9299 </r>
       <r>   -12.2647     1.6906     7.1054 </r>
       <r>   -12.1609     1.7429     7.2863 </r>
       <r>   -12.0571     1.6331     7.4558 </r>
       <r>   -11.9533     2.4205     7.7070 </r>
       <r>   -11.8495     2.3078     7.9466 </r>
       <r>   -11.7457     1.4070     8.0926 </r>
       <r>   -11.6419     1.2342     8.2207 </r>
       <r>   -11.5381     0.9334     8.3176 </r>
       <r>   -11.4343     0.9876     8.4201 </r>
       <r>   -11.3305     0.7103     8.4939 </r>
       <r>   -11.2267     0.5034     8.5461 </r>
       <r>   -11.1229     0.5792     8.6062 </r>
       <r>   -11.0191     0.6452     8.6732 </r>
       <r>   -10.9153     0.7080     8.7467 </r>
       <r>   -10.8115     1.1190     8.8628 </r>
       <r>   -10.7077     1.4976     9.0183 </r>
       <r>   -10.6039     1.3738     9.1609 </r>
       <r>   -10.5001     1.9826     9.3667 </r>
       <r>   -10.3963     2.2160     9.5967 </r>
       <r>   -10.2925     1.4471     9.7469 </r>
       <r>   -10.1887     1.0965     9.8607 </r>
       <r>   -10.0849     0.7881     9.9425 </r>
       <r>    -9.9811     1.5513    10.1036 </r>
       <r>    -9.8773     1.6981    10.2798 </r>
       <r>    -9.7735     1.1970    10.4041 </r>
       <r>    -9.6697     0.9363    10.5013 </r>
       <r>    -9.5659     1.2171    10.6276 </r>
       <r>    -9.4621     2.0528    10.8407 </r>
       <r>    -9.3583     1.7925    11.0267 </r>
       <r>    -9.2545     2.3897    11.2748 </r>
       <r>    -9.1507     2.5842    11.5430 </r>
       <r>    -9.0469     1.4727    11.6959 </r>
       <r>    -8.9431     0.9308    11.7925 </r>
       <r>    -8.8393     2.1769    12.0185 </r>
       <r>    -8.7355     2.8851    12.3179 </r>
       <r>    -8.6317     1.2858    12.4514 </r>
       <r>    -8.5279     1.0219    12.5575 </r>
       <r>    -8.4241     2.0779    12.7732 </r>
       <r>    -8.3203     2.3760    13.0198 </r>
       <r>    -8.2165     1.8046    13.2071 </r>
       <r>    -8.1127     1.3507    13.3473 </r>
       <r>    -8.0089     2.1031    13.5656 </r>
       <r>    -7.9051     1.5623    13.7278 </r>
       <r>    -7.8013     2.1323    13.9491 </r>
       <r>    -7.6975     3.3698    14.2989 </r>
       <r>    -7.5937     2.4877    14.5571 </r>
       <r>    -7.4899     1.6089    14.7241 </r>
       <r>    -7.3861     1.7361    14.9043 </r>
       <r>    -7.2823     2.2893    15.1419 </r>
       <r>    -7.1785     2.4456    15.3958 </r>
       <r>    -7.0747     2.2004    15.6242 </r>
       <r>    -6.9709     2.0696    15.8390 </r>
       <r>    -6.8671     2.3091    16.0787 </r>
       <r>    -6.7633     2.6827    16.3572 </r>
       <r>    -6.6595     3.5642    16.7271 </r>
       <r>    -6.5557     4.1313    17.1560 </r>
       <r>    -6.4519     4.2398    17.5961 </r>
       <r>    -6.3481     3.1616    17.9242 </r>
       <r>    -6.2443     2.6253    18.1967 </r>
       <r>    -6.1405     2.2286    18.4281 </r>
       <r>    -6.0367     2.3256    18.6695 </r>
       <r>    -5.9329     2.0630    18.8836 </r>
       <r>    -5.8291     1.5236    19.0418 </r>
       <r>    -5.7253     2.5099    19.3023 </r>
       <r>    -5.6215     2.5763    19.5697 </r>
       <r>    -5.5177     1.3223    19.7070 </r>
       <r>    -5.4139     1.0182    19.8126 </r>
       <r>    -5.3101     2.0135    20.0216 </r>
       <r>    -5.2063     2.7192    20.3039 </r>
       <r>    -5.1025     1.8702    20.4980 </r>
       <r>    -4.9987     1.4250    20.6459 </r>
       <r>    -4.8949     1.7519    20.8278 </r>
       <r>    -4.7911     1.9356    21.0287 </r>
       <r>    -4.6873     1.7818    21.2136 </r>
       <r>    -4.5835     1.3087    21.3495 </r>
       <r>    -4.4797     1.3854    21.4933 </r>
       <r>    -4.3759     2.6010    21.7633 </r>
       <r>    -4.2721     3.4020    22.1164 </r>
       <r>    -4.1683     2.2514    22.3501 </r>
       <r>    -4.0645     1.8660    22.5438 </r>
       <r>    -3.9607     2.5275    22.8061 </r>
       <r>    -3.8569     3.2021    23.1385 </r>
       <r>    -3.7531     3.3287    23.4840 </r>
       <r>    -3.6493     3.4134    23.8383 </r>
       <r>    -3.5455     3.3858    24.1898 </r>
       <r>    -3.4417     2.6478    24.4646 </r>
       <r>    -3.3379     2.1440    24.6872 </r>
       <r>    -3.2341     1.4621    24.8389 </r>
       <r>    -3.1303     1.3162    24.9755 </r>
       <r>    -3.0265     1.3086    25.1114 </r>
       <r>    -2.9227     2.0515    25.3243 </r>
       <r>    -2.8189     1.8949    25.5210 </r>
       <r>    -2.7151     1.4001    25.6663 </r>
       <r>    -2.6113     1.2427    25.7953 </r>
       <r>    -2.5075     1.4559    25.9465 </r>
       <r>    -2.4037     1.8952    26.1432 </r>
       <r>    -2.2999     2.1542    26.3668 </r>
       <r>    -2.1961     1.2996    26.5017 </r>
       <r>    -2.0923     1.2209    26.6284 </r>
       <r>    -1.9885     0.8277    26.7143 </r>
       <r>    -1.8847     0.9181    26.8096 </r>
       <r>    -1.7809     0.8354    26.8963 </r>
       <r>    -1.6771     1.0930    27.0098 </r>
       <r>    -1.5733     1.3706    27.1520 </r>
       <r>    -1.4695     1.2869    27.2856 </r>
       <r>    -1.3657     0.9064    27.3797 </r>
       <r>    -1.2619     0.7249    27.4549 </r>
       <r>    -1.1581     0.7025    27.5279 </r>
       <r>    -1.0543     0.5879    27.5889 </r>
       <r>    -0.9505     1.1116    27.7043 </r>
       <r>    -0.8467     0.9001    27.7977 </r>
       <r>    -0.7429     0.3544    27.8345 </r>
       <r>    -0.6391     0.1368    27.8487 </r>
       <r>    -0.5353     0.2443    27.8740 </r>
       <r>    -0.4315     0.4480    27.9205 </r>
       <r>    -0.3277     0.3953    27.9616 </r>
       <r>    -0.2239     0.5029    28.0138 </r>
       <r>    -0.1201     0.4902    28.0647 </r>
       <r>    -0.0163     0.4311    28.1094 </r>
       <r>     0.0875     0.3343    28.1441 </r>
       <r>     0.1913     0.4787    28.1938 </r>
       <r>     0.2951     1.0341    28.3011 </r>
       <r>     0.3989     1.6457    28.4720 </r>
       <r>     0.5026     1.5018    28.6278 </r>
       <r>     0.6064     0.9076    28.7220 </r>
       <r>     0.7102     0.3515    28.7585 </r>
       <r>     0.8140     0.7125    28.8325 </r>
       <r>     0.9178     1.4832    28.9864 </r>
       <r>     1.0216     1.0001    29.0902 </r>
       <r>     1.1254     0.5038    29.1425 </r>
       <r>     1.2292     0.8448    29.2302 </r>
       <r>     1.3330     1.5837    29.3946 </r>
       <r>     1.4368     1.8967    29.5915 </r>
       <r>     1.5406     1.5964    29.7572 </r>
       <r>     1.6444     1.4929    29.9122 </r>
       <r>     1.7482     1.3627    30.0536 </r>
       <r>     1.8520     1.4064    30.1996 </r>
       <r>     1.9558     1.2778    30.3322 </r>
       <r>     2.0596     1.4889    30.4868 </r>
       <r>     2.1634     1.8219    30.6759 </r>
       <r>     2.2672     1.0414    30.7840 </r>
       <r>     2.3710     0.6930    30.8559 </r>
       <r>     2.4748     1.3872    30.9999 </r>
       <r>     2.5786     1.2766    31.1324 </r>
       <r>     2.6824     1.8168    31.3210 </r>
       <r>     2.7862     1.7212    31.4997 </r>
       <r>     2.8900     1.2727    31.6318 </r>
       <r>     2.9938     1.2882    31.7655 </r>
       <r>     3.0976     1.2679    31.8971 </r>
       <r>     3.2014     1.4284    32.0454 </r>
       <r>     3.3052     2.4952    32.3044 </r>
       <r>     3.4090     2.5975    32.5740 </r>
       <r>     3.5128     2.3164    32.8144 </r>
       <r>     3.6166     1.5181    32.9720 </r>
       <r>     3.7204     1.7990    33.1587 </r>
       <r>     3.8242     3.0373    33.4740 </r>
       <r>     3.9280     2.9488    33.7801 </r>
       <r>     4.0318     2.4935    34.0389 </r>
       <r>     4.1356     2.1823    34.2654 </r>
       <r>     4.2394     2.1250    34.4860 </r>
       <r>     4.3432     2.6152    34.7574 </r>
       <r>     4.4470     3.4919    35.1199 </r>
       <r>     4.5508     2.8626    35.4170 </r>
       <r>     4.6546     2.5850    35.6854 </r>
       <r>     4.7584     3.7745    36.0772 </r>
       <r>     4.8622     3.4678    36.4371 </r>
       <r>     4.9660     2.6515    36.7123 </r>
       <r>     5.0698     2.4652    36.9682 </r>
       <r>     5.1736     4.0068    37.3841 </r>
       <r>     5.2774     4.1486    37.8147 </r>
       <r>     5.3812     3.4310    38.1709 </r>
       <r>     5.4850     3.1481    38.4976 </r>
       <r>     5.5888     3.0518    38.8144 </r>
       <r>     5.6926     3.3348    39.1606 </r>
       <r>     5.7964     3.2596    39.4989 </r>
       <r>     5.9002     2.8453    39.7942 </r>
       <r>     6.0040     3.0044    40.1061 </r>
       <r>     6.1078     2.5914    40.3751 </r>
       <r>     6.2116     2.7534    40.6609 </r>
       <r>     6.3154     2.3564    40.9055 </r>
       <r>     6.4192     2.5832    41.1736 </r>
       <r>     6.5230     2.5244    41.4357 </r>
       <r>     6.6268     2.7055    41.7165 </r>
       <r>     6.7306     2.6182    41.9882 </r>
       <r>     6.8344     3.2530    42.3259 </r>
       <r>     6.9382     3.6606    42.7059 </r>
       <r>     7.0420     3.9480    43.1157 </r>
       <r>     7.1458     3.3227    43.4606 </r>
       <r>     7.2496     3.2180    43.7946 </r>
       <r>     7.3534     4.1651    44.2269 </r>
       <r>     7.4572     4.8071    44.7259 </r>
       <r>     7.5610     3.8584    45.1264 </r>
       <r>     7.6648     4.1843    45.5607 </r>
       <r>     7.7686     5.0091    46.0807 </r>
       <r>     7.8724     4.3333    46.5305 </r>
       <r>     7.9762     3.7632    46.9211 </r>
       <r>     8.0800     3.9640    47.3325 </r>
       <r>     8.1838     3.1944    47.6641 </r>
       <r>     8.2876     2.0978    47.8819 </r>
       <r>     8.3914     0.9136    47.9767 </r>
       <r>     8.4952     0.1705    47.9944 </r>
       <r>     8.5990     0.0422    47.9988 </r>
       <r>     8.7028     0.0112    47.9999 </r>
       <r>     8.8066     0.0005    48.0000 </r>
       <r>     8.9104     0.0000    48.0000 </r>
       <r>     9.0142     0.0000    48.0000 </r>
       <r>     9.1180     0.0000    48.0000 </r>
       <r>     9.2218     0.0000    48.0000 </r>
       <r>     9.3256     0.0000    48.0000 </r>
       <r>     9.4294     0.0000    48.0000 </r>
       <r>     9.5332     0.0000    48.0000 </r>
       <r>     9.6370     0.0000    48.0000 </r>
       <r>     9.7408     0.0000    48.0000 </r>
       <r>     9.8446     0.0000    48.0000 </r>
       <r>     9.9484     0.0000    48.0000 </r>
      </set>
     </set>
    </array>
   </total>
  </dos>
 </calculation>
 <structure name="finalpos" >
  <crystal>
   <varray name="basis" >
    <v>       4.27816549       2.47000000       0.00000000 </v>
    <v>      -4.27816549       2.47000000       0.00000000 </v>
    <v>       0.00000000       0.00000000      15.00000000 </v>
   </varray>
   <i name="volume">    317.01206316 </i>
   <varray name="rec_basis" >
    <v>       0.11687252       0.20242915       0.00000000 </v>
    <v>      -0.11687252       0.20242915       0.00000000 </v>
    <v>       0.00000000       0.00000000       0.06666667 </v>
   </varray>
  </crystal>
  <varray name="positions" >
   <v>       0.66904019      -0.00016278       0.16619192 </v>
   <v>       0.33079604      -0.00016278       0.16619192 </v>
   <v>       0.00016278       0.33095881       0.16619192 </v>
   <v>       0.00016278       0.66920296       0.16619192 </v>
   <v>       0.33079604       0.33095881       0.16619192 </v>
   <v>       0.66904019       0.66920296       0.16619192 </v>
   <v>       0.66666600       0.33333300       0.17900085 </v>
   <v>       0.33333300       0.66666600       0.15226886 </v>
   <v>       0.33334676       0.16667338       0.40453349 </v>
   <v>       0.50001364       0.00002727       0.40456464 </v>
   <v>       0.33333267       0.66666633       0.40451604 </v>
   <v>       0.50001364       0.49998536       0.40456464 </v>
   <v>       0.83332562       0.16667338       0.40453349 </v>
   <v>       0.99999967       0.99999933       0.40456837 </v>
   <v>       0.83332562       0.66665224       0.40453349 </v>
   <v>      -0.00002827       0.49998536       0.40456464 </v>
  </varray>
 </structure>
</modeling>
