  16  16   0   0
  0.2065628E+02  0.5044000E-09  0.5044000E-09  0.1500000E-08  0.5000000E-15
  1.000000000000000E-004
  CAR 
 Dielectric_function                     
     29.82718811    -24.89018384 4000     -1.21857509      1.00000000
    -24.890  0.0000E+00  0.0000E+00
    -24.877  0.0000E+00  0.0000E+00
    -24.863  0.0000E+00  0.0000E+00
    -24.849  0.0000E+00  0.0000E+00
    -24.835  0.0000E+00  0.0000E+00
    -24.822  0.0000E+00  0.0000E+00
    -24.808  0.0000E+00  0.0000E+00
    -24.794  0.0000E+00  0.0000E+00
    -24.781  0.0000E+00  0.0000E+00
    -24.767  0.0000E+00  0.0000E+00
    -24.753  0.0000E+00  0.0000E+00
    -24.740  0.0000E+00  0.0000E+00
    -24.726  0.0000E+00  0.0000E+00
    -24.712  0.0000E+00  0.0000E+00
    -24.699  0.0000E+00  0.0000E+00
    -24.685  0.0000E+00  0.0000E+00
    -24.671  0.0000E+00  0.0000E+00
    -24.658  0.0000E+00  0.0000E+00
    -24.644  0.0000E+00  0.0000E+00
    -24.630  0.0000E+00  0.0000E+00
    -24.617  0.0000E+00  0.0000E+00
    -24.603  0.0000E+00  0.0000E+00
    -24.589  0.0000E+00  0.0000E+00
    -24.575  0.0000E+00  0.0000E+00
    -24.562  0.0000E+00  0.0000E+00
    -24.548  0.0000E+00  0.0000E+00
    -24.534  0.0000E+00  0.0000E+00
    -24.521  0.0000E+00  0.0000E+00
    -24.507  0.0000E+00  0.0000E+00
    -24.493  0.0000E+00  0.0000E+00
    -24.480  0.0000E+00  0.0000E+00
    -24.466  0.0000E+00  0.0000E+00
    -24.452  0.0000E+00  0.0000E+00
    -24.439  0.0000E+00  0.0000E+00
    -24.425  0.0000E+00  0.0000E+00
    -24.411  0.0000E+00  0.0000E+00
    -24.398  0.0000E+00  0.0000E+00
    -24.384  0.0000E+00  0.0000E+00
    -24.370  0.0000E+00  0.0000E+00
    -24.357  0.0000E+00  0.0000E+00
    -24.343  0.0000E+00  0.0000E+00
    -24.329  0.0000E+00  0.0000E+00
    -24.316  0.0000E+00  0.0000E+00
    -24.302  0.0000E+00  0.0000E+00
    -24.288  0.0000E+00  0.0000E+00
    -24.274  0.0000E+00  0.0000E+00
    -24.261  0.0000E+00  0.0000E+00
    -24.247  0.0000E+00  0.0000E+00
    -24.233  0.0000E+00  0.0000E+00
    -24.220  0.0000E+00  0.0000E+00
    -24.206  0.0000E+00  0.0000E+00
    -24.192  0.0000E+00  0.0000E+00
    -24.179  0.0000E+00  0.0000E+00
    -24.165  0.0000E+00  0.0000E+00
    -24.151  0.0000E+00  0.0000E+00
    -24.138  0.0000E+00  0.0000E+00
    -24.124  0.0000E+00  0.0000E+00
    -24.110  0.0000E+00  0.0000E+00
    -24.097  0.0000E+00  0.0000E+00
    -24.083  0.0000E+00  0.0000E+00
    -24.069  0.0000E+00  0.0000E+00
    -24.056  0.0000E+00  0.0000E+00
    -24.042  0.0000E+00  0.0000E+00
    -24.028  0.0000E+00  0.0000E+00
    -24.014  0.0000E+00  0.0000E+00
    -24.001  0.0000E+00  0.0000E+00
    -23.987  0.0000E+00  0.0000E+00
    -23.973  0.0000E+00  0.0000E+00
    -23.960  0.0000E+00  0.0000E+00
    -23.946  0.0000E+00  0.0000E+00
    -23.932  0.0000E+00  0.0000E+00
    -23.919  0.0000E+00  0.0000E+00
    -23.905  0.0000E+00  0.0000E+00
    -23.891  0.0000E+00  0.0000E+00
    -23.878  0.0000E+00  0.0000E+00
    -23.864  0.0000E+00  0.0000E+00
    -23.850  0.0000E+00  0.0000E+00
    -23.837  0.0000E+00  0.0000E+00
    -23.823  0.0000E+00  0.0000E+00
    -23.809  0.0000E+00  0.0000E+00
    -23.796  0.0000E+00  0.0000E+00
    -23.782  0.0000E+00  0.0000E+00
    -23.768  0.0000E+00  0.0000E+00
    -23.755  0.0000E+00  0.0000E+00
    -23.741  0.0000E+00  0.0000E+00
    -23.727  0.0000E+00  0.0000E+00
    -23.713  0.0000E+00  0.0000E+00
    -23.700  0.0000E+00  0.0000E+00
    -23.686  0.0000E+00  0.0000E+00
    -23.672  0.0000E+00  0.0000E+00
    -23.659  0.0000E+00  0.0000E+00
    -23.645  0.0000E+00  0.0000E+00
    -23.631  0.0000E+00  0.0000E+00
    -23.618  0.0000E+00  0.0000E+00
    -23.604  0.0000E+00  0.0000E+00
    -23.590  0.0000E+00  0.0000E+00
    -23.577  0.0000E+00  0.0000E+00
    -23.563  0.0000E+00  0.0000E+00
    -23.549  0.0000E+00  0.0000E+00
    -23.536  0.0000E+00  0.0000E+00
    -23.522  0.0000E+00  0.0000E+00
    -23.508  0.0000E+00  0.0000E+00
    -23.495  0.0000E+00  0.0000E+00
    -23.481  0.0000E+00  0.0000E+00
    -23.467  0.0000E+00  0.0000E+00
    -23.453  0.0000E+00  0.0000E+00
    -23.440  0.0000E+00  0.0000E+00
    -23.426  0.0000E+00  0.0000E+00
    -23.412  0.0000E+00  0.0000E+00
    -23.399  0.0000E+00  0.0000E+00
    -23.385  0.0000E+00  0.0000E+00
    -23.371  0.0000E+00  0.0000E+00
    -23.358  0.0000E+00  0.0000E+00
    -23.344  0.0000E+00  0.0000E+00
    -23.330  0.0000E+00  0.0000E+00
    -23.317  0.0000E+00  0.0000E+00
    -23.303  0.0000E+00  0.0000E+00
    -23.289  0.0000E+00  0.0000E+00
    -23.276  0.0000E+00  0.0000E+00
    -23.262  0.0000E+00  0.0000E+00
    -23.248  0.0000E+00  0.0000E+00
    -23.235  0.0000E+00  0.0000E+00
    -23.221  0.0000E+00  0.0000E+00
    -23.207  0.0000E+00  0.0000E+00
    -23.194  0.0000E+00  0.0000E+00
    -23.180  0.0000E+00  0.0000E+00
    -23.166  0.0000E+00  0.0000E+00
    -23.152  0.0000E+00  0.0000E+00
    -23.139  0.0000E+00  0.0000E+00
    -23.125  0.0000E+00  0.0000E+00
    -23.111  0.0000E+00  0.0000E+00
    -23.098  0.0000E+00  0.0000E+00
    -23.084  0.0000E+00  0.0000E+00
    -23.070  0.0000E+00  0.0000E+00
    -23.057  0.0000E+00  0.0000E+00
    -23.043  0.0000E+00  0.0000E+00
    -23.029  0.0000E+00  0.0000E+00
    -23.016  0.0000E+00  0.0000E+00
    -23.002  0.0000E+00  0.0000E+00
    -22.988  0.0000E+00  0.0000E+00
    -22.975  0.0000E+00  0.0000E+00
    -22.961  0.0000E+00  0.0000E+00
    -22.947  0.0000E+00  0.0000E+00
    -22.934  0.0000E+00  0.0000E+00
    -22.920  0.0000E+00  0.0000E+00
    -22.906  0.0000E+00  0.0000E+00
    -22.893  0.0000E+00  0.0000E+00
    -22.879  0.0000E+00  0.0000E+00
    -22.865  0.0000E+00  0.0000E+00
    -22.851  0.0000E+00  0.0000E+00
    -22.838  0.0000E+00  0.0000E+00
    -22.824  0.0000E+00  0.0000E+00
    -22.810  0.0000E+00  0.0000E+00
    -22.797  0.0000E+00  0.0000E+00
    -22.783  0.0000E+00  0.0000E+00
    -22.769  0.0000E+00  0.0000E+00
    -22.756  0.0000E+00  0.0000E+00
    -22.742  0.0000E+00  0.0000E+00
    -22.728  0.0000E+00  0.0000E+00
    -22.715  0.0000E+00  0.0000E+00
    -22.701  0.0000E+00  0.0000E+00
    -22.687  0.0000E+00  0.0000E+00
    -22.674  0.0000E+00  0.0000E+00
    -22.660  0.0000E+00  0.0000E+00
    -22.646  0.0000E+00  0.0000E+00
    -22.633  0.0000E+00  0.0000E+00
    -22.619  0.0000E+00  0.0000E+00
    -22.605  0.0000E+00  0.0000E+00
    -22.591  0.0000E+00  0.0000E+00
    -22.578  0.0000E+00  0.0000E+00
    -22.564  0.0000E+00  0.0000E+00
    -22.550  0.0000E+00  0.0000E+00
    -22.537  0.0000E+00  0.0000E+00
    -22.523  0.0000E+00  0.0000E+00
    -22.509  0.0000E+00  0.0000E+00
    -22.496  0.0000E+00  0.0000E+00
    -22.482  0.0000E+00  0.0000E+00
    -22.468  0.0000E+00  0.0000E+00
    -22.455  0.7258E-13  0.9931E-15
    -22.441  0.2043E-07  0.2796E-09
    -22.427  0.1525E-03  0.2086E-05
    -22.414  0.3396E-01  0.4667E-03
    -22.400  0.3190E+00  0.4831E-02
    -22.386  0.9183E+00  0.1740E-01
    -22.373  0.1961E+01  0.4422E-01
    -22.359  0.3128E+00  0.4850E-01
    -22.345  0.5324E+00  0.5579E-01
    -22.332  0.2087E+01  0.8434E-01
    -22.318  0.1814E+01  0.1092E+00
    -22.304  0.1533E+01  0.1301E+00
    -22.290  0.9860E-01  0.1315E+00
    -22.277  0.2403E-02  0.1315E+00
    -22.263  0.4446E+00  0.1376E+00
    -22.249  0.3719E+01  0.1885E+00
    -22.236  0.1857E+01  0.2139E+00
    -22.222  0.1802E+00  0.2164E+00
    -22.208  0.1659E+01  0.2391E+00
    -22.195  0.1196E+01  0.2554E+00
    -22.181  0.4611E-01  0.2561E+00
    -22.167  0.3492E-02  0.2561E+00
    -22.154  0.3962E+00  0.2615E+00
    -22.140  0.2088E+01  0.2901E+00
    -22.126  0.2912E+01  0.3299E+00
    -22.113  0.3409E+01  0.3766E+00
    -22.099  0.2939E+00  0.3806E+00
    -22.085  0.1573E-02  0.3806E+00
    -22.072  0.1607E+00  0.3828E+00
    -22.058  0.1737E+01  0.4066E+00
    -22.044  0.1100E+01  0.4216E+00
    -22.030  0.3658E-01  0.4221E+00
    -22.017  0.9749E-02  0.4223E+00
    -22.003  0.9345E+00  0.4351E+00
    -21.989  0.4043E+01  0.4904E+00
    -21.976  0.1073E+01  0.5051E+00
    -21.962  0.6463E+00  0.5139E+00
    -21.948  0.3928E+01  0.5677E+00
    -21.935  0.1476E+01  0.5879E+00
    -21.921  0.2692E-01  0.5882E+00
    -21.907  0.1617E-04  0.5882E+00
    -21.894  0.3845E-03  0.5882E+00
    -21.880  0.1282E+00  0.5900E+00
    -21.866  0.1643E+01  0.6125E+00
    -21.853  0.1215E+01  0.6291E+00
    -21.839  0.1248E+00  0.6308E+00
    -21.825  0.1424E+01  0.6503E+00
    -21.812  0.2271E+01  0.6814E+00
    -21.798  0.4104E+01  0.7375E+00
    -21.784  0.1212E+01  0.7541E+00
    -21.771  0.1714E-01  0.7543E+00
    -21.757  0.4845E-01  0.7550E+00
    -21.743  0.1879E+01  0.7807E+00
    -21.729  0.3704E+01  0.8314E+00
    -21.716  0.4353E+00  0.8373E+00
    -21.702  0.2077E-02  0.8374E+00
    -21.688  0.2969E-06  0.8374E+00
    -21.675  0.6915E-08  0.8374E+00
    -21.661  0.1302E-03  0.8374E+00
    -21.647  0.7014E-01  0.8383E+00
    -21.634  0.1384E+01  0.8573E+00
    -21.620  0.2273E+01  0.8884E+00
    -21.606  0.4099E+01  0.9445E+00
    -21.593  0.1262E+01  0.9617E+00
    -21.579  0.5588E+00  0.9694E+00
    -21.565  0.3844E+01  0.1022E+01
    -21.552  0.1647E+01  0.1045E+01
    -21.538  0.3495E-01  0.1045E+01
    -21.524  0.2477E-04  0.1045E+01
    -21.511  0.6606E-03  0.1045E+01
    -21.497  0.2360E+00  0.1048E+01
    -21.483  0.3214E+01  0.1092E+01
    -21.469  0.2513E+01  0.1127E+01
    -21.456  0.1063E+00  0.1128E+01
    -21.442  0.1604E-03  0.1128E+01
    -21.428  0.6872E-08  0.1128E+01
    -21.415  0.3734E-06  0.1128E+01
    -21.401  0.1907E-02  0.1128E+01
    -21.387  0.2969E+00  0.1132E+01
    -21.374  0.2031E+01  0.1160E+01
    -21.360  0.3746E+01  0.1211E+01
    -21.346  0.5467E+01  0.1286E+01
    -21.333  0.5928E+00  0.1294E+01
    -21.319  0.3497E-02  0.1294E+01
    -21.305  0.2805E+00  0.1298E+01
    -21.292  0.3361E+01  0.1344E+01
    -21.278  0.2340E+01  0.1376E+01
    -21.264  0.8669E-01  0.1377E+01
    -21.251  0.1130E-03  0.1377E+01
    -21.237  0.4166E-08  0.1377E+01
    -21.223  0.1331E-05  0.1377E+01
    -21.210  0.5554E-02  0.1377E+01
    -21.196  0.7150E+00  0.1387E+01
    -21.182  0.3980E+01  0.1441E+01
    -21.168  0.1347E+01  0.1460E+01
    -21.155  0.2176E-01  0.1460E+01
    -21.141  0.1165E-04  0.1460E+01
    -21.127  0.1638E-02  0.1460E+01
    -21.114  0.3845E+00  0.1465E+01
    -21.100  0.3614E+01  0.1515E+01
    -21.086  0.2012E+01  0.1542E+01
    -21.073  0.3274E+00  0.1547E+01
    -21.059  0.3337E+01  0.1593E+01
    -21.045  0.2991E+01  0.1634E+01
    -21.032  0.2100E+01  0.1662E+01
    -21.018  0.4025E+00  0.1668E+01
    -21.004  0.3759E-02  0.1668E+01
    -20.991  0.1262E+00  0.1670E+01
    -20.977  0.2662E+01  0.1706E+01
    -20.963  0.3078E+01  0.1748E+01
    -20.950  0.2021E+00  0.1751E+01
    -20.936  0.4987E-03  0.1751E+01
    -20.922  0.3565E-07  0.1751E+01
    -20.908  0.6738E-13  0.1751E+01
    -20.895  0.9358E-09  0.1751E+01
    -20.881  0.3590E-04  0.1751E+01
    -20.867  0.4073E-01  0.1751E+01
    -20.854  0.1690E+01  0.1775E+01
    -20.840  0.3788E+01  0.1826E+01
    -20.826  0.5599E+00  0.1834E+01
    -20.813  0.7181E+00  0.1844E+01
    -20.799  0.2217E+01  0.1874E+01
    -20.785  0.3569E+01  0.1923E+01
    -20.772  0.2488E+01  0.1957E+01
    -20.758  0.1030E+00  0.1958E+01
    -20.744  0.1171E-01  0.1959E+01
    -20.731  0.9735E+00  0.1972E+01
    -20.717  0.4002E+01  0.2027E+01
    -20.703  0.1071E+01  0.2041E+01
    -20.690  0.3920E+00  0.2047E+01
    -20.676  0.2000E+01  0.2074E+01
    -20.662  0.6442E+00  0.2083E+01
    -20.649  0.9896E-02  0.2083E+01
    -20.635  0.6442E-01  0.2084E+01
    -20.621  0.2098E+01  0.2113E+01
    -20.607  0.3551E+01  0.2161E+01
    -20.594  0.3543E+00  0.2166E+01
    -20.580  0.1403E-02  0.2166E+01
    -20.566  0.1648E-06  0.2166E+01
    -20.553  0.6121E-07  0.2166E+01
    -20.539  0.3144E-03  0.2166E+01
    -20.525  0.4973E-01  0.2167E+01
    -20.512  0.4772E+00  0.2173E+01
    -20.498  0.1847E+01  0.2199E+01
    -20.484  0.1665E+01  0.2221E+01
    -20.471  0.7609E+01  0.2325E+01
    -20.457  0.7459E+01  0.2428E+01
    -20.443  0.2530E+01  0.2462E+01
    -20.430  0.3359E+01  0.2508E+01
    -20.416  0.3105E+01  0.2551E+01
    -20.402  0.3797E+01  0.2603E+01
    -20.389  0.2012E+01  0.2630E+01
    -20.375  0.1464E+01  0.2650E+01
    -20.361  0.1588E+01  0.2672E+01
    -20.348  0.2757E+01  0.2710E+01
    -20.334  0.3886E+01  0.2763E+01
    -20.320  0.3437E+01  0.2810E+01
    -20.306  0.4293E+01  0.2869E+01
    -20.293  0.1123E+01  0.2884E+01
    -20.279  0.2379E+01  0.2916E+01
    -20.265  0.2664E+01  0.2953E+01
    -20.252  0.6550E+00  0.2962E+01
    -20.238  0.5531E+00  0.2969E+01
    -20.224  0.5981E+01  0.3051E+01
    -20.211  0.5746E+01  0.3130E+01
    -20.197  0.4142E+01  0.3187E+01
    -20.183  0.1753E+01  0.3211E+01
    -20.170  0.4413E-01  0.3211E+01
    -20.156  0.4001E+00  0.3217E+01
    -20.142  0.2012E+01  0.3244E+01
    -20.129  0.1197E+01  0.3261E+01
    -20.115  0.4936E+01  0.3328E+01
    -20.101  0.7443E+01  0.3430E+01
    -20.088  0.4897E+01  0.3497E+01
    -20.074  0.3424E+01  0.3544E+01
    -20.060  0.5770E+01  0.3623E+01
    -20.046  0.3553E+01  0.3671E+01
    -20.033  0.3989E+01  0.3726E+01
    -20.019  0.3561E+01  0.3775E+01
    -20.005  0.2907E+01  0.3814E+01
    -19.992  0.4824E+01  0.3880E+01
    -19.978  0.4598E+01  0.3943E+01
    -19.964  0.1102E+01  0.3958E+01
    -19.951  0.9701E+00  0.3972E+01
    -19.937  0.7397E+01  0.4073E+01
    -19.923  0.3679E+01  0.4123E+01
    -19.910  0.2359E+00  0.4126E+01
    -19.896  0.2541E+01  0.4161E+01
    -19.882  0.3491E+01  0.4209E+01
    -19.869  0.5765E+01  0.4288E+01
    -19.855  0.6554E+01  0.4378E+01
    -19.841  0.5925E+01  0.4459E+01
    -19.828  0.3883E+01  0.4512E+01
    -19.814  0.2570E+01  0.4547E+01
    -19.800  0.6705E+01  0.4639E+01
    -19.787  0.1315E+02  0.4819E+01
    -19.773  0.6235E+01  0.4904E+01
    -19.759  0.4460E+01  0.4965E+01
    -19.745  0.4930E+01  0.5032E+01
    -19.732  0.6396E+00  0.5041E+01
    -19.718  0.1885E+01  0.5067E+01
    -19.704  0.2744E+01  0.5104E+01
    -19.691  0.6111E+01  0.5188E+01
    -19.677  0.3227E+01  0.5232E+01
    -19.663  0.3631E+01  0.5282E+01
    -19.650  0.3875E+00  0.5287E+01
    -19.636  0.1664E-02  0.5287E+01
    -19.622  0.4214E-02  0.5287E+01
    -19.609  0.7133E+00  0.5297E+01
    -19.595  0.6395E+01  0.5385E+01
    -19.581  0.4724E+01  0.5449E+01
    -19.568  0.3011E+00  0.5453E+01
    -19.554  0.1113E-02  0.5453E+01
    -19.540  0.1470E-06  0.5453E+01
    -19.527  0.8847E-12  0.5453E+01
    -19.513  0.1218E-06  0.5453E+01
    -19.499  0.1146E-02  0.5453E+01
    -19.485  0.3181E+00  0.5458E+01
    -19.472  0.3465E+01  0.5505E+01
    -19.458  0.2210E+01  0.5535E+01
    -19.444  0.7412E-01  0.5536E+01
    -19.431  0.8654E-04  0.5536E+01
    -19.417  0.3191E-08  0.5536E+01
    -19.403  0.1617E-04  0.5536E+01
    -19.390  0.2058E-01  0.5537E+01
    -19.376  0.8804E+00  0.5549E+01
    -19.362  0.1889E+01  0.5575E+01
    -19.349  0.2430E+00  0.5578E+01
    -19.335  0.3848E-02  0.5578E+01
    -19.321  0.5814E+00  0.5586E+01
    -19.308  0.5434E+01  0.5660E+01
    -19.294  0.4580E+01  0.5723E+01
    -19.280  0.3982E+01  0.5777E+01
    -19.267  0.5895E+00  0.5785E+01
    -19.253  0.5661E-02  0.5785E+01
    -19.239  0.4156E+00  0.5791E+01
    -19.226  0.3671E+01  0.5841E+01
    -19.212  0.1929E+01  0.5868E+01
    -19.198  0.5176E-01  0.5869E+01
    -19.184  0.4730E-04  0.5869E+01
    -19.171  0.3967E-08  0.5869E+01
    -19.157  0.8489E-04  0.5869E+01
    -19.143  0.7328E-01  0.5870E+01
    -19.130  0.2208E+01  0.5900E+01
    -19.116  0.4251E+01  0.5958E+01
    -19.102  0.4329E+01  0.6017E+01
    -19.089  0.1259E+01  0.6034E+01
    -19.075  0.1861E-01  0.6035E+01
    -19.061  0.8902E-05  0.6035E+01
    -19.048  0.1163E-09  0.6035E+01
    -19.034  0.2437E-09  0.6035E+01
    -19.020  0.1276E-04  0.6035E+01
    -19.007  0.1947E-01  0.6035E+01
    -18.993  0.1127E+01  0.6050E+01
    -18.979  0.3876E+01  0.6103E+01
    -18.966  0.1031E+01  0.6117E+01
    -18.952  0.1604E-01  0.6118E+01
    -18.938  0.9345E-05  0.6118E+01
    -18.924  0.1578E-09  0.6118E+01
    -18.911  0.6393E-09  0.6118E+01
    -18.897  0.2880E-04  0.6118E+01
    -18.883  0.3985E-01  0.6118E+01
    -18.870  0.2082E+01  0.6147E+01
    -18.856  0.5878E+01  0.6227E+01
    -18.842  0.1118E+01  0.6242E+01
    -18.829  0.1404E+01  0.6262E+01
    -18.815  0.4571E+01  0.6324E+01
    -18.801  0.4594E+01  0.6387E+01
    -18.788  0.1527E+01  0.6408E+01
    -18.774  0.2896E-01  0.6408E+01
    -18.760  0.6046E-01  0.6409E+01
    -18.747  0.2048E+01  0.6437E+01
    -18.733  0.3588E+01  0.6486E+01
    -18.719  0.3716E+00  0.6491E+01
    -18.706  0.1535E-02  0.6491E+01
    -18.692  0.1885E-06  0.6491E+01
    -18.678  0.7588E-12  0.6491E+01
    -18.665  0.6449E-07  0.6491E+01
    -18.651  0.7462E-03  0.6491E+01
    -18.637  0.2523E+00  0.6495E+01
    -18.623  0.3271E+01  0.6540E+01
    -18.610  0.2452E+01  0.6573E+01
    -18.596  0.8305E+00  0.6584E+01
    -18.582  0.3989E+01  0.6639E+01
    -18.569  0.1322E+01  0.6657E+01
    -18.555  0.2084E-01  0.6657E+01
    -18.541  0.1067E-04  0.6657E+01
    -18.528  0.1496E-09  0.6657E+01
    -18.514  0.1921E-09  0.6657E+01
    -18.500  0.1278E-04  0.6657E+01
    -18.487  0.2330E-01  0.6658E+01
    -18.473  0.1388E+01  0.6677E+01
    -18.459  0.3965E+01  0.6731E+01
    -18.446  0.6881E+00  0.6740E+01
    -18.432  0.5196E-02  0.6740E+01
    -18.418  0.4513E-01  0.6741E+01
    -18.405  0.1195E+01  0.6757E+01
    -18.391  0.2546E+01  0.6792E+01
    -18.377  0.4172E+01  0.6849E+01
    -18.364  0.1132E+01  0.6865E+01
    -18.350  0.5197E-01  0.6866E+01
    -18.336  0.1462E+01  0.6886E+01
    -18.322  0.5333E+01  0.6959E+01
    -18.309  0.2211E+01  0.6989E+01
    -18.295  0.7434E-01  0.6990E+01
    -18.281  0.9807E+00  0.7003E+01
    -18.268  0.3926E+01  0.7057E+01
    -18.254  0.1133E+01  0.7072E+01
    -18.240  0.3413E+00  0.7077E+01
    -18.227  0.3478E+01  0.7125E+01
    -18.213  0.2194E+01  0.7155E+01
    -18.199  0.7264E-01  0.7156E+01
    -18.186  0.8364E-04  0.7156E+01
    -18.172  0.2705E-08  0.7156E+01
    -18.158  0.2695E-14  0.7156E+01
    -18.145  0.1902E-10  0.7156E+01
    -18.131  0.2391E-05  0.7156E+01
    -18.117  0.8101E-02  0.7156E+01
    -18.104  0.8579E+00  0.7168E+01
    -18.090  0.4032E+01  0.7223E+01
    -18.076  0.1156E+01  0.7239E+01
    -18.062  0.9581E-01  0.7240E+01
    -18.049  0.2277E+01  0.7271E+01
    -18.035  0.3413E+01  0.7318E+01
    -18.021  0.2983E+00  0.7322E+01
    -18.008  0.3062E-01  0.7322E+01
    -17.994  0.1348E+01  0.7341E+01
    -17.980  0.3827E+01  0.7393E+01
    -17.967  0.8535E+00  0.7405E+01
    -17.953  0.8510E-01  0.7406E+01
    -17.939  0.2651E+01  0.7442E+01
    -17.926  0.9257E+01  0.7569E+01
    -17.912  0.8609E+01  0.7687E+01
    -17.898  0.3995E+01  0.7741E+01
    -17.885  0.2808E+01  0.7780E+01
    -17.871  0.4385E+01  0.7840E+01
    -17.857  0.2043E+01  0.7868E+01
    -17.844  0.2793E+01  0.7906E+01
    -17.830  0.4580E+01  0.7969E+01
    -17.816  0.3303E+01  0.8014E+01
    -17.803  0.7538E+01  0.8117E+01
    -17.789  0.9267E+01  0.8244E+01
    -17.775  0.2363E+01  0.8276E+01
    -17.761  0.6183E-01  0.8277E+01
    -17.748  0.3595E+00  0.8282E+01
    -17.734  0.6662E+01  0.8373E+01
    -17.720  0.1152E+02  0.8531E+01
    -17.707  0.3095E+01  0.8573E+01
    -17.693  0.5705E+01  0.8651E+01
    -17.679  0.7391E+01  0.8752E+01
    -17.666  0.1653E+01  0.8775E+01
    -17.652  0.2883E-01  0.8775E+01
    -17.638  0.2240E-02  0.8775E+01
    -17.625  0.4421E+00  0.8781E+01
    -17.611  0.3751E+01  0.8832E+01
    -17.597  0.3900E+01  0.8886E+01
    -17.584  0.3660E+01  0.8936E+01
    -17.570  0.5599E+00  0.8944E+01
    -17.556  0.2953E+01  0.8984E+01
    -17.543  0.2792E+01  0.9022E+01
    -17.529  0.2269E+00  0.9025E+01
    -17.515  0.2560E+01  0.9060E+01
    -17.501  0.5532E+01  0.9136E+01
    -17.488  0.1162E+01  0.9152E+01
    -17.474  0.4145E+01  0.9209E+01
    -17.460  0.6601E+01  0.9299E+01
    -17.447  0.1152E+01  0.9315E+01
    -17.433  0.4599E-01  0.9315E+01
    -17.419  0.1499E+01  0.9336E+01
    -17.406  0.4906E+01  0.9403E+01
    -17.392  0.8341E+01  0.9517E+01
    -17.378  0.3354E+01  0.9563E+01
    -17.365  0.1007E+00  0.9564E+01
    -17.351  0.1469E+01  0.9584E+01
    -17.337  0.3974E+01  0.9639E+01
    -17.324  0.2575E+01  0.9674E+01
    -17.310  0.5780E+01  0.9753E+01
    -17.296  0.5072E+01  0.9823E+01
    -17.283  0.4652E+01  0.9886E+01
    -17.269  0.3122E+01  0.9929E+01
    -17.255  0.3761E+01  0.9980E+01
    -17.242  0.2624E+01  0.1002E+02
    -17.228  0.5123E+01  0.1009E+02
    -17.214  0.6249E+01  0.1017E+02
    -17.200  0.1081E+01  0.1019E+02
    -17.187  0.3069E-01  0.1019E+02
    -17.173  0.1277E+01  0.1020E+02
    -17.159  0.4384E+01  0.1026E+02
    -17.146  0.4373E+01  0.1032E+02
    -17.132  0.2027E+01  0.1035E+02
    -17.118  0.5863E-01  0.1035E+02
    -17.105  0.1324E+00  0.1035E+02
    -17.091  0.2702E+01  0.1039E+02
    -17.077  0.4636E+01  0.1046E+02
    -17.064  0.5471E+01  0.1053E+02
    -17.050  0.8161E+01  0.1064E+02
    -17.036  0.3782E+01  0.1069E+02
    -17.023  0.4383E+01  0.1075E+02
    -17.009  0.2506E+01  0.1079E+02
    -16.995  0.2499E+00  0.1079E+02
    -16.982  0.4896E+01  0.1086E+02
    -16.968  0.1110E+02  0.1101E+02
    -16.954  0.2032E+01  0.1104E+02
    -16.940  0.1972E-01  0.1104E+02
    -16.927  0.2179E-02  0.1104E+02
    -16.913  0.4455E+00  0.1104E+02
    -16.899  0.3723E+01  0.1110E+02
    -16.886  0.2362E+01  0.1113E+02
    -16.872  0.4135E+01  0.1118E+02
    -16.858  0.5086E+01  0.1125E+02
    -16.845  0.2674E+01  0.1129E+02
    -16.831  0.5441E+01  0.1136E+02
    -16.817  0.8642E+01  0.1148E+02
    -16.804  0.6382E+01  0.1157E+02
    -16.790  0.5801E+01  0.1165E+02
    -16.776  0.3188E+01  0.1169E+02
    -16.763  0.3519E+01  0.1174E+02
    -16.749  0.3172E+01  0.1178E+02
    -16.735  0.6251E+01  0.1187E+02
    -16.722  0.4957E+01  0.1194E+02
    -16.708  0.1009E+01  0.1195E+02
    -16.694  0.1145E+01  0.1197E+02
    -16.681  0.1778E+01  0.1199E+02
    -16.667  0.1585E+01  0.1201E+02
    -16.653  0.3638E+01  0.1206E+02
    -16.639  0.4039E+01  0.1212E+02
    -16.626  0.5110E+01  0.1219E+02
    -16.612  0.4548E+01  0.1225E+02
    -16.598  0.4875E+01  0.1232E+02
    -16.585  0.3228E+01  0.1236E+02
    -16.571  0.7850E+00  0.1237E+02
    -16.557  0.2014E+01  0.1240E+02
    -16.544  0.7215E+00  0.1241E+02
    -16.530  0.2706E+01  0.1245E+02
    -16.516  0.4637E+01  0.1251E+02
    -16.503  0.5370E+01  0.1258E+02
    -16.489  0.8724E+01  0.1270E+02
    -16.475  0.2665E+01  0.1274E+02
    -16.462  0.6031E-01  0.1274E+02
    -16.448  0.3235E-01  0.1274E+02
    -16.434  0.1723E+01  0.1276E+02
    -16.421  0.5613E+01  0.1284E+02
    -16.407  0.3848E+01  0.1289E+02
    -16.393  0.4047E+01  0.1295E+02
    -16.380  0.7082E+01  0.1305E+02
    -16.366  0.7426E+01  0.1315E+02
    -16.352  0.6418E+00  0.1316E+02
    -16.338  0.1386E+01  0.1318E+02
    -16.325  0.3007E+01  0.1322E+02
    -16.311  0.7539E+01  0.1332E+02
    -16.297  0.3096E+01  0.1336E+02
    -16.284  0.8041E-01  0.1336E+02
    -16.270  0.9089E-04  0.1336E+02
    -16.256  0.1586E-01  0.1336E+02
    -16.243  0.7912E+00  0.1337E+02
    -16.229  0.1949E+01  0.1340E+02
    -16.215  0.9298E+00  0.1341E+02
    -16.202  0.2707E+01  0.1345E+02
    -16.188  0.4356E+01  0.1351E+02
    -16.174  0.1367E+01  0.1353E+02
    -16.161  0.2240E-01  0.1353E+02
    -16.147  0.6544E-04  0.1353E+02
    -16.133  0.4210E-01  0.1353E+02
    -16.120  0.1233E+01  0.1355E+02
    -16.106  0.3151E+01  0.1359E+02
    -16.092  0.3292E+01  0.1364E+02
    -16.078  0.3875E+01  0.1369E+02
    -16.065  0.5411E+00  0.1370E+02
    -16.051  0.7939E-02  0.1370E+02
    -16.037  0.4498E+00  0.1370E+02
    -16.024  0.2021E+01  0.1373E+02
    -16.010  0.7048E+00  0.1374E+02
    -15.996  0.6803E+00  0.1375E+02
    -15.983  0.1838E+00  0.1375E+02
    -15.969  0.1448E+00  0.1375E+02
    -15.955  0.2769E+01  0.1379E+02
    -15.942  0.2977E+01  0.1383E+02
    -15.928  0.1803E+00  0.1383E+02
    -15.914  0.2004E-01  0.1383E+02
    -15.901  0.1288E+01  0.1385E+02
    -15.887  0.3999E+01  0.1391E+02
    -15.873  0.7563E+00  0.1392E+02
    -15.860  0.6232E-02  0.1392E+02
    -15.846  0.1590E-05  0.1392E+02
    -15.832  0.1090E-10  0.1392E+02
    -15.819  0.0000E+00  0.1392E+02
    -15.805  0.0000E+00  0.1392E+02
    -15.791  0.0000E+00  0.1392E+02
    -15.777  0.0000E+00  0.1392E+02
    -15.764  0.0000E+00  0.1392E+02
    -15.750  0.0000E+00  0.1392E+02
    -15.736  0.0000E+00  0.1392E+02
    -15.723  0.0000E+00  0.1392E+02
    -15.709  0.0000E+00  0.1392E+02
    -15.695  0.0000E+00  0.1392E+02
    -15.682  0.0000E+00  0.1392E+02
    -15.668  0.0000E+00  0.1392E+02
    -15.654  0.1923E-10  0.1392E+02
    -15.641  0.1997E-05  0.1392E+02
    -15.627  0.5619E-02  0.1392E+02
    -15.613  0.5003E+00  0.1392E+02
    -15.600  0.2023E+01  0.1395E+02
    -15.586  0.5236E+00  0.1396E+02
    -15.572  0.3395E+00  0.1396E+02
    -15.559  0.7733E+00  0.1397E+02
    -15.545  0.3742E+00  0.1398E+02
    -15.531  0.7336E-01  0.1398E+02
    -15.517  0.1317E+01  0.1400E+02
    -15.504  0.1552E+01  0.1402E+02
    -15.490  0.2109E+00  0.1402E+02
    -15.476  0.2044E+01  0.1405E+02
    -15.463  0.3381E+01  0.1410E+02
    -15.449  0.1534E+01  0.1412E+02
    -15.435  0.1834E+01  0.1414E+02
    -15.422  0.2036E+00  0.1415E+02
    -15.408  0.9428E-03  0.1415E+02
    -15.394  0.4286E-01  0.1415E+02
    -15.381  0.2203E+01  0.1418E+02
    -15.367  0.5848E+01  0.1426E+02
    -15.353  0.1002E+01  0.1427E+02
    -15.340  0.8091E-02  0.1427E+02
    -15.326  0.2234E-05  0.1427E+02
    -15.312  0.5746E-05  0.1427E+02
    -15.299  0.1091E-01  0.1427E+02
    -15.285  0.6744E+00  0.1428E+02
    -15.271  0.1990E+01  0.1431E+02
    -15.258  0.3582E+00  0.1431E+02
    -15.244  0.2795E+00  0.1432E+02
    -15.230  0.3055E+01  0.1436E+02
    -15.216  0.2579E+01  0.1439E+02
    -15.203  0.6985E+00  0.1440E+02
    -15.189  0.3843E+01  0.1445E+02
    -15.175  0.1667E+01  0.1448E+02
    -15.162  0.8727E+00  0.1449E+02
    -15.148  0.1914E+01  0.1452E+02
    -15.134  0.2631E+00  0.1452E+02
    -15.121  0.1551E-02  0.1452E+02
    -15.107  0.5277E-01  0.1452E+02
    -15.093  0.1943E+01  0.1455E+02
    -15.080  0.3661E+01  0.1460E+02
    -15.066  0.4099E+00  0.1460E+02
    -15.052  0.1851E-02  0.1460E+02
    -15.039  0.2497E-06  0.1460E+02
    -15.025  0.3626E-05  0.1460E+02
    -15.011  0.8901E-02  0.1460E+02
    -14.998  0.8520E+00  0.1461E+02
    -14.984  0.5297E+01  0.1469E+02
    -14.970  0.3352E+01  0.1473E+02
    -14.956  0.3909E+01  0.1479E+02
    -14.943  0.2063E+01  0.1481E+02
    -14.929  0.2120E+01  0.1484E+02
    -14.915  0.2236E+01  0.1487E+02
    -14.902  0.2366E+01  0.1491E+02
    -14.888  0.4462E+01  0.1497E+02
    -14.874  0.4846E+01  0.1503E+02
    -14.861  0.1825E+01  0.1506E+02
    -14.847  0.4398E-01  0.1506E+02
    -14.833  0.3736E-04  0.1506E+02
    -14.820  0.5423E-02  0.1506E+02
    -14.806  0.7067E+00  0.1507E+02
    -14.792  0.3975E+01  0.1512E+02
    -14.779  0.1360E+01  0.1514E+02
    -14.765  0.2223E-01  0.1514E+02
    -14.751  0.2485E-04  0.1514E+02
    -14.738  0.2356E-01  0.1514E+02
    -14.724  0.1394E+01  0.1516E+02
    -14.710  0.3963E+01  0.1522E+02
    -14.697  0.7379E+00  0.1523E+02
    -14.683  0.1280E+01  0.1524E+02
    -14.669  0.2794E+01  0.1528E+02
    -14.655  0.7194E+01  0.1538E+02
    -14.642  0.4823E+01  0.1545E+02
    -14.628  0.4187E+01  0.1550E+02
    -14.614  0.9062E+00  0.1552E+02
    -14.601  0.9087E-02  0.1552E+02
    -14.587  0.2861E-05  0.1552E+02
    -14.573  0.2432E-10  0.1552E+02
    -14.560  0.6064E-14  0.1552E+02
    -14.546  0.5649E-08  0.1552E+02
    -14.532  0.1469E-03  0.1552E+02
    -14.519  0.1216E+00  0.1552E+02
    -14.505  0.3949E+01  0.1557E+02
    -14.491  0.7228E+01  0.1567E+02
    -14.478  0.8358E+00  0.1568E+02
    -14.464  0.4147E-02  0.1568E+02
    -14.450  0.6424E-06  0.1568E+02
    -14.437  0.2707E-11  0.1568E+02
    -14.423  0.1733E-08  0.1568E+02
    -14.409  0.6115E-04  0.1568E+02
    -14.396  0.6033E-01  0.1568E+02
    -14.382  0.2046E+01  0.1571E+02
    -14.368  0.3589E+01  0.1576E+02
    -14.354  0.3724E+00  0.1576E+02
    -14.341  0.1557E+00  0.1577E+02
    -14.327  0.2860E+01  0.1581E+02
    -14.313  0.4253E+01  0.1586E+02
    -14.300  0.4148E+01  0.1592E+02
    -14.286  0.7178E+00  0.1593E+02
    -14.272  0.2748E-01  0.1593E+02
    -14.259  0.9223E+00  0.1594E+02
    -14.245  0.3175E+01  0.1599E+02
    -14.231  0.4229E+01  0.1605E+02
    -14.218  0.7494E+00  0.1606E+02
    -14.204  0.6096E-02  0.1606E+02
    -14.190  0.2573E-03  0.1606E+02
    -14.177  0.1025E+00  0.1606E+02
    -14.163  0.1546E+01  0.1608E+02
    -14.149  0.1550E+01  0.1610E+02
    -14.136  0.3945E+01  0.1615E+02
    -14.122  0.4573E+01  0.1622E+02
    -14.108  0.4202E+00  0.1622E+02
    -14.094  0.1375E+00  0.1622E+02
    -14.081  0.3092E+01  0.1627E+02
    -14.067  0.7090E+01  0.1636E+02
    -14.053  0.6067E+01  0.1645E+02
    -14.040  0.1785E+01  0.1647E+02
    -14.026  0.1626E+00  0.1647E+02
    -14.012  0.2652E+01  0.1651E+02
    -13.999  0.3095E+01  0.1655E+02
    -13.985  0.1000E+01  0.1656E+02
    -13.971  0.3935E+01  0.1662E+02
    -13.958  0.1327E+01  0.1664E+02
    -13.944  0.1764E+01  0.1666E+02
    -13.930  0.7879E+01  0.1677E+02
    -13.917  0.2498E+01  0.1680E+02
    -13.903  0.1923E+01  0.1683E+02
    -13.889  0.6340E+01  0.1692E+02
    -13.876  0.3858E+01  0.1697E+02
    -13.862  0.2078E+01  0.1700E+02
    -13.848  0.2158E+01  0.1703E+02
    -13.835  0.4105E+01  0.1708E+02
    -13.821  0.3792E+01  0.1713E+02
    -13.807  0.7906E+01  0.1724E+02
    -13.793  0.3251E+01  0.1729E+02
    -13.780  0.3643E+01  0.1734E+02
    -13.766  0.4055E+00  0.1734E+02
    -13.752  0.1090E+01  0.1736E+02
    -13.739  0.8359E+01  0.1747E+02
    -13.725  0.5483E+01  0.1755E+02
    -13.711  0.2329E+00  0.1755E+02
    -13.698  0.1039E-01  0.1755E+02
    -13.684  0.9476E+00  0.1756E+02
    -13.670  0.4078E+01  0.1762E+02
    -13.657  0.3279E+01  0.1766E+02
    -13.643  0.9481E+01  0.1779E+02
    -13.629  0.4000E+01  0.1785E+02
    -13.616  0.4495E+01  0.1791E+02
    -13.602  0.5468E+01  0.1798E+02