<?xml version="1.0" encoding="ISO-8859-1"?>
<modeling>
 <generator>
  <i name="program" type="string">vasp </i>
  <i name="version" type="string">6.3.2  </i>
  <i name="subversion" type="string">27Jun22 (build May 31 2023 12:07:17) complex                          parallel </i>
  <i name="platform" type="string">LinuxIFC </i>
  <i name="date" type="string">2024 04 27 </i>
  <i name="time" type="string">01:49:27 </i>
 </generator>
 <incar>
  <i type="string" name="SYSTEM">Dielectric_function</i>
  <i type="int" name="ISTART">     1</i>
  <i type="string" name="PREC">Accurate</i>
  <i type="string" name="ALGO">Damped</i>
  <i type="int" name="ICHARG">     2</i>
  <i name="EDIFF">      0.00000001</i>
  <i name="ENCUT">    450.00000000</i>
  <i type="int" name="NBANDS">   128</i>
  <i type="int" name="NEDOS">  4000</i>
  <i type="logical" name="LREAL"> F  </i>
  <i type="int" name="ISMEAR">     0</i>
  <i name="SIGMA">      0.01000000</i>
  <i type="logical" name="LOPTICS"> T  </i>
  <i name="CSHIFT">      0.10000000</i>
  <i name="HFSCREEN">      0.20000000</i>
  <i type="logical" name="LHFCALC"> T  </i>
  <i type="string" name="GGA">PE</i>
  <i name="AEXX">      0.25000000</i>
 </incar>
 <primitive_cell>
  <structure name="primitive_cell" >
   <crystal>
    <varray name="basis" >
     <v>       4.36823214       2.52200000       0.00000000 </v>
     <v>      -4.36823214       2.52200000       0.00000000 </v>
     <v>       0.00000000       0.00000000      15.00000000 </v>
    </varray>
    <i name="volume">    330.50044346 </i>
    <varray name="rec_basis" >
     <v>       0.11446278       0.19825535       0.00000000 </v>
     <v>      -0.11446278       0.19825535       0.00000000 </v>
     <v>       0.00000000       0.00000000       0.06666667 </v>
    </varray>
   </crystal>
   <varray name="positions" >
    <v>       0.33820333       0.66909866       0.11338162 </v>
    <v>       0.67153862       0.33576677       0.11306610 </v>
    <v>       0.16449216       0.32167612       0.11307387 </v>
    <v>       0.32403867       0.16201592       0.11308012 </v>
    <v>       0.16449215       0.84280962       0.11307420 </v>
    <v>       0.84528269       0.16201453       0.11307046 </v>
    <v>       0.68562040       0.84280692       0.11306551 </v>
    <v>       0.84528326       0.68326195       0.11307087 </v>
    <v>       0.33348112       0.16674314       0.33814038 </v>
    <v>       0.50016929       0.00015095       0.33811741 </v>
    <v>       0.33346175       0.66673345       0.33783192 </v>
    <v>       0.50016928       0.50002374       0.33811741 </v>
    <v>       0.83345647       0.16674447       0.33813579 </v>
    <v>       0.00013175       0.00006858       0.33812051 </v>
    <v>       0.83345649       0.66671720       0.33813582 </v>
    <v>       0.00004790       0.50002665       0.33811800 </v>
   </varray>
  </structure>
  <varray name="primitive_index" >
   <v type="int" >        1 </v>
   <v type="int" >        2 </v>
   <v type="int" >        3 </v>
   <v type="int" >        4 </v>
   <v type="int" >        5 </v>
   <v type="int" >        6 </v>
   <v type="int" >        7 </v>
   <v type="int" >        8 </v>
   <v type="int" >        9 </v>
   <v type="int" >       10 </v>
   <v type="int" >       11 </v>
   <v type="int" >       12 </v>
   <v type="int" >       13 </v>
   <v type="int" >       14 </v>
   <v type="int" >       15 </v>
   <v type="int" >       16 </v>
  </varray>
 </primitive_cell>
 <kpoints>
  <generation param="Gamma">
   <v type="int" name="divisions">      17       17        1 </v>
   <v name="usershift">      0.00000000       0.00000000       0.00000000 </v>
   <v name="genvec1">      0.05882353       0.00000000       0.00000000 </v>
   <v name="genvec2">      0.00000000       0.05882353       0.00000000 </v>
   <v name="genvec3">      0.00000000       0.00000000       1.00000000 </v>
   <v name="shift">      0.00000000       0.00000000       0.00000000 </v>
  </generation>
  <varray name="kpointlist" >
   <v>       0.00000000       0.00000000       0.00000000 </v>
   <v>       0.05882353      -0.00000000       0.00000000 </v>
   <v>      -0.00000000       0.05882353       0.00000000 </v>
   <v>      -0.05882353       0.05882353       0.00000000 </v>
   <v>       0.11764706      -0.00000000       0.00000000 </v>
   <v>      -0.00000000       0.11764706       0.00000000 </v>
   <v>      -0.11764706       0.11764706       0.00000000 </v>
   <v>       0.17647059       0.00000000       0.00000000 </v>
   <v>       0.00000000       0.17647059       0.00000000 </v>
   <v>      -0.17647059       0.17647059       0.00000000 </v>
   <v>       0.23529412      -0.00000000       0.00000000 </v>
   <v>      -0.00000000       0.23529412       0.00000000 </v>
   <v>      -0.23529412       0.23529412       0.00000000 </v>
   <v>       0.29411765      -0.00000000       0.00000000 </v>
   <v>      -0.00000000       0.29411765       0.00000000 </v>
   <v>      -0.29411765       0.29411765       0.00000000 </v>
   <v>       0.35294118       0.00000000       0.00000000 </v>
   <v>       0.00000000       0.35294118       0.00000000 </v>
   <v>      -0.35294118       0.35294118       0.00000000 </v>
   <v>       0.41176471      -0.00000000       0.00000000 </v>
   <v>      -0.00000000       0.41176471       0.00000000 </v>
   <v>      -0.41176471       0.41176471       0.00000000 </v>
   <v>       0.47058824      -0.00000000       0.00000000 </v>
   <v>      -0.00000000       0.47058824       0.00000000 </v>
   <v>      -0.47058824       0.47058824       0.00000000 </v>
   <v>       0.05882353       0.05882353       0.00000000 </v>
   <v>      -0.05882353       0.11764706       0.00000000 </v>
   <v>      -0.11764706       0.05882353       0.00000000 </v>
   <v>       0.11764706       0.05882353       0.00000000 </v>
   <v>      -0.05882353       0.17647059       0.00000000 </v>
   <v>      -0.17647059       0.11764706       0.00000000 </v>
   <v>      -0.11764706       0.17647059       0.00000000 </v>
   <v>       0.05882353       0.11764706       0.00000000 </v>
   <v>       0.17647059      -0.05882353       0.00000000 </v>
   <v>       0.17647059       0.05882353       0.00000000 </v>
   <v>      -0.05882353       0.23529412       0.00000000 </v>
   <v>      -0.23529412       0.17647059       0.00000000 </v>
   <v>      -0.17647059       0.23529412       0.00000000 </v>
   <v>       0.05882353       0.17647059       0.00000000 </v>
   <v>       0.23529412      -0.05882353       0.00000000 </v>
   <v>       0.23529412       0.05882353       0.00000000 </v>
   <v>      -0.05882353       0.29411765       0.00000000 </v>
   <v>      -0.29411765       0.23529412       0.00000000 </v>
   <v>      -0.23529412       0.29411765       0.00000000 </v>
   <v>       0.05882353       0.23529412       0.00000000 </v>
   <v>       0.29411765      -0.05882353       0.00000000 </v>
   <v>       0.29411765       0.05882353       0.00000000 </v>
   <v>      -0.05882353       0.35294118       0.00000000 </v>
   <v>      -0.35294118       0.29411765       0.00000000 </v>
   <v>      -0.29411765       0.35294118       0.00000000 </v>
   <v>       0.05882353       0.29411765       0.00000000 </v>
   <v>       0.35294118      -0.05882353       0.00000000 </v>
   <v>       0.35294118       0.05882353       0.00000000 </v>
   <v>      -0.05882353       0.41176471       0.00000000 </v>
   <v>      -0.41176471       0.35294118       0.00000000 </v>
   <v>      -0.35294118       0.41176471       0.00000000 </v>
   <v>       0.05882353       0.35294118       0.00000000 </v>
   <v>       0.41176471      -0.05882353       0.00000000 </v>
   <v>       0.41176471       0.05882353       0.00000000 </v>
   <v>      -0.05882353       0.47058824       0.00000000 </v>
   <v>      -0.47058824       0.41176471       0.00000000 </v>
   <v>      -0.41176471       0.47058824       0.00000000 </v>
   <v>       0.05882353       0.41176471       0.00000000 </v>
   <v>       0.47058824      -0.05882353       0.00000000 </v>
   <v>       0.47058824       0.05882353       0.00000000 </v>
   <v>      -0.05882353      -0.47058824       0.00000000 </v>
   <v>       0.47058824       0.47058824       0.00000000 </v>
   <v>       0.11764706       0.11764706       0.00000000 </v>
   <v>      -0.11764706       0.23529412       0.00000000 </v>
   <v>      -0.23529412       0.11764706       0.00000000 </v>
   <v>       0.17647059       0.11764706       0.00000000 </v>
   <v>      -0.11764706       0.29411765       0.00000000 </v>
   <v>      -0.29411765       0.17647059       0.00000000 </v>
   <v>      -0.17647059       0.29411765       0.00000000 </v>
   <v>       0.11764706       0.17647059       0.00000000 </v>
   <v>       0.29411765      -0.11764706       0.00000000 </v>
   <v>       0.23529412       0.11764706       0.00000000 </v>
   <v>      -0.11764706       0.35294118       0.00000000 </v>
   <v>      -0.35294118       0.23529412       0.00000000 </v>
   <v>      -0.23529412       0.35294118       0.00000000 </v>
   <v>       0.11764706       0.23529412       0.00000000 </v>
   <v>       0.35294118      -0.11764706       0.00000000 </v>
   <v>       0.29411765       0.11764706       0.00000000 </v>
   <v>      -0.11764706       0.41176471       0.00000000 </v>
   <v>      -0.41176471       0.29411765       0.00000000 </v>
   <v>      -0.29411765       0.41176471       0.00000000 </v>
   <v>       0.11764706       0.29411765       0.00000000 </v>
   <v>       0.41176471      -0.11764706       0.00000000 </v>
   <v>       0.35294118       0.11764706       0.00000000 </v>
   <v>      -0.11764706       0.47058824       0.00000000 </v>
   <v>      -0.47058824       0.35294118       0.00000000 </v>
   <v>      -0.35294118       0.47058824       0.00000000 </v>
   <v>       0.11764706       0.35294118       0.00000000 </v>
   <v>       0.47058824      -0.11764706       0.00000000 </v>
   <v>       0.41176471       0.11764706       0.00000000 </v>
   <v>      -0.11764706      -0.47058824       0.00000000 </v>
   <v>       0.47058824       0.41176471       0.00000000 </v>
   <v>      -0.41176471      -0.47058824       0.00000000 </v>
   <v>       0.11764706       0.41176471       0.00000000 </v>
   <v>      -0.47058824      -0.11764706       0.00000000 </v>
   <v>       0.17647059       0.17647059       0.00000000 </v>
   <v>      -0.17647059       0.35294118       0.00000000 </v>
   <v>      -0.35294118       0.17647059       0.00000000 </v>
   <v>       0.23529412       0.17647059       0.00000000 </v>
   <v>      -0.17647059       0.41176471       0.00000000 </v>
   <v>      -0.41176471       0.23529412       0.00000000 </v>
   <v>      -0.23529412       0.41176471       0.00000000 </v>
   <v>       0.17647059       0.23529412       0.00000000 </v>
   <v>       0.41176471      -0.17647059       0.00000000 </v>
   <v>       0.29411765       0.17647059       0.00000000 </v>
   <v>      -0.17647059       0.47058824       0.00000000 </v>
   <v>      -0.47058824       0.29411765       0.00000000 </v>
   <v>      -0.29411765       0.47058824       0.00000000 </v>
   <v>       0.17647059       0.29411765       0.00000000 </v>
   <v>       0.47058824      -0.17647059       0.00000000 </v>
   <v>       0.35294118       0.17647059       0.00000000 </v>
   <v>      -0.17647059      -0.47058824       0.00000000 </v>
   <v>       0.47058824       0.35294118       0.00000000 </v>
   <v>      -0.35294118      -0.47058824       0.00000000 </v>
   <v>       0.17647059       0.35294118       0.00000000 </v>
   <v>      -0.47058824      -0.17647059       0.00000000 </v>
   <v>       0.41176471       0.17647059       0.00000000 </v>
   <v>      -0.17647059      -0.41176471       0.00000000 </v>
   <v>       0.41176471       0.41176471       0.00000000 </v>
   <v>       0.23529412       0.23529412       0.00000000 </v>
   <v>      -0.23529412       0.47058824       0.00000000 </v>
   <v>      -0.47058824       0.23529412       0.00000000 </v>
   <v>       0.29411765       0.23529412       0.00000000 </v>
   <v>      -0.23529412      -0.47058824       0.00000000 </v>
   <v>       0.47058824       0.29411765       0.00000000 </v>
   <v>      -0.29411765      -0.47058824       0.00000000 </v>
   <v>       0.23529412       0.29411765       0.00000000 </v>
   <v>      -0.47058824      -0.23529412       0.00000000 </v>
   <v>       0.35294118       0.23529412       0.00000000 </v>
   <v>      -0.23529412      -0.41176471       0.00000000 </v>
   <v>       0.41176471       0.35294118       0.00000000 </v>
   <v>      -0.35294118      -0.41176471       0.00000000 </v>
   <v>       0.23529412       0.35294118       0.00000000 </v>
   <v>      -0.41176471      -0.23529412       0.00000000 </v>
   <v>       0.29411765       0.29411765       0.00000000 </v>
   <v>      -0.29411765      -0.41176471       0.00000000 </v>
   <v>       0.41176471       0.29411765       0.00000000 </v>
   <v>       0.35294118       0.29411765       0.00000000 </v>
   <v>      -0.29411765      -0.35294118       0.00000000 </v>
   <v>       0.35294118       0.35294118       0.00000000 </v>
  </varray>
  <varray name="weights" >
   <v>       0.00346021 </v>
   <v>       0.00692042 </v>
   <v>       0.00692042 </v>
   <v>       0.00692042 </v>
   <v>       0.00692042 </v>
   <v>       0.00692042 </v>
   <v>       0.00692042 </v>
   <v>       0.00692042 </v>
   <v>       0.00692042 </v>
   <v>       0.00692042 </v>
   <v>       0.00692042 </v>
   <v>       0.00692042 </v>
   <v>       0.00692042 </v>
   <v>       0.00692042 </v>
   <v>       0.00692042 </v>
   <v>       0.00692042 </v>
   <v>       0.00692042 </v>
   <v>       0.00692042 </v>
   <v>       0.00692042 </v>
   <v>       0.00692042 </v>
   <v>       0.00692042 </v>
   <v>       0.00692042 </v>
   <v>       0.00692042 </v>
   <v>       0.00692042 </v>
   <v>       0.00692042 </v>
   <v>       0.00692042 </v>
   <v>       0.00692042 </v>
   <v>       0.00692042 </v>
   <v>       0.00692042 </v>
   <v>       0.00692042 </v>
   <v>       0.00692042 </v>
   <v>       0.00692042 </v>
   <v>       0.00692042 </v>
   <v>       0.00692042 </v>
   <v>       0.00692042 </v>
   <v>       0.00692042 </v>
   <v>       0.00692042 </v>
   <v>       0.00692042 </v>
   <v>       0.00692042 </v>
   <v>       0.00692042 </v>
   <v>       0.00692042 </v>
   <v>       0.00692042 </v>
   <v>       0.00692042 </v>
   <v>       0.00692042 </v>
   <v>       0.00692042 </v>
   <v>       0.00692042 </v>
   <v>       0.00692042 </v>
   <v>       0.00692042 </v>
   <v>       0.00692042 </v>
   <v>       0.00692042 </v>
   <v>       0.00692042 </v>
   <v>       0.00692042 </v>
   <v>       0.00692042 </v>
   <v>       0.00692042 </v>
   <v>       0.00692042 </v>
   <v>       0.00692042 </v>
   <v>       0.00692042 </v>
   <v>       0.00692042 </v>
   <v>       0.00692042 </v>
   <v>       0.00692042 </v>
   <v>       0.00692042 </v>
   <v>       0.00692042 </v>
   <v>       0.00692042 </v>
   <v>       0.00692042 </v>
   <v>       0.00692042 </v>
   <v>       0.00692042 </v>
   <v>       0.00692042 </v>
   <v>       0.00692042 </v>
   <v>       0.00692042 </v>
   <v>       0.00692042 </v>
   <v>       0.00692042 </v>
   <v>       0.00692042 </v>
   <v>       0.00692042 </v>
   <v>       0.00692042 </v>
   <v>       0.00692042 </v>
   <v>       0.00692042 </v>
   <v>       0.00692042 </v>
   <v>       0.00692042 </v>
   <v>       0.00692042 </v>
   <v>       0.00692042 </v>
   <v>       0.00692042 </v>
   <v>       0.00692042 </v>
   <v>       0.00692042 </v>
   <v>       0.00692042 </v>
   <v>       0.00692042 </v>
   <v>       0.00692042 </v>
   <v>       0.00692042 </v>
   <v>       0.00692042 </v>
   <v>       0.00692042 </v>
   <v>       0.00692042 </v>
   <v>       0.00692042 </v>
   <v>       0.00692042 </v>
   <v>       0.00692042 </v>
   <v>       0.00692042 </v>
   <v>       0.00692042 </v>
   <v>       0.00692042 </v>
   <v>       0.00692042 </v>
   <v>       0.00692042 </v>
   <v>       0.00692042 </v>
   <v>       0.00692042 </v>
   <v>       0.00692042 </v>
   <v>       0.00692042 </v>
   <v>       0.00692042 </v>
   <v>       0.00692042 </v>
   <v>       0.00692042 </v>
   <v>       0.00692042 </v>
   <v>       0.00692042 </v>
   <v>       0.00692042 </v>
   <v>       0.00692042 </v>
   <v>       0.00692042 </v>
   <v>       0.00692042 </v>
   <v>       0.00692042 </v>
   <v>       0.00692042 </v>
   <v>       0.00692042 </v>
   <v>       0.00692042 </v>
   <v>       0.00692042 </v>
   <v>       0.00692042 </v>
   <v>       0.00692042 </v>
   <v>       0.00692042 </v>
   <v>       0.00692042 </v>
   <v>       0.00692042 </v>
   <v>       0.00692042 </v>
   <v>       0.00692042 </v>
   <v>       0.00692042 </v>
   <v>       0.00692042 </v>
   <v>       0.00692042 </v>
   <v>       0.00692042 </v>
   <v>       0.00692042 </v>
   <v>       0.00692042 </v>
   <v>       0.00692042 </v>
   <v>       0.00692042 </v>
   <v>       0.00692042 </v>
   <v>       0.00692042 </v>
   <v>       0.00692042 </v>
   <v>       0.00692042 </v>
   <v>       0.00692042 </v>
   <v>       0.00692042 </v>
   <v>       0.00692042 </v>
   <v>       0.00692042 </v>
   <v>       0.00692042 </v>
   <v>       0.00692042 </v>
   <v>       0.00692042 </v>
   <v>       0.00692042 </v>
   <v>       0.00692042 </v>
   <v>       0.00692042 </v>
  </varray>
 </kpoints>
 <parameters>
  <separator name="general" >
   <i type="string" name="SYSTEM">Dielectric_function</i>
   <i type="logical" name="LCOMPAT"> F  </i>
  </separator>
  <separator name="electronic" >
   <i type="string" name="PREC">accura</i>
   <i name="ENMAX">    450.00000000</i>
   <i name="ENAUG">    644.87300000</i>
   <i name="EDIFF">      0.00000001</i>
   <i type="int" name="IALGO">    53</i>
   <i type="int" name="IWAVPR">    10</i>
   <i type="int" name="NBANDS">   128</i>
   <i type="int" name="NBANDSLOW">    -1</i>
   <i type="int" name="NBANDSHIGH">    -1</i>
   <i name="NELECT">     62.00000000</i>
   <i type="int" name="TURBO">     0</i>
   <i type="int" name="IRESTART">     0</i>
   <i type="int" name="NREBOOT">     0</i>
   <i type="int" name="NMIN">     0</i>
   <i name="EREF">      0.00000000</i>
   <separator name="electronic smearing" >
    <i type="int" name="ISMEAR">     0</i>
    <i name="SIGMA">      0.01000000</i>
    <i name="KSPACING">      0.50000000</i>
    <i type="logical" name="KGAMMA"> T  </i>
    <i type="logical" name="KBLOWUP"> T  </i>
   </separator>
   <separator name="electronic projectors" >
    <i type="logical" name="LREAL"> F  </i>
    <v name="ROPT">      0.00000000      0.00000000</v>
    <i type="int" name="LMAXPAW">  -100</i>
    <i type="int" name="LMAXMIX">     2</i>
    <i type="logical" name="NLSPLINE"> F  </i>
   </separator>
   <separator name="electronic startup" >
    <i type="int" name="ISTART">     1</i>
    <i type="int" name="ICHARG">     2</i>
    <i type="int" name="INIWAV">     1</i>
   </separator>
   <separator name="electronic spin" >
    <i type="int" name="ISPIN">     1</i>
    <i type="logical" name="LNONCOLLINEAR"> F  </i>
    <v name="MAGMOM">      1.00000000      1.00000000      1.00000000      1.00000000      1.00000000      1.00000000      1.00000000      1.00000000      1.00000000      1.00000000      1.00000000      1.00000000      1.00000000      1.00000000      1.00000000      1.00000000</v>
    <i name="NUPDOWN">     -1.00000000</i>
    <i type="logical" name="LSORBIT"> F  </i>
    <v name="SAXIS">      0.00000000      0.00000000      1.00000000</v>
    <i type="logical" name="LSPIRAL"> F  </i>
    <v name="QSPIRAL">      0.00000000      0.00000000      0.00000000</v>
    <i type="logical" name="LZEROZ"> F  </i>
   </separator>
   <separator name="electronic exchange-correlation" >
    <i type="logical" name="LASPH"> F  </i>
    <i type="logical" name="LMETAGGA"> F  </i>
   </separator>
   <separator name="electronic convergence" >
    <i type="int" name="NELM">    60</i>
    <i type="int" name="NELMDL">     0</i>
    <i type="int" name="NELMIN">     2</i>
    <i name="ENINI">    450.00000000</i>
    <separator name="electronic convergence detail" >
     <i type="logical" name="LDIAG"> T  </i>
     <i type="logical" name="LSUBROT"> F  </i>
     <i name="WEIMIN">      0.00000000</i>
     <i name="EBREAK">      0.00000000</i>
     <i name="DEPER">      0.30000000</i>
     <i type="int" name="NRMM">     4</i>
     <i name="TIME">      0.40000000</i>
    </separator>
   </separator>
   <separator name="electronic mixer" >
    <i name="AMIX">      0.40000000</i>
    <i name="BMIX">      1.00000000</i>
    <i name="AMIN">      0.10000000</i>
    <i name="AMIX_MAG">      1.60000000</i>
    <i name="BMIX_MAG">      1.00000000</i>
    <separator name="electronic mixer details" >
     <i type="int" name="IMIX">     4</i>
     <i type="logical" name="MIXFIRST"> F  </i>
     <i type="int" name="MAXMIX">   -45</i>
     <i name="WC">    100.00000000</i>
     <i type="int" name="INIMIX">     1</i>
     <i type="int" name="MIXPRE">     1</i>
     <i type="int" name="MREMOVE">     5</i>
    </separator>
   </separator>
   <separator name="electronic dipolcorrection" >
    <i type="logical" name="LDIPOL"> F  </i>
    <i type="logical" name="LMONO"> F  </i>
    <i type="int" name="IDIPOL">     0</i>
    <i name="EPSILON">      1.00000000</i>
    <v name="DIPOL">   -100.00000000   -100.00000000   -100.00000000</v>
    <i name="EFIELD">      0.00000000</i>
   </separator>
  </separator>
  <separator name="grids" >
   <i type="int" name="NGX">    36</i>
   <i type="int" name="NGY">    36</i>
   <i type="int" name="NGZ">   108</i>
   <i type="int" name="NGXF">    72</i>
   <i type="int" name="NGYF">    72</i>
   <i type="int" name="NGZF">   216</i>
   <i type="logical" name="ADDGRID"> F  </i>
  </separator>
  <separator name="ionic" >
   <i type="int" name="NSW">     0</i>
   <i type="int" name="IBRION">    -1</i>
   <i type="int" name="MDALGO">     0</i>
   <i type="int" name="ISIF">     0</i>
   <i name="PSTRESS">      0.00000000</i>
   <i name="EDIFFG">      0.00000010</i>
   <i type="int" name="NFREE">     0</i>
   <i name="POTIM">      0.50000000</i>
   <i name="SMASS">     -3.00000000</i>
   <i name="SCALEE">      1.00000000</i>
  </separator>
  <separator name="ionic md" >
   <i name="TEBEG">      0.00010000</i>
   <i name="TEEND">      0.00010000</i>
   <i type="int" name="NBLOCK">     1</i>
   <i type="int" name="KBLOCK">     1</i>
   <i type="int" name="NPACO">   256</i>
   <i name="APACO">     10.00000000</i>
  </separator>
  <separator name="symmetry" >
   <i type="int" name="ISYM">     3</i>
   <i name="SYMPREC">      0.00001000</i>
  </separator>
  <separator name="dos" >
   <i type="int" name="LORBIT">     0</i>
   <v name="RWIGS">     -1.00000000     -1.00000000</v>
   <i type="int" name="NEDOS">  4000</i>
   <i name="EMIN">     10.00000000</i>
   <i name="EMAX">    -10.00000000</i>
   <i name="EFERMI">      0.00000000</i>
  </separator>
  <separator name="writing" >
   <i type="int" name="NWRITE">     2</i>
   <i type="logical" name="LWAVE"> T  </i>
   <i type="logical" name="LDOWNSAMPLE"> F  </i>
   <i type="logical" name="LCHARG"> T  </i>
   <i type="logical" name="LPARD"> F  </i>
   <i type="logical" name="LVTOT"> F  </i>
   <i type="logical" name="LVHAR"> F  </i>
   <i type="logical" name="LELF"> F  </i>
   <i type="logical" name="LOPTICS"> T  </i>
   <v name="STM">      0.00000000      0.00000000      0.00000000      0.00000000      0.00000000      0.00000000      0.00000000</v>
  </separator>
  <separator name="performance" >
   <i type="int" name="NPAR">     8</i>
   <i type="int" name="NSIM">     4</i>
   <i type="int" name="NBLK">    -1</i>
   <i type="logical" name="LPLANE"> T  </i>
   <i type="logical" name="LSCALAPACK"> T  </i>
   <i type="logical" name="LSCAAWARE"> T  </i>
   <i type="logical" name="LSCALU"> F  </i>
   <i type="logical" name="LASYNC"> F  </i>
   <i type="logical" name="LORBITALREAL"> F  </i>
  </separator>
  <separator name="miscellaneous" >
   <i type="int" name="IDIOT">     3</i>
   <i type="int" name="PHON_NSTRUCT">    -1</i>
   <i type="logical" name="LMUSIC"> F  </i>
   <v name="POMASS">     10.81100000     12.01100000</v>
   <v name="DARWINR">      0.00000000      0.00000000</v>
   <v name="DARWINV">      1.00000000      1.00000000</v>
   <i type="logical" name="LCORR"> T  </i>
  </separator>
  <i type="logical" name="GGA_COMPAT"> T  </i>
  <i type="logical" name="LBERRY"> F  </i>
  <i type="int" name="ICORELEVEL">     0</i>
  <i type="logical" name="LDAU"> F  </i>
  <i type="int" name="I_CONSTRAINED_M">     0</i>
  <separator name="electronic exchange-correlation" >
   <i type="string" name="GGA">PE</i>
   <i type="int" name="VOSKOWN">     0</i>
   <i type="logical" name="LHFCALC"> T  </i>
   <i type="string" name="PRECFOCK">normal</i>
   <i type="logical" name="LSYMGRAD"> F  </i>
   <i type="logical" name="LHFONE"> F  </i>
   <i type="logical" name="LRHFCALC"> F  </i>
   <i type="logical" name="LTHOMAS"> F  </i>
   <i type="logical" name="LMODELHF"> F  </i>
   <i type="logical" name="LFOCKACE"> T  </i>
   <i name="ENCUT4O">     -1.00000000</i>
   <i type="int" name="EXXOEP">     0</i>
   <i type="int" name="FOURORBIT">     0</i>
   <i name="AEXX">      0.25000000</i>
   <i name="HFALPHA">     -1.00000000</i>
   <i name="MCALPHA">      0.00000000</i>
   <i name="ALDAX">      0.75000000</i>
   <i name="AGGAX">      0.75000000</i>
   <i name="ALDAC">      1.00000000</i>
   <i name="AGGAC">      1.00000000</i>
   <i type="int" name="NKREDX">     1</i>
   <i type="int" name="NKREDY">     1</i>
   <i type="int" name="NKREDZ">     1</i>
   <i type="logical" name="SHIFTRED"> F  </i>
   <i type="logical" name="ODDONLY"> F  </i>
   <i type="logical" name="EVENONLY"> F  </i>
   <i type="int" name="LMAXFOCK">     4</i>
   <i type="int" name="NMAXFOCKAE">     1</i>
   <i type="logical" name="LFOCKAEDFT"> F  </i>
   <i name="HFSCREEN">      0.20000000</i>
   <i name="HFSCREENC">      0.20000000</i>
   <i type="int" name="NBANDSGWLOW">     1</i>
  </separator>
  <separator name="vdW DFT" >
   <i type="logical" name="LUSE_VDW"> F  </i>
   <i type="int" name="IVDW_NL">     1</i>
   <i type="logical" name="LSPIN_VDW"> F  </i>
   <i name="Zab_VDW">     -0.84910000</i>
   <i name="PARAM1">      0.12340000</i>
   <i name="PARAM2">      1.00000000</i>
   <i name="PARAM3">      0.00000000</i>
  </separator>
  <separator name="model GW" >
   <i type="int" name="MODEL_GW">     0</i>
   <i name="MODEL_EPS0">     12.39376663</i>
   <i name="MODEL_ALPHA">      1.00000000</i>
  </separator>
  <separator name="linear response parameters" >
   <i type="logical" name="LEPSILON"> F  </i>
   <i type="logical" name="LRPA"> F  </i>
   <i type="logical" name="LNABLA"> F  </i>
   <i type="logical" name="LVEL"> F  </i>
   <i name="CSHIFT">      0.10000000</i>
   <i name="OMEGAMAX">     -1.00000000</i>
   <i name="DEG_THRESHOLD">      0.00200000</i>
   <i name="RTIME">     -0.10000000</i>
   <i name="WPLASMAI">      0.00000000</i>
   <v name="DFIELD">      0.00000000      0.00000000      0.00000000</v>
   <v name="WPLASMA">      0.00000000      0.00000000      0.00000000      0.00000000      0.00000000      0.00000000      0.00000000      0.00000000      0.00000000</v>
  </separator>
  <separator name="orbital magnetization" >
   <i type="logical" name="NUCIND"> F  </i>
   <v name="MAGPOS">      0.00000000      0.00000000      0.00000000</v>
   <i type="logical" name="LNICSALL"> T  </i>
   <i type="logical" name="ORBITALMAG"> F  </i>
   <i type="logical" name="LMAGBLOCH"> F  </i>
   <i type="logical" name="LCHIMAG"> F  </i>
   <i type="logical" name="LGAUGE"> T  </i>
   <i type="int" name="MAGATOM">     0</i>
   <v name="MAGDIPOL">      0.00000000      0.00000000      0.00000000</v>
   <v name="AVECCONST">      0.00000000      0.00000000      0.00000000</v>
  </separator>
  <separator name="response functions" >
   <i type="logical" name="LALL_IN_ONE"> F  </i>
   <i type="int" name="IALL_IN_ONE">    -1</i>
   <i type="int" name="NBANDS_WAVE">    -1</i>
   <i type="logical" name="LFINITE_TEMPERATURE"> F  </i>
   <i type="logical" name="LADDER"> F  </i>
   <i type="logical" name="LRPAFORCE"> F  </i>
   <i type="logical" name="LFXC"> F  </i>
   <i type="logical" name="LHARTREE"> T  </i>
   <i type="int" name="IBSE">     0</i>
   <v type="int" name="KPOINT">    -1     0     0     0</v>
   <i type="logical" name="LTCTC"> F  </i>
   <i type="logical" name="LTCTE"> F  </i>
   <i type="logical" name="LTETE"> F  </i>
   <i type="logical" name="LTRIPLET"> F  </i>
   <i type="logical" name="LFXCEPS"> F  </i>
   <i type="logical" name="LFXHEG"> F  </i>
   <i type="int" name="NATURALO">     2</i>
   <i type="logical" name="LHOLEGF"> F  </i>
   <i type="logical" name="L2ORDER"> F  </i>
   <i type="logical" name="LDMP1"> F  </i>
   <i type="logical" name="LMP2LT"> F  </i>
   <i type="logical" name="LSMP2LT"> F  </i>
   <i type="logical" name="LGWLF"> F  </i>
   <i name="ENCUTGW">     -1.60000002</i>
   <i name="ENCUTGWSOFT">     -1.60000002</i>
   <i name="ENCUTLF">     -1.00000000</i>
   <i type="logical" name="LESF_SPLINES"> F  </i>
   <i type="int" name="LMAXMP2">    -1</i>
   <i name="SCISSOR">      0.00000000</i>
   <i type="int" name="NOMEGA">     0</i>
   <i type="int" name="NOMEGAR">     0</i>
   <i type="int" name="NBANDSGW">    -1</i>
   <i type="int" name="NBANDSO">    -1</i>
   <i type="int" name="NBANDSV">    -1</i>
   <i type="int" name="NELMGW">     1</i>
   <i type="int" name="NELMHF">     1</i>
   <i type="int" name="DIM">     3</i>
   <i type="int" name="IESPILON">     4</i>
   <i type="int" name="ANTIRES">     0</i>
   <i name="OMEGAMAX">    -30.00000000</i>
   <i name="OMEGAMIN">    -30.00000000</i>
   <i name="OMEGATL">   -200.00000000</i>
   <i type="int" name="OMEGAGRID">     0</i>
   <i name="CSHIFT">      0.10000000</i>
   <i type="logical" name="LSELFENERGY"> F  </i>
   <i type="logical" name="LSPECTRAL"> F  </i>
   <i type="logical" name="LSPECTRALGW"> F  </i>
   <i type="logical" name="LSINGLES"> F  </i>
   <i type="logical" name="LFERMIGW"> F  </i>
   <i type="logical" name="ODDONLYGW"> F  </i>
   <i type="logical" name="EVENONLYGW"> F  </i>
   <i type="int" name="NKREDLFX">     1</i>
   <i type="int" name="NKREDLFY">     1</i>
   <i type="int" name="NKREDLFZ">     1</i>
   <i type="int" name="MAXMEM">  2800</i>
   <i type="int" name="TELESCOPE">     0</i>
   <i type="int" name="NTAUPAR">    -1</i>
   <i type="int" name="NOMEGAPAR">    -1</i>
   <i name="DAMP_NEWTON">      0.80000001</i>
   <i name="LAMBDA">      1.00000000</i>
  </separator>
  <separator name="External order field" >
   <i name="OFIELD_KAPPA">      0.00000000</i>
   <v name="OFIELD_K">      0.00000000      0.00000000      0.00000000</v>
   <i name="OFIELD_Q6_NEAR">      0.00000000</i>
   <i name="OFIELD_Q6_FAR">      0.00000000</i>
   <i name="OFIELD_A">      0.00000000</i>
  </separator>
  <separator name="optional k-points parameters" >
   <i type="int" name="KPOINTS_OPT_MODE">     1</i>
   <i type="logical" name="LKPOINTS_OPT"> F  </i>
  </separator>
 </parameters>
 <atominfo>
  <atoms>      16 </atoms>
  <types>       2 </types>
  <array name="atoms" >
   <dimension dim="1">ion</dimension>
   <field type="string">element</field>
   <field type="int">atomtype</field>
   <set>
    <rc><c>B </c><c>   1</c></rc>
    <rc><c>B </c><c>   1</c></rc>
    <rc><c>C </c><c>   2</c></rc>
    <rc><c>C </c><c>   2</c></rc>
    <rc><c>C </c><c>   2</c></rc>
    <rc><c>C </c><c>   2</c></rc>
    <rc><c>C </c><c>   2</c></rc>
    <rc><c>C </c><c>   2</c></rc>
    <rc><c>C </c><c>   2</c></rc>
    <rc><c>C </c><c>   2</c></rc>
    <rc><c>C </c><c>   2</c></rc>
    <rc><c>C </c><c>   2</c></rc>
    <rc><c>C </c><c>   2</c></rc>
    <rc><c>C </c><c>   2</c></rc>
    <rc><c>C </c><c>   2</c></rc>
    <rc><c>C </c><c>   2</c></rc>
   </set>
  </array>
  <array name="atomtypes" >
   <dimension dim="1">type</dimension>
   <field type="int">atomspertype</field>
   <field type="string">element</field>
   <field>mass</field>
   <field>valence</field>
   <field type="string">pseudopotential</field>
   <set>
    <rc><c>   2</c><c>B </c><c>     10.81100000</c><c>      3.00000000</c><c>  PAW_PBE B 06Sep2000                   </c></rc>
    <rc><c>  14</c><c>C </c><c>     12.01100000</c><c>      4.00000000</c><c>  PAW_PBE C 08Apr2002                   </c></rc>
   </set>
  </array>
 </atominfo>
 <structure name="initialpos" >
  <crystal>
   <varray name="basis" >
    <v>       4.36823214       2.52200000       0.00000000 </v>
    <v>      -4.36823214       2.52200000       0.00000000 </v>
    <v>       0.00000000       0.00000000      15.00000000 </v>
   </varray>
   <i name="volume">    330.50044346 </i>
   <varray name="rec_basis" >
    <v>       0.11446278       0.19825535       0.00000000 </v>
    <v>      -0.11446278       0.19825535       0.00000000 </v>
    <v>       0.00000000       0.00000000       0.06666667 </v>
   </varray>
  </crystal>
  <varray name="positions" >
   <v>       0.33820333       0.66909866       0.11338162 </v>
   <v>       0.67153862       0.33576677       0.11306610 </v>
   <v>       0.16449216       0.32167612       0.11307387 </v>
   <v>       0.32403867       0.16201592       0.11308012 </v>
   <v>       0.16449215       0.84280962       0.11307420 </v>
   <v>       0.84528269       0.16201453       0.11307046 </v>
   <v>       0.68562040       0.84280692       0.11306551 </v>
   <v>       0.84528326       0.68326195       0.11307087 </v>
   <v>       0.33348112       0.16674314       0.33814038 </v>
   <v>       0.50016929       0.00015095       0.33811741 </v>
   <v>       0.33346175       0.66673345       0.33783192 </v>
   <v>       0.50016928       0.50002374       0.33811741 </v>
   <v>       0.83345647       0.16674447       0.33813579 </v>
   <v>       0.00013175       0.00006858       0.33812051 </v>
   <v>       0.83345649       0.66671720       0.33813582 </v>
   <v>       0.00004790       0.50002665       0.33811800 </v>
  </varray>
 </structure>
 <calculation>
  <scstep>
   <time name="total">46092.2346975.95</time>
   <energy>
    <i name="alphaZ">     62.53960761 </i>
    <i name="ewald">   5474.65236662 </i>
    <i name="hartreedc">  -7524.48287785 </i>
    <i name="XCdc">    158.67453318 </i>
    <i name="pawpsdc">   6387.35501656 </i>
    <i name="pawaedc">  -6392.41716582 </i>
    <i name="eentropy">     -0.00000000 </i>
    <i name="bandstr">   -639.50206560 </i>
    <i name="atom">   2176.09593279 </i>
    <i name="e_fr_energy">   -160.87443745 </i>
    <i name="e_wo_entrp">   -160.87443745 </i>
    <i name="e_0_energy">   -160.87443745 </i>
   </energy>
  </scstep>
  <scstep>
   <time name="total">45890.9946928.53</time>
   <energy>
    <i name="e_fr_energy">   -160.98605935 </i>
    <i name="e_wo_entrp">   -160.98605935 </i>
    <i name="e_0_energy">   -160.98605935 </i>
   </energy>
  </scstep>
  <scstep>
   <time name="total">45824.1446895.50</time>
   <energy>
    <i name="e_fr_energy">   -161.04094754 </i>
    <i name="e_wo_entrp">   -161.04094754 </i>
    <i name="e_0_energy">   -161.04094754 </i>
   </energy>
  </scstep>
  <scstep>
   <time name="total">85047.5786292.26</time>
   <energy>
    <i name="e_fr_energy">   -161.06028582 </i>
    <i name="e_wo_entrp">   -161.06028582 </i>
    <i name="e_0_energy">   -161.06028582 </i>
   </energy>
  </scstep>
  <scstep>
   <time name="total">45911.0546729.40</time>
   <energy>
    <i name="e_fr_energy">   -161.06752866 </i>
    <i name="e_wo_entrp">   -161.06752866 </i>
    <i name="e_0_energy">   -161.06752866 </i>
   </energy>
  </scstep>
  <scstep>
   <time name="total">45678.6346563.20</time>
   <energy>
    <i name="e_fr_energy">   -161.07118874 </i>
    <i name="e_wo_entrp">   -161.07118874 </i>
    <i name="e_0_energy">   -161.07118874 </i>
   </energy>
  </scstep>
  <scstep>
   <time name="total">45811.7246740.07</time>
   <energy>
    <i name="e_fr_energy">   -161.07340090 </i>
    <i name="e_wo_entrp">   -161.07340090 </i>
    <i name="e_0_energy">   -161.07340090 </i>
   </energy>
  </scstep>
  <scstep>
   <time name="total">46982.3948010.91</time>
   <energy>
    <i name="e_fr_energy">   -161.07471650 </i>
    <i name="e_wo_entrp">   -161.07471650 </i>
    <i name="e_0_energy">   -161.07471650 </i>
   </energy>
  </scstep>
  <scstep>
   <time name="total">45878.8346760.00</time>
   <energy>
    <i name="e_fr_energy">   -161.07542903 </i>
    <i name="e_wo_entrp">   -161.07542903 </i>
    <i name="e_0_energy">   -161.07542903 </i>
   </energy>
  </scstep>
  <scstep>
   <time name="total">45937.2246875.71</time>
   <energy>
    <i name="e_fr_energy">   -161.07579216 </i>
    <i name="e_wo_entrp">   -161.07579216 </i>
    <i name="e_0_energy">   -161.07579216 </i>
   </energy>
  </scstep>
  <scstep>
   <time name="total">46014.5546834.49</time>
   <energy>
    <i name="e_fr_energy">   -161.07597112 </i>
    <i name="e_wo_entrp">   -161.07597112 </i>
    <i name="e_0_energy">   -161.07597112 </i>
   </energy>
  </scstep>
  <scstep>
   <time name="total">46213.3247391.55</time>
   <energy>
    <i name="e_fr_energy">   -161.07605646 </i>
    <i name="e_wo_entrp">   -161.07605646 </i>
    <i name="e_0_energy">   -161.07605646 </i>
   </energy>
  </scstep>
  <scstep>
   <time name="total">46301.5047441.32</time>
   <energy>
    <i name="e_fr_energy">   -161.07609597 </i>
    <i name="e_wo_entrp">   -161.07609597 </i>
    <i name="e_0_energy">   -161.07609597 </i>
   </energy>
  </scstep>
  <scstep>
   <time name="total">46530.9847555.92</time>
   <energy>
    <i name="e_fr_energy">   -161.07611380 </i>
    <i name="e_wo_entrp">   -161.07611380 </i>
    <i name="e_0_energy">   -161.07611380 </i>
   </energy>
  </scstep>
  <scstep>
   <time name="total">46123.2547211.31</time>
   <energy>
    <i name="e_fr_energy">   -161.07612163 </i>
    <i name="e_wo_entrp">   -161.07612163 </i>
    <i name="e_0_energy">   -161.07612163 </i>
   </energy>
  </scstep>
  <scstep>
   <time name="total">45997.8747024.68</time>
   <energy>
    <i name="e_fr_energy">   -161.07612498 </i>
    <i name="e_wo_entrp">   -161.07612498 </i>
    <i name="e_0_energy">   -161.07612498 </i>
   </energy>
  </scstep>
  <scstep>
   <time name="total">46268.1147299.80</time>
   <energy>
    <i name="e_fr_energy">   -161.07612639 </i>
    <i name="e_wo_entrp">   -161.07612639 </i>
    <i name="e_0_energy">   -161.07612639 </i>
   </energy>
  </scstep>
  <scstep>
   <time name="total">45962.3346983.02</time>
   <energy>
    <i name="e_fr_energy">   -161.07612696 </i>
    <i name="e_wo_entrp">   -161.07612696 </i>
    <i name="e_0_energy">   -161.07612696 </i>
   </energy>
  </scstep>
  <scstep>
   <time name="total">48627.4950522.40</time>
   <energy>
    <i name="e_fr_energy">   -161.07612720 </i>
    <i name="e_wo_entrp">   -161.07612720 </i>
    <i name="e_0_energy">   -161.07612720 </i>
   </energy>
  </scstep>
  <scstep>
   <time name="total">49804.3852064.78</time>
   <energy>
    <i name="e_fr_energy">   -161.07612730 </i>
    <i name="e_wo_entrp">   -161.07612730 </i>
    <i name="e_0_energy">   -161.07612730 </i>
   </energy>
  </scstep>
  <scstep>
   <time name="total">46093.8347468.27</time>
   <energy>
    <i name="e_fr_energy">   -161.07612734 </i>
    <i name="e_wo_entrp">   -161.07612734 </i>
    <i name="e_0_energy">   -161.07612734 </i>
   </energy>
  </scstep>
  <scstep>
   <time name="total">46354.5447616.97</time>
   <energy>
    <i name="e_fr_energy">   -161.07612735 </i>
    <i name="e_wo_entrp">   -161.07612735 </i>
    <i name="e_0_energy">   -161.07612735 </i>
   </energy>
  </scstep>
  <scstep>
   <time name="total">92166.9194271.73</time>
   <energy>
    <i name="alphaZ">     62.53960761 </i>
    <i name="ewald">   5474.65236662 </i>
    <i name="hartreedc">  -7518.81672480 </i>
    <i name="XCdc">    158.51375152 </i>
    <i name="pawpsdc">   6879.11870672 </i>
    <i name="pawaedc">  -6883.97950941 </i>
    <i name="eentropy">     -0.00000000 </i>
    <i name="bandstr">   -645.54957621 </i>
    <i name="atom">   2176.09593279 </i>
    <i name="e_fr_energy">   -161.07612736 </i>
    <i name="e_wo_entrp">   -161.07612736 </i>
    <i name="e_0_energy">   -161.07612736 </i>
   </energy>
  </scstep>
  <structure>
   <crystal>
    <varray name="basis" >
     <v>       4.36823214       2.52200000       0.00000000 </v>
     <v>      -4.36823214       2.52200000       0.00000000 </v>
     <v>       0.00000000       0.00000000      15.00000000 </v>
    </varray>
    <i name="volume">    330.50044346 </i>
    <varray name="rec_basis" >
     <v>       0.11446278       0.19825535       0.00000000 </v>
     <v>      -0.11446278       0.19825535       0.00000000 </v>
     <v>       0.00000000       0.00000000       0.06666667 </v>
    </varray>
   </crystal>
   <varray name="positions" >
    <v>       0.33820333       0.66909866       0.11338162 </v>
    <v>       0.67153862       0.33576677       0.11306610 </v>
    <v>       0.16449216       0.32167612       0.11307387 </v>
    <v>       0.32403867       0.16201592       0.11308012 </v>
    <v>       0.16449215       0.84280962       0.11307420 </v>
    <v>       0.84528269       0.16201453       0.11307046 </v>
    <v>       0.68562040       0.84280692       0.11306551 </v>
    <v>       0.84528326       0.68326195       0.11307087 </v>
    <v>       0.33348112       0.16674314       0.33814038 </v>
    <v>       0.50016929       0.00015095       0.33811741 </v>
    <v>       0.33346175       0.66673345       0.33783192 </v>
    <v>       0.50016928       0.50002374       0.33811741 </v>
    <v>       0.83345647       0.16674447       0.33813579 </v>
    <v>       0.00013175       0.00006858       0.33812051 </v>
    <v>       0.83345649       0.66671720       0.33813582 </v>
    <v>       0.00004790       0.50002665       0.33811800 </v>
   </varray>
  </structure>
  <varray name="forces" >
   <v>       0.00003256      -0.00006644      -0.03948408 </v>
   <v>       0.00016562      -0.00004592      -0.03708703 </v>
   <v>       0.20972166      -0.36349399      -0.04460348 </v>
   <v>      -0.21165909      -0.36637426      -0.04494256 </v>
   <v>      -0.41959135      -0.00008247      -0.04460843 </v>
   <v>       0.42288493      -0.00000325      -0.04455505 </v>
   <v>       0.20969381       0.36322060      -0.04444560 </v>
   <v>      -0.21161150       0.36620286      -0.04457409 </v>
   <v>      -0.00124174      -0.00209233       0.04701088 </v>
   <v>      -0.00123229       0.00263820       0.03974640 </v>
   <v>      -0.00015226      -0.00020242       0.04472208 </v>
   <v>       0.00295029       0.00022762       0.03974924 </v>
   <v>       0.00208362      -0.00012364       0.04702381 </v>
   <v>       0.00027162       0.00041900       0.03933680 </v>
   <v>      -0.00119515       0.00176549       0.04701933 </v>
   <v>      -0.00112072      -0.00198904       0.03969177 </v>
  </varray>
  <energy>
   <i name="e_fr_energy">   -161.07612736 </i>
   <i name="e_wo_entrp">   -161.07612736 </i>
   <i name="e_0_energy">   -161.07612736 </i>
  </energy>
  <time name="totalsc">****************</time>
  <eigenvalues>
   <array>
    <dimension dim="1">band</dimension>
    <dimension dim="2">kpoint</dimension>
    <dimension dim="3">spin</dimension>
    <field>eigene</field>
    <field>occ</field>
    <set>
     <set comment="spin 1">
      <set comment="kpoint 1">
       <r>  -22.4030    1.0000 </r>
       <r>  -20.5162    1.0000 </r>
       <r>  -17.0331    1.0000 </r>
       <r>  -17.0330    1.0000 </r>
       <r>  -17.0299    1.0000 </r>
       <r>  -16.0029    1.0000 </r>
       <r>  -16.0026    1.0000 </r>
       <r>  -15.5740    1.0000 </r>
       <r>  -15.5609    1.0000 </r>
       <r>  -15.5607    1.0000 </r>
       <r>  -13.5652    1.0000 </r>
       <r>  -13.5652    1.0000 </r>
       <r>  -12.4365    1.0000 </r>
       <r>  -10.8496    1.0000 </r>
       <r>   -9.4701    1.0000 </r>
       <r>   -8.3580    1.0000 </r>
       <r>   -8.3579    1.0000 </r>
       <r>   -8.3579    1.0000 </r>
       <r>   -7.6854    1.0000 </r>
       <r>   -7.6016    1.0000 </r>
       <r>   -5.3204    1.0000 </r>
       <r>   -5.3203    1.0000 </r>
       <r>   -4.9194    1.0000 </r>
       <r>   -4.9192    1.0000 </r>
       <r>   -3.7209    1.0000 </r>
       <r>   -3.7176    1.0000 </r>
       <r>   -3.6805    1.0000 </r>
       <r>   -2.7379    1.0000 </r>
       <r>   -2.7323    1.0000 </r>
       <r>   -2.3565    1.0000 </r>
       <r>   -2.3564    1.0000 </r>
       <r>    0.4470    0.0000 </r>
       <r>    1.1607    0.0000 </r>
       <r>    1.1654    0.0000 </r>
       <r>    1.4413    0.0000 </r>
       <r>    2.5978    0.0000 </r>
       <r>    2.6006    0.0000 </r>
       <r>    3.0428    0.0000 </r>
       <r>    3.3047    0.0000 </r>
       <r>    3.9476    0.0000 </r>
       <r>    4.8525    0.0000 </r>
       <r>    6.5789    0.0000 </r>
       <r>    6.5898    0.0000 </r>
       <r>    6.5900    0.0000 </r>
       <r>    7.4656    0.0000 </r>
       <r>    7.7277    0.0000 </r>
       <r>    7.9100    0.0000 </r>
       <r>    7.9101    0.0000 </r>
       <r>    8.5817    0.0000 </r>
       <r>    8.5819    0.0000 </r>
       <r>   10.0701    0.0000 </r>
       <r>   10.4058    0.0000 </r>
       <r>   10.4059    0.0000 </r>
       <r>   10.6767    0.0000 </r>
       <r>   10.6823    0.0000 </r>
       <r>   10.6829    0.0000 </r>
       <r>   10.7506    0.0000 </r>
       <r>   10.7518    0.0000 </r>
       <r>   10.8754    0.0000 </r>
       <r>   11.2848    0.0000 </r>
       <r>   11.2852    0.0000 </r>
       <r>   11.3155    0.0000 </r>
       <r>   11.3236    0.0000 </r>
       <r>   11.3262    0.0000 </r>
       <r>   11.3538    0.0000 </r>
       <r>   11.3550    0.0000 </r>
       <r>   11.4198    0.0000 </r>
       <r>   11.7125    0.0000 </r>
       <r>   12.2950    0.0000 </r>
       <r>   12.3451    0.0000 </r>
       <r>   12.3454    0.0000 </r>
       <r>   12.3783    0.0000 </r>
       <r>   12.3789    0.0000 </r>
       <r>   12.5307    0.0000 </r>
       <r>   13.5540    0.0000 </r>
       <r>   13.5580    0.0000 </r>
       <r>   13.5673    0.0000 </r>
       <r>   13.8241    0.0000 </r>
       <r>   14.0277    0.0000 </r>
       <r>   14.0445    0.0000 </r>
       <r>   14.1681    0.0000 </r>
       <r>   14.6063    0.0000 </r>
       <r>   15.0112    0.0000 </r>
       <r>   15.0167    0.0000 </r>
       <r>   15.1439    0.0000 </r>
       <r>   15.1705    0.0000 </r>
       <r>   15.1709    0.0000 </r>
       <r>   15.3212    0.0000 </r>
       <r>   15.7837    0.0000 </r>
       <r>   17.2405    0.0000 </r>
       <r>   17.2491    0.0000 </r>
       <r>   17.4958    0.0000 </r>
       <r>   17.6208    0.0000 </r>
       <r>   17.6441    0.0000 </r>
       <r>   18.0502    0.0000 </r>
       <r>   18.6280    0.0000 </r>
       <r>   19.9867    0.0000 </r>
       <r>   19.9881    0.0000 </r>
       <r>   20.0359    0.0000 </r>
       <r>   20.1126    0.0000 </r>
       <r>   20.1253    0.0000 </r>
       <r>   20.3452    0.0000 </r>
       <r>   20.3510    0.0000 </r>
       <r>   20.4016    0.0000 </r>
       <r>   20.4039    0.0000 </r>
       <r>   20.7413    0.0000 </r>
       <r>   20.7662    0.0000 </r>
       <r>   20.7894    0.0000 </r>
       <r>   20.9855    0.0000 </r>
       <r>   21.6907    0.0000 </r>
       <r>   22.0118    0.0000 </r>
       <r>   22.1099    0.0000 </r>
       <r>   22.1933    0.0000 </r>
       <r>   22.2948    0.0000 </r>
       <r>   22.4115    0.0000 </r>
       <r>   22.4336    0.0000 </r>
       <r>   23.1456    0.0000 </r>
       <r>   24.7973    0.0000 </r>
       <r>   25.0550    0.0000 </r>
       <r>   25.3879    0.0000 </r>
       <r>   25.5995    0.0000 </r>
       <r>   25.9125    0.0000 </r>
       <r>   26.1336    0.0000 </r>
       <r>   26.2892    0.0000 </r>
       <r>   26.5971    0.0000 </r>
       <r>   26.8244    0.0000 </r>
       <r>   27.0081    0.0000 </r>
       <r>   27.1908    0.0000 </r>
      </set>
      <set comment="kpoint 2">
       <r>  -22.3816    1.0000 </r>
       <r>  -20.5001    1.0000 </r>
       <r>  -17.2878    1.0000 </r>
       <r>  -17.0913    1.0000 </r>
       <r>  -17.0892    1.0000 </r>
       <r>  -16.0869    1.0000 </r>
       <r>  -16.0302    1.0000 </r>
       <r>  -15.4772    1.0000 </r>
       <r>  -15.4696    1.0000 </r>
       <r>  -15.2796    1.0000 </r>
       <r>  -13.5826    1.0000 </r>
       <r>  -13.5028    1.0000 </r>
       <r>  -12.3540    1.0000 </r>
       <r>  -10.7570    1.0000 </r>
       <r>   -9.4438    1.0000 </r>
       <r>   -8.4249    1.0000 </r>
       <r>   -8.4248    1.0000 </r>
       <r>   -8.3370    1.0000 </r>
       <r>   -7.6607    1.0000 </r>
       <r>   -7.6340    1.0000 </r>
       <r>   -5.3882    1.0000 </r>
       <r>   -5.3326    1.0000 </r>
       <r>   -5.0091    1.0000 </r>
       <r>   -4.9638    1.0000 </r>
       <r>   -3.8568    1.0000 </r>
       <r>   -3.7355    1.0000 </r>
       <r>   -3.7057    1.0000 </r>
       <r>   -2.7902    1.0000 </r>
       <r>   -2.7433    1.0000 </r>
       <r>   -2.4368    1.0000 </r>
       <r>   -2.3975    1.0000 </r>
       <r>    0.3844    0.0000 </r>
       <r>    1.1975    0.0000 </r>
       <r>    1.2680    0.0000 </r>
       <r>    1.4287    0.0000 </r>
       <r>    2.6383    0.0000 </r>
       <r>    2.8324    0.0000 </r>
       <r>    3.0701    0.0000 </r>
       <r>    3.3628    0.0000 </r>
       <r>    3.9887    0.0000 </r>
       <r>    4.8794    0.0000 </r>
       <r>    6.5982    0.0000 </r>
       <r>    6.6829    0.0000 </r>
       <r>    6.6895    0.0000 </r>
       <r>    7.4914    0.0000 </r>
       <r>    7.7511    0.0000 </r>
       <r>    7.9227    0.0000 </r>
       <r>    7.9995    0.0000 </r>
       <r>    8.6203    0.0000 </r>
       <r>    8.6709    0.0000 </r>
       <r>    9.7932    0.0000 </r>
       <r>   10.0977    0.0000 </r>
       <r>   10.2834    0.0000 </r>
       <r>   10.3957    0.0000 </r>
       <r>   10.4220    0.0000 </r>
       <r>   10.5206    0.0000 </r>
       <r>   10.6029    0.0000 </r>
       <r>   10.9062    0.0000 </r>
       <r>   10.9820    0.0000 </r>
       <r>   11.1766    0.0000 </r>
       <r>   11.2233    0.0000 </r>
       <r>   11.2549    0.0000 </r>
       <r>   11.3560    0.0000 </r>
       <r>   11.5187    0.0000 </r>
       <r>   11.5373    0.0000 </r>
       <r>   11.6459    0.0000 </r>
       <r>   11.7353    0.0000 </r>
       <r>   11.8278    0.0000 </r>
       <r>   11.9979    0.0000 </r>
       <r>   12.0631    0.0000 </r>
       <r>   12.2593    0.0000 </r>
       <r>   12.7748    0.0000 </r>
       <r>   12.7915    0.0000 </r>
       <r>   13.1067    0.0000 </r>
       <r>   13.2648    0.0000 </r>
       <r>   13.4152    0.0000 </r>
       <r>   13.5476    0.0000 </r>
       <r>   13.8459    0.0000 </r>
       <r>   14.0156    0.0000 </r>
       <r>   14.0454    0.0000 </r>
       <r>   14.0673    0.0000 </r>
       <r>   14.4909    0.0000 </r>
       <r>   14.8317    0.0000 </r>
       <r>   14.8602    0.0000 </r>
       <r>   15.0678    0.0000 </r>
       <r>   15.4473    0.0000 </r>
       <r>   15.4479    0.0000 </r>
       <r>   15.7221    0.0000 </r>
       <r>   15.8987    0.0000 </r>
       <r>   17.0541    0.0000 </r>
       <r>   17.0843    0.0000 </r>
       <r>   17.3228    0.0000 </r>
       <r>   17.6387    0.0000 </r>
       <r>   17.7981    0.0000 </r>
       <r>   18.1448    0.0000 </r>
       <r>   18.6385    0.0000 </r>
       <r>   19.6714    0.0000 </r>
       <r>   19.7646    0.0000 </r>
       <r>   19.8265    0.0000 </r>
       <r>   19.9730    0.0000 </r>
       <r>   19.9788    0.0000 </r>
       <r>   20.3439    0.0000 </r>
       <r>   20.3969    0.0000 </r>
       <r>   20.4214    0.0000 </r>
       <r>   20.5442    0.0000 </r>
       <r>   20.6289    0.0000 </r>
       <r>   21.0063    0.0000 </r>
       <r>   21.1002    0.0000 </r>
       <r>   21.1830    0.0000 </r>
       <r>   21.7485    0.0000 </r>
       <r>   21.7564    0.0000 </r>
       <r>   21.8557    0.0000 </r>
       <r>   22.2778    0.0000 </r>
       <r>   22.3452    0.0000 </r>
       <r>   22.7200    0.0000 </r>
       <r>   22.9697    0.0000 </r>
       <r>   23.2848    0.0000 </r>
       <r>   24.5517    0.0000 </r>
       <r>   24.6994    0.0000 </r>
       <r>   25.0545    0.0000 </r>
       <r>   25.3852    0.0000 </r>
       <r>   25.6856    0.0000 </r>
       <r>   25.8076    0.0000 </r>
       <r>   25.9735    0.0000 </r>
       <r>   26.2307    0.0000 </r>
       <r>   26.4522    0.0000 </r>
       <r>   26.8774    0.0000 </r>
       <r>   27.3400    0.0000 </r>
      </set>
      <set comment="kpoint 3">
       <r>  -22.3816    1.0000 </r>
       <r>  -20.5001    1.0000 </r>
       <r>  -17.2877    1.0000 </r>
       <r>  -17.0913    1.0000 </r>
       <r>  -17.0893    1.0000 </r>
       <r>  -16.0869    1.0000 </r>
       <r>  -16.0301    1.0000 </r>
       <r>  -15.4772    1.0000 </r>
       <r>  -15.4697    1.0000 </r>
       <r>  -15.2796    1.0000 </r>
       <r>  -13.5827    1.0000 </r>
       <r>  -13.5028    1.0000 </r>
       <r>  -12.3540    1.0000 </r>
       <r>  -10.7570    1.0000 </r>
       <r>   -9.4438    1.0000 </r>
       <r>   -8.4249    1.0000 </r>
       <r>   -8.4248    1.0000 </r>
       <r>   -8.3369    1.0000 </r>
       <r>   -7.6607    1.0000 </r>
       <r>   -7.6340    1.0000 </r>
       <r>   -5.3882    1.0000 </r>
       <r>   -5.3326    1.0000 </r>
       <r>   -5.0092    1.0000 </r>
       <r>   -4.9637    1.0000 </r>
       <r>   -3.8536    1.0000 </r>
       <r>   -3.7379    1.0000 </r>
       <r>   -3.7069    1.0000 </r>
       <r>   -2.7936    1.0000 </r>
       <r>   -2.7393    1.0000 </r>
       <r>   -2.4369    1.0000 </r>
       <r>   -2.3974    1.0000 </r>
       <r>    0.3855    0.0000 </r>
       <r>    1.1942    0.0000 </r>
       <r>    1.2676    0.0000 </r>
       <r>    1.4308    0.0000 </r>
       <r>    2.6402    0.0000 </r>
       <r>    2.8313    0.0000 </r>
       <r>    3.0701    0.0000 </r>
       <r>    3.3626    0.0000 </r>
       <r>    3.9887    0.0000 </r>
       <r>    4.8794    0.0000 </r>
       <r>    6.5982    0.0000 </r>
       <r>    6.6827    0.0000 </r>
       <r>    6.6897    0.0000 </r>
       <r>    7.4914    0.0000 </r>
       <r>    7.7511    0.0000 </r>
       <r>    7.9228    0.0000 </r>
       <r>    7.9994    0.0000 </r>
       <r>    8.6201    0.0000 </r>
       <r>    8.6711    0.0000 </r>
       <r>    9.7929    0.0000 </r>
       <r>   10.0985    0.0000 </r>
       <r>   10.2833    0.0000 </r>
       <r>   10.3954    0.0000 </r>
       <r>   10.4222    0.0000 </r>
       <r>   10.5205    0.0000 </r>
       <r>   10.6023    0.0000 </r>
       <r>   10.9066    0.0000 </r>
       <r>   10.9826    0.0000 </r>
       <r>   11.1766    0.0000 </r>
       <r>   11.2213    0.0000 </r>
       <r>   11.2546    0.0000 </r>
       <r>   11.3574    0.0000 </r>
       <r>   11.5197    0.0000 </r>
       <r>   11.5392    0.0000 </r>
       <r>   11.6427    0.0000 </r>
       <r>   11.7357    0.0000 </r>
       <r>   11.8282    0.0000 </r>
       <r>   11.9971    0.0000 </r>
       <r>   12.0624    0.0000 </r>
       <r>   12.2593    0.0000 </r>
       <r>   12.7741    0.0000 </r>
       <r>   12.7927    0.0000 </r>
       <r>   13.1091    0.0000 </r>
       <r>   13.2631    0.0000 </r>
       <r>   13.4094    0.0000 </r>
       <r>   13.5499    0.0000 </r>
       <r>   13.8457    0.0000 </r>
       <r>   14.0133    0.0000 </r>
       <r>   14.0416    0.0000 </r>
       <r>   14.0788    0.0000 </r>
       <r>   14.4945    0.0000 </r>
       <r>   14.8287    0.0000 </r>
       <r>   14.8612    0.0000 </r>
       <r>   15.0657    0.0000 </r>
       <r>   15.4429    0.0000 </r>
       <r>   15.4481    0.0000 </r>
       <r>   15.7272    0.0000 </r>
       <r>   15.8956    0.0000 </r>
       <r>   17.0521    0.0000 </r>
       <r>   17.0799    0.0000 </r>
       <r>   17.3166    0.0000 </r>
       <r>   17.6544    0.0000 </r>
       <r>   17.8102    0.0000 </r>
       <r>   18.1315    0.0000 </r>
       <r>   18.6386    0.0000 </r>
       <r>   19.6688    0.0000 </r>
       <r>   19.7509    0.0000 </r>
       <r>   19.8224    0.0000 </r>
       <r>   19.9454    0.0000 </r>
       <r>   19.9738    0.0000 </r>
       <r>   20.3269    0.0000 </r>
       <r>   20.4142    0.0000 </r>
       <r>   20.4154    0.0000 </r>
       <r>   20.5090    0.0000 </r>
       <r>   20.6792    0.0000 </r>
       <r>   21.0045    0.0000 </r>
       <r>   21.1195    0.0000 </r>
       <r>   21.1993    0.0000 </r>
       <r>   21.7557    0.0000 </r>
       <r>   21.7957    0.0000 </r>
       <r>   21.8988    0.0000 </r>
       <r>   22.3116    0.0000 </r>
       <r>   22.3941    0.0000 </r>
       <r>   22.8863    0.0000 </r>
       <r>   22.8966    0.0000 </r>
       <r>   23.2264    0.0000 </r>
       <r>   24.0453    0.0000 </r>
       <r>   24.5454    0.0000 </r>
       <r>   24.9755    0.0000 </r>
       <r>   25.2981    0.0000 </r>
       <r>   25.4360    0.0000 </r>
       <r>   25.5788    0.0000 </r>
       <r>   25.8495    0.0000 </r>
       <r>   26.2514    0.0000 </r>
       <r>   26.4326    0.0000 </r>
       <r>   26.7155    0.0000 </r>
       <r>   26.9175    0.0000 </r>
      </set>
      <set comment="kpoint 4">
       <r>  -22.3816    1.0000 </r>
       <r>  -20.5001    1.0000 </r>
       <r>  -17.2877    1.0000 </r>
       <r>  -17.0913    1.0000 </r>
       <r>  -17.0893    1.0000 </r>
       <r>  -16.0870    1.0000 </r>
       <r>  -16.0301    1.0000 </r>
       <r>  -15.4772    1.0000 </r>
       <r>  -15.4697    1.0000 </r>
       <r>  -15.2796    1.0000 </r>
       <r>  -13.5826    1.0000 </r>
       <r>  -13.5028    1.0000 </r>
       <r>  -12.3540    1.0000 </r>
       <r>  -10.7570    1.0000 </r>
       <r>   -9.4438    1.0000 </r>
       <r>   -8.4249    1.0000 </r>
       <r>   -8.4248    1.0000 </r>
       <r>   -8.3369    1.0000 </r>
       <r>   -7.6607    1.0000 </r>
       <r>   -7.6340    1.0000 </r>
       <r>   -5.3881    1.0000 </r>
       <r>   -5.3326    1.0000 </r>
       <r>   -5.0093    1.0000 </r>
       <r>   -4.9637    1.0000 </r>
       <r>   -3.8536    1.0000 </r>
       <r>   -3.7379    1.0000 </r>
       <r>   -3.7069    1.0000 </r>
       <r>   -2.7936    1.0000 </r>
       <r>   -2.7393    1.0000 </r>
       <r>   -2.4368    1.0000 </r>
       <r>   -2.3975    1.0000 </r>
       <r>    0.3855    0.0000 </r>
       <r>    1.1942    0.0000 </r>
       <r>    1.2676    0.0000 </r>
       <r>    1.4308    0.0000 </r>
       <r>    2.6402    0.0000 </r>
       <r>    2.8313    0.0000 </r>
       <r>    3.0701    0.0000 </r>
       <r>    3.3626    0.0000 </r>
       <r>    3.9887    0.0000 </r>
       <r>    4.8794    0.0000 </r>
       <r>    6.5982    0.0000 </r>
       <r>    6.6827    0.0000 </r>
       <r>    6.6897    0.0000 </r>
       <r>    7.4914    0.0000 </r>
       <r>    7.7511    0.0000 </r>
       <r>    7.9228    0.0000 </r>
       <r>    7.9994    0.0000 </r>
       <r>    8.6201    0.0000 </r>
       <r>    8.6711    0.0000 </r>
       <r>    9.7929    0.0000 </r>
       <r>   10.0985    0.0000 </r>
       <r>   10.2833    0.0000 </r>
       <r>   10.3954    0.0000 </r>
       <r>   10.4222    0.0000 </r>
       <r>   10.5205    0.0000 </r>
       <r>   10.6023    0.0000 </r>
       <r>   10.9066    0.0000 </r>
       <r>   10.9826    0.0000 </r>
       <r>   11.1766    0.0000 </r>
       <r>   11.2217    0.0000 </r>
       <r>   11.2546    0.0000 </r>
       <r>   11.3570    0.0000 </r>
       <r>   11.5197    0.0000 </r>
       <r>   11.5392    0.0000 </r>
       <r>   11.6427    0.0000 </r>
       <r>   11.7357    0.0000 </r>
       <r>   11.8282    0.0000 </r>
       <r>   11.9971    0.0000 </r>
       <r>   12.0624    0.0000 </r>
       <r>   12.2593    0.0000 </r>
       <r>   12.7741    0.0000 </r>
       <r>   12.7927    0.0000 </r>
       <r>   13.1091    0.0000 </r>
       <r>   13.2630    0.0000 </r>
       <r>   13.4093    0.0000 </r>
       <r>   13.5498    0.0000 </r>
       <r>   13.8457    0.0000 </r>
       <r>   14.0108    0.0000 </r>
       <r>   14.0433    0.0000 </r>
       <r>   14.0798    0.0000 </r>
       <r>   14.4945    0.0000 </r>
       <r>   14.8287    0.0000 </r>
       <r>   14.8612    0.0000 </r>
       <r>   15.0658    0.0000 </r>
       <r>   15.4436    0.0000 </r>
       <r>   15.4474    0.0000 </r>
       <r>   15.7272    0.0000 </r>
       <r>   15.8953    0.0000 </r>
       <r>   17.0521    0.0000 </r>
       <r>   17.0800    0.0000 </r>
       <r>   17.3168    0.0000 </r>
       <r>   17.6550    0.0000 </r>
       <r>   17.8103    0.0000 </r>
       <r>   18.1312    0.0000 </r>
       <r>   18.6386    0.0000 </r>
       <r>   19.6654    0.0000 </r>
       <r>   19.7563    0.0000 </r>
       <r>   19.8124    0.0000 </r>
       <r>   19.9618    0.0000 </r>
       <r>   19.9723    0.0000 </r>
       <r>   20.3444    0.0000 </r>
       <r>   20.3863    0.0000 </r>
       <r>   20.4340    0.0000 </r>
       <r>   20.5479    0.0000 </r>
       <r>   20.6816    0.0000 </r>
       <r>   21.0172    0.0000 </r>
       <r>   21.1331    0.0000 </r>
       <r>   21.2014    0.0000 </r>
       <r>   21.7584    0.0000 </r>
       <r>   21.7612    0.0000 </r>
       <r>   21.8127    0.0000 </r>
       <r>   22.2724    0.0000 </r>
       <r>   22.3650    0.0000 </r>
       <r>   22.9807    0.0000 </r>
       <r>   23.3151    0.0000 </r>
       <r>   23.4043    0.0000 </r>
       <r>   24.4441    0.0000 </r>
       <r>   24.7437    0.0000 </r>
       <r>   25.0418    0.0000 </r>
       <r>   25.1404    0.0000 </r>
       <r>   25.4782    0.0000 </r>
       <r>   25.6415    0.0000 </r>
       <r>   25.9596    0.0000 </r>
       <r>   26.1238    0.0000 </r>
       <r>   26.4816    0.0000 </r>
       <r>   26.5605    0.0000 </r>
       <r>   26.9398    0.0000 </r>
      </set>
      <set comment="kpoint 5">
       <r>  -22.3172    1.0000 </r>
       <r>  -20.4523    1.0000 </r>
       <r>  -17.7902    1.0000 </r>
       <r>  -17.2309    1.0000 </r>
       <r>  -17.2293    1.0000 </r>
       <r>  -16.3164    1.0000 </r>
       <r>  -16.1058    1.0000 </r>
       <r>  -15.2338    1.0000 </r>
       <r>  -15.2284    1.0000 </r>
       <r>  -14.6816    1.0000 </r>
       <r>  -13.6447    1.0000 </r>
       <r>  -13.3263    1.0000 </r>
       <r>  -12.1113    1.0000 </r>
       <r>  -10.4964    1.0000 </r>
       <r>   -9.3652    1.0000 </r>
       <r>   -8.6189    1.0000 </r>
       <r>   -8.6187    1.0000 </r>
       <r>   -8.2743    1.0000 </r>
       <r>   -7.7357    1.0000 </r>
       <r>   -7.5871    1.0000 </r>
       <r>   -5.5852    1.0000 </r>
       <r>   -5.3593    1.0000 </r>
       <r>   -5.2712    1.0000 </r>
       <r>   -5.0927    1.0000 </r>
       <r>   -4.2304    1.0000 </r>
       <r>   -3.7847    1.0000 </r>
       <r>   -3.7511    1.0000 </r>
       <r>   -2.9709    1.0000 </r>
       <r>   -2.7600    1.0000 </r>
       <r>   -2.6718    1.0000 </r>
       <r>   -2.5159    1.0000 </r>
       <r>    0.1874    0.0000 </r>
       <r>    1.2914    0.0000 </r>
       <r>    1.3670    0.0000 </r>
       <r>    1.7512    0.0000 </r>
       <r>    2.7544    0.0000 </r>
       <r>    3.1506    0.0000 </r>
       <r>    3.2738    0.0000 </r>
       <r>    3.5834    0.0000 </r>
       <r>    4.1306    0.0000 </r>
       <r>    4.9601    0.0000 </r>
       <r>    6.6353    0.0000 </r>
       <r>    6.9754    0.0000 </r>
       <r>    6.9821    0.0000 </r>
       <r>    7.5676    0.0000 </r>
       <r>    7.8170    0.0000 </r>
       <r>    7.9543    0.0000 </r>
       <r>    8.2617    0.0000 </r>
       <r>    8.7151    0.0000 </r>
       <r>    8.9311    0.0000 </r>
       <r>    9.0335    0.0000 </r>
       <r>    9.6751    0.0000 </r>
       <r>    9.8742    0.0000 </r>
       <r>    9.9309    0.0000 </r>
       <r>   10.3476    0.0000 </r>
       <r>   10.4485    0.0000 </r>
       <r>   10.5150    0.0000 </r>
       <r>   10.6760    0.0000 </r>
       <r>   10.8056    0.0000 </r>
       <r>   10.9543    0.0000 </r>
       <r>   11.0331    0.0000 </r>
       <r>   11.4860    0.0000 </r>
       <r>   11.5764    0.0000 </r>
       <r>   11.5769    0.0000 </r>
       <r>   11.6392    0.0000 </r>
       <r>   11.6881    0.0000 </r>
       <r>   11.7466    0.0000 </r>
       <r>   12.2223    0.0000 </r>
       <r>   12.2907    0.0000 </r>
       <r>   12.4974    0.0000 </r>
       <r>   12.5942    0.0000 </r>
       <r>   13.0288    0.0000 </r>
       <r>   13.0765    0.0000 </r>
       <r>   13.1825    0.0000 </r>
       <r>   13.2992    0.0000 </r>
       <r>   13.3412    0.0000 </r>
       <r>   13.5043    0.0000 </r>
       <r>   13.8311    0.0000 </r>
       <r>   13.9064    0.0000 </r>
       <r>   13.9806    0.0000 </r>
       <r>   14.1174    0.0000 </r>
       <r>   14.2809    0.0000 </r>
       <r>   14.7985    0.0000 </r>
       <r>   14.9651    0.0000 </r>
       <r>   15.3768    0.0000 </r>
       <r>   15.6362    0.0000 </r>
       <r>   15.7345    0.0000 </r>
       <r>   15.8849    0.0000 </r>
       <r>   16.2686    0.0000 </r>
       <r>   16.8240    0.0000 </r>
       <r>   17.0059    0.0000 </r>
       <r>   17.1338    0.0000 </r>
       <r>   17.5709    0.0000 </r>
       <r>   17.6647    0.0000 </r>
       <r>   18.4843    0.0000 </r>
       <r>   18.6890    0.0000 </r>
       <r>   19.2247    0.0000 </r>
       <r>   19.3264    0.0000 </r>
       <r>   19.3940    0.0000 </r>
       <r>   19.7442    0.0000 </r>
       <r>   19.7538    0.0000 </r>
       <r>   20.1176    0.0000 </r>
       <r>   20.1640    0.0000 </r>
       <r>   20.3840    0.0000 </r>
       <r>   20.4052    0.0000 </r>
       <r>   20.7714    0.0000 </r>
       <r>   21.0638    0.0000 </r>
       <r>   21.2771    0.0000 </r>
       <r>   21.3491    0.0000 </r>
       <r>   21.9476    0.0000 </r>
       <r>   22.0047    0.0000 </r>
       <r>   22.2942    0.0000 </r>
       <r>   22.3616    0.0000 </r>
       <r>   22.6884    0.0000 </r>
       <r>   23.1241    0.0000 </r>
       <r>   23.1588    0.0000 </r>
       <r>   23.5440    0.0000 </r>
       <r>   23.7315    0.0000 </r>
       <r>   23.8666    0.0000 </r>
       <r>   23.9603    0.0000 </r>
       <r>   24.2814    0.0000 </r>
       <r>   24.7528    0.0000 </r>
       <r>   25.0021    0.0000 </r>
       <r>   25.3645    0.0000 </r>
       <r>   25.5413    0.0000 </r>
       <r>   25.8953    0.0000 </r>
       <r>   26.3198    0.0000 </r>
       <r>   26.8574    0.0000 </r>
      </set>
      <set comment="kpoint 6">
       <r>  -22.3172    1.0000 </r>
       <r>  -20.4523    1.0000 </r>
       <r>  -17.7901    1.0000 </r>
       <r>  -17.2309    1.0000 </r>
       <r>  -17.2294    1.0000 </r>
       <r>  -16.3164    1.0000 </r>
       <r>  -16.1057    1.0000 </r>
       <r>  -15.2337    1.0000 </r>
       <r>  -15.2284    1.0000 </r>
       <r>  -14.6817    1.0000 </r>
       <r>  -13.6448    1.0000 </r>
       <r>  -13.3263    1.0000 </r>
       <r>  -12.1113    1.0000 </r>
       <r>  -10.4964    1.0000 </r>
       <r>   -9.3652    1.0000 </r>
       <r>   -8.6189    1.0000 </r>
       <r>   -8.6187    1.0000 </r>
       <r>   -8.2743    1.0000 </r>
       <r>   -7.7357    1.0000 </r>
       <r>   -7.5871    1.0000 </r>
       <r>   -5.5852    1.0000 </r>
       <r>   -5.3593    1.0000 </r>
       <r>   -5.2713    1.0000 </r>
       <r>   -5.0926    1.0000 </r>
       <r>   -4.2284    1.0000 </r>
       <r>   -3.7868    1.0000 </r>
       <r>   -3.7523    1.0000 </r>
       <r>   -2.9729    1.0000 </r>
       <r>   -2.7566    1.0000 </r>
       <r>   -2.6718    1.0000 </r>
       <r>   -2.5159    1.0000 </r>
       <r>    0.1893    0.0000 </r>
       <r>    1.2887    0.0000 </r>
       <r>    1.3637    0.0000 </r>
       <r>    1.7544    0.0000 </r>
       <r>    2.7557    0.0000 </r>
       <r>    3.1506    0.0000 </r>
       <r>    3.2740    0.0000 </r>
       <r>    3.5826    0.0000 </r>
       <r>    4.1303    0.0000 </r>
       <r>    4.9601    0.0000 </r>
       <r>    6.6353    0.0000 </r>
       <r>    6.9752    0.0000 </r>
       <r>    6.9823    0.0000 </r>
       <r>    7.5676    0.0000 </r>
       <r>    7.8170    0.0000 </r>
       <r>    7.9544    0.0000 </r>
       <r>    8.2616    0.0000 </r>
       <r>    8.7149    0.0000 </r>
       <r>    8.9313    0.0000 </r>
       <r>    9.0333    0.0000 </r>
       <r>    9.6756    0.0000 </r>
       <r>    9.8742    0.0000 </r>
       <r>    9.9308    0.0000 </r>
       <r>   10.3472    0.0000 </r>
       <r>   10.4488    0.0000 </r>
       <r>   10.5155    0.0000 </r>
       <r>   10.6762    0.0000 </r>
       <r>   10.8054    0.0000 </r>
       <r>   10.9543    0.0000 </r>
       <r>   11.0331    0.0000 </r>
       <r>   11.4860    0.0000 </r>
       <r>   11.5750    0.0000 </r>
       <r>   11.5766    0.0000 </r>
       <r>   11.6384    0.0000 </r>
       <r>   11.6890    0.0000 </r>
       <r>   11.7482    0.0000 </r>
       <r>   12.2214    0.0000 </r>
       <r>   12.2899    0.0000 </r>
       <r>   12.4969    0.0000 </r>
       <r>   12.5917    0.0000 </r>
       <r>   13.0211    0.0000 </r>
       <r>   13.0793    0.0000 </r>
       <r>   13.1851    0.0000 </r>
       <r>   13.3027    0.0000 </r>
       <r>   13.3391    0.0000 </r>
       <r>   13.5038    0.0000 </r>
       <r>   13.8277    0.0000 </r>
       <r>   13.9071    0.0000 </r>
       <r>   13.9884    0.0000 </r>
       <r>   14.1196    0.0000 </r>
       <r>   14.2849    0.0000 </r>
       <r>   14.7995    0.0000 </r>
       <r>   14.9654    0.0000 </r>
       <r>   15.3833    0.0000 </r>
       <r>   15.6325    0.0000 </r>
       <r>   15.7307    0.0000 </r>
       <r>   15.8826    0.0000 </r>
       <r>   16.2564    0.0000 </r>
       <r>   16.8220    0.0000 </r>
       <r>   17.0067    0.0000 </r>
       <r>   17.1290    0.0000 </r>
       <r>   17.5858    0.0000 </r>
       <r>   17.6788    0.0000 </r>
       <r>   18.4775    0.0000 </r>
       <r>   18.6886    0.0000 </r>
       <r>   19.2199    0.0000 </r>
       <r>   19.2480    0.0000 </r>
       <r>   19.3566    0.0000 </r>
       <r>   19.7240    0.0000 </r>
       <r>   19.7275    0.0000 </r>
       <r>   20.0701    0.0000 </r>
       <r>   20.1198    0.0000 </r>
       <r>   20.3383    0.0000 </r>
       <r>   20.4409    0.0000 </r>
       <r>   20.7998    0.0000 </r>
       <r>   21.0652    0.0000 </r>
       <r>   21.3039    0.0000 </r>
       <r>   21.3678    0.0000 </r>
       <r>   21.9515    0.0000 </r>
       <r>   22.1880    0.0000 </r>
       <r>   22.2191    0.0000 </r>
       <r>   22.4890    0.0000 </r>
       <r>   22.6293    0.0000 </r>
       <r>   22.9439    0.0000 </r>
       <r>   23.1111    0.0000 </r>
       <r>   23.4931    0.0000 </r>
       <r>   23.8221    0.0000 </r>
       <r>   24.0071    0.0000 </r>
       <r>   24.3127    0.0000 </r>
       <r>   24.3361    0.0000 </r>
       <r>   24.8630    0.0000 </r>
       <r>   25.3849    0.0000 </r>
       <r>   25.6503    0.0000 </r>
       <r>   25.7182    0.0000 </r>
       <r>   25.8857    0.0000 </r>
       <r>   26.2263    0.0000 </r>
       <r>   26.4805    0.0000 </r>
      </set>
      <set comment="kpoint 7">
       <r>  -22.3172    1.0000 </r>
       <r>  -20.4523    1.0000 </r>
       <r>  -17.7901    1.0000 </r>
       <r>  -17.2309    1.0000 </r>
       <r>  -17.2294    1.0000 </r>
       <r>  -16.3164    1.0000 </r>
       <r>  -16.1057    1.0000 </r>
       <r>  -15.2337    1.0000 </r>
       <r>  -15.2284    1.0000 </r>
       <r>  -14.6817    1.0000 </r>
       <r>  -13.6448    1.0000 </r>
       <r>  -13.3263    1.0000 </r>
       <r>  -12.1113    1.0000 </r>
       <r>  -10.4964    1.0000 </r>
       <r>   -9.3652    1.0000 </r>
       <r>   -8.6189    1.0000 </r>
       <r>   -8.6187    1.0000 </r>
       <r>   -8.2743    1.0000 </r>
       <r>   -7.7357    1.0000 </r>
       <r>   -7.5871    1.0000 </r>
       <r>   -5.5852    1.0000 </r>
       <r>   -5.3593    1.0000 </r>
       <r>   -5.2713    1.0000 </r>
       <r>   -5.0926    1.0000 </r>
       <r>   -4.2284    1.0000 </r>
       <r>   -3.7868    1.0000 </r>
       <r>   -3.7523    1.0000 </r>
       <r>   -2.9729    1.0000 </r>
       <r>   -2.7566    1.0000 </r>
       <r>   -2.6718    1.0000 </r>
       <r>   -2.5159    1.0000 </r>
       <r>    0.1893    0.0000 </r>
       <r>    1.2887    0.0000 </r>
       <r>    1.3637    0.0000 </r>
       <r>    1.7544    0.0000 </r>
       <r>    2.7557    0.0000 </r>
       <r>    3.1506    0.0000 </r>
       <r>    3.2740    0.0000 </r>
       <r>    3.5826    0.0000 </r>
       <r>    4.1303    0.0000 </r>
       <r>    4.9601    0.0000 </r>
       <r>    6.6353    0.0000 </r>
       <r>    6.9752    0.0000 </r>
       <r>    6.9823    0.0000 </r>
       <r>    7.5676    0.0000 </r>
       <r>    7.8170    0.0000 </r>
       <r>    7.9544    0.0000 </r>
       <r>    8.2616    0.0000 </r>
       <r>    8.7149    0.0000 </r>
       <r>    8.9314    0.0000 </r>
       <r>    9.0333    0.0000 </r>
       <r>    9.6756    0.0000 </r>
       <r>    9.8742    0.0000 </r>
       <r>    9.9308    0.0000 </r>
       <r>   10.3472    0.0000 </r>
       <r>   10.4489    0.0000 </r>
       <r>   10.5155    0.0000 </r>
       <r>   10.6762    0.0000 </r>
       <r>   10.8054    0.0000 </r>
       <r>   10.9543    0.0000 </r>
       <r>   11.0330    0.0000 </r>
       <r>   11.4860    0.0000 </r>
       <r>   11.5750    0.0000 </r>
       <r>   11.5766    0.0000 </r>
       <r>   11.6384    0.0000 </r>
       <r>   11.6890    0.0000 </r>
       <r>   11.7482    0.0000 </r>
       <r>   12.2214    0.0000 </r>
       <r>   12.2899    0.0000 </r>
       <r>   12.4969    0.0000 </r>
       <r>   12.5917    0.0000 </r>
       <r>   13.0211    0.0000 </r>
       <r>   13.0794    0.0000 </r>
       <r>   13.1851    0.0000 </r>
       <r>   13.3027    0.0000 </r>
       <r>   13.3391    0.0000 </r>
       <r>   13.5037    0.0000 </r>
       <r>   13.8278    0.0000 </r>
       <r>   13.9071    0.0000 </r>
       <r>   13.9884    0.0000 </r>
       <r>   14.1196    0.0000 </r>
       <r>   14.2849    0.0000 </r>
       <r>   14.7995    0.0000 </r>
       <r>   14.9655    0.0000 </r>
       <r>   15.3833    0.0000 </r>
       <r>   15.6328    0.0000 </r>
       <r>   15.7307    0.0000 </r>
       <r>   15.8826    0.0000 </r>
       <r>   16.2565    0.0000 </r>
       <r>   16.8220    0.0000 </r>
       <r>   17.0069    0.0000 </r>
       <r>   17.1301    0.0000 </r>
       <r>   17.5852    0.0000 </r>
       <r>   17.6815    0.0000 </r>
       <r>   18.4784    0.0000 </r>
       <r>   18.6888    0.0000 </r>
       <r>   19.2242    0.0000 </r>
       <r>   19.2988    0.0000 </r>
       <r>   19.4778    0.0000 </r>
       <r>   19.7210    0.0000 </r>
       <r>   19.7286    0.0000 </r>
       <r>   20.1086    0.0000 </r>
       <r>   20.2377    0.0000 </r>
       <r>   20.4047    0.0000 </r>
       <r>   20.4575    0.0000 </r>
       <r>   20.8569    0.0000 </r>
       <r>   21.0613    0.0000 </r>
       <r>   21.2862    0.0000 </r>
       <r>   21.3750    0.0000 </r>
       <r>   21.9462    0.0000 </r>
       <r>   21.9760    0.0000 </r>
       <r>   22.2403    0.0000 </r>
       <r>   22.4133    0.0000 </r>
       <r>   22.6475    0.0000 </r>
       <r>   23.1403    0.0000 </r>
       <r>   23.3668    0.0000 </r>
       <r>   23.7289    0.0000 </r>
       <r>   23.7646    0.0000 </r>
       <r>   24.0505    0.0000 </r>
       <r>   24.2467    0.0000 </r>
       <r>   24.5489    0.0000 </r>
       <r>   24.7868    0.0000 </r>
       <r>   25.1826    0.0000 </r>
       <r>   25.2504    0.0000 </r>
       <r>   25.7470    0.0000 </r>
       <r>   25.7702    0.0000 </r>
       <r>   25.9331    0.0000 </r>
       <r>   26.8732    0.0000 </r>
      </set>
      <set comment="kpoint 8">
       <r>  -22.2100    1.0000 </r>
       <r>  -20.3747    1.0000 </r>
       <r>  -18.3338    1.0000 </r>
       <r>  -17.3972    1.0000 </r>
       <r>  -17.3959    1.0000 </r>
       <r>  -16.6299    1.0000 </r>
       <r>  -16.2097    1.0000 </r>
       <r>  -14.8967    1.0000 </r>
       <r>  -14.8927    1.0000 </r>
       <r>  -13.9785    1.0000 </r>
       <r>  -13.7466    1.0000 </r>
       <r>  -13.0600    1.0000 </r>
       <r>  -11.7406    1.0000 </r>
       <r>  -10.1030    1.0000 </r>
       <r>   -9.2342    1.0000 </r>
       <r>   -8.9216    1.0000 </r>
       <r>   -8.9213    1.0000 </r>
       <r>   -8.1706    1.0000 </r>
       <r>   -7.9149    1.0000 </r>
       <r>   -7.4658    1.0000 </r>
       <r>   -5.8941    1.0000 </r>
       <r>   -5.6869    1.0000 </r>
       <r>   -5.3761    1.0000 </r>
       <r>   -5.2938    1.0000 </r>
       <r>   -4.7296    1.0000 </r>
       <r>   -3.8551    1.0000 </r>
       <r>   -3.8182    1.0000 </r>
       <r>   -3.2660    1.0000 </r>
       <r>   -3.0452    1.0000 </r>
       <r>   -2.7891    1.0000 </r>
       <r>   -2.6979    1.0000 </r>
       <r>   -0.0596    0.0000 </r>
       <r>    1.4379    0.0000 </r>
       <r>    1.4787    0.0000 </r>
       <r>    2.3680    0.0000 </r>
       <r>    2.9313    0.0000 </r>
       <r>    3.2858    0.0000 </r>
       <r>    3.5739    0.0000 </r>
       <r>    3.9929    0.0000 </r>
       <r>    4.4942    0.0000 </r>
       <r>    5.0950    0.0000 </r>
       <r>    6.6956    0.0000 </r>
       <r>    7.4417    0.0000 </r>
       <r>    7.4483    0.0000 </r>
       <r>    7.6905    0.0000 </r>
       <r>    7.8922    0.0000 </r>
       <r>    8.0190    0.0000 </r>
       <r>    8.2646    0.0000 </r>
       <r>    8.6850    0.0000 </r>
       <r>    8.8522    0.0000 </r>
       <r>    8.9480    0.0000 </r>
       <r>    9.3217    0.0000 </r>
       <r>    9.5959    0.0000 </r>
       <r>    9.6459    0.0000 </r>
       <r>    9.9494    0.0000 </r>
       <r>   10.1932    0.0000 </r>
       <r>   10.2226    0.0000 </r>
       <r>   10.4586    0.0000 </r>
       <r>   10.6872    0.0000 </r>
       <r>   10.9424    0.0000 </r>
       <r>   11.1610    0.0000 </r>
       <r>   11.3650    0.0000 </r>
       <r>   11.4294    0.0000 </r>
       <r>   11.7102    0.0000 </r>
       <r>   11.7285    0.0000 </r>
       <r>   12.0104    0.0000 </r>
       <r>   12.1757    0.0000 </r>
       <r>   12.2052    0.0000 </r>
       <r>   12.4265    0.0000 </r>
       <r>   12.5701    0.0000 </r>
       <r>   12.7234    0.0000 </r>
       <r>   13.0033    0.0000 </r>
       <r>   13.0132    0.0000 </r>
       <r>   13.4139    0.0000 </r>
       <r>   13.4592    0.0000 </r>
       <r>   13.4923    0.0000 </r>
       <r>   13.6940    0.0000 </r>
       <r>   13.9723    0.0000 </r>
       <r>   13.9995    0.0000 </r>
       <r>   14.0606    0.0000 </r>
       <r>   14.2312    0.0000 </r>
       <r>   14.8454    0.0000 </r>
       <r>   14.8605    0.0000 </r>
       <r>   14.9771    0.0000 </r>
       <r>   15.5802    0.0000 </r>
       <r>   15.7680    0.0000 </r>
       <r>   15.8555    0.0000 </r>
       <r>   15.9420    0.0000 </r>
       <r>   16.3796    0.0000 </r>
       <r>   16.7441    0.0000 </r>
       <r>   16.9993    0.0000 </r>
       <r>   17.4846    0.0000 </r>
       <r>   17.4926    0.0000 </r>
       <r>   17.5976    0.0000 </r>
       <r>   18.4404    0.0000 </r>
       <r>   18.7636    0.0000 </r>
       <r>   18.8409    0.0000 </r>
       <r>   18.9269    0.0000 </r>
       <r>   19.1403    0.0000 </r>
       <r>   19.5290    0.0000 </r>
       <r>   19.5766    0.0000 </r>
       <r>   19.8396    0.0000 </r>
       <r>   19.9345    0.0000 </r>
       <r>   20.1292    0.0000 </r>
       <r>   20.5330    0.0000 </r>
       <r>   21.0312    0.0000 </r>
       <r>   21.1374    0.0000 </r>
       <r>   21.2745    0.0000 </r>
[...]
       <r>    24.7372     7.8803   250.8087 </r>
       <r>    24.7509     7.8359   250.9159 </r>
       <r>    24.7646     6.1094   250.9995 </r>
       <r>    24.7782     5.3032   251.0720 </r>
       <r>    24.7919     7.4589   251.1741 </r>
       <r>    24.8056     5.7350   251.2526 </r>
       <r>    24.8193     3.2744   251.2974 </r>
       <r>    24.8330     3.1186   251.3400 </r>
       <r>    24.8467     4.4083   251.4004 </r>
       <r>    24.8603     5.1719   251.4711 </r>
       <r>    24.8740     4.1825   251.5284 </r>
       <r>    24.8877     5.1863   251.5993 </r>
       <r>    24.9014     5.4209   251.6735 </r>
       <r>    24.9151     5.1986   251.7446 </r>
       <r>    24.9288     4.4650   251.8057 </r>
       <r>    24.9424     6.3951   251.8932 </r>
       <r>    24.9561     5.0775   251.9627 </r>
       <r>    24.9698     4.7657   252.0279 </r>
       <r>    24.9835     7.3183   252.1280 </r>
       <r>    24.9972     7.3395   252.2285 </r>
       <r>    25.0109     5.4808   252.3035 </r>
       <r>    25.0245     2.8180   252.3420 </r>
       <r>    25.0382     2.3251   252.3738 </r>
       <r>    25.0519     3.1573   252.4170 </r>
       <r>    25.0656     6.4954   252.5059 </r>
       <r>    25.0793     5.5880   252.5824 </r>
       <r>    25.0930     4.3724   252.6422 </r>
       <r>    25.1066     3.6367   252.6919 </r>
       <r>    25.1203     1.8964   252.7179 </r>
       <r>    25.1340     1.5931   252.7397 </r>
       <r>    25.1477     3.6364   252.7894 </r>
       <r>    25.1614     4.1750   252.8466 </r>
       <r>    25.1750     4.9261   252.9140 </r>
       <r>    25.1887     5.5782   252.9903 </r>
       <r>    25.2024     4.5563   253.0526 </r>
       <r>    25.2161     3.1730   253.0961 </r>
       <r>    25.2298     2.6028   253.1317 </r>
       <r>    25.2435     2.6369   253.1678 </r>
       <r>    25.2571     5.0030   253.2362 </r>
       <r>    25.2708     3.0471   253.2779 </r>
       <r>    25.2845     2.9503   253.3183 </r>
       <r>    25.2982     3.7916   253.3701 </r>
       <r>    25.3119     3.8754   253.4232 </r>
       <r>    25.3256     4.3148   253.4822 </r>
       <r>    25.3392     3.3939   253.5286 </r>
       <r>    25.3529     2.5511   253.5636 </r>
       <r>    25.3666     3.1195   253.6062 </r>
       <r>    25.3803     3.0678   253.6482 </r>
       <r>    25.3940     3.6495   253.6981 </r>
       <r>    25.4077     3.0117   253.7394 </r>
       <r>    25.4213     4.1274   253.7958 </r>
       <r>    25.4350     3.6213   253.8454 </r>
       <r>    25.4487     4.7555   253.9104 </r>
       <r>    25.4624     2.5717   253.9456 </r>
       <r>    25.4761     2.8221   253.9843 </r>
       <r>    25.4898     4.3506   254.0438 </r>
       <r>    25.5034     3.6819   254.0942 </r>
       <r>    25.5171     3.2800   254.1390 </r>
       <r>    25.5308     2.8676   254.1783 </r>
       <r>    25.5445     4.7661   254.2435 </r>
       <r>    25.5582     4.6996   254.3078 </r>
       <r>    25.5718     2.8987   254.3475 </r>
       <r>    25.5855     2.7759   254.3854 </r>
       <r>    25.5992     4.2845   254.4441 </r>
       <r>    25.6129     4.1023   254.5002 </r>
       <r>    25.6266     3.7284   254.5512 </r>
       <r>    25.6403     1.6436   254.5737 </r>
       <r>    25.6539     1.3198   254.5918 </r>
       <r>    25.6676     1.4404   254.6115 </r>
       <r>    25.6813     1.0767   254.6262 </r>
       <r>    25.6950     1.2595   254.6434 </r>
       <r>    25.7087     3.5443   254.6919 </r>
       <r>    25.7224     3.7490   254.7432 </r>
       <r>    25.7360     1.7342   254.7669 </r>
       <r>    25.7497     1.7605   254.7910 </r>
       <r>    25.7634     1.1748   254.8071 </r>
       <r>    25.7771     1.4199   254.8265 </r>
       <r>    25.7908     1.0285   254.8406 </r>
       <r>    25.8045     1.9140   254.8668 </r>
       <r>    25.8181     1.9649   254.8937 </r>
       <r>    25.8318     0.8479   254.9053 </r>
       <r>    25.8455     2.8104   254.9437 </r>
       <r>    25.8592     2.6496   254.9800 </r>
       <r>    25.8729     1.2214   254.9967 </r>
       <r>    25.8866     1.4438   255.0165 </r>
       <r>    25.9002     1.6794   255.0394 </r>
       <r>    25.9139     1.8724   255.0651 </r>
       <r>    25.9276     2.5609   255.1001 </r>
       <r>    25.9413     2.3767   255.1326 </r>
       <r>    25.9550     1.7157   255.1561 </r>
       <r>    25.9686     1.5281   255.1770 </r>
       <r>    25.9823     1.9390   255.2035 </r>
       <r>    25.9960     1.7994   255.2282 </r>
       <r>    26.0097     2.7510   255.2658 </r>
       <r>    26.0234     1.6350   255.2882 </r>
       <r>    26.0371     0.4221   255.2939 </r>
       <r>    26.0507     0.0870   255.2951 </r>
       <r>    26.0644     0.7709   255.3057 </r>
       <r>    26.0781     1.1041   255.3208 </r>
       <r>    26.0918     1.3839   255.3397 </r>
       <r>    26.1055     1.5894   255.3615 </r>
       <r>    26.1192     1.0255   255.3755 </r>
       <r>    26.1328     1.2550   255.3927 </r>
       <r>    26.1465     0.6935   255.4022 </r>
       <r>    26.1602     1.1874   255.4184 </r>
       <r>    26.1739     1.0035   255.4321 </r>
       <r>    26.1876     0.5580   255.4398 </r>
       <r>    26.2013     0.6037   255.4480 </r>
       <r>    26.2149     0.5841   255.4560 </r>
       <r>    26.2286     1.6439   255.4785 </r>
       <r>    26.2423     1.2321   255.4954 </r>
       <r>    26.2560     1.0109   255.5092 </r>
       <r>    26.2697     0.8938   255.5214 </r>
       <r>    26.2834     0.7134   255.5312 </r>
       <r>    26.2970     2.3927   255.5639 </r>
       <r>    26.3107     1.6234   255.5862 </r>
       <r>    26.3244     1.6048   255.6081 </r>
       <r>    26.3381     0.4609   255.6144 </r>
       <r>    26.3518     1.1358   255.6300 </r>
       <r>    26.3654     0.7111   255.6397 </r>
       <r>    26.3791     0.0327   255.6401 </r>
       <r>    26.3928     0.0001   255.6401 </r>
       <r>    26.4065     0.0002   255.6401 </r>
       <r>    26.4202     0.0821   255.6413 </r>
       <r>    26.4339     1.0900   255.6562 </r>
       <r>    26.4475     1.2403   255.6732 </r>
       <r>    26.4612     1.4311   255.6927 </r>
       <r>    26.4749     1.2638   255.7100 </r>
       <r>    26.4886     1.6753   255.7329 </r>
       <r>    26.5023     0.2951   255.7370 </r>
       <r>    26.5160     0.0102   255.7371 </r>
       <r>    26.5296     0.4350   255.7431 </r>
       <r>    26.5433     1.3261   255.7612 </r>
       <r>    26.5570     0.7492   255.7715 </r>
       <r>    26.5707     1.2969   255.7892 </r>
       <r>    26.5844     0.2477   255.7926 </r>
       <r>    26.5981     0.2635   255.7962 </r>
       <r>    26.6117     0.2163   255.7992 </r>
       <r>    26.6254     0.0114   255.7993 </r>
       <r>    26.6391     0.1803   255.8018 </r>
       <r>    26.6528     1.1590   255.8177 </r>
       <r>    26.6665     0.6543   255.8266 </r>
       <r>    26.6802     0.0282   255.8270 </r>
       <r>    26.6938     0.0685   255.8279 </r>
       <r>    26.7075     0.7383   255.8380 </r>
       <r>    26.7212     0.9945   255.8516 </r>
       <r>    26.7349     0.2185   255.8546 </r>
       <r>    26.7486     0.0038   255.8547 </r>
       <r>    26.7622     0.1025   255.8561 </r>
       <r>    26.7759     0.6523   255.8650 </r>
       <r>    26.7896     0.2514   255.8684 </r>
       <r>    26.8033     0.0054   255.8685 </r>
       <r>    26.8170     0.0731   255.8695 </r>
       <r>    26.8307     0.3389   255.8742 </r>
       <r>    26.8443     0.3178   255.8785 </r>
       <r>    26.8580     1.2037   255.8950 </r>
       <r>    26.8717     1.2075   255.9115 </r>
       <r>    26.8854     1.2376   255.9284 </r>
       <r>    26.8991     0.1761   255.9308 </r>
       <r>    26.9128     0.2528   255.9343 </r>
       <r>    26.9264     0.6818   255.9436 </r>
       <r>    26.9401     0.5959   255.9518 </r>
       <r>    26.9538     0.4649   255.9581 </r>
       <r>    26.9675     0.0242   255.9585 </r>
       <r>    26.9812     0.0001   255.9585 </r>
       <r>    26.9949     0.0156   255.9587 </r>
       <r>    27.0085     0.2509   255.9621 </r>
       <r>    27.0222     0.2902   255.9661 </r>
       <r>    27.0359     0.6099   255.9744 </r>
       <r>    27.0496     0.3406   255.9791 </r>
       <r>    27.0633     0.0100   255.9792 </r>
       <r>    27.0770     0.0000   255.9792 </r>
       <r>    27.0906     0.0000   255.9792 </r>
       <r>    27.1043     0.0000   255.9792 </r>
       <r>    27.1180     0.0000   255.9792 </r>
       <r>    27.1317     0.0000   255.9792 </r>
       <r>    27.1454     0.0000   255.9792 </r>
       <r>    27.1590     0.0000   255.9792 </r>
       <r>    27.1727     0.0027   255.9793 </r>
       <r>    27.1864     0.1329   255.9811 </r>
       <r>    27.2001     0.3226   255.9855 </r>
       <r>    27.2138     0.0472   255.9862 </r>
       <r>    27.2275     0.0003   255.9862 </r>
       <r>    27.2411     0.0000   255.9862 </r>
       <r>    27.2548     0.0000   255.9862 </r>
       <r>    27.2685     0.0000   255.9862 </r>
       <r>    27.2822     0.0000   255.9862 </r>
       <r>    27.2959     0.0000   255.9862 </r>
       <r>    27.3096     0.0000   255.9862 </r>
       <r>    27.3232     0.0089   255.9863 </r>
       <r>    27.3369     0.3250   255.9907 </r>
       <r>    27.3506     0.6095   255.9991 </r>
       <r>    27.3643     0.0679   256.0000 </r>
       <r>    27.3780     0.0003   256.0000 </r>
       <r>    27.3917     0.0000   256.0000 </r>
       <r>    27.4053     0.0000   256.0000 </r>
       <r>    27.4190     0.0000   256.0000 </r>
       <r>    27.4327     0.0000   256.0000 </r>
       <r>    27.4464     0.0000   256.0000 </r>
       <r>    27.4601     0.0000   256.0000 </r>
       <r>    27.4738     0.0000   256.0000 </r>
       <r>    27.4874     0.0000   256.0000 </r>
       <r>    27.5011     0.0000   256.0000 </r>
       <r>    27.5148     0.0000   256.0000 </r>
       <r>    27.5285     0.0000   256.0000 </r>
       <r>    27.5422     0.0000   256.0000 </r>
       <r>    27.5558     0.0000   256.0000 </r>
       <r>    27.5695     0.0000   256.0000 </r>
       <r>    27.5832     0.0000   256.0000 </r>
       <r>    27.5969     0.0000   256.0000 </r>
       <r>    27.6106     0.0000   256.0000 </r>
       <r>    27.6243     0.0000   256.0000 </r>
       <r>    27.6379     0.0000   256.0000 </r>
       <r>    27.6516     0.0000   256.0000 </r>
       <r>    27.6653     0.0000   256.0000 </r>
       <r>    27.6790     0.0000   256.0000 </r>
       <r>    27.6927     0.0000   256.0000 </r>
       <r>    27.7064     0.0000   256.0000 </r>
       <r>    27.7200     0.0000   256.0000 </r>
       <r>    27.7337     0.0000   256.0000 </r>
       <r>    27.7474     0.0000   256.0000 </r>
       <r>    27.7611     0.0000   256.0000 </r>
       <r>    27.7748     0.0000   256.0000 </r>
       <r>    27.7885     0.0000   256.0000 </r>
       <r>    27.8021     0.0000   256.0000 </r>
       <r>    27.8158     0.0000   256.0000 </r>
       <r>    27.8295     0.0000   256.0000 </r>
       <r>    27.8432     0.0000   256.0000 </r>
       <r>    27.8569     0.0000   256.0000 </r>
       <r>    27.8706     0.0000   256.0000 </r>
       <r>    27.8842     0.0000   256.0000 </r>
       <r>    27.8979     0.0000   256.0000 </r>
       <r>    27.9116     0.0000   256.0000 </r>
       <r>    27.9253     0.0000   256.0000 </r>
       <r>    27.9390     0.0000   256.0000 </r>
       <r>    27.9526     0.0000   256.0000 </r>
       <r>    27.9663     0.0000   256.0000 </r>
       <r>    27.9800     0.0000   256.0000 </r>
       <r>    27.9937     0.0000   256.0000 </r>
       <r>    28.0074     0.0000   256.0000 </r>
       <r>    28.0211     0.0000   256.0000 </r>
       <r>    28.0347     0.0000   256.0000 </r>
       <r>    28.0484     0.0000   256.0000 </r>
       <r>    28.0621     0.0000   256.0000 </r>
       <r>    28.0758     0.0000   256.0000 </r>
       <r>    28.0895     0.0000   256.0000 </r>
       <r>    28.1032     0.0000   256.0000 </r>
       <r>    28.1168     0.0000   256.0000 </r>
       <r>    28.1305     0.0000   256.0000 </r>
       <r>    28.1442     0.0000   256.0000 </r>
       <r>    28.1579     0.0000   256.0000 </r>
       <r>    28.1716     0.0000   256.0000 </r>
       <r>    28.1853     0.0000   256.0000 </r>
       <r>    28.1989     0.0000   256.0000 </r>
       <r>    28.2126     0.0000   256.0000 </r>
       <r>    28.2263     0.0000   256.0000 </r>
       <r>    28.2400     0.0000   256.0000 </r>
       <r>    28.2537     0.0000   256.0000 </r>
       <r>    28.2674     0.0000   256.0000 </r>
       <r>    28.2810     0.0000   256.0000 </r>
       <r>    28.2947     0.0000   256.0000 </r>
       <r>    28.3084     0.0000   256.0000 </r>
       <r>    28.3221     0.0000   256.0000 </r>
       <r>    28.3358     0.0000   256.0000 </r>
       <r>    28.3494     0.0000   256.0000 </r>
       <r>    28.3631     0.0000   256.0000 </r>
       <r>    28.3768     0.0000   256.0000 </r>
       <r>    28.3905     0.0000   256.0000 </r>
       <r>    28.4042     0.0000   256.0000 </r>
       <r>    28.4179     0.0000   256.0000 </r>
       <r>    28.4315     0.0000   256.0000 </r>
       <r>    28.4452     0.0000   256.0000 </r>
       <r>    28.4589     0.0000   256.0000 </r>
       <r>    28.4726     0.0000   256.0000 </r>
       <r>    28.4863     0.0000   256.0000 </r>
       <r>    28.5000     0.0000   256.0000 </r>
       <r>    28.5136     0.0000   256.0000 </r>
       <r>    28.5273     0.0000   256.0000 </r>
       <r>    28.5410     0.0000   256.0000 </r>
       <r>    28.5547     0.0000   256.0000 </r>
       <r>    28.5684     0.0000   256.0000 </r>
       <r>    28.5821     0.0000   256.0000 </r>
       <r>    28.5957     0.0000   256.0000 </r>
       <r>    28.6094     0.0000   256.0000 </r>
       <r>    28.6231     0.0000   256.0000 </r>
       <r>    28.6368     0.0000   256.0000 </r>
       <r>    28.6505     0.0000   256.0000 </r>
       <r>    28.6642     0.0000   256.0000 </r>
       <r>    28.6778     0.0000   256.0000 </r>
       <r>    28.6915     0.0000   256.0000 </r>
       <r>    28.7052     0.0000   256.0000 </r>
       <r>    28.7189     0.0000   256.0000 </r>
       <r>    28.7326     0.0000   256.0000 </r>
       <r>    28.7462     0.0000   256.0000 </r>
       <r>    28.7599     0.0000   256.0000 </r>
       <r>    28.7736     0.0000   256.0000 </r>
       <r>    28.7873     0.0000   256.0000 </r>
       <r>    28.8010     0.0000   256.0000 </r>
       <r>    28.8147     0.0000   256.0000 </r>
       <r>    28.8283     0.0000   256.0000 </r>
       <r>    28.8420     0.0000   256.0000 </r>
       <r>    28.8557     0.0000   256.0000 </r>
       <r>    28.8694     0.0000   256.0000 </r>
       <r>    28.8831     0.0000   256.0000 </r>
       <r>    28.8968     0.0000   256.0000 </r>
       <r>    28.9104     0.0000   256.0000 </r>
       <r>    28.9241     0.0000   256.0000 </r>
       <r>    28.9378     0.0000   256.0000 </r>
       <r>    28.9515     0.0000   256.0000 </r>
       <r>    28.9652     0.0000   256.0000 </r>
       <r>    28.9789     0.0000   256.0000 </r>
       <r>    28.9925     0.0000   256.0000 </r>
       <r>    29.0062     0.0000   256.0000 </r>
       <r>    29.0199     0.0000   256.0000 </r>
       <r>    29.0336     0.0000   256.0000 </r>
       <r>    29.0473     0.0000   256.0000 </r>
       <r>    29.0610     0.0000   256.0000 </r>
       <r>    29.0746     0.0000   256.0000 </r>
       <r>    29.0883     0.0000   256.0000 </r>
       <r>    29.1020     0.0000   256.0000 </r>
       <r>    29.1157     0.0000   256.0000 </r>
       <r>    29.1294     0.0000   256.0000 </r>
       <r>    29.1430     0.0000   256.0000 </r>
       <r>    29.1567     0.0000   256.0000 </r>
       <r>    29.1704     0.0000   256.0000 </r>
       <r>    29.1841     0.0000   256.0000 </r>
       <r>    29.1978     0.0000   256.0000 </r>
       <r>    29.2115     0.0000   256.0000 </r>
       <r>    29.2251     0.0000   256.0000 </r>
       <r>    29.2388     0.0000   256.0000 </r>
       <r>    29.2525     0.0000   256.0000 </r>
       <r>    29.2662     0.0000   256.0000 </r>
       <r>    29.2799     0.0000   256.0000 </r>
       <r>    29.2936     0.0000   256.0000 </r>
       <r>    29.3072     0.0000   256.0000 </r>
       <r>    29.3209     0.0000   256.0000 </r>
       <r>    29.3346     0.0000   256.0000 </r>
       <r>    29.3483     0.0000   256.0000 </r>
       <r>    29.3620     0.0000   256.0000 </r>
       <r>    29.3757     0.0000   256.0000 </r>
       <r>    29.3893     0.0000   256.0000 </r>
       <r>    29.4030     0.0000   256.0000 </r>
       <r>    29.4167     0.0000   256.0000 </r>
       <r>    29.4304     0.0000   256.0000 </r>
       <r>    29.4441     0.0000   256.0000 </r>
       <r>    29.4578     0.0000   256.0000 </r>
       <r>    29.4714     0.0000   256.0000 </r>
       <r>    29.4851     0.0000   256.0000 </r>
       <r>    29.4988     0.0000   256.0000 </r>
       <r>    29.5125     0.0000   256.0000 </r>
       <r>    29.5262     0.0000   256.0000 </r>
       <r>    29.5399     0.0000   256.0000 </r>
       <r>    29.5535     0.0000   256.0000 </r>
       <r>    29.5672     0.0000   256.0000 </r>
       <r>    29.5809     0.0000   256.0000 </r>
       <r>    29.5946     0.0000   256.0000 </r>
       <r>    29.6083     0.0000   256.0000 </r>
       <r>    29.6219     0.0000   256.0000 </r>
       <r>    29.6356     0.0000   256.0000 </r>
       <r>    29.6493     0.0000   256.0000 </r>
       <r>    29.6630     0.0000   256.0000 </r>
       <r>    29.6767     0.0000   256.0000 </r>
       <r>    29.6904     0.0000   256.0000 </r>
       <r>    29.7040     0.0000   256.0000 </r>
       <r>    29.7177     0.0000   256.0000 </r>
       <r>    29.7314     0.0000   256.0000 </r>
       <r>    29.7451     0.0000   256.0000 </r>
       <r>    29.7588     0.0000   256.0000 </r>
       <r>    29.7725     0.0000   256.0000 </r>
       <r>    29.7861     0.0000   256.0000 </r>
       <r>    29.7998     0.0000   256.0000 </r>
       <r>    29.8135     0.0000   256.0000 </r>
       <r>    29.8272     0.0000   256.0000 </r>
      </set>
     </set>
    </array>
   </total>
  </dos>
 </calculation>
 <structure name="finalpos" >
  <crystal>
   <varray name="basis" >
    <v>       4.36823214       2.52200000       0.00000000 </v>
    <v>      -4.36823214       2.52200000       0.00000000 </v>
    <v>       0.00000000       0.00000000      15.00000000 </v>
   </varray>
   <i name="volume">    330.50044346 </i>
   <varray name="rec_basis" >
    <v>       0.11446278       0.19825535       0.00000000 </v>
    <v>      -0.11446278       0.19825535       0.00000000 </v>
    <v>       0.00000000       0.00000000       0.06666667 </v>
   </varray>
  </crystal>
  <varray name="positions" >
   <v>       0.33820333       0.66909866       0.11338162 </v>
   <v>       0.67153862       0.33576677       0.11306610 </v>
   <v>       0.16449216       0.32167612       0.11307387 </v>
   <v>       0.32403867       0.16201592       0.11308012 </v>
   <v>       0.16449215       0.84280962       0.11307420 </v>
   <v>       0.84528269       0.16201453       0.11307046 </v>
   <v>       0.68562040       0.84280692       0.11306551 </v>
   <v>       0.84528326       0.68326195       0.11307087 </v>
   <v>       0.33348112       0.16674314       0.33814038 </v>
   <v>       0.50016929       0.00015095       0.33811741 </v>
   <v>       0.33346175       0.66673345       0.33783192 </v>
   <v>       0.50016928       0.50002374       0.33811741 </v>
   <v>       0.83345647       0.16674447       0.33813579 </v>
   <v>       0.00013175       0.00006858       0.33812051 </v>
   <v>       0.83345649       0.66671720       0.33813582 </v>
   <v>       0.00004790       0.50002665       0.33811800 </v>
  </varray>
 </structure>
</modeling>
