<?xml version="1.0" encoding="ISO-8859-1"?>
<modeling>
 <generator>
  <i name="program" type="string">vasp </i>
  <i name="version" type="string">6.3.2  </i>
  <i name="subversion" type="string">27Jun22 (build Dec 22 2022 13:13:19) complex                          parallel </i>
  <i name="platform" type="string">LinuxIFC </i>
  <i name="date" type="string">2023 09 10 </i>
  <i name="time" type="string">01:01:47 </i>
 </generator>
 <incar>
  <i type="string" name="SYSTEM">SC</i>
  <i type="int" name="ISTART">     0</i>
  <i type="string" name="PREC">Accurate</i>
  <i type="string" name="ALGO">Normal</i>
  <i type="int" name="ICHARG">     2</i>
  <i type="int" name="NELM">    64</i>
  <i name="EDIFF">      0.00000100</i>
  <i name="EDIFFG">     -0.00100000</i>
  <i name="ENCUT">    450.00000000</i>
  <i type="int" name="ISMEAR">     0</i>
  <i name="SIGMA">      0.10000000</i>
  <i type="logical" name="LWAVE"> T  </i>
  <i type="logical" name="LCHARG"> T  </i>
  <i type="string" name="GGA">PE</i>
  <i type="int" name="IVDW">    12</i>
 </incar>
 <primitive_cell>
  <structure name="primitive_cell" >
   <crystal>
    <varray name="basis" >
     <v>       4.31194049       2.48950000       0.00000000 </v>
     <v>      -4.31194049       2.48950000       0.00000000 </v>
     <v>       0.00000000       0.00000000      15.00000000 </v>
    </varray>
    <i name="volume">    322.03727516 </i>
    <varray name="rec_basis" >
     <v>       0.11595707       0.20084354       0.00000000 </v>
     <v>      -0.11595707       0.20084354       0.00000000 </v>
     <v>       0.00000000       0.00000000       0.06666667 </v>
    </varray>
   </crystal>
   <varray name="positions" >
    <v>       0.66852949       0.00003174       0.10149087 </v>
    <v>       0.33150126       0.00003174       0.10149087 </v>
    <v>       0.99996826       0.33146951       0.10149087 </v>
    <v>       0.99996826       0.66849774       0.10149087 </v>
    <v>       0.33150126       0.33146951       0.10149087 </v>
    <v>       0.66852949       0.66849774       0.10149087 </v>
    <v>       0.66666600       0.33333300       0.08845522 </v>
    <v>       0.33333300       0.66666600       0.11442406 </v>
    <v>       0.16665358       0.33330815       0.33456864 </v>
    <v>       0.33333052       0.16666476       0.33446624 </v>
    <v>       0.16665358       0.83334542       0.33456864 </v>
    <v>       0.33333300       0.66666600       0.33462602 </v>
    <v>       0.66666600       0.33333300       0.33444483 </v>
    <v>       0.83333424       0.16666476       0.33446624 </v>
    <v>       0.66669085       0.83334542       0.33456864 </v>
    <v>       0.83333424       0.66666848       0.33446624 </v>
   </varray>
  </structure>
  <varray name="primitive_index" >
   <v type="int" >        1 </v>
   <v type="int" >        2 </v>
   <v type="int" >        3 </v>
   <v type="int" >        4 </v>
   <v type="int" >        5 </v>
   <v type="int" >        6 </v>
   <v type="int" >        7 </v>
   <v type="int" >        8 </v>
   <v type="int" >        9 </v>
   <v type="int" >       10 </v>
   <v type="int" >       11 </v>
   <v type="int" >       12 </v>
   <v type="int" >       13 </v>
   <v type="int" >       14 </v>
   <v type="int" >       15 </v>
   <v type="int" >       16 </v>
  </varray>
 </primitive_cell>
 <kpoints>
  <generation param="Gamma">
   <v type="int" name="divisions">      27       27        1 </v>
   <v name="usershift">      0.00000000       0.00000000       0.00000000 </v>
   <v name="genvec1">      0.03703704      -0.00000000       0.00000000 </v>
   <v name="genvec2">     -0.00000000       0.03703704       0.00000000 </v>
   <v name="genvec3">      0.00000000       0.00000000       1.00000000 </v>
   <v name="shift">      0.00000000       0.00000000       0.00000000 </v>
  </generation>
  <varray name="kpointlist" >
   <v>       0.00000000       0.00000000       0.00000000 </v>
   <v>       0.03703704       0.00000000       0.00000000 </v>
   <v>       0.07407407       0.00000000       0.00000000 </v>
   <v>       0.11111111      -0.00000000       0.00000000 </v>
   <v>       0.14814815      -0.00000000       0.00000000 </v>
   <v>       0.18518519      -0.00000000       0.00000000 </v>
   <v>       0.22222222      -0.00000000       0.00000000 </v>
   <v>       0.25925926      -0.00000000       0.00000000 </v>
   <v>       0.29629630      -0.00000000       0.00000000 </v>
   <v>       0.33333333      -0.00000000       0.00000000 </v>
   <v>       0.37037037      -0.00000000       0.00000000 </v>
   <v>       0.40740741      -0.00000000       0.00000000 </v>
   <v>       0.44444444      -0.00000000       0.00000000 </v>
   <v>       0.48148148       0.00000000       0.00000000 </v>
   <v>       0.03703704       0.03703704       0.00000000 </v>
   <v>       0.07407407       0.03703704       0.00000000 </v>
   <v>       0.11111111       0.03703704       0.00000000 </v>
   <v>       0.14814815       0.03703704       0.00000000 </v>
   <v>       0.18518519       0.03703704       0.00000000 </v>
   <v>       0.22222222       0.03703704       0.00000000 </v>
   <v>       0.25925926       0.03703704       0.00000000 </v>
   <v>       0.29629630       0.03703704       0.00000000 </v>
   <v>       0.33333333       0.03703704       0.00000000 </v>
   <v>       0.37037037       0.03703704       0.00000000 </v>
   <v>       0.40740741       0.03703704       0.00000000 </v>
   <v>       0.44444444       0.03703704       0.00000000 </v>
   <v>       0.48148148       0.03703704       0.00000000 </v>
   <v>       0.07407407       0.07407407       0.00000000 </v>
   <v>       0.11111111       0.07407407       0.00000000 </v>
   <v>       0.14814815       0.07407407       0.00000000 </v>
   <v>       0.18518519       0.07407407       0.00000000 </v>
   <v>       0.22222222       0.07407407       0.00000000 </v>
   <v>       0.25925926       0.07407407       0.00000000 </v>
   <v>       0.29629630       0.07407407       0.00000000 </v>
   <v>       0.33333333       0.07407407       0.00000000 </v>
   <v>       0.37037037       0.07407407       0.00000000 </v>
   <v>       0.40740741       0.07407407       0.00000000 </v>
   <v>       0.44444444       0.07407407       0.00000000 </v>
   <v>       0.11111111       0.11111111       0.00000000 </v>
   <v>       0.14814815       0.11111111       0.00000000 </v>
   <v>       0.18518519       0.11111111       0.00000000 </v>
   <v>       0.22222222       0.11111111       0.00000000 </v>
   <v>       0.25925926       0.11111111       0.00000000 </v>
   <v>       0.29629630       0.11111111       0.00000000 </v>
   <v>       0.33333333       0.11111111       0.00000000 </v>
   <v>       0.37037037       0.11111111       0.00000000 </v>
   <v>       0.40740741       0.11111111       0.00000000 </v>
   <v>       0.44444444       0.11111111       0.00000000 </v>
   <v>       0.14814815       0.14814815       0.00000000 </v>
   <v>       0.18518519       0.14814815       0.00000000 </v>
   <v>       0.22222222       0.14814815       0.00000000 </v>
   <v>       0.25925926       0.14814815       0.00000000 </v>
   <v>       0.29629630       0.14814815       0.00000000 </v>
   <v>       0.33333333       0.14814815       0.00000000 </v>
   <v>       0.37037037       0.14814815       0.00000000 </v>
   <v>       0.40740741       0.14814815       0.00000000 </v>
   <v>       0.18518519       0.18518519       0.00000000 </v>
   <v>       0.22222222       0.18518519       0.00000000 </v>
   <v>       0.25925926       0.18518519       0.00000000 </v>
   <v>       0.29629630       0.18518519       0.00000000 </v>
   <v>       0.33333333       0.18518519       0.00000000 </v>
   <v>       0.37037037       0.18518519       0.00000000 </v>
   <v>       0.40740741       0.18518519       0.00000000 </v>
   <v>       0.22222222       0.22222222       0.00000000 </v>
   <v>       0.25925926       0.22222222       0.00000000 </v>
   <v>       0.29629630       0.22222222       0.00000000 </v>
   <v>       0.33333333       0.22222222       0.00000000 </v>
   <v>       0.37037037       0.22222222       0.00000000 </v>
   <v>       0.25925926       0.25925926       0.00000000 </v>
   <v>       0.29629630       0.25925926       0.00000000 </v>
   <v>       0.33333333       0.25925926       0.00000000 </v>
   <v>       0.37037037       0.25925926       0.00000000 </v>
   <v>       0.29629630       0.29629630       0.00000000 </v>
   <v>       0.33333333       0.29629630       0.00000000 </v>
   <v>       0.33333333       0.33333333       0.00000000 </v>
  </varray>
  <varray name="weights" >
   <v>       0.00137174 </v>
   <v>       0.00823045 </v>
   <v>       0.00823045 </v>
   <v>       0.00823045 </v>
   <v>       0.00823045 </v>
   <v>       0.00823045 </v>
   <v>       0.00823045 </v>
   <v>       0.00823045 </v>
   <v>       0.00823045 </v>
   <v>       0.00823045 </v>
   <v>       0.00823045 </v>
   <v>       0.00823045 </v>
   <v>       0.00823045 </v>
   <v>       0.00823045 </v>
   <v>       0.00823045 </v>
   <v>       0.01646091 </v>
   <v>       0.01646091 </v>
   <v>       0.01646091 </v>
   <v>       0.01646091 </v>
   <v>       0.01646091 </v>
   <v>       0.01646091 </v>
   <v>       0.01646091 </v>
   <v>       0.01646091 </v>
   <v>       0.01646091 </v>
   <v>       0.01646091 </v>
   <v>       0.01646091 </v>
   <v>       0.00823045 </v>
   <v>       0.00823045 </v>
   <v>       0.01646091 </v>
   <v>       0.01646091 </v>
   <v>       0.01646091 </v>
   <v>       0.01646091 </v>
   <v>       0.01646091 </v>
   <v>       0.01646091 </v>
   <v>       0.01646091 </v>
   <v>       0.01646091 </v>
   <v>       0.01646091 </v>
   <v>       0.01646091 </v>
   <v>       0.00823045 </v>
   <v>       0.01646091 </v>
   <v>       0.01646091 </v>
   <v>       0.01646091 </v>
   <v>       0.01646091 </v>
   <v>       0.01646091 </v>
   <v>       0.01646091 </v>
   <v>       0.01646091 </v>
   <v>       0.01646091 </v>
   <v>       0.00823045 </v>
   <v>       0.00823045 </v>
   <v>       0.01646091 </v>
   <v>       0.01646091 </v>
   <v>       0.01646091 </v>
   <v>       0.01646091 </v>
   <v>       0.01646091 </v>
   <v>       0.01646091 </v>
   <v>       0.01646091 </v>
   <v>       0.00823045 </v>
   <v>       0.01646091 </v>
   <v>       0.01646091 </v>
   <v>       0.01646091 </v>
   <v>       0.01646091 </v>
   <v>       0.01646091 </v>
   <v>       0.00823045 </v>
   <v>       0.00823045 </v>
   <v>       0.01646091 </v>
   <v>       0.01646091 </v>
   <v>       0.01646091 </v>
   <v>       0.01646091 </v>
   <v>       0.00823045 </v>
   <v>       0.01646091 </v>
   <v>       0.01646091 </v>
   <v>       0.00823045 </v>
   <v>       0.00823045 </v>
   <v>       0.01646091 </v>
   <v>       0.00274348 </v>
  </varray>
 </kpoints>
 <parameters>
  <separator name="general" >
   <i type="string" name="SYSTEM">SC</i>
   <i type="logical" name="LCOMPAT"> F  </i>
  </separator>
  <separator name="electronic" >
   <i type="string" name="PREC">accura</i>
   <i name="ENMAX">    450.00000000</i>
   <i name="ENAUG">    644.87300000</i>
   <i name="EDIFF">      0.00000100</i>
   <i type="int" name="IALGO">    38</i>
   <i type="int" name="IWAVPR">    10</i>
   <i type="int" name="NBANDS">    48</i>
   <i type="int" name="NBANDSLOW">    -1</i>
   <i type="int" name="NBANDSHIGH">    -1</i>
   <i name="NELECT">     56.00000000</i>
   <i type="int" name="TURBO">     0</i>
   <i type="int" name="IRESTART">     0</i>
   <i type="int" name="NREBOOT">     0</i>
   <i type="int" name="NMIN">     0</i>
   <i name="EREF">      0.00000000</i>
   <separator name="electronic smearing" >
    <i type="int" name="ISMEAR">     0</i>
    <i name="SIGMA">      0.10000000</i>
    <i name="KSPACING">      0.50000000</i>
    <i type="logical" name="KGAMMA"> T  </i>
    <i type="logical" name="KBLOWUP"> T  </i>
   </separator>
   <separator name="electronic projectors" >
    <i type="logical" name="LREAL"> F  </i>
    <v name="ROPT">      0.00000000      0.00000000</v>
    <i type="int" name="LMAXPAW">  -100</i>
    <i type="int" name="LMAXMIX">     2</i>
    <i type="logical" name="NLSPLINE"> F  </i>
   </separator>
   <separator name="electronic startup" >
    <i type="int" name="ISTART">     0</i>
    <i type="int" name="ICHARG">     2</i>
    <i type="int" name="INIWAV">     1</i>
   </separator>
   <separator name="electronic spin" >
    <i type="int" name="ISPIN">     1</i>
    <i type="logical" name="LNONCOLLINEAR"> F  </i>
    <v name="MAGMOM">      1.00000000      1.00000000      1.00000000      1.00000000      1.00000000      1.00000000      1.00000000      1.00000000      1.00000000      1.00000000      1.00000000      1.00000000      1.00000000      1.00000000      1.00000000      1.00000000</v>
    <i name="NUPDOWN">     -1.00000000</i>
    <i type="logical" name="LSORBIT"> F  </i>
    <v name="SAXIS">      0.00000000      0.00000000      1.00000000</v>
    <i type="logical" name="LSPIRAL"> F  </i>
    <v name="QSPIRAL">      0.00000000      0.00000000      0.00000000</v>
    <i type="logical" name="LZEROZ"> F  </i>
   </separator>
   <separator name="electronic exchange-correlation" >
    <i type="logical" name="LASPH"> F  </i>
    <i type="logical" name="LMETAGGA"> F  </i>
   </separator>
   <separator name="electronic convergence" >
    <i type="int" name="NELM">    64</i>
    <i type="int" name="NELMDL">    -5</i>
    <i type="int" name="NELMIN">     2</i>
    <i name="ENINI">    450.00000000</i>
    <separator name="electronic convergence detail" >
     <i type="logical" name="LDIAG"> T  </i>
     <i type="logical" name="LSUBROT"> F  </i>
     <i name="WEIMIN">      0.00000000</i>
     <i name="EBREAK">      0.00000001</i>
     <i name="DEPER">      0.30000000</i>
     <i type="int" name="NRMM">     4</i>
     <i name="TIME">      0.40000000</i>
    </separator>
   </separator>
   <separator name="electronic mixer" >
    <i name="AMIX">      0.40000000</i>
    <i name="BMIX">      1.00000000</i>
    <i name="AMIN">      0.10000000</i>
    <i name="AMIX_MAG">      1.60000000</i>
    <i name="BMIX_MAG">      1.00000000</i>
    <separator name="electronic mixer details" >
     <i type="int" name="IMIX">     4</i>
     <i type="logical" name="MIXFIRST"> F  </i>
     <i type="int" name="MAXMIX">   -45</i>
     <i name="WC">    100.00000000</i>
     <i type="int" name="INIMIX">     1</i>
     <i type="int" name="MIXPRE">     1</i>
     <i type="int" name="MREMOVE">     5</i>
    </separator>
   </separator>
   <separator name="electronic dipolcorrection" >
    <i type="logical" name="LDIPOL"> F  </i>
    <i type="logical" name="LMONO"> F  </i>
    <i type="int" name="IDIPOL">     0</i>
    <i name="EPSILON">      1.00000000</i>
    <v name="DIPOL">   -100.00000000   -100.00000000   -100.00000000</v>
    <i name="EFIELD">      0.00000000</i>
   </separator>
  </separator>
  <separator name="grids" >
   <i type="int" name="NGX">    36</i>
   <i type="int" name="NGY">    36</i>
   <i type="int" name="NGZ">   108</i>
   <i type="int" name="NGXF">    72</i>
   <i type="int" name="NGYF">    72</i>
   <i type="int" name="NGZF">   216</i>
   <i type="logical" name="ADDGRID"> F  </i>
  </separator>
  <separator name="ionic" >
   <i type="int" name="NSW">     0</i>
   <i type="int" name="IBRION">    -1</i>
   <i type="int" name="MDALGO">     0</i>
   <i type="int" name="ISIF">     2</i>
   <i name="PSTRESS">      0.00000000</i>
   <i name="EDIFFG">     -0.00100000</i>
   <i type="int" name="NFREE">     0</i>
   <i name="POTIM">      0.50000000</i>
   <i name="SMASS">     -3.00000000</i>
   <i name="SCALEE">      1.00000000</i>
  </separator>
  <separator name="ionic md" >
   <i name="TEBEG">      0.00010000</i>
   <i name="TEEND">      0.00010000</i>
   <i type="int" name="NBLOCK">     1</i>
   <i type="int" name="KBLOCK">     1</i>
   <i type="int" name="NPACO">   256</i>
   <i name="APACO">     10.00000000</i>
  </separator>
  <separator name="symmetry" >
   <i type="int" name="ISYM">     2</i>
   <i name="SYMPREC">      0.00001000</i>
  </separator>
  <separator name="dos" >
   <i type="int" name="LORBIT">     0</i>
   <v name="RWIGS">     -1.00000000     -1.00000000</v>
   <i type="int" name="NEDOS">   301</i>
   <i name="EMIN">     10.00000000</i>
   <i name="EMAX">    -10.00000000</i>
   <i name="EFERMI">      0.00000000</i>
  </separator>
  <separator name="writing" >
   <i type="int" name="NWRITE">     2</i>
   <i type="logical" name="LWAVE"> T  </i>
   <i type="logical" name="LDOWNSAMPLE"> F  </i>
   <i type="logical" name="LCHARG"> T  </i>
   <i type="logical" name="LPARD"> F  </i>
   <i type="logical" name="LVTOT"> F  </i>
   <i type="logical" name="LVHAR"> F  </i>
   <i type="logical" name="LELF"> F  </i>
   <i type="logical" name="LOPTICS"> F  </i>
   <v name="STM">      0.00000000      0.00000000      0.00000000      0.00000000      0.00000000      0.00000000      0.00000000</v>
  </separator>
  <separator name="performance" >
   <i type="int" name="NPAR">    48</i>
   <i type="int" name="NSIM">     4</i>
   <i type="int" name="NBLK">    -1</i>
   <i type="logical" name="LPLANE"> T  </i>
   <i type="logical" name="LSCALAPACK"> T  </i>
   <i type="logical" name="LSCAAWARE"> F  </i>
   <i type="logical" name="LSCALU"> F  </i>
   <i type="logical" name="LASYNC"> F  </i>
   <i type="logical" name="LORBITALREAL"> F  </i>
  </separator>
  <separator name="miscellaneous" >
   <i type="int" name="IDIOT">     3</i>
   <i type="int" name="PHON_NSTRUCT">    -1</i>
   <i type="logical" name="LMUSIC"> F  </i>
   <v name="POMASS">     10.81100000     12.01100000</v>
   <v name="DARWINR">      0.00000000      0.00000000</v>
   <v name="DARWINV">      1.00000000      1.00000000</v>
   <i type="logical" name="LCORR"> T  </i>
  </separator>
  <i type="logical" name="GGA_COMPAT"> T  </i>
  <i type="logical" name="LBERRY"> F  </i>
  <i type="int" name="ICORELEVEL">     0</i>
  <i type="logical" name="LDAU"> F  </i>
  <i type="int" name="I_CONSTRAINED_M">     0</i>
  <separator name="electronic exchange-correlation" >
   <i type="string" name="GGA">PE</i>
   <i type="int" name="VOSKOWN">     0</i>
   <i type="logical" name="LHFCALC"> F  </i>
   <i type="string" name="PRECFOCK"></i>
   <i type="logical" name="LSYMGRAD"> F  </i>
   <i type="logical" name="LHFONE"> F  </i>
   <i type="logical" name="LRHFCALC"> F  </i>
   <i type="logical" name="LTHOMAS"> F  </i>
   <i type="logical" name="LMODELHF"> F  </i>
   <i type="logical" name="LFOCKACE"> F  </i>
   <i name="ENCUT4O">     -1.00000000</i>
   <i type="int" name="EXXOEP">     0</i>
   <i type="int" name="FOURORBIT">     0</i>
   <i name="AEXX">      0.00000000</i>
   <i name="HFALPHA">      0.00000000</i>
   <i name="MCALPHA">      0.00000000</i>
   <i name="ALDAX">      1.00000000</i>
   <i name="AGGAX">      1.00000000</i>
   <i name="ALDAC">      1.00000000</i>
   <i name="AGGAC">      1.00000000</i>
   <i type="int" name="NKREDX">     1</i>
   <i type="int" name="NKREDY">     1</i>
   <i type="int" name="NKREDZ">     1</i>
   <i type="logical" name="SHIFTRED"> F  </i>
   <i type="logical" name="ODDONLY"> F  </i>
   <i type="logical" name="EVENONLY"> F  </i>
   <i type="int" name="LMAXFOCK">     0</i>
   <i type="int" name="NMAXFOCKAE">     0</i>
   <i type="logical" name="LFOCKAEDFT"> F  </i>
   <i name="HFSCREEN">      0.00000000</i>
   <i name="HFSCREENC">      0.00000000</i>
   <i type="int" name="NBANDSGWLOW">     0</i>
  </separator>
  <separator name="vdW DFT" >
   <i type="logical" name="LUSE_VDW"> F  </i>
   <i name="Zab_VDW">     -0.84910000</i>
   <i name="PARAM1">      0.12340000</i>
   <i name="PARAM2">      1.00000000</i>
   <i name="PARAM3">      0.00000000</i>
  </separator>
  <separator name="model GW" >
   <i type="int" name="MODEL_GW">     0</i>
   <i name="MODEL_EPS0">     12.07639782</i>
   <i name="MODEL_ALPHA">      1.00000000</i>
  </separator>
  <separator name="linear response parameters" >
   <i type="logical" name="LEPSILON"> F  </i>
   <i type="logical" name="LRPA"> F  </i>
   <i type="logical" name="LNABLA"> F  </i>
   <i type="logical" name="LVEL"> F  </i>
   <i name="CSHIFT">      0.10000000</i>
   <i name="OMEGAMAX">     -1.00000000</i>
   <i name="DEG_THRESHOLD">      0.00200000</i>
   <i name="RTIME">     -0.10000000</i>
   <i name="WPLASMAI">      0.00000000</i>
   <v name="DFIELD">      0.00000000      0.00000000      0.00000000</v>
   <v name="WPLASMA">      0.00000000      0.00000000      0.00000000      0.00000000      0.00000000      0.00000000      0.00000000      0.00000000      0.00000000</v>
  </separator>
  <separator name="orbital magnetization" >
   <i type="logical" name="NUCIND"> F  </i>
   <v name="MAGPOS">      0.00000000      0.00000000      0.00000000</v>
   <i type="logical" name="LNICSALL"> T  </i>
   <i type="logical" name="ORBITALMAG"> F  </i>
   <i type="logical" name="LMAGBLOCH"> F  </i>
   <i type="logical" name="LCHIMAG"> F  </i>
   <i type="logical" name="LGAUGE"> T  </i>
   <i type="int" name="MAGATOM">     0</i>
   <v name="MAGDIPOL">      0.00000000      0.00000000      0.00000000</v>
   <v name="AVECCONST">      0.00000000      0.00000000      0.00000000</v>
  </separator>
  <separator name="response functions" >
   <i type="logical" name="LFINITE_TEMPERATURE"> F  </i>
   <i type="logical" name="LADDER"> F  </i>
   <i type="logical" name="LRPAFORCE"> F  </i>
   <i type="logical" name="LFXC"> F  </i>
   <i type="logical" name="LHARTREE"> T  </i>
   <i type="int" name="IBSE">     0</i>
   <v type="int" name="KPOINT">    -1     0     0     0</v>
   <i type="logical" name="LTCTC"> F  </i>
   <i type="logical" name="LTCTE"> F  </i>
   <i type="logical" name="LTETE"> F  </i>
   <i type="logical" name="LTRIPLET"> F  </i>
   <i type="logical" name="LFXCEPS"> F  </i>
   <i type="logical" name="LFXHEG"> F  </i>
   <i type="int" name="NATURALO">     2</i>
   <i type="logical" name="LHOLEGF"> F  </i>
   <i type="logical" name="L2ORDER"> F  </i>
   <i type="logical" name="LDMP1"> F  </i>
   <i type="logical" name="LMP2LT"> F  </i>
   <i type="logical" name="LSMP2LT"> F  </i>
   <i type="logical" name="LGWLF"> F  </i>
   <i name="ENCUTGW">     -2.00000000</i>
   <i name="ENCUTGWSOFT">     -2.00000000</i>
   <i name="ENCUTLF">     -1.00000000</i>
   <i type="logical" name="LESF_SPLINES"> F  </i>
   <i type="int" name="LMAXMP2">    -1</i>
   <i name="SCISSOR">      0.00000000</i>
   <i type="int" name="NOMEGA">     0</i>
   <i type="int" name="NOMEGAR">     0</i>
   <i type="int" name="NBANDSGW">    -1</i>
   <i type="int" name="NBANDSO">    -1</i>
   <i type="int" name="NBANDSV">    -1</i>
   <i type="int" name="NELMGW">     1</i>
   <i type="int" name="NELMHF">     1</i>
   <i type="int" name="DIM">     3</i>
   <i type="int" name="IESPILON">     4</i>
   <i type="int" name="ANTIRES">     0</i>
   <i name="OMEGAMAX">    -30.00000000</i>
   <i name="OMEGAMIN">    -30.00000000</i>
   <i name="OMEGATL">   -200.00000000</i>
   <i type="int" name="OMEGAGRID">     0</i>
   <i name="CSHIFT">     -0.10000000</i>
   <i type="logical" name="LSELFENERGY"> F  </i>
   <i type="logical" name="LSPECTRAL"> F  </i>
   <i type="logical" name="LSPECTRALGW"> F  </i>
   <i type="logical" name="LSINGLES"> F  </i>
   <i type="logical" name="LFERMIGW"> F  </i>
   <i type="logical" name="ODDONLYGW"> F  </i>
   <i type="logical" name="EVENONLYGW"> F  </i>
   <i type="int" name="NKREDLFX">     1</i>
   <i type="int" name="NKREDLFY">     1</i>
   <i type="int" name="NKREDLFZ">     1</i>
   <i type="int" name="MAXMEM">  2800</i>
   <i type="int" name="TELESCOPE">     0</i>
   <i type="int" name="NTAUPAR">    -1</i>
   <i type="int" name="NOMEGAPAR">    -1</i>
   <i name="DAMP_NEWTON">      0.80000001</i>
   <i name="LAMBDA">      1.00000000</i>
  </separator>
  <separator name="External order field" >
   <i name="OFIELD_KAPPA">      0.00000000</i>
   <v name="OFIELD_K">      0.00000000      0.00000000      0.00000000</v>
   <i name="OFIELD_Q6_NEAR">      0.00000000</i>
   <i name="OFIELD_Q6_FAR">      0.00000000</i>
   <i name="OFIELD_A">      0.00000000</i>
  </separator>
  <separator name="optional k-points parameters" >
   <i type="int" name="KPOINTS_OPT_MODE">     1</i>
   <i type="logical" name="LKPOINTS_OPT"> F  </i>
  </separator>
  <separator name="solvation model" >
   <i type="logical" name="LSOL"> F  </i>
  </separator>
 </parameters>
 <atominfo>
  <atoms>      16 </atoms>
  <types>       2 </types>
  <array name="atoms" >
   <dimension dim="1">ion</dimension>
   <field type="string">element</field>
   <field type="int">atomtype</field>
   <set>
    <rc><c>B </c><c>   1</c></rc>
    <rc><c>B </c><c>   1</c></rc>
    <rc><c>B </c><c>   1</c></rc>
    <rc><c>B </c><c>   1</c></rc>
    <rc><c>B </c><c>   1</c></rc>
    <rc><c>B </c><c>   1</c></rc>
    <rc><c>B </c><c>   1</c></rc>
    <rc><c>B </c><c>   1</c></rc>
    <rc><c>C </c><c>   2</c></rc>
    <rc><c>C </c><c>   2</c></rc>
    <rc><c>C </c><c>   2</c></rc>
    <rc><c>C </c><c>   2</c></rc>
    <rc><c>C </c><c>   2</c></rc>
    <rc><c>C </c><c>   2</c></rc>
    <rc><c>C </c><c>   2</c></rc>
    <rc><c>C </c><c>   2</c></rc>
   </set>
  </array>
  <array name="atomtypes" >
   <dimension dim="1">type</dimension>
   <field type="int">atomspertype</field>
   <field type="string">element</field>
   <field>mass</field>
   <field>valence</field>
   <field type="string">pseudopotential</field>
   <set>
    <rc><c>   8</c><c>B </c><c>     10.81100000</c><c>      3.00000000</c><c>  PAW_PBE B 06Sep2000                   </c></rc>
    <rc><c>   8</c><c>C </c><c>     12.01100000</c><c>      4.00000000</c><c>  PAW_PBE C 08Apr2002                   </c></rc>
   </set>
  </array>
 </atominfo>
 <structure name="initialpos" >
  <crystal>
   <varray name="basis" >
    <v>       4.31194049       2.48950000       0.00000000 </v>
    <v>      -4.31194049       2.48950000       0.00000000 </v>
    <v>       0.00000000       0.00000000      15.00000000 </v>
   </varray>
   <i name="volume">    322.03727516 </i>
   <varray name="rec_basis" >
    <v>       0.11595707       0.20084354       0.00000000 </v>
    <v>      -0.11595707       0.20084354       0.00000000 </v>
    <v>       0.00000000       0.00000000       0.06666667 </v>
   </varray>
  </crystal>
  <varray name="positions" >
   <v>       0.66852949       0.00003174       0.10149087 </v>
   <v>       0.33150126       0.00003174       0.10149087 </v>
   <v>       0.99996826       0.33146951       0.10149087 </v>
   <v>       0.99996826       0.66849774       0.10149087 </v>
   <v>       0.33150126       0.33146951       0.10149087 </v>
   <v>       0.66852949       0.66849774       0.10149087 </v>
   <v>       0.66666600       0.33333300       0.08845522 </v>
   <v>       0.33333300       0.66666600       0.11442406 </v>
   <v>       0.16665358       0.33330815       0.33456864 </v>
   <v>       0.33333052       0.16666476       0.33446624 </v>
   <v>       0.16665358       0.83334542       0.33456864 </v>
   <v>       0.33333300       0.66666600       0.33462602 </v>
   <v>       0.66666600       0.33333300       0.33444483 </v>
   <v>       0.83333424       0.16666476       0.33446624 </v>
   <v>       0.66669085       0.83334542       0.33456864 </v>
   <v>       0.83333424       0.66666848       0.33446624 </v>
  </varray>
 </structure>
 <calculation>
  <scstep>
   <time name="dav">    2.85    2.89</time>
   <time name="total">    2.88    2.93</time>
   <energy>
    <i name="alphaZ">     60.47074313 </i>
    <i name="ewald">   4495.95153103 </i>
    <i name="hartreedc">  -5910.63168057 </i>
    <i name="XCdc">    161.30414655 </i>
    <i name="pawpsdc">   1216.17529508 </i>
    <i name="pawaedc">  -1213.88798198 </i>
    <i name="eentropy">     -0.02030030 </i>
    <i name="bandstr">   -372.78994018 </i>
    <i name="atom">   1746.50554237 </i>
    <i name="e_fr_energy">    183.07735512 </i>
    <i name="e_wo_entrp">    183.09765542 </i>
    <i name="e_0_energy">    183.08750527 </i>
   </energy>
  </scstep>
  <scstep>
   <time name="dav">    4.32    4.38</time>
   <time name="total">    4.32    4.38</time>
   <energy>
    <i name="e_fr_energy">   -123.44534801 </i>
    <i name="e_wo_entrp">   -123.44064780 </i>
    <i name="e_0_energy">   -123.44299790 </i>
   </energy>
  </scstep>
  <scstep>
   <time name="dav">    5.54    5.59</time>
   <time name="total">    5.54    5.59</time>
   <energy>
    <i name="e_fr_energy">   -133.76458020 </i>
    <i name="e_wo_entrp">   -133.76152942 </i>
    <i name="e_0_energy">   -133.76305481 </i>
   </energy>
  </scstep>
  <scstep>
   <time name="dav">    4.32    4.36</time>
   <time name="total">    4.32    4.36</time>
   <energy>
    <i name="e_fr_energy">   -133.78774946 </i>
    <i name="e_wo_entrp">   -133.78471470 </i>
    <i name="e_0_energy">   -133.78623208 </i>
   </energy>
  </scstep>
  <scstep>
   <time name="dav">    5.07    5.12</time>
   <time name="total">    5.22    5.27</time>
   <energy>
    <i name="e_fr_energy">   -133.78780844 </i>
    <i name="e_wo_entrp">   -133.78477367 </i>
    <i name="e_0_energy">   -133.78629105 </i>
   </energy>
  </scstep>
  <scstep>
   <time name="dav">    4.95    5.00</time>
   <time name="total">    5.11    5.17</time>
   <energy>
    <i name="e_fr_energy">   -126.86577174 </i>
    <i name="e_wo_entrp">   -126.86403514 </i>
    <i name="e_0_energy">   -126.86490344 </i>
   </energy>
  </scstep>
  <scstep>
   <time name="dav">    6.03    6.10</time>
   <time name="total">    6.20    6.28</time>
   <energy>
    <i name="e_fr_energy">   -124.15105109 </i>
    <i name="e_wo_entrp">   -124.14960663 </i>
    <i name="e_0_energy">   -124.15032886 </i>
   </energy>
  </scstep>
  <scstep>
   <time name="dav">    5.12    5.17</time>
   <time name="total">    5.28    5.34</time>
   <energy>
    <i name="e_fr_energy">   -124.08525802 </i>
    <i name="e_wo_entrp">   -124.08316773 </i>
    <i name="e_0_energy">   -124.08421287 </i>
   </energy>
  </scstep>
  <scstep>
   <time name="dav">    5.32    5.37</time>
   <time name="total">    5.48    5.54</time>
   <energy>
    <i name="e_fr_energy">   -124.06914544 </i>
    <i name="e_wo_entrp">   -124.06646372 </i>
    <i name="e_0_energy">   -124.06780458 </i>
   </energy>
  </scstep>
  <scstep>
   <time name="dav">    5.38    5.42</time>
   <time name="total">    5.54    5.58</time>
   <energy>
    <i name="e_fr_energy">   -124.05603896 </i>
    <i name="e_wo_entrp">   -124.05323787 </i>
    <i name="e_0_energy">   -124.05463842 </i>
   </energy>
  </scstep>
  <scstep>
   <time name="dav">    4.96    5.00</time>
   <time name="total">    5.12    5.16</time>
   <energy>
    <i name="e_fr_energy">   -124.05169592 </i>
    <i name="e_wo_entrp">   -124.04864437 </i>
    <i name="e_0_energy">   -124.05017015 </i>
   </energy>
  </scstep>
  <scstep>
   <time name="dav">    3.56    3.59</time>
   <time name="total">    3.72    3.75</time>
   <energy>
    <i name="e_fr_energy">   -124.05257575 </i>
    <i name="e_wo_entrp">   -124.04974830 </i>
    <i name="e_0_energy">   -124.05116202 </i>
   </energy>
  </scstep>
  <scstep>
   <time name="dav">    4.69    4.72</time>
   <time name="total">    4.85    4.88</time>
   <energy>
    <i name="e_fr_energy">   -124.05424133 </i>
    <i name="e_wo_entrp">   -124.05137606 </i>
    <i name="e_0_energy">   -124.05280869 </i>
   </energy>
  </scstep>
  <scstep>
   <time name="dav">    4.73    4.76</time>
   <time name="total">    4.89    4.92</time>
   <energy>
    <i name="e_fr_energy">   -124.05710572 </i>
    <i name="e_wo_entrp">   -124.05422688 </i>
    <i name="e_0_energy">   -124.05566630 </i>
   </energy>
  </scstep>
  <scstep>
   <time name="dav">    4.53    4.57</time>
   <time name="total">    4.68    4.72</time>
   <energy>
    <i name="e_fr_energy">   -124.05809027 </i>
    <i name="e_wo_entrp">   -124.05522695 </i>
    <i name="e_0_energy">   -124.05665861 </i>
   </energy>
  </scstep>
  <scstep>
   <time name="dav">    5.06    5.10</time>
   <time name="total">    5.22    5.25</time>
   <energy>
    <i name="e_fr_energy">   -124.05826263 </i>
    <i name="e_wo_entrp">   -124.05539063 </i>
    <i name="e_0_energy">   -124.05682663 </i>
   </energy>
  </scstep>
  <scstep>
   <time name="dav">    4.41    4.44</time>
   <time name="total">    4.56    4.59</time>
   <energy>
    <i name="e_fr_energy">   -124.05831684 </i>
    <i name="e_wo_entrp">   -124.05544254 </i>
    <i name="e_0_energy">   -124.05687969 </i>
   </energy>
  </scstep>
  <scstep>
   <time name="dav">    4.87    4.90</time>
   <time name="total">    5.02    5.06</time>
   <energy>
    <i name="e_fr_energy">   -124.05832121 </i>
    <i name="e_wo_entrp">   -124.05544548 </i>
    <i name="e_0_energy">   -124.05688335 </i>
   </energy>
  </scstep>
  <scstep>
   <time name="dav">    4.73    4.76</time>
   <time name="total">    4.88    4.92</time>
   <energy>
    <i name="e_fr_energy">   -124.05832239 </i>
    <i name="e_wo_entrp">   -124.05544682 </i>
    <i name="e_0_energy">   -124.05688460 </i>
   </energy>
  </scstep>
  <scstep>
   <time name="dav">    3.73    3.76</time>
   <time name="total">    3.74    3.77</time>
   <energy>
    <i name="alphaZ">     60.47074313 </i>
    <i name="ewald">   4495.95153103 </i>
    <i name="hartreedc">  -6105.96721391 </i>
    <i name="XCdc">    168.42608519 </i>
    <i name="pawpsdc">   5765.84687846 </i>
    <i name="pawaedc">  -5765.21044558 </i>
    <i name="eentropy">     -0.00287538 </i>
    <i name="bandstr">   -490.07856827 </i>
    <i name="atom">   1746.50554237 </i>
    <i name="e_fr_energy">   -124.05832296 </i>
    <i name="e_wo_entrp">   -124.05544758 </i>
    <i name="e_0_energy">   -124.05688527 </i>
   </energy>
  </scstep>
  <structure>
   <crystal>
    <varray name="basis" >
     <v>       4.31194049       2.48950000       0.00000000 </v>
     <v>      -4.31194049       2.48950000       0.00000000 </v>
     <v>       0.00000000       0.00000000      15.00000000 </v>
    </varray>
    <i name="volume">    322.03727516 </i>
    <varray name="rec_basis" >
     <v>       0.11595707       0.20084354       0.00000000 </v>
     <v>      -0.11595707       0.20084354       0.00000000 </v>
     <v>       0.00000000       0.00000000       0.06666667 </v>
    </varray>
   </crystal>
   <varray name="positions" >
    <v>       0.66852949       0.00003174       0.10149087 </v>
    <v>       0.33150126       0.00003174       0.10149087 </v>
    <v>       0.99996826       0.33146951       0.10149087 </v>
    <v>       0.99996826       0.66849774       0.10149087 </v>
    <v>       0.33150126       0.33146951       0.10149087 </v>
    <v>       0.66852949       0.66849774       0.10149087 </v>
    <v>       0.66666600       0.33333300       0.08845522 </v>
    <v>       0.33333300       0.66666600       0.11442406 </v>
    <v>       0.16665358       0.33330815       0.33456864 </v>
    <v>       0.33333052       0.16666476       0.33446624 </v>
    <v>       0.16665358       0.83334542       0.33456864 </v>
    <v>       0.33333300       0.66666600       0.33462602 </v>
    <v>       0.66666600       0.33333300       0.33444483 </v>
    <v>       0.83333424       0.16666476       0.33446624 </v>
    <v>       0.66669085       0.83334542       0.33456864 </v>
    <v>       0.83333424       0.66666848       0.33446624 </v>
   </varray>
  </structure>
  <varray name="forces" >
   <v>      -0.00121447      -0.00098079       0.00012578 </v>
   <v>       0.00145662       0.00056137       0.00012578 </v>
   <v>      -0.00121447       0.00098079       0.00012578 </v>
   <v>       0.00145662      -0.00056137       0.00012578 </v>
   <v>      -0.00024215       0.00154216       0.00012578 </v>
   <v>      -0.00024215      -0.00154216       0.00012578 </v>
   <v>       0.00000000       0.00000000      -0.00776473 </v>
   <v>       0.00000000       0.00000000      -0.00295451 </v>
   <v>       0.00026566      -0.00046013       0.00105149 </v>
   <v>       0.00054181       0.00093844       0.00111415 </v>
   <v>      -0.00053132       0.00000000       0.00105149 </v>
   <v>       0.00000000       0.00000000       0.00193822 </v>
   <v>       0.00000000       0.00000000       0.00152945 </v>
   <v>      -0.00108362       0.00000000       0.00111415 </v>
   <v>       0.00026566       0.00046013       0.00105149 </v>
   <v>       0.00054181      -0.00093844       0.00111415 </v>
  </varray>
  <varray name="stress" >
   <v>      -1.66117965       0.00000000       0.00000000 </v>
   <v>       0.00000000      -1.66117965       0.00000000 </v>
   <v>       0.00000000       0.00000000      -1.39616985 </v>
  </varray>
  <energy>
   <i name="e_fr_energy">   -125.92758520 </i>
   <i name="e_wo_entrp">   -125.92470982 </i>
   <i name="e_0_energy">   -125.92614751 </i>
  </energy>
  <time name="totalsc">  101.92  103.16</time>
  <eigenvalues>
   <array>
    <dimension dim="1">band</dimension>
    <dimension dim="2">kpoint</dimension>
    <dimension dim="3">spin</dimension>
    <field>eigene</field>
    <field>occ</field>
    <set>
     <set comment="spin 1">
      <set comment="kpoint 1">
       <r>  -19.7682    1.0000 </r>
       <r>  -15.8970    1.0000 </r>
       <r>  -14.6560    1.0000 </r>
       <r>  -14.6514    1.0000 </r>
       <r>  -14.6514    1.0000 </r>
       <r>  -13.5283    1.0000 </r>
       <r>  -13.5282    1.0000 </r>
       <r>  -13.5257    1.0000 </r>
       <r>  -11.7065    1.0000 </r>
       <r>  -11.5212    1.0000 </r>
       <r>  -11.5212    1.0000 </r>
       <r>   -9.3205    1.0000 </r>
       <r>   -9.3205    1.0000 </r>
       <r>   -8.0837    1.0000 </r>
       <r>   -7.3234    1.0000 </r>
       <r>   -6.8058    1.0000 </r>
       <r>   -6.8058    1.0000 </r>
       <r>   -6.8053    1.0000 </r>
       <r>   -6.5481    1.0000 </r>
       <r>   -3.5170    1.0000 </r>
       <r>   -3.5168    1.0000 </r>
       <r>   -2.8550    1.0000 </r>
       <r>   -2.8213    1.0000 </r>
       <r>   -2.8213    1.0000 </r>
       <r>   -1.5298    1.0000 </r>
       <r>   -1.5298    1.0000 </r>
       <r>   -0.3685    0.9317 </r>
       <r>   -0.3684    0.9317 </r>
       <r>   -0.2361    0.3508 </r>
       <r>    0.9496    0.0000 </r>
       <r>    0.9496    0.0000 </r>
       <r>    1.1277    0.0000 </r>
       <r>    1.1278    0.0000 </r>
       <r>    1.1306    0.0000 </r>
       <r>    1.7630    0.0000 </r>
       <r>    1.7630    0.0000 </r>
       <r>    2.9918    0.0000 </r>
       <r>    3.5976    0.0000 </r>
       <r>    4.4957    0.0000 </r>
       <r>    4.8141    0.0000 </r>
       <r>    6.6149    0.0000 </r>
       <r>    6.6177    0.0000 </r>
       <r>    6.6177    0.0000 </r>
       <r>    7.0724    0.0000 </r>
       <r>    7.6622    0.0000 </r>
       <r>    7.6623    0.0000 </r>
       <r>    7.6789    0.0000 </r>
       <r>    8.4053    0.0000 </r>
      </set>
      <set comment="kpoint 2">
       <r>  -19.7602    1.0000 </r>
       <r>  -15.8906    1.0000 </r>
       <r>  -14.7759    1.0000 </r>
       <r>  -14.6825    1.0000 </r>
       <r>  -14.6796    1.0000 </r>
       <r>  -13.4869    1.0000 </r>
       <r>  -13.4854    1.0000 </r>
       <r>  -13.3926    1.0000 </r>
       <r>  -11.8717    1.0000 </r>
       <r>  -11.5279    1.0000 </r>
       <r>  -11.3606    1.0000 </r>
       <r>   -9.3345    1.0000 </r>
       <r>   -9.3036    1.0000 </r>
       <r>   -8.0735    1.0000 </r>
       <r>   -7.2908    1.0000 </r>
       <r>   -6.8311    1.0000 </r>
       <r>   -6.8307    1.0000 </r>
       <r>   -6.7978    1.0000 </r>
       <r>   -6.5383    1.0000 </r>
       <r>   -3.5506    1.0000 </r>
       <r>   -3.5342    1.0000 </r>
       <r>   -2.8928    1.0000 </r>
       <r>   -2.8434    1.0000 </r>
       <r>   -2.8281    1.0000 </r>
       <r>   -1.6265    1.0000 </r>
       <r>   -1.6141    1.0000 </r>
       <r>   -0.5640    1.0000 </r>
       <r>   -0.3398    0.8606 </r>
       <r>   -0.0316    0.0005 </r>
       <r>    0.9159    0.0000 </r>
       <r>    0.9514    0.0000 </r>
       <r>    1.1473    0.0000 </r>
       <r>    1.1584    0.0000 </r>
       <r>    1.1964    0.0000 </r>
       <r>    1.8395    0.0000 </r>
       <r>    1.8606    0.0000 </r>
       <r>    3.0047    0.0000 </r>
       <r>    3.6107    0.0000 </r>
       <r>    4.5253    0.0000 </r>
       <r>    4.8267    0.0000 </r>
       <r>    6.6211    0.0000 </r>
       <r>    6.6536    0.0000 </r>
       <r>    6.6554    0.0000 </r>
       <r>    7.0811    0.0000 </r>
       <r>    7.6593    0.0000 </r>
       <r>    7.6955    0.0000 </r>
       <r>    7.6967    0.0000 </r>
       <r>    8.3430    0.0000 </r>
      </set>
      <set comment="kpoint 3">
       <r>  -19.7363    1.0000 </r>
       <r>  -15.8714    1.0000 </r>
       <r>  -15.0476    1.0000 </r>
       <r>  -14.7563    1.0000 </r>
       <r>  -14.7537    1.0000 </r>
       <r>  -13.3736    1.0000 </r>
       <r>  -13.3724    1.0000 </r>
       <r>  -13.0853    1.0000 </r>
       <r>  -12.1051    1.0000 </r>
       <r>  -11.5471    1.0000 </r>
       <r>  -11.1426    1.0000 </r>
       <r>   -9.3697    1.0000 </r>
       <r>   -9.2539    1.0000 </r>
       <r>   -8.0431    1.0000 </r>
       <r>   -7.1983    1.0000 </r>
       <r>   -6.9056    1.0000 </r>
       <r>   -6.9052    1.0000 </r>
       <r>   -6.7742    1.0000 </r>
       <r>   -6.5091    1.0000 </r>
       <r>   -3.6500    1.0000 </r>
       <r>   -3.5855    1.0000 </r>
       <r>   -3.0397    1.0000 </r>
       <r>   -2.8661    1.0000 </r>
       <r>   -2.8481    1.0000 </r>
       <r>   -1.8663    1.0000 </r>
       <r>   -1.8282    1.0000 </r>
       <r>   -0.8321    1.0000 </r>
       <r>   -0.3111    0.7510 </r>
       <r>    0.2182    0.0000 </r>
       <r>    0.8817    0.0000 </r>
       <r>    1.0011    0.0000 </r>
       <r>    1.2041    0.0000 </r>
       <r>    1.2399    0.0000 </r>
       <r>    1.3800    0.0000 </r>
       <r>    2.0414    0.0000 </r>
       <r>    2.0969    0.0000 </r>
       <r>    3.0442    0.0000 </r>
       <r>    3.6495    0.0000 </r>
       <r>    4.6112    0.0000 </r>
       <r>    4.8655    0.0000 </r>
       <r>    6.6341    0.0000 </r>
       <r>    6.7657    0.0000 </r>
       <r>    6.7676    0.0000 </r>
       <r>    7.1072    0.0000 </r>
       <r>    7.6631    0.0000 </r>
       <r>    7.7284    0.0000 </r>
       <r>    7.7995    0.0000 </r>
       <r>    8.1563    0.0000 </r>
      </set>
      <set comment="kpoint 4">
       <r>  -19.6964    1.0000 </r>
       <r>  -15.8396    1.0000 </r>
       <r>  -15.3662    1.0000 </r>
       <r>  -14.8555    1.0000 </r>
       <r>  -14.8531    1.0000 </r>
       <r>  -13.2091    1.0000 </r>
       <r>  -13.2082    1.0000 </r>
       <r>  -12.7075    1.0000 </r>
       <r>  -12.3434    1.0000 </r>
       <r>  -11.5766    1.0000 </r>
       <r>  -10.9364    1.0000 </r>
       <r>   -9.4089    1.0000 </r>
       <r>   -9.1738    1.0000 </r>
       <r>   -7.9932    1.0000 </r>
       <r>   -7.0596    1.0000 </r>
       <r>   -7.0264    1.0000 </r>
       <r>   -7.0262    1.0000 </r>
       <r>   -6.7350    1.0000 </r>
       <r>   -6.4605    1.0000 </r>
       <r>   -3.8118    1.0000 </r>
       <r>   -3.6687    1.0000 </r>
       <r>   -3.2636    1.0000 </r>
       <r>   -2.8959    1.0000 </r>
       <r>   -2.8806    1.0000 </r>
       <r>   -2.1761    1.0000 </r>
       <r>   -2.1073    1.0000 </r>
       <r>   -1.1378    1.0000 </r>
       <r>   -0.3455    0.8777 </r>
       <r>    0.3657    0.0000 </r>
       <r>    0.9662    0.0000 </r>
       <r>    1.1201    0.0000 </r>
       <r>    1.3035    0.0000 </r>
       <r>    1.3839    0.0000 </r>
       <r>    1.6569    0.0000 </r>
       <r>    2.3231    0.0000 </r>
       <r>    2.3938    0.0000 </r>
       <r>    3.1142    0.0000 </r>
       <r>    3.7131    0.0000 </r>
       <r>    4.7423    0.0000 </r>
       <r>    4.9360    0.0000 </r>
       <r>    6.6555    0.0000 </r>
       <r>    6.9489    0.0000 </r>
       <r>    6.9508    0.0000 </r>
       <r>    7.1481    0.0000 </r>
       <r>    7.6713    0.0000 </r>
       <r>    7.7325    0.0000 </r>
       <r>    7.8986    0.0000 </r>
       <r>    7.9687    0.0000 </r>
      </set>
      <set comment="kpoint 5">
       <r>  -19.6406    1.0000 </r>
       <r>  -15.7958    1.0000 </r>
       <r>  -15.6946    1.0000 </r>
       <r>  -14.9638    1.0000 </r>
       <r>  -14.9618    1.0000 </r>
       <r>  -13.0101    1.0000 </r>
       <r>  -13.0094    1.0000 </r>
       <r>  -12.5810    1.0000 </r>
       <r>  -12.2959    1.0000 </r>
       <r>  -11.6137    1.0000 </r>
       <r>  -10.7588    1.0000 </r>
       <r>   -9.4287    1.0000 </r>
       <r>   -9.0669    1.0000 </r>
       <r>   -7.9244    1.0000 </r>
       <r>   -7.1895    1.0000 </r>
       <r>   -7.1891    1.0000 </r>
       <r>   -6.8916    1.0000 </r>
       <r>   -6.6804    1.0000 </r>
       <r>   -6.3928    1.0000 </r>
       <r>   -4.0321    1.0000 </r>
       <r>   -3.7803    1.0000 </r>
       <r>   -3.5358    1.0000 </r>
       <r>   -2.9344    1.0000 </r>
       <r>   -2.9261    1.0000 </r>
       <r>   -2.5120    1.0000 </r>
       <r>   -2.4076    1.0000 </r>
       <r>   -1.4719    1.0000 </r>
       <r>   -0.4360    0.9927 </r>
       <r>    0.3669    0.0000 </r>
       <r>    1.1751    0.0000 </r>
       <r>    1.2604    0.0000 </r>
       <r>    1.4728    0.0000 </r>
       <r>    1.6167    0.0000 </r>
       <r>    2.0024    0.0000 </r>
       <r>    2.6540    0.0000 </r>
       <r>    2.7016    0.0000 </r>
       <r>    3.2236    0.0000 </r>
       <r>    3.8012    0.0000 </r>
       <r>    4.8915    0.0000 </r>
       <r>    5.0554    0.0000 </r>
       <r>    6.6849    0.0000 </r>
       <r>    7.1733    0.0000 </r>
       <r>    7.2003    0.0000 </r>
       <r>    7.2049    0.0000 </r>
       <r>    7.4269    0.0000 </r>
       <r>    7.6976    0.0000 </r>
       <r>    7.8825    0.0000 </r>
       <r>    8.2448    0.0000 </r>
      </set>
      <set comment="kpoint 6">
       <r>  -19.5690    1.0000 </r>
       <r>  -16.0219    1.0000 </r>
       <r>  -15.7384    1.0000 </r>
       <r>  -15.0717    1.0000 </r>
       <r>  -15.0698    1.0000 </r>
       <r>  -12.8156    1.0000 </r>
       <r>  -12.7872    1.0000 </r>
       <r>  -12.7859    1.0000 </r>
       <r>  -11.8643    1.0000 </r>
       <r>  -11.6552    1.0000 </r>
       <r>  -10.6268    1.0000 </r>
       <r>   -9.4038    1.0000 </r>
       <r>   -8.9376    1.0000 </r>
       <r>   -7.8370    1.0000 </r>
       <r>   -7.3886    1.0000 </r>
       <r>   -7.3882    1.0000 </r>
       <r>   -6.7126    1.0000 </r>
       <r>   -6.6105    1.0000 </r>
       <r>   -6.3063    1.0000 </r>
       <r>   -4.3040    1.0000 </r>
       <r>   -3.9161    1.0000 </r>
       <r>   -3.8355    1.0000 </r>
       <r>   -3.0071    1.0000 </r>
       <r>   -2.9812    1.0000 </r>
       <r>   -2.8282    1.0000 </r>
       <r>   -2.7024    1.0000 </r>
       <r>   -1.8204    1.0000 </r>
       <r>   -0.5528    1.0000 </r>
       <r>    0.3069    0.0000 </r>
       <r>    1.3668    0.0000 </r>
       <r>    1.3977    0.0000 </r>
       <r>    1.7529    0.0000 </r>
       <r>    1.9250    0.0000 </r>
       <r>    2.3965    0.0000 </r>
       <r>    2.9807    0.0000 </r>
       <r>    3.0157    0.0000 </r>
       <r>    3.3903    0.0000 </r>
       <r>    3.9148    0.0000 </r>
       <r>    5.0285    0.0000 </r>
       <r>    5.2385    0.0000 </r>
       <r>    6.7217    0.0000 </r>
       <r>    6.9103    0.0000 </r>
       <r>    7.3259    0.0000 </r>
       <r>    7.5094    0.0000 </r>
       <r>    7.5102    0.0000 </r>
       <r>    7.7090    0.0000 </r>
       <r>    7.8851    0.0000 </r>
       <r>    8.0262    0.0000 </r>
      </set>
      <set comment="kpoint 7">
       <r>  -19.4814    1.0000 </r>
       <r>  -16.3402    1.0000 </r>
       <r>  -15.6703    1.0000 </r>
       <r>  -15.1735    1.0000 </r>
       <r>  -15.1718    1.0000 </r>
       <r>  -13.0438    1.0000 </r>
       <r>  -12.5469    1.0000 </r>
       <r>  -12.5463    1.0000 </r>
       <r>  -11.6981    1.0000 </r>
       <r>  -11.4181    1.0000 </r>
       <r>  -10.5521    1.0000 </r>
       <r>   -9.3172    1.0000 </r>
       <r>   -8.7904    1.0000 </r>
       <r>   -7.7311    1.0000 </r>
       <r>   -7.6174    1.0000 </r>
       <r>   -7.6169    1.0000 </r>
       <r>   -6.5412    1.0000 </r>
       <r>   -6.5257    1.0000 </r>
       <r>   -6.2017    1.0000 </r>
       <r>   -4.6213    1.0000 </r>
       <r>   -4.1481    1.0000 </r>
       <r>   -4.0720    1.0000 </r>
       <r>   -3.2602    1.0000 </r>
       <r>   -3.0501    1.0000 </r>
       <r>   -2.9737    1.0000 </r>
       <r>   -2.9586    1.0000 </r>
       <r>   -2.1710    1.0000 </r>
       <r>   -0.6751    1.0000 </r>
       <r>    0.2316    0.0000 </r>
       <r>    1.5219    0.0000 </r>
       <r>    1.5350    0.0000 </r>
       <r>    2.1024    0.0000 </r>
       <r>    2.2781    0.0000 </r>
       <r>    2.8243    0.0000 </r>
       <r>    3.2101    0.0000 </r>
       <r>    3.3961    0.0000 </r>
       <r>    3.6220    0.0000 </r>
       <r>    4.0570    0.0000 </r>
       <r>    5.1629    0.0000 </r>
       <r>    5.4524    0.0000 </r>
       <r>    6.4602    0.0000 </r>
       <r>    6.7648    0.0000 </r>
       <r>    7.3856    0.0000 </r>
       <r>    7.6166    0.0000 </r>
       <r>    7.7134    0.0000 </r>
       <r>    7.8689    0.0000 </r>
       <r>    7.8732    0.0000 </r>
       <r>    8.0339    0.0000 </r>
      </set>
      <set comment="kpoint 8">
       <r>  -19.3781    1.0000 </r>
       <r>  -16.6482    1.0000 </r>
       <r>  -15.5912    1.0000 </r>
       <r>  -15.2661    1.0000 </r>
       <r>  -15.2646    1.0000 </r>
       <r>  -13.2657    1.0000 </r>
       <r>  -12.2942    1.0000 </r>
       <r>  -12.2936    1.0000 </r>
       <r>  -11.7400    1.0000 </r>
       <r>  -10.9607    1.0000 </r>
       <r>  -10.5293    1.0000 </r>
       <r>   -9.1711    1.0000 </r>
       <r>   -8.6301    1.0000 </r>
       <r>   -7.8690    1.0000 </r>
       <r>   -7.8685    1.0000 </r>
       <r>   -7.6069    1.0000 </r>
       <r>   -6.4265    1.0000 </r>
       <r>   -6.3969    1.0000 </r>
       <r>   -6.0800    1.0000 </r>
       <r>   -4.9774    1.0000 </r>
       <r>   -4.4635    1.0000 </r>
       <r>   -4.2433    1.0000 </r>
       <r>   -3.5888    1.0000 </r>
       <r>   -3.2346    1.0000 </r>
       <r>   -3.0681    1.0000 </r>
       <r>   -3.0340    1.0000 </r>
       <r>   -2.5118    1.0000 </r>
       <r>   -0.7917    1.0000 </r>
       <r>    0.1556    0.0000 </r>
       <r>    1.6650    0.0000 </r>
       <r>    1.6725    0.0000 </r>
       <r>    2.4697    0.0000 </r>
       <r>    2.6583    0.0000 </r>
       <r>    3.2653    0.0000 </r>
       <r>    3.4219    0.0000 </r>
       <r>    3.7855    0.0000 </r>
       <r>    3.8840    0.0000 </r>
       <r>    4.2337    0.0000 </r>
       <r>    5.3070    0.0000 </r>
       <r>    5.6414    0.0000 </r>
       <r>    6.0217    0.0000 </r>
       <r>    6.8101    0.0000 </r>
       <r>    7.2406    0.0000 </r>
       <r>    7.5366    0.0000 </r>
       <r>    7.6875    0.0000 </r>
       <r>    7.8039    0.0000 </r>
       <r>    7.9320    0.0000 </r>
       <r>    8.0399    0.0000 </r>
      </set>
      <set comment="kpoint 9">
       <r>  -19.2591    1.0000 </r>
       <r>  -16.9441    1.0000 </r>
       <r>  -15.5023    1.0000 </r>
       <r>  -15.3473    1.0000 </r>
       <r>  -15.3462    1.0000 </r>
       <r>  -13.4789    1.0000 </r>
       <r>  -12.0340    1.0000 </r>
       <r>  -12.0330    1.0000 </r>
       <r>  -11.7786    1.0000 </r>
       <r>  -10.5411    1.0000 </r>
       <r>  -10.4938    1.0000 </r>
       <r>   -8.9833    1.0000 </r>
       <r>   -8.4625    1.0000 </r>
       <r>   -8.1358    1.0000 </r>
       <r>   -8.1353    1.0000 </r>
       <r>   -7.4645    1.0000 </r>
       <r>   -6.3131    1.0000 </r>
       <r>   -6.2994    1.0000 </r>
       <r>   -5.9428    1.0000 </r>
       <r>   -5.3661    1.0000 </r>
       <r>   -4.7745    1.0000 </r>
       <r>   -4.4259    1.0000 </r>
       <r>   -3.9096    1.0000 </r>
       <r>   -3.4168    1.0000 </r>
       <r>   -3.1476    1.0000 </r>
       <r>   -3.0828    1.0000 </r>
       <r>   -2.8207    1.0000 </r>
       <r>   -0.8965    1.0000 </r>
       <r>    0.0847    0.0000 </r>
       <r>    1.8010    0.0000 </r>
       <r>    1.8067    0.0000 </r>
       <r>    2.8315    0.0000 </r>
       <r>    3.0568    0.0000 </r>
       <r>    3.5839    0.0000 </r>
       <r>    3.7731    0.0000 </r>
       <r>    4.1378    0.0000 </r>
       <r>    4.1754    0.0000 </r>
       <r>    4.4483    0.0000 </r>
       <r>    5.4470    0.0000 </r>
       <r>    5.5431    0.0000 </r>
       <r>    5.8530    0.0000 </r>
       <r>    6.8273    0.0000 </r>
       <r>    6.9988    0.0000 </r>
       <r>    7.4506    0.0000 </r>
       <r>    7.5397    0.0000 </r>
       <r>    7.6373    0.0000 </r>
       <r>    7.7793    0.0000 </r>
       <r>    7.7891    0.0000 </r>
      </set>
      <set comment="kpoint 10">
       <r>  -19.1243    1.0000 </r>
       <r>  -17.2271    1.0000 </r>
       <r>  -15.4227    1.0000 </r>
       <r>  -15.4154    1.0000 </r>
       <r>  -15.3985    1.0000 </r>
       <r>  -13.6808    1.0000 </r>
       <r>  -11.8183    1.0000 </r>
       <r>  -11.7697    1.0000 </r>
       <r>  -11.7656    1.0000 </r>
       <r>  -10.5679    1.0000 </r>
       <r>  -10.0208    1.0000 </r>
       <r>   -8.7738    1.0000 </r>
       <r>   -8.4096    1.0000 </r>
       <r>   -8.4092    1.0000 </r>
       <r>   -8.2941    1.0000 </r>
       <r>   -7.3045    1.0000 </r>
       <r>   -6.2638    1.0000 </r>
       <r>   -6.1864    1.0000 </r>
       <r>   -5.7948    1.0000 </r>
       <r>   -5.7809    1.0000 </r>
       <r>   -5.0738    1.0000 </r>
       <r>   -4.6156    1.0000 </r>
       <r>   -4.2078    1.0000 </r>
       <r>   -3.5441    1.0000 </r>
       <r>   -3.3031    1.0000 </r>
       <r>   -3.1248    1.0000 </r>
       <r>   -3.0268    1.0000 </r>
       <r>   -0.9865    1.0000 </r>
       <r>    0.0223    0.0000 </r>
       <r>    1.9269    0.0000 </r>
       <r>    1.9322    0.0000 </r>
       <r>    3.1744    0.0000 </r>
       <r>    3.4684    0.0000 </r>
       <r>    3.8131    0.0000 </r>
       <r>    4.2252    0.0000 </r>
       <r>    4.3823    0.0000 </r>
       <r>    4.5573    0.0000 </r>
       <r>    4.6879    0.0000 </r>
       <r>    5.1652    0.0000 </r>
       <r>    5.5922    0.0000 </r>
       <r>    5.9064    0.0000 </r>
       <r>    6.6812    0.0000 </r>
       <r>    6.9675    0.0000 </r>
       <r>    7.1797    0.0000 </r>
       <r>    7.2284    0.0000 </r>
       <r>    7.4929    0.0000 </r>
       <r>    7.6150    0.0000 </r>
       <r>    7.8877    0.0000 </r>
      </set>
      <set comment="kpoint 11">
       <r>  -18.9740    1.0000 </r>
       <r>  -17.4965    1.0000 </r>
       <r>  -15.4738    1.0000 </r>
       <r>  -15.4715    1.0000 </r>
       <r>  -15.3010    1.0000 </r>
       <r>  -13.8677    1.0000 </r>
       <r>  -11.8435    1.0000 </r>
       <r>  -11.5115    1.0000 </r>
       <r>  -11.5110    1.0000 </r>
       <r>  -10.5990    1.0000 </r>
       <r>   -9.5420    1.0000 </r>
       <r>   -8.6798    1.0000 </r>
       <r>   -8.6792    1.0000 </r>
       <r>   -8.5603    1.0000 </r>
       <r>   -8.1339    1.0000 </r>
       <r>   -7.1278    1.0000 </r>
       <r>   -6.2915    1.0000 </r>
       <r>   -6.2177    1.0000 </r>
       <r>   -6.0469    1.0000 </r>
       <r>   -5.6573    1.0000 </r>
       <r>   -5.3380    1.0000 </r>
       <r>   -4.8086    1.0000 </r>
       <r>   -4.4729    1.0000 </r>
       <r>   -3.6491    1.0000 </r>
       <r>   -3.5176    1.0000 </r>
       <r>   -3.1599    1.0000 </r>
       <r>   -3.1092    1.0000 </r>
       <r>   -1.0598    1.0000 </r>
       <r>   -0.0296    0.0005 </r>
       <r>    2.0371    0.0000 </r>
       <r>    2.0424    0.0000 </r>
       <r>    3.4898    0.0000 </r>
       <r>    3.8882    0.0000 </r>
       <r>    4.0550    0.0000 </r>
       <r>    4.5583    0.0000 </r>
       <r>    4.6518    0.0000 </r>
       <r>    4.9208    0.0000 </r>
       <r>    4.9213    0.0000 </r>
       <r>    4.9441    0.0000 </r>
       <r>    5.5949    0.0000 </r>
       <r>    5.9808    0.0000 </r>
       <r>    6.4920    0.0000 </r>
       <r>    6.8908    0.0000 </r>
       <r>    6.9654    0.0000 </r>
       <r>    7.0469    0.0000 </r>
       <r>    7.1508    0.0000 </r>
       <r>    7.5689    0.0000 </r>
       <r>    7.9195    0.0000 </r>
      </set>
      <set comment="kpoint 12">
       <r>  -18.8083    1.0000 </r>
       <r>  -17.7519    1.0000 </r>
       <r>  -15.5159    1.0000 </r>
       <r>  -15.5140    1.0000 </r>
       <r>  -15.1994    1.0000 </r>
       <r>  -14.0332    1.0000 </r>
       <r>  -11.8656    1.0000 </r>
       <r>  -11.2713    1.0000 </r>
       <r>  -11.2712    1.0000 </r>
       <r>  -10.6268    1.0000 </r>
       <r>   -9.0598    1.0000 </r>
       <r>   -8.9310    1.0000 </r>
       <r>   -8.9304    1.0000 </r>
       <r>   -8.3615    1.0000 </r>
       <r>   -7.9933    1.0000 </r>
       <r>   -6.9364    1.0000 </r>
       <r>   -6.6714    1.0000 </r>
       <r>   -6.3629    1.0000 </r>
       <r>   -5.8955    1.0000 </r>
       <r>   -5.7231    1.0000 </r>
       <r>   -5.3808    1.0000 </r>
       <r>   -5.0024    1.0000 </r>
       <r>   -4.6925    1.0000 </r>
       <r>   -3.8647    1.0000 </r>
       <r>   -3.5827    1.0000 </r>
       <r>   -3.1872    1.0000 </r>
       <r>   -3.1493    1.0000 </r>
       <r>   -1.1155    1.0000 </r>
       <r>   -0.0695    0.0031 </r>
       <r>    2.1260    0.0000 </r>
       <r>    2.1316    0.0000 </r>
       <r>    3.7731    0.0000 </r>
       <r>    4.2892    0.0000 </r>
       <r>    4.3090    0.0000 </r>
       <r>    4.5266    0.0000 </r>
       <r>    4.8059    0.0000 </r>
       <r>    5.0763    0.0000 </r>
       <r>    5.2496    0.0000 </r>
       <r>    5.2774    0.0000 </r>
       <r>    5.5138    0.0000 </r>
       <r>    6.0751    0.0000 </r>
       <r>    6.3076    0.0000 </r>
       <r>    6.7059    0.0000 </r>
       <r>    6.7488    0.0000 </r>
       <r>    6.7765    0.0000 </r>
       <r>    7.1047    0.0000 </r>
       <r>    7.5087    0.0000 </r>
       <r>    7.6529    0.0000 </r>
      </set>
      <set comment="kpoint 13">
       <r>  -18.6271    1.0000 </r>
       <r>  -17.9929    1.0000 </r>
       <r>  -15.5442    1.0000 </r>
       <r>  -15.5424    1.0000 </r>
       <r>  -15.1100    1.0000 </r>
       <r>  -14.1653    1.0000 </r>
       <r>  -11.8807    1.0000 </r>
       <r>  -11.0725    1.0000 </r>
       <r>  -11.0725    1.0000 </r>
       <r>  -10.6471    1.0000 </r>
       <r>   -9.1382    1.0000 </r>
       <r>   -9.1375    1.0000 </r>
       <r>   -8.5760    1.0000 </r>
       <r>   -8.2001    1.0000 </r>
       <r>   -7.8865    1.0000 </r>
       <r>   -7.1370    1.0000 </r>
       <r>   -6.7390    1.0000 </r>
       <r>   -6.4401    1.0000 </r>
       <r>   -5.9647    1.0000 </r>
       <r>   -5.7332    1.0000 </r>
       <r>   -5.2423    1.0000 </r>
       <r>   -5.1939    1.0000 </r>
       <r>   -4.8522    1.0000 </r>
       <r>   -4.0884    1.0000 </r>
       <r>   -3.5808    1.0000 </r>
       <r>   -3.2058    1.0000 </r>
       <r>   -3.1724    1.0000 </r>
       <r>   -1.1529    1.0000 </r>
       <r>   -0.0966    0.0092 </r>
       <r>    2.1887    0.0000 </r>
       <r>    2.1944    0.0000 </r>
       <r>    4.0134    0.0000 </r>
       <r>    4.3110    0.0000 </r>
       <r>    4.5762    0.0000 </r>
       <r>    4.7135    0.0000 </r>
       <r>    4.9566    0.0000 </r>
       <r>    5.1172    0.0000 </r>
       <r>    5.4763    0.0000 </r>
       <r>    5.5084    0.0000 </r>
       <r>    5.7242    0.0000 </r>
       <r>    6.0238    0.0000 </r>
       <r>    6.2412    0.0000 </r>
       <r>    6.4106    0.0000 </r>
       <r>    6.5507    0.0000 </r>
       <r>    6.6906    0.0000 </r>
       <r>    7.1577    0.0000 </r>
       <r>    7.2859    0.0000 </r>
       <r>    7.2937    0.0000 </r>
      </set>
      <set comment="kpoint 14">
       <r>  -18.4307    1.0000 </r>
       <r>  -18.2192    1.0000 </r>
       <r>  -15.5585    1.0000 </r>
       <r>  -15.5567    1.0000 </r>
       <r>  -15.0537    1.0000 </r>
       <r>  -14.2430    1.0000 </r>
       <r>  -11.8884    1.0000 </r>
       <r>  -10.9534    1.0000 </r>
       <r>  -10.9533    1.0000 </r>
       <r>  -10.6578    1.0000 </r>
       <r>   -9.2618    1.0000 </r>
       <r>   -9.2611    1.0000 </r>
       <r>   -8.1151    1.0000 </r>
       <r>   -8.0842    1.0000 </r>
       <r>   -7.8281    1.0000 </r>
       <r>   -7.6114    1.0000 </r>
       <r>   -6.6019    1.0000 </r>
       <r>   -6.4239    1.0000 </r>
       <r>   -6.2029    1.0000 </r>
       <r>   -5.5611    1.0000 </r>
       <r>   -5.3809    1.0000 </r>
       <r>   -5.1326    1.0000 </r>
       <r>   -4.9370    1.0000 </r>
       <r>   -4.2355    1.0000 </r>
       <r>   -3.5720    1.0000 </r>
       <r>   -3.2151    1.0000 </r>
       <r>   -3.1833    1.0000 </r>
       <r>   -1.1716    1.0000 </r>
       <r>   -0.1102    0.0153 </r>
       <r>    2.2213    0.0000 </r>
       <r>    2.2272    0.0000 </r>
       <r>    4.1288    0.0000 </r>
       <r>    4.3065    0.0000 </r>
       <r>    4.6733    0.0000 </r>
       <r>    4.9131    0.0000 </r>
       <r>    5.0355    0.0000 </r>
       <r>    5.2741    0.0000 </r>
       <r>    5.4936    0.0000 </r>
       <r>    5.6174    0.0000 </r>
       <r>    5.7288    0.0000 </r>
       <r>    6.1600    0.0000 </r>
       <r>    6.1882    0.0000 </r>
       <r>    6.3437    0.0000 </r>
       <r>    6.4238    0.0000 </r>
       <r>    6.7711    0.0000 </r>
       <r>    6.8622    0.0000 </r>
       <r>    7.1287    0.0000 </r>
       <r>    7.1389    0.0000 </r>
      </set>
      <set comment="kpoint 15">
       <r>  -19.7443    1.0000 </r>
       <r>  -15.8778    1.0000 </r>
       <r>  -14.8980    1.0000 </r>
       <r>  -14.8947    1.0000 </r>
       <r>  -14.6322    1.0000 </r>
       <r>  -13.5075    1.0000 </r>
       <r>  -13.2483    1.0000 </r>
       <r>  -13.2460    1.0000 </r>
       <r>  -12.0414    1.0000 </r>
       <r>  -11.5417    1.0000 </r>
       <r>  -11.1999    1.0000 </r>
       <r>   -9.3599    1.0000 </r>
       <r>   -9.2695    1.0000 </r>
       <r>   -8.0532    1.0000 </r>
       <r>   -7.2283    1.0000 </r>
       <r>   -6.9133    1.0000 </r>
       <r>   -6.8153    1.0000 </r>
       <r>   -6.8149    1.0000 </r>
       <r>   -6.5188    1.0000 </r>
       <r>   -3.6166    1.0000 </r>
       <r>   -3.5689    1.0000 </r>
       <r>   -2.9595    1.0000 </r>
       <r>   -2.9303    1.0000 </r>
       <r>   -2.8023    1.0000 </r>
       <r>   -1.7981    1.0000 </r>
       <r>   -1.7561    1.0000 </r>
       <r>   -0.7571    1.0000 </r>
       <r>   -0.3159    0.7718 </r>
       <r>    0.1588    0.0000 </r>
       <r>    0.8854    0.0000 </r>
       <r>    0.9770    0.0000 </r>
       <r>    1.1601    0.0000 </r>
       <r>    1.2699    0.0000 </r>
       <r>    1.2901    0.0000 </r>
       <r>    1.9682    0.0000 </r>
       <r>    2.0344    0.0000 </r>
       <r>    3.0309    0.0000 </r>
       <r>    3.6366    0.0000 </r>
       <r>    4.5831    0.0000 </r>
       <r>    4.8523    0.0000 </r>
       <r>    6.6622    0.0000 </r>
       <r>    6.6642    0.0000 </r>
       <r>    6.7624    0.0000 </r>
       <r>    7.0986    0.0000 </r>
       <r>    7.6621    0.0000 </r>
       <r>    7.7193    0.0000 </r>
       <r>    7.7641    0.0000 </r>
       <r>    8.2204    0.0000 </r>
      </set>
      <set comment="kpoint 16">
       <r>  -19.7124    1.0000 </r>
       <r>  -15.8523    1.0000 </r>
       <r>  -15.1989    1.0000 </r>
       <r>  -15.0264    1.0000 </r>
       <r>  -14.6396    1.0000 </r>
       <r>  -13.4467    1.0000 </r>
       <r>  -13.0663    1.0000 </r>
       <r>  -12.8973    1.0000 </r>
       <r>  -12.2581    1.0000 </r>
       <r>  -11.5685    1.0000 </r>
       <r>  -11.0037    1.0000 </r>
       <r>   -9.3997    1.0000 </r>
       <r>   -9.2026    1.0000 </r>
       <r>   -8.0130    1.0000 </r>
       <r>   -7.1129    1.0000 </r>
       <r>   -7.0421    1.0000 </r>
       <r>   -6.8817    1.0000 </r>
       <r>   -6.7837    1.0000 </r>
       <r>   -6.4799    1.0000 </r>
       <r>   -3.7463    1.0000 </r>
       <r>   -3.6372    1.0000 </r>
       <r>   -3.1383    1.0000 </r>
       <r>   -3.0083    1.0000 </r>
       <r>   -2.7816    1.0000 </r>
       <r>   -2.0740    1.0000 </r>
       <r>   -1.9900    1.0000 </r>
       <r>   -1.0258    1.0000 </r>
       <r>   -0.3406    0.8630 </r>
       <r>    0.3597    0.0000 </r>
       <r>    0.8935    0.0000 </r>
       <r>    1.0800    0.0000 </r>
       <r>    1.2239    0.0000 </r>
       <r>    1.3987    0.0000 </r>
       <r>    1.5131    0.0000 </r>
       <r>    2.1941    0.0000 </r>
       <r>    2.3085    0.0000 </r>
       <r>    3.0860    0.0000 </r>
       <r>    3.6878    0.0000 </r>
       <r>    4.6919    0.0000 </r>
       <r>    4.9065    0.0000 </r>
       <r>    6.6804    0.0000 </r>
       <r>    6.7796    0.0000 </r>
       <r>    6.9413    0.0000 </r>
       <r>    7.1323    0.0000 </r>
       <r>    7.6732    0.0000 </r>
       <r>    7.7478    0.0000 </r>
       <r>    7.8965    0.0000 </r>
       <r>    7.9952    0.0000 </r>
      </set>
      <set comment="kpoint 17">
       <r>  -19.6645    1.0000 </r>
       <r>  -15.8143    1.0000 </r>
       <r>  -15.5250    1.0000 </r>
       <r>  -15.1561    1.0000 </r>
       <r>  -14.6924    1.0000 </r>
       <r>  -13.3148    1.0000 </r>
       <r>  -12.8601    1.0000 </r>
       <r>  -12.5029    1.0000 </r>
       <r>  -12.4834    1.0000 </r>
       <r>  -11.6050    1.0000 </r>
       <r>  -10.8158    1.0000 </r>
       <r>   -9.4338    1.0000 </r>
       <r>   -9.1065    1.0000 </r>
       <r>   -7.9538    1.0000 </r>
       <r>   -7.2134    1.0000 </r>
       <r>   -6.9948    1.0000 </r>
       <r>   -6.9601    1.0000 </r>
       <r>   -6.7367    1.0000 </r>
       <r>   -6.4217    1.0000 </r>
       <r>   -3.9359    1.0000 </r>
       <r>   -3.7359    1.0000 </r>
       <r>   -3.3889    1.0000 </r>
       <r>   -3.0810    1.0000 </r>
       <r>   -2.7752    1.0000 </r>
       <r>   -2.3947    1.0000 </r>
       <r>   -2.2691    1.0000 </r>
       <r>   -1.3358    1.0000 </r>
       <r>   -0.4307    0.9911 </r>
       <r>    0.4453    0.0000 </r>
       <r>    0.9993    0.0000 </r>
       <r>    1.2562    0.0000 </r>
       <r>    1.3715    0.0000 </r>
       <r>    1.5621    0.0000 </r>
       <r>    1.8247    0.0000 </r>
       <r>    2.4895    0.0000 </r>
       <r>    2.6160    0.0000 </r>
       <r>    3.1773    0.0000 </r>
       <r>    3.7636    0.0000 </r>
       <r>    4.8333    0.0000 </r>
       <r>    5.0000    0.0000 </r>
       <r>    6.7058    0.0000 </r>
       <r>    6.9670    0.0000 </r>
       <r>    7.1704    0.0000 </r>
       <r>    7.1909    0.0000 </r>
       <r>    7.5805    0.0000 </r>
       <r>    7.7027    0.0000 </r>
       <r>    7.8706    0.0000 </r>
       <r>    8.0923    0.0000 </r>
      </set>
      <set comment="kpoint 18">
       <r>  -19.6008    1.0000 </r>
       <r>  -15.8545    1.0000 </r>
       <r>  -15.7629    1.0000 </r>
       <r>  -15.2801    1.0000 </r>
       <r>  -14.7703    1.0000 </r>
       <r>  -13.1328    1.0000 </r>
       <r>  -12.7158    1.0000 </r>
       <r>  -12.6347    1.0000 </r>
       <r>  -12.0780    1.0000 </r>
       <r>  -11.6480    1.0000 </r>
       <r>  -10.6587    1.0000 </r>
       <r>   -9.4381    1.0000 </r>
       <r>   -8.9854    1.0000 </r>
       <r>   -7.8758    1.0000 </r>
       <r>   -7.4207    1.0000 </r>
       <r>   -7.1495    1.0000 </r>
       <r>   -6.7876    1.0000 </r>
       <r>   -6.6744    1.0000 </r>
       <r>   -6.3446    1.0000 </r>
       <r>   -4.1802    1.0000 </r>
       <r>   -3.8615    1.0000 </r>
       <r>   -3.6769    1.0000 </r>
       <r>   -3.1581    1.0000 </r>
       <r>   -2.7995    1.0000 </r>
       <r>   -2.7156    1.0000 </r>
       <r>   -2.5580    1.0000 </r>
       <r>   -1.6699    1.0000 </r>
       <r>   -0.5558    1.0000 </r>
       <r>    0.4244    0.0000 </r>
       <r>    1.1317    0.0000 </r>
       <r>    1.4875    0.0000 </r>
       <r>    1.5979    0.0000 </r>
       <r>    1.7946    0.0000 </r>
       <r>    2.1952    0.0000 </r>
       <r>    2.8260    0.0000 </r>
       <r>    2.9134    0.0000 </r>
       <r>    3.3224    0.0000 </r>
       <r>    3.8647    0.0000 </r>
       <r>    4.9740    0.0000 </r>
       <r>    5.1534    0.0000 </r>
       <r>    6.7390    0.0000 </r>
       <r>    7.0949    0.0000 </r>
       <r>    7.2214    0.0000 </r>
       <r>    7.3254    0.0000 </r>
       <r>    7.4927    0.0000 </r>
       <r>    7.7173    0.0000 </r>
       <r>    7.9120    0.0000 </r>
       <r>    8.0839    0.0000 </r>
      </set>
      <set comment="kpoint 19">
       <r>  -19.5212    1.0000 </r>
       <r>  -16.1767    1.0000 </r>
       <r>  -15.7012    1.0000 </r>
       <r>  -15.3949    1.0000 </r>
       <r>  -14.8571    1.0000 </r>
       <r>  -12.9432    1.0000 </r>
       <r>  -12.9174    1.0000 </r>
       <r>  -12.3948    1.0000 </r>
       <r>  -11.6942    1.0000 </r>
       <r>  -11.6388    1.0000 </r>
       <r>  -10.5509    1.0000 </r>
       <r>   -9.3890    1.0000 </r>
       <r>   -8.8442    1.0000 </r>
       <r>   -7.7792    1.0000 </r>
       <r>   -7.6581    1.0000 </r>
       <r>   -7.3401    1.0000 </r>
       <r>   -6.6136    1.0000 </r>
       <r>   -6.5969    1.0000 </r>
       <r>   -6.2490    1.0000 </r>
       <r>   -4.4729    1.0000 </r>
       <r>   -4.0092    1.0000 </r>
       <r>   -3.9846    1.0000 </r>
       <r>   -3.2491    1.0000 </r>
       <r>   -3.0666    1.0000 </r>
       <r>   -2.8730    1.0000 </r>
       <r>   -2.7577    1.0000 </r>
       <r>   -2.0139    1.0000 </r>
       <r>   -0.6896    1.0000 </r>
       <r>    0.3653    0.0000 </r>
       <r>    1.2458    0.0000 </r>
       <r>    1.6965    0.0000 </r>
       <r>    1.9047    0.0000 </r>
       <r>    2.1015    0.0000 </r>
       <r>    2.6071    0.0000 </r>
       <r>    3.1252    0.0000 </r>
       <r>    3.2241    0.0000 </r>
       <r>    3.5410    0.0000 </r>
       <r>    3.9938    0.0000 </r>
       <r>    5.1061    0.0000 </r>
       <r>    5.3560    0.0000 </r>
       <r>    6.6822    0.0000 </r>
       <r>    6.7791    0.0000 </r>
       <r>    7.3631    0.0000 </r>
       <r>    7.5343    0.0000 </r>
       <r>    7.7269    0.0000 </r>
       <r>    7.7517    0.0000 </r>
       <r>    7.8502    0.0000 </r>
       <r>    7.9582    0.0000 </r>
      </set>
      <set comment="kpoint 20">
       <r>  -19.4258    1.0000 </r>
       <r>  -16.4900    1.0000 </r>
       <r>  -15.6277    1.0000 </r>
       <r>  -15.4985    1.0000 </r>
       <r>  -14.9431    1.0000 </r>
       <r>  -13.1654    1.0000 </r>
       <r>  -12.6804    1.0000 </r>
       <r>  -12.1435    1.0000 </r>
       <r>  -11.7403    1.0000 </r>
       <r>  -11.1870    1.0000 </r>
       <r>  -10.4991    1.0000 </r>
       <r>   -9.2766    1.0000 </r>
       <r>   -8.6878    1.0000 </r>
       <r>   -7.9189    1.0000 </r>
       <r>   -7.6641    1.0000 </r>
       <r>   -7.5600    1.0000 </r>
       <r>   -6.5048    1.0000 </r>
       <r>   -6.4574    1.0000 </r>
       <r>   -6.1358    1.0000 </r>
       <r>   -4.8080    1.0000 </r>
       <r>   -4.2996    1.0000 </r>
       <r>   -4.1748    1.0000 </r>
       <r>   -3.4582    1.0000 </r>
       <r>   -3.2643    1.0000 </r>
       <r>   -3.1169    1.0000 </r>
       <r>   -2.7961    1.0000 </r>
       <r>   -2.3550    1.0000 </r>
       <r>   -0.8184    1.0000 </r>
       <r>    0.2961    0.0000 </r>
       <r>    1.3556    0.0000 </r>
       <r>    1.8721    0.0000 </r>
       <r>    2.2596    0.0000 </r>
       <r>    2.4518    0.0000 </r>
       <r>    3.0462    0.0000 </r>
       <r>    3.3320    0.0000 </r>
       <r>    3.6017    0.0000 </r>
       <r>    3.8081    0.0000 </r>
       <r>    4.1581    0.0000 </r>
       <r>    5.2454    0.0000 </r>
       <r>    5.5624    0.0000 </r>
       <r>    6.2320    0.0000 </r>
       <r>    6.8238    0.0000 </r>
       <r>    7.3617    0.0000 </r>
       <r>    7.5340    0.0000 </r>
       <r>    7.6527    0.0000 </r>
       <r>    7.7528    0.0000 </r>
       <r>    7.8995    0.0000 </r>
       <r>    8.1160    0.0000 </r>
      </set>
      <set comment="kpoint 21">
       <r>  -19.3146    1.0000 </r>
       <r>  -16.7920    1.0000 </r>
       <r>  -15.5918    1.0000 </r>
       <r>  -15.5416    1.0000 </r>
       <r>  -15.0230    1.0000 </r>
       <r>  -13.3810    1.0000 </r>
       <r>  -12.4287    1.0000 </r>
       <r>  -11.8848    1.0000 </r>
       <r>  -11.7836    1.0000 </r>
       <r>  -10.7252    1.0000 </r>
       <r>  -10.4917    1.0000 </r>
       <r>   -9.1109    1.0000 </r>
       <r>   -8.5216    1.0000 </r>
       <r>   -8.1961    1.0000 </r>
       <r>   -7.8018    1.0000 </r>
       <r>   -7.5308    1.0000 </r>
       <r>   -6.3982    1.0000 </r>
       <r>   -6.3393    1.0000 </r>
       <r>   -6.0063    1.0000 </r>
       <r>   -5.1786    1.0000 </r>
       <r>   -4.6135    1.0000 </r>
       <r>   -4.3533    1.0000 </r>
       <r>   -3.7647    1.0000 </r>
       <r>   -3.3628    1.0000 </r>
       <r>   -3.3156    1.0000 </r>
       <r>   -2.8469    1.0000 </r>
       <r>   -2.6663    1.0000 </r>
       <r>   -0.9353    1.0000 </r>
       <r>    0.2273    0.0000 </r>
       <r>    1.4656    0.0000 </r>
       <r>    2.0343    0.0000 </r>
       <r>    2.6232    0.0000 </r>
       <r>    2.8250    0.0000 </r>
       <r>    3.4653    0.0000 </r>
       <r>    3.5668    0.0000 </r>
       <r>    3.9811    0.0000 </r>
       <r>    4.0799    0.0000 </r>
       <r>    4.3676    0.0000 </r>
       <r>    5.3942    0.0000 </r>
       <r>    5.6686    0.0000 </r>
       <r>    5.8631    0.0000 </r>
       <r>    6.8618    0.0000 </r>
       <r>    7.1146    0.0000 </r>
       <r>    7.3719    0.0000 </r>
       <r>    7.5947    0.0000 </r>
       <r>    7.7156    0.0000 </r>
       <r>    7.7814    0.0000 </r>
       <r>    8.0983    0.0000 </r>
      </set>
      <set comment="kpoint 22">
       <r>  -19.1877    1.0000 </r>
       <r>  -17.0815    1.0000 </r>
       <r>  -15.6693    1.0000 </r>
       <r>  -15.4490    1.0000 </r>
       <r>  -15.0935    1.0000 </r>
       <r>  -13.5871    1.0000 </r>
       <r>  -12.1690    1.0000 </r>
       <r>  -11.8247    1.0000 </r>
       <r>  -11.6202    1.0000 </r>
       <r>  -10.5101    1.0000 </r>
       <r>  -10.2554    1.0000 </r>
       <r>   -8.9121    1.0000 </r>
       <r>   -8.4820    1.0000 </r>
       <r>   -8.3517    1.0000 </r>
       <r>   -8.0576    1.0000 </r>
       <r>   -7.3796    1.0000 </r>
       <r>   -6.2782    1.0000 </r>
       <r>   -6.2779    1.0000 </r>
       <r>   -5.8628    1.0000 </r>
       <r>   -5.5791    1.0000 </r>
       <r>   -4.9198    1.0000 </r>
       <r>   -4.5409    1.0000 </r>
       <r>   -4.0624    1.0000 </r>
       <r>   -3.4992    1.0000 </r>
       <r>   -3.4096    1.0000 </r>
       <r>   -3.0495    1.0000 </r>
       <r>   -2.8046    1.0000 </r>
       <r>   -1.0368    1.0000 </r>
       <r>    0.1639    0.0000 </r>
       <r>    1.5731    0.0000 </r>
       <r>    2.1842    0.0000 </r>
       <r>    2.9770    0.0000 </r>
       <r>    3.2129    0.0000 </r>
       <r>    3.7088    0.0000 </r>
       <r>    4.0001    0.0000 </r>
       <r>    4.2818    0.0000 </r>
       <r>    4.4000    0.0000 </r>
       <r>    4.6201    0.0000 </r>
       <r>    5.3383    0.0000 </r>
       <r>    5.5515    0.0000 </r>
       <r>    5.8851    0.0000 </r>
       <r>    6.7825    0.0000 </r>
       <r>    6.9881    0.0000 </r>
       <r>    7.1100    0.0000 </r>
       <r>    7.3594    0.0000 </r>
       <r>    7.6526    0.0000 </r>
       <r>    7.7800    0.0000 </r>
       <r>    7.8624    0.0000 </r>
      </set>
      <set comment="kpoint 23">
       <r>  -19.0452    1.0000 </r>
       <r>  -17.3578    1.0000 </r>
       <r>  -15.7340    1.0000 </r>
       <r>  -15.3486    1.0000 </r>
       <r>  -15.1528    1.0000 </r>
       <r>  -13.7808    1.0000 </r>
       <r>  -11.9099    1.0000 </r>
       <r>  -11.8570    1.0000 </r>
       <r>  -11.3591    1.0000 </r>
       <r>  -10.5381    1.0000 </r>
       <r>   -9.7796    1.0000 </r>
       <r>   -8.7675    1.0000 </r>
       <r>   -8.6994    1.0000 </r>
       <r>   -8.3179    1.0000 </r>
       <r>   -8.1859    1.0000 </r>
       <r>   -7.2112    1.0000 </r>
       <r>   -6.2827    1.0000 </r>
       <r>   -6.1445    1.0000 </r>
       <r>   -6.0037    1.0000 </r>
       <r>   -5.7140    1.0000 </r>
       <r>   -5.2078    1.0000 </r>
       <r>   -4.7339    1.0000 </r>
       <r>   -4.3339    1.0000 </r>
       <r>   -3.6064    1.0000 </r>
       <r>   -3.4985    1.0000 </r>
       <r>   -3.2963    1.0000 </r>
       <r>   -2.8401    1.0000 </r>
       <r>   -1.1212    1.0000 </r>
       <r>    0.1090    0.0000 </r>
       <r>    1.6728    0.0000 </r>
       <r>    2.3178    0.0000 </r>
       <r>    3.3088    0.0000 </r>
       <r>    3.6086    0.0000 </r>
       <r>    3.9424    0.0000 </r>
       <r>    4.4352    0.0000 </r>
       <r>    4.5338    0.0000 </r>
       <r>    4.7391    0.0000 </r>
       <r>    4.9000    0.0000 </r>
       <r>    5.0141    0.0000 </r>
       <r>    5.6255    0.0000 </r>
       <r>    5.9418    0.0000 </r>
       <r>    6.5882    0.0000 </r>
       <r>    6.8523    0.0000 </r>
       <r>    6.9955    0.0000 </r>
       <r>    7.0810    0.0000 </r>
       <r>    7.4692    0.0000 </r>
       <r>    7.6240    0.0000 </r>
       <r>    7.9424    0.0000 </r>
      </set>
      <set comment="kpoint 24">
       <r>  -18.8872    1.0000 </r>
       <r>  -17.6202    1.0000 </r>
       <r>  -15.7846    1.0000 </r>
       <r>  -15.2460    1.0000 </r>
       <r>  -15.1993    1.0000 </r>
       <r>  -13.9572    1.0000 </r>
       <r>  -11.8874    1.0000 </r>
       <r>  -11.6556    1.0000 </r>
       <r>  -11.1093    1.0000 </r>
       <r>  -10.5665    1.0000 </r>
       <r>   -9.2994    1.0000 </r>
       <r>   -9.0403    1.0000 </r>
       <r>   -8.5702    1.0000 </r>
       <r>   -8.4907    1.0000 </r>
       <r>   -8.0343    1.0000 </r>
       <r>   -7.0268    1.0000 </r>
       <r>   -6.4478    1.0000 </r>
       <r>   -6.3434    1.0000 </r>
       <r>   -5.9987    1.0000 </r>
       <r>   -5.6393    1.0000 </r>
       <r>   -5.4005    1.0000 </r>
       <r>   -4.9287    1.0000 </r>
       <r>   -4.5676    1.0000 </r>
       <r>   -3.7632    1.0000 </r>
       <r>   -3.5802    1.0000 </r>
       <r>   -3.4215    1.0000 </r>
       <r>   -2.8627    1.0000 </r>
       <r>   -1.1876    1.0000 </r>
       <r>    0.0647    0.0000 </r>
       <r>    1.7584    0.0000 </r>
       <r>    2.4296    0.0000 </r>
       <r>    3.6112    0.0000 </r>
       <r>    3.9934    0.0000 </r>
       <r>    4.2046    0.0000 </r>
       <r>    4.5967    0.0000 </r>
       <r>    4.7354    0.0000 </r>
       <r>    4.9960    0.0000 </r>
       <r>    5.0621    0.0000 </r>
       <r>    5.2071    0.0000 </r>
       <r>    5.5615    0.0000 </r>
       <r>    6.0464    0.0000 </r>
       <r>    6.3921    0.0000 </r>
       <r>    6.6179    0.0000 </r>
       <r>    6.7769    0.0000 </r>
       <r>    7.0931    0.0000 </r>
       <r>    7.1178    0.0000 </r>
       <r>    7.5710    0.0000 </r>
       <r>    7.7492    0.0000 </r>
      </set>
      <set comment="kpoint 25">
       <r>  -18.7137    1.0000 </r>
       <r>  -17.8684    1.0000 </r>
       <r>  -15.8210    1.0000 </r>
       <r>  -15.2345    1.0000 </r>
       <r>  -15.1471    1.0000 </r>
       <r>  -14.1076    1.0000 </r>
       <r>  -11.9074    1.0000 </r>
[...]
       <r>   -7.8772    1.0000 </r>
       <r>   -7.5324    1.0000 </r>
       <r>   -7.4447    1.0000 </r>
       <r>   -7.0761    1.0000 </r>
       <r>   -6.7637    1.0000 </r>
       <r>   -6.5107    1.0000 </r>
       <r>   -6.0620    1.0000 </r>
       <r>   -5.8030    1.0000 </r>
       <r>   -5.5504    1.0000 </r>
       <r>   -4.7138    1.0000 </r>
       <r>   -4.3941    1.0000 </r>
       <r>   -3.9476    1.0000 </r>
       <r>   -3.8313    1.0000 </r>
       <r>   -2.6104    1.0000 </r>
       <r>   -0.8113    1.0000 </r>
       <r>   -0.2304    0.3216 </r>
       <r>    2.5229    0.0000 </r>
       <r>    3.0825    0.0000 </r>
       <r>    3.6772    0.0000 </r>
       <r>    3.8781    0.0000 </r>
       <r>    4.4080    0.0000 </r>
       <r>    4.5926    0.0000 </r>
       <r>    5.1202    0.0000 </r>
       <r>    5.2990    0.0000 </r>
       <r>    5.4272    0.0000 </r>
       <r>    5.6898    0.0000 </r>
       <r>    5.7447    0.0000 </r>
       <r>    5.9432    0.0000 </r>
       <r>    6.1095    0.0000 </r>
       <r>    6.2179    0.0000 </r>
       <r>    6.4991    0.0000 </r>
       <r>    6.8022    0.0000 </r>
       <r>    7.0828    0.0000 </r>
       <r>    7.4692    0.0000 </r>
       <r>    7.8276    0.0000 </r>
      </set>
      <set comment="kpoint 75">
       <r>  -17.8569    1.0000 </r>
       <r>  -17.8528    1.0000 </r>
       <r>  -17.8504    1.0000 </r>
       <r>  -14.6244    1.0000 </r>
       <r>  -14.6230    1.0000 </r>
       <r>  -12.9854    1.0000 </r>
       <r>  -12.9852    1.0000 </r>
       <r>  -12.5489    1.0000 </r>
       <r>  -10.8174    1.0000 </r>
       <r>   -8.9766    1.0000 </r>
       <r>   -8.9730    1.0000 </r>
       <r>   -8.2009    1.0000 </r>
       <r>   -8.1986    1.0000 </r>
       <r>   -8.1985    1.0000 </r>
       <r>   -7.5918    1.0000 </r>
       <r>   -7.4308    1.0000 </r>
       <r>   -6.8031    1.0000 </r>
       <r>   -6.8024    1.0000 </r>
       <r>   -6.8023    1.0000 </r>
       <r>   -5.9020    1.0000 </r>
       <r>   -5.8180    1.0000 </r>
       <r>   -5.7179    1.0000 </r>
       <r>   -4.6000    1.0000 </r>
       <r>   -4.5063    1.0000 </r>
       <r>   -3.8861    1.0000 </r>
       <r>   -3.8754    1.0000 </r>
       <r>   -2.6437    1.0000 </r>
       <r>   -0.5259    0.9999 </r>
       <r>   -0.5122    0.9998 </r>
       <r>    2.8347    0.0000 </r>
       <r>    2.8448    0.0000 </r>
       <r>    3.7605    0.0000 </r>
       <r>    3.7659    0.0000 </r>
       <r>    4.3299    0.0000 </r>
       <r>    4.5641    0.0000 </r>
       <r>    5.3051    0.0000 </r>
       <r>    5.3143    0.0000 </r>
       <r>    5.6506    0.0000 </r>
       <r>    5.7126    0.0000 </r>
       <r>    5.7135    0.0000 </r>
       <r>    5.7220    0.0000 </r>
       <r>    6.1323    0.0000 </r>
       <r>    6.1432    0.0000 </r>
       <r>    6.3386    0.0000 </r>
       <r>    6.9280    0.0000 </r>
       <r>    7.0094    0.0000 </r>
       <r>    7.4261    0.0000 </r>
       <r>    7.9387    0.0000 </r>
      </set>
     </set>
    </set>
   </array>
  </eigenvalues>
  <separator name="orbital magnetization" >
   <v name="MAGDIPOLOUT">      0.00000000      0.00000000      0.00000000</v>
  </separator>
  <dos>
   <i name="efermi">     -0.26319434 </i>
   <total>
    <array>
     <dimension dim="1">gridpoints</dimension>
     <dimension dim="2">spin</dimension>
     <field>energy</field>
     <field>total</field>
     <field>integrated</field>
     <set>
      <set comment="spin 1">
       <r>   -21.1769     0.0000     0.0000 </r>
       <r>   -21.0736     0.0000     0.0000 </r>
       <r>   -20.9703     0.0000     0.0000 </r>
       <r>   -20.8670     0.0000     0.0000 </r>
       <r>   -20.7637     0.0000     0.0000 </r>
       <r>   -20.6603     0.0000     0.0000 </r>
       <r>   -20.5570     0.0000     0.0000 </r>
       <r>   -20.4537     0.0000     0.0000 </r>
       <r>   -20.3504     0.0000     0.0000 </r>
       <r>   -20.2471     0.0000     0.0000 </r>
       <r>   -20.1438     0.0000     0.0000 </r>
       <r>   -20.0405     0.0000     0.0000 </r>
       <r>   -19.9372     0.0024     0.0002 </r>
       <r>   -19.8339     0.0789     0.0084 </r>
       <r>   -19.7306     0.5337     0.0635 </r>
       <r>   -19.6273     1.0954     0.1767 </r>
       <r>   -19.5240     1.2428     0.3051 </r>
       <r>   -19.4207     1.2516     0.4344 </r>
       <r>   -19.3174     1.2531     0.5638 </r>
       <r>   -19.2141     1.2546     0.6934 </r>
       <r>   -19.1108     1.2564     0.8232 </r>
       <r>   -19.0075     1.2588     0.9532 </r>
       <r>   -18.9042     1.2591     1.0833 </r>
       <r>   -18.8009     1.2592     1.2134 </r>
       <r>   -18.6976     1.2680     1.3444 </r>
       <r>   -18.5943     1.2616     1.4747 </r>
       <r>   -18.4910     1.2647     1.6054 </r>
       <r>   -18.3877     1.2787     1.7375 </r>
       <r>   -18.2844     1.2539     1.8670 </r>
       <r>   -18.1811     1.2949     2.0008 </r>
       <r>   -18.0778     1.2488     2.1298 </r>
       <r>   -17.9745     1.3072     2.2648 </r>
       <r>   -17.8712     1.2452     2.3934 </r>
       <r>   -17.7679     1.3212     2.5299 </r>
       <r>   -17.6646     1.2387     2.6579 </r>
       <r>   -17.5613     1.3383     2.7961 </r>
       <r>   -17.4580     1.2353     2.9237 </r>
       <r>   -17.3547     1.3432     3.0625 </r>
       <r>   -17.2514     1.2559     3.1922 </r>
       <r>   -17.1480     1.3131     3.3279 </r>
       <r>   -17.0447     1.3213     3.4644 </r>
       <r>   -16.9414     1.2471     3.5932 </r>
       <r>   -16.8381     1.3900     3.7368 </r>
       <r>   -16.7348     1.2303     3.8639 </r>
       <r>   -16.6315     1.3655     4.0049 </r>
       <r>   -16.5282     1.3276     4.1421 </r>
       <r>   -16.4249     1.2539     4.2716 </r>
       <r>   -16.3216     1.4333     4.4197 </r>
       <r>   -16.2183     1.2524     4.5491 </r>
       <r>   -16.1150     1.3489     4.6884 </r>
       <r>   -16.0117     1.4480     4.8380 </r>
       <r>   -15.9084     1.5583     4.9990 </r>
       <r>   -15.8051     2.5387     5.2612 </r>
       <r>   -15.7018     2.9290     5.5638 </r>
       <r>   -15.5985     2.8826     5.8616 </r>
       <r>   -15.4952     3.1730     6.1894 </r>
       <r>   -15.3919     3.1082     6.5104 </r>
       <r>   -15.2886     3.1354     6.8343 </r>
       <r>   -15.1853     3.5661     7.2027 </r>
       <r>   -15.0820     3.7740     7.5926 </r>
       <r>   -14.9787     3.7869     7.9838 </r>
       <r>   -14.8754     3.2739     8.3220 </r>
       <r>   -14.7721     2.4632     8.5764 </r>
       <r>   -14.6688     2.2128     8.8050 </r>
       <r>   -14.5655     2.2797     9.0405 </r>
       <r>   -14.4622     1.8938     9.2362 </r>
       <r>   -14.3589     2.1032     9.4534 </r>
       <r>   -14.2556     3.1137     9.7751 </r>
       <r>   -14.1523     2.9129    10.0760 </r>
       <r>   -14.0490     2.4937    10.3336 </r>
       <r>   -13.9457     2.2641    10.5675 </r>
       <r>   -13.8424     1.6445    10.7374 </r>
       <r>   -13.7391     1.7145    10.9145 </r>
       <r>   -13.6357     1.4843    11.0678 </r>
       <r>   -13.5324     1.4333    11.2159 </r>
       <r>   -13.4291     1.9392    11.4162 </r>
       <r>   -13.3258     2.0017    11.6230 </r>
       <r>   -13.2225     1.9997    11.8296 </r>
       <r>   -13.1192     1.9399    12.0300 </r>
       <r>   -13.0159     1.9108    12.2274 </r>
       <r>   -12.9126     1.9242    12.4261 </r>
       <r>   -12.8093     2.1503    12.6483 </r>
       <r>   -12.7060     2.3784    12.8940 </r>
       <r>   -12.6027     2.4265    13.1446 </r>
       <r>   -12.4994     2.6580    13.4192 </r>
       <r>   -12.3961     3.1620    13.7459 </r>
       <r>   -12.2928     3.2098    14.0774 </r>
       <r>   -12.1895     3.3396    14.4224 </r>
       <r>   -12.0862     3.4065    14.7743 </r>
       <r>   -11.9829     3.8063    15.1675 </r>
       <r>   -11.8796     4.2845    15.6101 </r>
       <r>   -11.7763     4.1205    16.0358 </r>
       <r>   -11.6730     3.3449    16.3813 </r>
       <r>   -11.5697     2.8195    16.6726 </r>
       <r>   -11.4664     1.9780    16.8769 </r>
       <r>   -11.3631     1.4046    17.0220 </r>
       <r>   -11.2598     1.2387    17.1500 </r>
       <r>   -11.1565     1.3232    17.2867 </r>
       <r>   -11.0532     1.2816    17.4191 </r>
       <r>   -10.9499     1.3563    17.5592 </r>
       <r>   -10.8466     1.4782    17.7119 </r>
       <r>   -10.7433     1.7109    17.8886 </r>
       <r>   -10.6400     2.7011    18.1677 </r>
       <r>   -10.5367     3.7507    18.5551 </r>
       <r>   -10.4334     4.1658    18.9855 </r>
       <r>   -10.3301     3.4330    19.3401 </r>
       <r>   -10.2267     3.0188    19.6519 </r>
       <r>   -10.1234     2.8395    19.9453 </r>
       <r>   -10.0201     2.6857    20.2227 </r>
       <r>    -9.9168     2.3920    20.4698 </r>
       <r>    -9.8135     2.5320    20.7314 </r>
       <r>    -9.7102     2.3326    20.9723 </r>
       <r>    -9.6069     2.0463    21.1837 </r>
       <r>    -9.5036     3.1000    21.5040 </r>
       <r>    -9.4003     4.2566    21.9437 </r>
       <r>    -9.2970     4.3047    22.3884 </r>
       <r>    -9.1937     4.0896    22.8108 </r>
       <r>    -9.0904     3.6293    23.1858 </r>
       <r>    -8.9871     3.5247    23.5499 </r>
       <r>    -8.8838     3.8843    23.9511 </r>
       <r>    -8.7805     4.0412    24.3686 </r>
       <r>    -8.6772     3.6160    24.7421 </r>
       <r>    -8.5739     3.7382    25.1283 </r>
       <r>    -8.4706     3.8434    25.5253 </r>
       <r>    -8.3673     3.4268    25.8793 </r>
       <r>    -8.2640     3.6429    26.2557 </r>
       <r>    -8.1607     3.7345    26.6414 </r>
       <r>    -8.0574     3.6547    27.0190 </r>
       <r>    -7.9541     3.9952    27.4317 </r>
       <r>    -7.8508     4.8378    27.9315 </r>
       <r>    -7.7475     4.7240    28.4195 </r>
       <r>    -7.6442     4.8720    28.9227 </r>
       <r>    -7.5409     5.0136    29.4407 </r>
       <r>    -7.4376     4.5525    29.9109 </r>
       <r>    -7.3343     4.2538    30.3504 </r>
       <r>    -7.2310     4.0364    30.7674 </r>
       <r>    -7.1277     4.4889    31.2311 </r>
       <r>    -7.0244     4.5995    31.7062 </r>
       <r>    -6.9211     5.2301    32.2465 </r>
       <r>    -6.8178     5.8075    32.8464 </r>
       <r>    -6.7144     5.8909    33.4550 </r>
       <r>    -6.6111     5.7709    34.0511 </r>
       <r>    -6.5078     6.1840    34.6900 </r>
       <r>    -6.4045     7.3837    35.4527 </r>
       <r>    -6.3012     7.4383    36.2211 </r>
       <r>    -6.1979     6.0050    36.8414 </r>
       <r>    -6.0946     4.3551    37.2913 </r>
       <r>    -5.9913     4.0327    37.7079 </r>
       <r>    -5.8880     4.0726    38.1286 </r>
       <r>    -5.7847     4.1056    38.5528 </r>
       <r>    -5.6814     4.1068    38.9770 </r>
       <r>    -5.5781     3.9624    39.3863 </r>
       <r>    -5.4748     3.3639    39.7338 </r>
       <r>    -5.3715     3.0671    40.0507 </r>
       <r>    -5.2682     3.8332    40.4466 </r>
       <r>    -5.1649     4.2666    40.8874 </r>
       <r>    -5.0616     4.1060    41.3116 </r>
       <r>    -4.9583     3.5583    41.6791 </r>
       <r>    -4.8550     3.7990    42.0716 </r>
       <r>    -4.7517     3.5701    42.4404 </r>
       <r>    -4.6484     3.6480    42.8172 </r>
       <r>    -4.5451     3.4382    43.1724 </r>
       <r>    -4.4418     3.5382    43.5379 </r>
       <r>    -4.3385     4.0144    43.9526 </r>
       <r>    -4.2352     4.7740    44.4458 </r>
       <r>    -4.1319     5.2708    44.9903 </r>
       <r>    -4.0286     5.5407    45.5627 </r>
       <r>    -3.9253     5.4674    46.1275 </r>
       <r>    -3.8220     5.4234    46.6877 </r>
       <r>    -3.7187     6.5590    47.3653 </r>
       <r>    -3.6154     7.3116    48.1206 </r>
       <r>    -3.5121     6.6213    48.8046 </r>
       <r>    -3.4088     4.4685    49.2662 </r>
       <r>    -3.3055     3.2596    49.6029 </r>
       <r>    -3.2021     3.3061    49.9444 </r>
       <r>    -3.0988     3.1660    50.2715 </r>
       <r>    -2.9955     3.1176    50.5936 </r>
       <r>    -2.8922     3.3274    50.9373 </r>
       <r>    -2.7889     3.6411    51.3134 </r>
       <r>    -2.6856     3.0480    51.6283 </r>
       <r>    -2.5823     2.9451    51.9325 </r>
       <r>    -2.4790     3.0951    52.2523 </r>
       <r>    -2.3757     2.5864    52.5195 </r>
       <r>    -2.2724     2.7914    52.8078 </r>
       <r>    -2.1691     2.6200    53.0785 </r>
       <r>    -2.0658     2.2975    53.3158 </r>
       <r>    -1.9625     2.2679    53.5501 </r>
       <r>    -1.8592     2.0603    53.7629 </r>
       <r>    -1.7559     2.0276    53.9724 </r>
       <r>    -1.6526     2.1464    54.1941 </r>
       <r>    -1.5493     1.9540    54.3960 </r>
       <r>    -1.4460     1.7168    54.5733 </r>
       <r>    -1.3427     1.8124    54.7605 </r>
       <r>    -1.2394     1.8293    54.9495 </r>
       <r>    -1.1361     1.8667    55.1423 </r>
       <r>    -1.0328     1.6982    55.3178 </r>
       <r>    -0.9295     1.3258    55.4547 </r>
       <r>    -0.8262     1.0447    55.5626 </r>
       <r>    -0.7229     1.0045    55.6664 </r>
       <r>    -0.6196     0.7323    55.7421 </r>
       <r>    -0.5163     0.7198    55.8164 </r>
       <r>    -0.4130     0.7030    55.8890 </r>
       <r>    -0.3097     0.7785    55.9695 </r>
       <r>    -0.2064     0.5620    56.0275 </r>
       <r>    -0.1031     0.4765    56.0767 </r>
       <r>     0.0002     1.0491    56.1851 </r>
       <r>     0.1035     1.4758    56.3376 </r>
       <r>     0.2068     1.4401    56.4863 </r>
       <r>     0.3102     1.9745    56.6903 </r>
       <r>     0.4135     2.3919    56.9374 </r>
       <r>     0.5168     1.8831    57.1319 </r>
       <r>     0.6201     2.1399    57.3530 </r>
       <r>     0.7234     2.3329    57.5940 </r>
       <r>     0.8267     2.2628    57.8277 </r>
       <r>     0.9300     2.6559    58.1021 </r>
       <r>     1.0333     3.0389    58.4160 </r>
       <r>     1.1366     3.5221    58.7799 </r>
       <r>     1.2399     3.2725    59.1179 </r>
       <r>     1.3432     2.9120    59.4187 </r>
       <r>     1.4465     3.1289    59.7420 </r>
       <r>     1.5498     2.7741    60.0285 </r>
       <r>     1.6531     2.2352    60.2594 </r>
       <r>     1.7564     2.4782    60.5154 </r>
       <r>     1.8597     2.9358    60.8187 </r>
       <r>     1.9630     2.3364    61.0601 </r>
       <r>     2.0663     2.4903    61.3173 </r>
       <r>     2.1696     2.7745    61.6039 </r>
       <r>     2.2729     2.5189    61.8641 </r>
       <r>     2.3762     2.5976    62.1325 </r>
       <r>     2.4795     2.6724    62.4086 </r>
       <r>     2.5828     2.5379    62.6707 </r>
       <r>     2.6861     2.7829    62.9582 </r>
       <r>     2.7894     2.7406    63.2413 </r>
       <r>     2.8927     2.8767    63.5385 </r>
       <r>     2.9960     3.0358    63.8521 </r>
       <r>     3.0993     4.1931    64.2853 </r>
       <r>     3.2026     3.8621    64.6842 </r>
       <r>     3.3059     3.9883    65.0962 </r>
       <r>     3.4092     4.3214    65.5426 </r>
       <r>     3.5125     4.2525    65.9819 </r>
       <r>     3.6158     4.8735    66.4854 </r>
       <r>     3.7192     5.3512    67.0382 </r>
       <r>     3.8225     4.9299    67.5474 </r>
       <r>     3.9258     4.8961    68.0532 </r>
       <r>     4.0291     5.3174    68.6025 </r>
       <r>     4.1324     5.3683    69.1571 </r>
       <r>     4.2357     5.5389    69.7293 </r>
       <r>     4.3390     5.8614    70.3348 </r>
       <r>     4.4423     5.2637    70.8785 </r>
       <r>     4.5456     5.3212    71.4282 </r>
       <r>     4.6489     6.5064    72.1004 </r>
       <r>     4.7522     5.8796    72.7077 </r>
       <r>     4.8555     4.9031    73.2142 </r>
       <r>     4.9588     7.2016    73.9582 </r>
       <r>     5.0621     7.8229    74.7663 </r>
       <r>     5.1654     6.8377    75.4727 </r>
       <r>     5.2687     7.1242    76.2086 </r>
       <r>     5.3720     6.6822    76.8989 </r>
       <r>     5.4753     6.2471    77.5443 </r>
       <r>     5.5786     6.7878    78.2455 </r>
       <r>     5.6819     7.0467    78.9734 </r>
       <r>     5.7852     6.2554    79.6196 </r>
       <r>     5.8885     5.3137    80.1685 </r>
       <r>     5.9918     5.1378    80.6993 </r>
       <r>     6.0951     5.5109    81.2686 </r>
       <r>     6.1984     5.9826    81.8866 </r>
       <r>     6.3017     5.9514    82.5014 </r>
       <r>     6.4050     5.1410    83.0325 </r>
       <r>     6.5083     5.2148    83.5712 </r>
       <r>     6.6116     6.1903    84.2106 </r>
       <r>     6.7149     7.5354    84.9891 </r>
       <r>     6.8182     7.6305    85.7773 </r>
       <r>     6.9215     7.6915    86.5719 </r>
       <r>     7.0248     7.4252    87.3389 </r>
       <r>     7.1281     7.8821    88.1532 </r>
       <r>     7.2315     8.7705    89.0592 </r>
       <r>     7.3348     8.2648    89.9130 </r>
       <r>     7.4381     8.0035    90.7398 </r>
       <r>     7.5414     8.6425    91.6326 </r>
       <r>     7.6447     9.2036    92.5833 </r>
       <r>     7.7480     9.9306    93.6092 </r>
       <r>     7.8513     8.8766    94.5262 </r>
       <r>     7.9546     6.9498    95.2441 </r>
       <r>     8.0579     4.2520    95.6833 </r>
       <r>     8.1612     2.0624    95.8964 </r>
       <r>     8.2645     0.6994    95.9686 </r>
       <r>     8.3678     0.2172    95.9911 </r>
       <r>     8.4711     0.0760    95.9989 </r>
       <r>     8.5744     0.0101    96.0000 </r>
       <r>     8.6777     0.0003    96.0000 </r>
       <r>     8.7810     0.0000    96.0000 </r>
       <r>     8.8843     0.0000    96.0000 </r>
       <r>     8.9876     0.0000    96.0000 </r>
       <r>     9.0909     0.0000    96.0000 </r>
       <r>     9.1942     0.0000    96.0000 </r>
       <r>     9.2975     0.0000    96.0000 </r>
       <r>     9.4008     0.0000    96.0000 </r>
       <r>     9.5041     0.0000    96.0000 </r>
       <r>     9.6074     0.0000    96.0000 </r>
       <r>     9.7107     0.0000    96.0000 </r>
       <r>     9.8140     0.0000    96.0000 </r>
      </set>
     </set>
    </array>
   </total>
  </dos>
 </calculation>
 <structure name="finalpos" >
  <crystal>
   <varray name="basis" >
    <v>       4.31194049       2.48950000       0.00000000 </v>
    <v>      -4.31194049       2.48950000       0.00000000 </v>
    <v>       0.00000000       0.00000000      15.00000000 </v>
   </varray>
   <i name="volume">    322.03727516 </i>
   <varray name="rec_basis" >
    <v>       0.11595707       0.20084354       0.00000000 </v>
    <v>      -0.11595707       0.20084354       0.00000000 </v>
    <v>       0.00000000       0.00000000       0.06666667 </v>
   </varray>
  </crystal>
  <varray name="positions" >
   <v>       0.66852949       0.00003174       0.10149087 </v>
   <v>       0.33150126       0.00003174       0.10149087 </v>
   <v>       0.99996826       0.33146951       0.10149087 </v>
   <v>       0.99996826       0.66849774       0.10149087 </v>
   <v>       0.33150126       0.33146951       0.10149087 </v>
   <v>       0.66852949       0.66849774       0.10149087 </v>
   <v>       0.66666600       0.33333300       0.08845522 </v>
   <v>       0.33333300       0.66666600       0.11442406 </v>
   <v>       0.16665358       0.33330815       0.33456864 </v>
   <v>       0.33333052       0.16666476       0.33446624 </v>
   <v>       0.16665358       0.83334542       0.33456864 </v>
   <v>       0.33333300       0.66666600       0.33462602 </v>
   <v>       0.66666600       0.33333300       0.33444483 </v>
   <v>       0.83333424       0.16666476       0.33446624 </v>
   <v>       0.66669085       0.83334542       0.33456864 </v>
   <v>       0.83333424       0.66666848       0.33446624 </v>
  </varray>
 </structure>
</modeling>
