  16  16   0   4
  0.2012733E+02  0.4979000E-09  0.4979000E-09  0.1500000E-08  0.5000000E-15
  1.000000000000000E-004
  CAR 
 Lattice                                 
      9.72922740    -21.11385029  301     -0.28588330      1.00000000
    -21.114  0.0000E+00  0.0000E+00
    -21.011  0.0000E+00  0.0000E+00
    -20.908  0.0000E+00  0.0000E+00
    -20.805  0.0000E+00  0.0000E+00
    -20.703  0.0000E+00  0.0000E+00
    -20.600  0.0000E+00  0.0000E+00
    -20.497  0.0000E+00  0.0000E+00
    -20.394  0.0000E+00  0.0000E+00
    -20.291  0.1172E-18  0.1205E-19
    -20.189  0.9130E-14  0.9387E-15
    -20.086  0.8041E-10  0.8268E-11
    -19.983  0.1004E-06  0.1033E-07
    -19.880  0.1926E-04  0.1990E-05
    -19.777  0.6248E-03  0.6623E-04
    -19.675  0.4160E-02  0.4939E-03
    -19.572  0.8606E-02  0.1379E-02
    -19.469  0.9527E-02  0.2358E-02
    -19.366  0.1022E-01  0.3409E-02
    -19.263  0.8892E-02  0.4323E-02
    -19.160  0.1115E-01  0.5469E-02
    -19.058  0.8741E-02  0.6367E-02
    -18.955  0.9314E-02  0.7325E-02
    -18.852  0.1227E-01  0.8587E-02
    -18.749  0.7766E-02  0.9385E-02
    -18.646  0.8754E-02  0.1028E-01
    -18.544  0.1273E-01  0.1159E-01
    -18.441  0.1038E-01  0.1266E-01
    -18.338  0.6103E-02  0.1329E-01
    -18.235  0.1037E-01  0.1436E-01
    -18.132  0.1390E-01  0.1578E-01
    -18.030  0.9148E-02  0.1672E-01
    -17.927  0.7532E-02  0.1750E-01
    -17.824  0.7296E-02  0.1825E-01
    -17.721  0.1476E-01  0.1977E-01
    -17.618  0.1251E-01  0.2105E-01
    -17.515  0.6711E-02  0.2174E-01
    -17.413  0.7530E-02  0.2252E-01
    -17.310  0.9281E-02  0.2347E-01
    -17.207  0.1414E-01  0.2492E-01
    -17.104  0.1297E-01  0.2626E-01
    -17.001  0.8756E-02  0.2716E-01
    -16.899  0.4618E-02  0.2763E-01
    -16.796  0.9364E-02  0.2860E-01
    -16.693  0.1446E-01  0.3008E-01
    -16.590  0.1287E-01  0.3141E-01
    -16.487  0.1058E-01  0.3249E-01
    -16.385  0.8955E-02  0.3341E-01
    -16.282  0.5289E-02  0.3396E-01
    -16.179  0.7662E-02  0.3475E-01
    -16.076  0.1839E-01  0.3664E-01
    -15.973  0.1551E-01  0.3823E-01
    -15.871  0.1784E-01  0.4007E-01
    -15.768  0.2026E-01  0.4215E-01
    -15.665  0.2113E-01  0.4432E-01
    -15.562  0.1986E-01  0.4636E-01
    -15.459  0.2636E-01  0.4907E-01
    -15.356  0.3340E-01  0.5251E-01
    -15.254  0.2640E-01  0.5522E-01
    -15.151  0.2644E-01  0.5794E-01
    -15.048  0.2734E-01  0.6075E-01
    -14.945  0.2072E-01  0.6288E-01
    -14.842  0.1859E-01  0.6479E-01
    -14.740  0.2101E-01  0.6695E-01
    -14.637  0.2177E-01  0.6919E-01
    -14.534  0.1722E-01  0.7096E-01
    -14.431  0.1930E-01  0.7294E-01
    -14.328  0.1592E-01  0.7458E-01
    -14.226  0.1968E-01  0.7660E-01
    -14.123  0.3059E-01  0.7975E-01
    -14.020  0.2469E-01  0.8229E-01
    -13.917  0.1311E-01  0.8364E-01
    -13.814  0.1044E-01  0.8471E-01
    -13.712  0.8052E-02  0.8554E-01
    -13.609  0.8638E-02  0.8642E-01
    -13.506  0.1537E-01  0.8801E-01
    -13.403  0.1709E-01  0.8976E-01
    -13.300  0.1317E-01  0.9112E-01
    -13.197  0.1240E-01  0.9239E-01
    -13.095  0.1517E-01  0.9395E-01
    -12.992  0.1670E-01  0.9567E-01
    -12.889  0.1205E-01  0.9691E-01
    -12.786  0.1657E-01  0.9861E-01
    -12.683  0.1866E-01  0.1005E+00
    -12.581  0.2169E-01  0.1028E+00
    -12.478  0.2874E-01  0.1057E+00
    -12.375  0.2307E-01  0.1081E+00
    -12.272  0.2775E-01  0.1109E+00
    -12.169  0.2616E-01  0.1136E+00
    -12.067  0.2613E-01  0.1163E+00
    -11.964  0.4043E-01  0.1205E+00
    -11.861  0.3385E-01  0.1240E+00
    -11.758  0.2258E-01  0.1263E+00
    -11.655  0.2102E-01  0.1284E+00
    -11.552  0.1823E-01  0.1303E+00
    -11.450  0.1558E-01  0.1319E+00
    -11.347  0.9643E-02  0.1329E+00
    -11.244  0.6977E-02  0.1336E+00
    -11.141  0.1010E-01  0.1347E+00
    -11.038  0.1039E-01  0.1357E+00
    -10.936  0.1169E-01  0.1369E+00
    -10.833  0.1536E-01  0.1385E+00
    -10.730  0.2019E-01  0.1406E+00
    -10.627  0.1786E-01  0.1424E+00
    -10.524  0.2689E-01  0.1452E+00
    -10.422  0.4214E-01  0.1495E+00
    -10.319  0.2956E-01  0.1526E+00
    -10.216  0.1387E-01  0.1540E+00
    -10.113  0.9225E-02  0.1549E+00
    -10.010  0.2141E-01  0.1571E+00
     -9.908  0.3379E-01  0.1606E+00
     -9.805  0.2126E-01  0.1628E+00
     -9.702  0.9998E-02  0.1638E+00
     -9.599  0.1585E-01  0.1654E+00
     -9.496  0.3042E-01  0.1686E+00
     -9.393  0.3511E-01  0.1722E+00
     -9.291  0.3111E-01  0.1754E+00
     -9.188  0.3785E-01  0.1793E+00
     -9.085  0.2939E-01  0.1823E+00
     -8.982  0.1850E-01  0.1842E+00
     -8.879  0.3145E-01  0.1874E+00
     -8.777  0.4097E-01  0.1916E+00
     -8.674  0.2470E-01  0.1942E+00
     -8.571  0.1477E-01  0.1957E+00
     -8.468  0.2950E-01  0.1987E+00
     -8.365  0.4238E-01  0.2031E+00
     -8.263  0.3205E-01  0.2064E+00
     -8.160  0.1634E-01  0.2081E+00
     -8.057  0.2896E-01  0.2110E+00
     -7.954  0.2594E-01  0.2137E+00
     -7.851  0.3155E-01  0.2170E+00
     -7.749  0.5290E-01  0.2224E+00
     -7.646  0.3902E-01  0.2264E+00
     -7.543  0.2778E-01  0.2293E+00
     -7.440  0.2736E-01  0.2321E+00
     -7.337  0.3769E-01  0.2359E+00
     -7.234  0.4008E-01  0.2401E+00
     -7.132  0.3116E-01  0.2433E+00
     -7.029  0.2976E-01  0.2463E+00
     -6.926  0.3634E-01  0.2501E+00
     -6.823  0.4621E-01  0.2548E+00
     -6.720  0.4952E-01  0.2599E+00
     -6.618  0.5711E-01  0.2658E+00
     -6.515  0.5692E-01  0.2716E+00
     -6.412  0.5402E-01  0.2772E+00
     -6.309  0.4977E-01  0.2823E+00
     -6.206  0.4371E-01  0.2868E+00
     -6.104  0.3377E-01  0.2903E+00
     -6.001  0.3260E-01  0.2936E+00
     -5.898  0.3078E-01  0.2968E+00
     -5.795  0.3110E-01  0.3000E+00
     -5.692  0.3988E-01  0.3041E+00
     -5.590  0.3033E-01  0.3072E+00
     -5.487  0.1535E-01  0.3088E+00
     -5.384  0.2511E-01  0.3114E+00
     -5.281  0.3897E-01  0.3154E+00
     -5.178  0.3597E-01  0.3191E+00
     -5.075  0.2392E-01  0.3215E+00
     -4.973  0.2766E-01  0.3244E+00
     -4.870  0.3836E-01  0.3283E+00
     -4.767  0.2809E-01  0.3312E+00
     -4.664  0.1729E-01  0.3330E+00
     -4.561  0.2508E-01  0.3356E+00
     -4.459  0.3937E-01  0.3396E+00
     -4.356  0.3930E-01  0.3436E+00
     -4.253  0.3565E-01  0.3473E+00
     -4.150  0.3834E-01  0.3513E+00
     -4.047  0.3937E-01  0.3553E+00
     -3.945  0.4398E-01  0.3598E+00
     -3.842  0.5023E-01  0.3650E+00
     -3.739  0.5596E-01  0.3707E+00
     -3.636  0.5642E-01  0.3765E+00
     -3.533  0.4541E-01  0.3812E+00
     -3.430  0.3151E-01  0.3844E+00
     -3.328  0.2503E-01  0.3870E+00
     -3.225  0.2563E-01  0.3897E+00
     -3.122  0.2060E-01  0.3918E+00
     -3.019  0.2630E-01  0.3945E+00
     -2.916  0.3240E-01  0.3978E+00
     -2.814  0.2392E-01  0.4003E+00
     -2.711  0.1850E-01  0.4022E+00
     -2.608  0.1803E-01  0.4040E+00
     -2.505  0.3114E-01  0.4072E+00
     -2.402  0.3651E-01  0.4110E+00
     -2.300  0.1784E-01  0.4128E+00
     -2.197  0.1389E-01  0.4142E+00
     -2.094  0.1979E-01  0.4163E+00
     -1.991  0.1682E-01  0.4180E+00
     -1.888  0.1674E-01  0.4197E+00
     -1.786  0.1666E-01  0.4214E+00
     -1.683  0.1608E-01  0.4231E+00
     -1.580  0.1430E-01  0.4246E+00
     -1.477  0.1973E-01  0.4266E+00
     -1.374  0.1507E-01  0.4281E+00
     -1.271  0.9069E-02  0.4291E+00
     -1.169  0.1302E-01  0.4304E+00
     -1.066  0.1370E-01  0.4318E+00
     -0.963  0.1357E-01  0.4332E+00
     -0.860  0.1140E-01  0.4344E+00
     -0.757  0.5325E-02  0.4349E+00
     -0.655  0.2313E-02  0.4352E+00
     -0.552  0.5262E-02  0.4357E+00
     -0.449  0.8386E-02  0.4366E+00
     -0.346  0.5781E-02  0.4372E+00
     -0.243  0.5442E-02  0.4377E+00
     -0.141  0.6249E-02  0.4384E+00
     -0.038  0.6812E-02  0.4391E+00
      0.065  0.5633E-02  0.4397E+00
      0.168  0.1030E-01  0.4407E+00
      0.271  0.1721E-01  0.4425E+00
      0.373  0.2108E-01  0.4446E+00
      0.476  0.2154E-01  0.4469E+00
      0.579  0.1625E-01  0.4485E+00
      0.682  0.1002E-01  0.4496E+00
      0.785  0.1831E-01  0.4514E+00
      0.888  0.2163E-01  0.4537E+00
      0.990  0.1205E-01  0.4549E+00
      1.093  0.1180E-01  0.4561E+00
      1.196  0.2674E-01  0.4589E+00
      1.299  0.3610E-01  0.4626E+00
      1.402  0.3061E-01  0.4657E+00
      1.504  0.2372E-01  0.4682E+00
      1.607  0.1580E-01  0.4698E+00
      1.710  0.1316E-01  0.4711E+00
      1.813  0.2008E-01  0.4732E+00
      1.916  0.2202E-01  0.4755E+00
      2.018  0.2755E-01  0.4783E+00
      2.121  0.2537E-01  0.4809E+00
      2.224  0.1832E-01  0.4828E+00
      2.327  0.1976E-01  0.4848E+00
      2.430  0.1195E-01  0.4861E+00
      2.533  0.1713E-01  0.4878E+00
      2.635  0.2988E-01  0.4909E+00
      2.738  0.2970E-01  0.4939E+00
      2.841  0.2406E-01  0.4964E+00
      2.944  0.1842E-01  0.4983E+00
      3.047  0.1738E-01  0.5001E+00
      3.149  0.3136E-01  0.5033E+00
      3.252  0.4114E-01  0.5076E+00
      3.355  0.3564E-01  0.5112E+00
      3.458  0.2811E-01  0.5141E+00
      3.561  0.3700E-01  0.5179E+00
      3.663  0.4671E-01  0.5227E+00
      3.766  0.3787E-01  0.5266E+00
      3.869  0.3733E-01  0.5304E+00
      3.972  0.3783E-01  0.5343E+00
      4.075  0.3810E-01  0.5382E+00
      4.177  0.4311E-01  0.5427E+00
      4.280  0.4988E-01  0.5478E+00
      4.383  0.4875E-01  0.5528E+00
      4.486  0.3624E-01  0.5565E+00
      4.589  0.4071E-01  0.5607E+00
      4.692  0.5894E-01  0.5668E+00
      4.794  0.4207E-01  0.5711E+00
      4.897  0.4025E-01  0.5753E+00
      5.000  0.5394E-01  0.5808E+00
      5.103  0.6203E-01  0.5872E+00
      5.206  0.6141E-01  0.5935E+00
      5.308  0.5366E-01  0.5990E+00
      5.411  0.4291E-01  0.6034E+00
      5.514  0.4771E-01  0.6083E+00
      5.617  0.5584E-01  0.6141E+00
      5.720  0.5474E-01  0.6197E+00
      5.822  0.4551E-01  0.6244E+00
      5.925  0.4248E-01  0.6287E+00
      6.028  0.4527E-01  0.6334E+00
      6.131  0.4833E-01  0.6384E+00
      6.234  0.3681E-01  0.6421E+00
      6.336  0.3861E-01  0.6461E+00
      6.439  0.4083E-01  0.6503E+00
      6.542  0.4812E-01  0.6553E+00
      6.645  0.5444E-01  0.6609E+00
      6.748  0.6267E-01  0.6673E+00
      6.851  0.5619E-01  0.6731E+00
      6.953  0.5549E-01  0.6788E+00
      7.056  0.5049E-01  0.6840E+00
      7.159  0.5619E-01  0.6898E+00
      7.262  0.6493E-01  0.6964E+00
      7.365  0.8259E-01  0.7049E+00
      7.467  0.8294E-01  0.7134E+00
      7.570  0.5977E-01  0.7196E+00
      7.673  0.5607E-01  0.7254E+00
      7.776  0.7238E-01  0.7328E+00
      7.879  0.6504E-01  0.7395E+00
      7.981  0.4598E-01  0.7442E+00
      8.084  0.3461E-01  0.7478E+00
      8.187  0.1805E-01  0.7496E+00
      8.290  0.2850E-02  0.7499E+00
      8.393  0.6213E-03  0.7500E+00
      8.496  0.1784E-03  0.7500E+00
      8.598  0.9089E-05  0.7500E+00
      8.701  0.6669E-07  0.7500E+00
      8.804  0.6556E-10  0.7500E+00
      8.907  0.8297E-14  0.7500E+00
      9.010  0.1172E-18  0.7500E+00
      9.112  0.0000E+00  0.7500E+00
      9.215  0.0000E+00  0.7500E+00
      9.318  0.0000E+00  0.7500E+00
      9.421  0.0000E+00  0.7500E+00
      9.524  0.0000E+00  0.7500E+00
      9.626  0.0000E+00  0.7500E+00
      9.729  0.0000E+00  0.7500E+00
