Lattice                                 
           1
     4.311940    2.489500    0.000000
    -4.311940    2.489500    0.000000
     0.000000    0.000000   15.000000
   B    C 
     8     8
Direct configuration=     1
   0.66888689  0.00000000  0.10000000
   0.33111211  0.00000000  0.10000000
   0.00000000  0.33111211  0.10000000
   0.00000000  0.66888689  0.10000000
   0.33111211  0.33111211  0.10000000
   0.66888689  0.66888689  0.10000000
   0.66666600  0.33333300  0.09922189
   0.33333300  0.66666600  0.10077811
   0.24999933  0.24999967  0.33533333
   0.41666633  0.08333267  0.33533333
   0.24999933  0.74999967  0.33533333
   0.41666633  0.58333267  0.33533333
   0.74999933  0.24999967  0.33533333
   0.91666633  0.08333267  0.33533333
   0.74999933  0.74999967  0.33533333
   0.91666633  0.58333267  0.33533333
Direct configuration=     2
   0.67031397 -0.00021970  0.09997976
   0.32974726 -0.00002319  0.10000574
   0.00021970  0.32968503  0.09997976
   0.00002319  0.67025174  0.10000574
   0.32965821  0.32950636  0.10000705
   0.67049264  0.67034079  0.10000705
   0.66644882  0.33355018  0.09920605
   0.33316875  0.66683025  0.10079024
   0.25001136  0.25003580  0.33532401
   0.41667619  0.08339692  0.33535331
   0.24997324  0.75002576  0.33531804
   0.41671707  0.58328193  0.33537211
   0.74998746  0.25001154  0.33535845
   0.91665654  0.08334246  0.33528201
   0.74996320  0.74998764  0.33532401
   0.91660208  0.58332281  0.33535331
Direct configuration=     3
   0.66962622 -0.00011382  0.09998952
   0.33040502 -0.00001201  0.10000298
   0.00011382  0.33037278  0.09998952
   0.00001201  0.66959398  0.10000298
   0.33035889  0.33028022  0.10000365
   0.66971878  0.66964011  0.10000365
   0.66655348  0.33344552  0.09921368
   0.33324791  0.66675109  0.10078440
   0.25000556  0.25001839  0.33532850
   0.41667144  0.08336596  0.33534368
   0.24998582  0.75001318  0.33532541
   0.41669262  0.58330638  0.33535342
   0.74999318  0.25000582  0.33534635
   0.91666126  0.08333774  0.33530674
   0.74998061  0.74999344  0.33532850
   0.91663304  0.58332756  0.33534368
Direct configuration=     4
   0.66962909 -0.00011426  0.09998948
   0.33040228 -0.00001206  0.10000299
   0.00011426  0.33036991  0.09998948
   0.00001206  0.66959672  0.10000299
   0.33035596  0.33027699  0.10000367
   0.66972201  0.66964304  0.10000367
   0.66655305  0.33344595  0.09921365
   0.33324758  0.66675142  0.10078442
   0.25000559  0.25001846  0.33532849
   0.41667146  0.08336608  0.33534372
   0.24998576  0.75001324  0.33532538
   0.41669272  0.58330628  0.33535350
   0.74999316  0.25000584  0.33534640
   0.91666124  0.08333776  0.33530664
   0.74998054  0.74999341  0.33532849
   0.91663292  0.58332754  0.33534372
Direct configuration=     5
   0.66962760 -0.00011403  0.09998950
   0.33040370 -0.00001203  0.10000298
   0.00011403  0.33037140  0.09998950
   0.00001203  0.66959530  0.10000298
   0.33035748  0.33027867  0.10000366
   0.66972033  0.66964152  0.10000366
   0.66655327  0.33344573  0.09921367
   0.33324775  0.66675125  0.10078441
   0.25000557  0.25001842  0.33532850
   0.41667145  0.08336602  0.33534370
   0.24998579  0.75001321  0.33532540
   0.41669267  0.58330633  0.33535346
   0.74999317  0.25000583  0.33534637
   0.91666125  0.08333775  0.33530669
   0.74998058  0.74999343  0.33532850
   0.91663298  0.58332755  0.33534370
Direct configuration=     6
   0.66962698 -0.00011394  0.09998951
   0.33040429 -0.00001202  0.10000298
   0.00011394  0.33037202  0.09998951
   0.00001202  0.66959471  0.10000298
   0.33035811  0.33027936  0.10000366
   0.66971964  0.66964089  0.10000366
   0.66655337  0.33344563  0.09921367
   0.33324782  0.66675118  0.10078440
   0.25000557  0.25001841  0.33532850
   0.41667144  0.08336599  0.33534369
   0.24998580  0.75001320  0.33532540
   0.41669265  0.58330635  0.33535344
   0.74999317  0.25000583  0.33534636
   0.91666125  0.08333775  0.33530671
   0.74998059  0.74999343  0.33532850
   0.91663301  0.58332756  0.33534369
Direct configuration=     7
   0.66962660 -0.00011388  0.09998951
   0.33040466 -0.00001202  0.10000298
   0.00011388  0.33037240  0.09998951
   0.00001202  0.66959434  0.10000298
   0.33035850  0.33027979  0.10000365
   0.66971921  0.66964050  0.10000365
   0.66655343  0.33344557  0.09921368
   0.33324786  0.66675114  0.10078440
   0.25000557  0.25001840  0.33532850
   0.41667144  0.08336597  0.33534369
   0.24998581  0.75001319  0.33532541
   0.41669263  0.58330637  0.33535343
   0.74999318  0.25000582  0.33534635
   0.91666126  0.08333774  0.33530673
   0.74998060  0.74999343  0.33532850
   0.91663303  0.58332756  0.33534369
Direct configuration=     8
   0.66962641 -0.00011385  0.09998951
   0.33040484 -0.00001202  0.10000298
   0.00011385  0.33037259  0.09998951
   0.00001202  0.66959416  0.10000298
   0.33035869  0.33028000  0.10000365
   0.66971900  0.66964031  0.10000365
   0.66655346  0.33344554  0.09921368
   0.33324789  0.66675111  0.10078440
   0.25000556  0.25001839  0.33532850
   0.41667144  0.08336596  0.33534369
   0.24998581  0.75001319  0.33532541
   0.41669263  0.58330637  0.33535343
   0.74999318  0.25000582  0.33534635
   0.91666126  0.08333774  0.33530674
   0.74998061  0.74999344  0.33532850
   0.91663304  0.58332756  0.33534369
Direct configuration=     9
   0.66962631 -0.00011383  0.09998952
   0.33040493 -0.00001201  0.10000298
   0.00011383  0.33037269  0.09998952
   0.00001201  0.66959407  0.10000298
   0.33035879  0.33028011  0.10000365
   0.66971889  0.66964021  0.10000365
   0.66655347  0.33344553  0.09921368
   0.33324790  0.66675110  0.10078440
   0.25000556  0.25001839  0.33532850
   0.41667144  0.08336596  0.33534368
   0.24998582  0.75001318  0.33532541
   0.41669262  0.58330638  0.33535343
   0.74999318  0.25000582  0.33534635
   0.91666126  0.08333774  0.33530674
   0.74998061  0.74999344  0.33532850
   0.91663304  0.58332756  0.33534368
Direct configuration=    10
   0.66962626 -0.00011383  0.09998952
   0.33040497 -0.00001201  0.10000298
   0.00011383  0.33037274  0.09998952
   0.00001201  0.66959403  0.10000298
   0.33035884  0.33028016  0.10000365
   0.66971884  0.66964016  0.10000365
   0.66655348  0.33344552  0.09921368
   0.33324790  0.66675110  0.10078440
   0.25000556  0.25001839  0.33532850
   0.41667144  0.08336596  0.33534368
   0.24998582  0.75001318  0.33532541
   0.41669262  0.58330638  0.33535342
   0.74999318  0.25000582  0.33534635
   0.91666126  0.08333774  0.33530674
   0.74998061  0.74999344  0.33532850
   0.91663304  0.58332756  0.33534368
Direct configuration=    11
   0.66962624 -0.00011382  0.09998952
   0.33040500 -0.00001201  0.10000298
   0.00011382  0.33037276  0.09998952
   0.00001201  0.66959400  0.10000298
   0.33035886  0.33028019  0.10000365
   0.66971881  0.66964014  0.10000365
   0.66655348  0.33344552  0.09921368
   0.33324791  0.66675109  0.10078440
   0.25000556  0.25001839  0.33532850
   0.41667144  0.08336596  0.33534368
   0.24998582  0.75001318  0.33532541
   0.41669262  0.58330638  0.33535342
   0.74999318  0.25000582  0.33534635
   0.91666126  0.08333774  0.33530674
   0.74998061  0.74999344  0.33532850
   0.91663304  0.58332756  0.33534368
Direct configuration=    12
   0.66970275 -0.00007232  0.09997139
   0.33046201 -0.00002144  0.10000749
   0.00007232  0.33029625  0.09997139
   0.00002144  0.66953699  0.10000749
   0.33035822  0.33026961  0.10000947
   0.66972939  0.66964078  0.10000947
   0.66652471  0.33347429  0.09920258
   0.33323024  0.66676876  0.10079268
   0.24997960  0.24999627  0.33532509
   0.41664140  0.08333360  0.33535521
   0.24999518  0.75000382  0.33532434
   0.41663459  0.58336441  0.33537184
   0.74998866  0.25001034  0.33535997
   0.91665105  0.08334795  0.33527797
   0.75000273  0.75001940  0.33532509
   0.91666540  0.58335760  0.33535521
Direct configuration=    13
   0.66968206 -0.00008354  0.09997629
   0.33044659 -0.00001889  0.10000627
   0.00008354  0.33031694  0.09997629
   0.00001889  0.66955241  0.10000627
   0.33035840  0.33027247  0.10000790
   0.66972653  0.66964060  0.10000790
   0.66653249  0.33346651  0.09920558
   0.33323502  0.66676398  0.10079044
   0.24998662  0.25000225  0.33532601
   0.41664952  0.08334235  0.33535209
   0.24999265  0.75000635  0.33532463
   0.41665028  0.58334872  0.33536686
   0.74998988  0.25000912  0.33535628
   0.91665381  0.08334519  0.33528575
   0.74999675  0.75001238  0.33532601
   0.91665665  0.58334948  0.33535209
Direct configuration=    14
   0.66971251 -0.00008274  0.09995609
   0.33048815 -0.00003221  0.10001136
   0.00008274  0.33028649  0.09995609
   0.00003221  0.66951085  0.10001136
   0.33036143  0.33026580  0.10001425
   0.66973320  0.66963757  0.10001425
   0.66651722  0.33348178  0.09919277
   0.33323163  0.66676737  0.10079995
   0.24997905  0.25002754  0.33532327
   0.41665076  0.08335985  0.33536279
   0.24997189  0.75002711  0.33532721
   0.41666535  0.58333365  0.33538214
   0.74997498  0.25002402  0.33536796
   0.91664794  0.08335106  0.33526112
   0.74997146  0.75001995  0.33532327
   0.91663915  0.58334824  0.33536279
Direct configuration=    15
   0.66971724 -0.00008261  0.09995295
   0.33049462 -0.00003428  0.10001215
   0.00008261  0.33028176  0.09995295
   0.00003428  0.66950438  0.10001215
   0.33036190  0.33026476  0.10001524
   0.66973424  0.66963710  0.10001524
   0.66651485  0.33348415  0.09919078
   0.33323110  0.66676790  0.10080143
   0.24997788  0.25003148  0.33532284
   0.41665095  0.08336257  0.33536446
   0.24996866  0.75003034  0.33532761
   0.41666769  0.58333131  0.33538452
   0.74997267  0.25002633  0.33536977
   0.91664703  0.08335197  0.33525729
   0.74996752  0.75002112  0.33532284
   0.91663643  0.58334805  0.33536446
Direct configuration=    16
   0.66970752 -0.00011398  0.09992944
   0.33050397 -0.00004787  0.10001808
   0.00011398  0.33029148  0.09992944
   0.00004787  0.66949503  0.10001808
   0.33037148  0.33024906  0.10002220
   0.66974994  0.66962752  0.10002220
   0.66652312  0.33347588  0.09917499
   0.33324574  0.66675326  0.10081313
   0.24997969  0.25003842  0.33532181
   0.41663590  0.08339633  0.33537300
   0.24996522  0.75003378  0.33533662
   0.41665687  0.58334213  0.33539313
   0.74996845  0.25003055  0.33537642
   0.91662668  0.08337232  0.33524329
   0.74996058  0.75001931  0.33532181
   0.91660267  0.58336310  0.33537300
Direct configuration=    17
   0.66970222 -0.00013105  0.09991665
   0.33050906 -0.00005526  0.10002131
   0.00013105  0.33029678  0.09991665
   0.00005526  0.66948994  0.10002131
   0.33037668  0.33024053  0.10002599
   0.66975847  0.66962232  0.10002599
   0.66652762  0.33347138  0.09916640
   0.33325370  0.66674530  0.10081949
   0.24998068  0.25004220  0.33532125
   0.41662772  0.08341469  0.33537765
   0.24996334  0.75003566  0.33534153
   0.41665097  0.58334803  0.33539782
   0.74996616  0.25003284  0.33538004
   0.91661561  0.08338339  0.33523568
   0.74995680  0.75001832  0.33532125
   0.91658431  0.58337128  0.33537765
Direct configuration=    18
   0.66969978 -0.00014211  0.09990506
   0.33051050 -0.00006088  0.10002422
   0.00014211  0.33029922  0.09990506
   0.00006088  0.66948850  0.10002422
   0.33038282  0.33023226  0.10002927
   0.66976674  0.66961618  0.10002927
   0.66653587  0.33346313  0.09915831
   0.33326276  0.66673624  0.10082549
   0.24997239  0.25004787  0.33532124
   0.41662228  0.08341737  0.33538111
   0.24995704  0.75004196  0.33534659
   0.41664382  0.58335518  0.33540047
   0.74995880  0.25004020  0.33538197
   0.91661112  0.08338788  0.33523206
   0.74995113  0.75002661  0.33532124
   0.91658163  0.58337672  0.33538111
Direct configuration=    19
   0.66969246 -0.00017532  0.09987026
   0.33051481 -0.00007773  0.10003295
   0.00017532  0.33030654  0.09987026
   0.00007773  0.66948419  0.10003295
   0.33040124  0.33020744  0.10003912
   0.66979156  0.66959776  0.10003912
   0.66656061  0.33343839  0.09913402
   0.33328993  0.66670907  0.10084347
   0.24994753  0.25006489  0.33532122
   0.41660596  0.08342541  0.33539147
   0.24993811  0.75006089  0.33536177
   0.41662234  0.58337666  0.33540840
   0.74993673  0.25006227  0.33538776
   0.91659765  0.08340135  0.33522121
   0.74993411  0.75005147  0.33532122
   0.91657359  0.58339304  0.33539147
Direct configuration=    20
   0.66967781 -0.00024174  0.09980068
   0.33052343 -0.00011145  0.10005040
   0.00024174  0.33032119  0.09980068
   0.00011145  0.66947557  0.10005040
   0.33043808  0.33015780  0.10005882
   0.66984120  0.66956092  0.10005882
   0.66661009  0.33338891  0.09908545
   0.33334427  0.66665473  0.10087944
   0.24989780  0.25009894  0.33532118
   0.41657332  0.08344150  0.33541219
   0.24990025  0.75009875  0.33539213
   0.41657938  0.58341962  0.33542427
   0.74989258  0.25010642  0.33539934
   0.91657070  0.08342830  0.33519952
   0.74990006  0.75010120  0.33532118
   0.91655750  0.58342568  0.33541219
Direct configuration=    21
   0.66970962 -0.00023431  0.09977376
   0.33053587 -0.00012628  0.10005713
   0.00023431  0.33028938  0.09977376
   0.00012628  0.66946313  0.10005713
   0.33045597  0.33014579  0.10006572
   0.66985321  0.66954303  0.10006572
   0.66663355  0.33336545  0.09906457
   0.33336199  0.66663701  0.10089497
   0.24988342  0.25011670  0.33532333
   0.41655591  0.08345347  0.33541756
   0.24988213  0.75011687  0.33540231
   0.41656631  0.58343269  0.33542669
   0.74987943  0.25011957  0.33540033
   0.91655386  0.08344514  0.33520281
   0.74988230  0.75011558  0.33532333
   0.91654553  0.58344309  0.33541756
Direct configuration=    22
   0.66980504 -0.00021205  0.09969299
   0.33057319 -0.00017077  0.10007733
   0.00021205  0.33019396  0.09969299
   0.00017077  0.66942581  0.10007733
   0.33050963  0.33010978  0.10008644
   0.66988922  0.66948937  0.10008644
   0.66670393  0.33329507  0.09900193
   0.33341513  0.66658387  0.10094154
   0.24984027  0.25017000  0.33532978
   0.41650367  0.08348939  0.33543365
   0.24982777  0.75017123  0.33543288
   0.41652710  0.58347190  0.33543396
   0.74983996  0.25015904  0.33540330
   0.91650333  0.08349567  0.33521267
   0.74982900  0.75015873  0.33532978
   0.91650961  0.58349533  0.33543365
Direct configuration=    23
   0.66983389 -0.00023682  0.09967183
   0.33060119 -0.00019145  0.10008220
   0.00023682  0.33016511  0.09967183
   0.00019145  0.66939781  0.10008220
   0.33052271  0.33010752  0.10008972
   0.66989148  0.66947629  0.10008972
   0.66671110  0.33328790  0.09897968
   0.33342044  0.66657856  0.10095763
   0.24982978  0.25017877  0.33533668
   0.41649099  0.08352764  0.33543342
   0.24982187  0.75017713  0.33543441
   0.41650632  0.58349268  0.33543279
   0.74982391  0.25017509  0.33540220
   0.91648613  0.08351287  0.33523227
   0.74982023  0.75016922  0.33533668
   0.91647136  0.58350801  0.33543342
Direct configuration=    24
   0.66987010 -0.00026792  0.09964527
   0.33063633 -0.00021742  0.10008830
   0.00026792  0.33012890  0.09964527
   0.00021742  0.66936267  0.10008830
   0.33053913  0.33010468  0.10009382
   0.66989432  0.66945987  0.10009382
   0.66672011  0.33327889  0.09895176
   0.33342711  0.66657189  0.10097783
   0.24981661  0.25018978  0.33534535
   0.41647507  0.08357566  0.33543313
   0.24981446  0.75018454  0.33543632
   0.41648024  0.58351876  0.33543132
   0.74980375  0.25019525  0.33540083
   0.91646455  0.08353445  0.33525687
   0.74980922  0.75018239  0.33534535
   0.91642334  0.58352393  0.33543313
Direct configuration=    25
   0.66988786 -0.00029346  0.09963062
   0.33066251 -0.00022948  0.10009133
   0.00029346  0.33011114  0.09963062
   0.00022948  0.66933649  0.10009133
   0.33055510  0.33009370  0.10009448
   0.66990530  0.66944390  0.10009448
   0.66672413  0.33327487  0.09893186
   0.33343087  0.66656813  0.10099207
   0.24979631  0.25021023  0.33535334
   0.41646374  0.08357958  0.33543097
   0.24979291  0.75020609  0.33543300
   0.41646986  0.58352914  0.33543038
   0.74978518  0.25021382  0.33540110
   0.91645475  0.08354425  0.33527679
   0.74978877  0.75020269  0.33535334
   0.91641942  0.58353526  0.33543097
Direct configuration=    26
   0.66992136 -0.00034165  0.09960300
   0.33071189 -0.00025224  0.10009704
   0.00034165  0.33007764  0.09960300
   0.00025224  0.66928711  0.10009704
   0.33058522  0.33007299  0.10009571
   0.66992601  0.66941378  0.10009571
   0.66673173  0.33326727  0.09889433
   0.33343795  0.66656105  0.10101893
   0.24975801  0.25024879  0.33536841
   0.41644237  0.08358697  0.33542689
   0.24975228  0.75024672  0.33542674
   0.41645029  0.58354871  0.33542860
   0.74975016  0.25024884  0.33540162
   0.91643627  0.08356273  0.33531437
   0.74975021  0.75024099  0.33536841
   0.91641203  0.58355663  0.33542689
Direct configuration=    27
   0.66993784 -0.00035707  0.09958988
   0.33073425 -0.00026280  0.10009910
   0.00035707  0.33006116  0.09958988
   0.00026280  0.66926475  0.10009910
   0.33061181  0.33004304  0.10009348
   0.66995596  0.66938719  0.10009348
   0.66674798  0.33325102  0.09886821
   0.33345293  0.66654607  0.10103749
   0.24974268  0.25026681  0.33537950
   0.41641245  0.08359596  0.33542389
   0.24973202  0.75026698  0.33541830
   0.41642714  0.58357186  0.33543024
   0.74973946  0.25025954  0.33540601
   0.91641005  0.08358895  0.33533471
   0.74973219  0.75025632  0.33537950
   0.91640304  0.58358655  0.33542389
Direct configuration=    28
   0.66995911 -0.00037698  0.09957295
   0.33076310 -0.00027644  0.10010176
   0.00037698  0.33003989  0.09957295
   0.00027644  0.66923590  0.10010176
   0.33064614  0.33000439  0.10009061
   0.66999461  0.66935286  0.10009061
   0.66676895  0.33323005  0.09883449
   0.33347226  0.66652674  0.10106143
   0.24972288  0.25029007  0.33539382
   0.41637384  0.08360755  0.33542003
   0.24970586  0.75029314  0.33540741
   0.41639726  0.58360174  0.33543235
   0.74972566  0.25027334  0.33541168
   0.91637621  0.08362279  0.33536097
   0.74970893  0.75027612  0.33539382
   0.91639145  0.58362516  0.33542003
Direct configuration=    29
   0.66996841 -0.00038564  0.09956788
   0.33076278 -0.00030324  0.10010125
   0.00038564  0.33003059  0.09956788
   0.00030324  0.66923622  0.10010125
   0.33066136  0.32998250  0.10008493
   0.67001650  0.66933764  0.10008493
   0.66680036  0.33319864  0.09880959
   0.33350428  0.66649472  0.10107883
   0.24970534  0.25030354  0.33540205
   0.41636626  0.08364867  0.33542022
   0.24969599  0.75030301  0.33539952
   0.41637983  0.58361917  0.33543873
   0.74970114  0.25029786  0.33542018
   0.91636274  0.08363626  0.33536715
   0.74969546  0.75029366  0.33540205
   0.91635033  0.58363274  0.33542022
Direct configuration=    30
   0.66998234 -0.00039860  0.09956030
   0.33076231 -0.00034335  0.10010048
   0.00039860  0.33001666  0.09956030
   0.00034335  0.66923669  0.10010048
   0.33068415  0.32994974  0.10007644
   0.67004926  0.66931485  0.10007644
   0.66684737  0.33315163  0.09877233
   0.33355220  0.66644680  0.10110486
   0.24967910  0.25032370  0.33541436
   0.41635493  0.08371020  0.33542052
   0.24968122  0.75031778  0.33538770
   0.41635375  0.58364525  0.33544828
   0.74966444  0.25033456  0.33543290
   0.91634257  0.08365643  0.33537639
   0.74967530  0.75031990  0.33541436
   0.91628880  0.58364407  0.33542052
Direct configuration=    31
   0.66999104 -0.00041631  0.09955952
   0.33076838 -0.00036697  0.10009848
   0.00041631  0.33000796  0.09955952
   0.00036697  0.66923062  0.10009848
   0.33069570  0.32993483  0.10006919
   0.67006417  0.66930330  0.10006919
   0.66687380  0.33312520  0.09874828
   0.33358300  0.66641600  0.10112160
   0.24965802  0.25034653  0.33541926
   0.41633566  0.08371362  0.33542357
   0.24965665  0.75034235  0.33538431
   0.41633988  0.58365912  0.33545571
   0.74964630  0.25035270  0.33544075
   0.91632595  0.08367305  0.33537597
   0.74965247  0.75034098  0.33541926
   0.91628538  0.58366334  0.33542357
Direct configuration=    32
   0.67001303 -0.00046108  0.09955757
   0.33078373 -0.00042668  0.10009341
   0.00046108  0.32998597  0.09955757
   0.00042668  0.66921527  0.10009341
   0.33072488  0.32989714  0.10005087
   0.67010186  0.66927412  0.10005087
   0.66694063  0.33305837  0.09868748
   0.33366086  0.66633814  0.10116390
   0.24960474  0.25040425  0.33543165
   0.41628697  0.08372228  0.33543126
   0.24959455  0.75040445  0.33537576
   0.41630481  0.58369419  0.33547449
   0.74960044  0.25039856  0.33546060
   0.91628394  0.08371506  0.33537491
   0.74959475  0.75039426  0.33543165
   0.91627672  0.58371203  0.33543126
Direct configuration=    33
   0.67002434 -0.00047760  0.09955844
   0.33079855 -0.00043980  0.10009110
   0.00047760  0.32997466  0.09955844
   0.00043980  0.66920045  0.10009110
   0.33073787  0.32988294  0.10004424
   0.67011606  0.66926113  0.10004424
   0.66695643  0.33304257  0.09866725
   0.33367981  0.66631919  0.10117807
   0.24959221  0.25041763  0.33543419
   0.41626683  0.08373299  0.33543492
   0.24958031  0.75041869  0.33537645
   0.41628749  0.58371151  0.33547995
   0.74958964  0.25040936  0.33546557
   0.91626535  0.08373365  0.33537361
   0.74958137  0.75040679  0.33543419
   0.91626601  0.58373217  0.33543492
Direct configuration=    34
   0.67005826 -0.00052718  0.09956104
   0.33084300 -0.00047915  0.10008414
   0.00052718  0.32994074  0.09956104
   0.00047915  0.66915600  0.10008414
   0.33077682  0.32984034  0.10002436
   0.67015866  0.66922218  0.10002436
   0.66700382  0.33299518  0.09860655
   0.33373667  0.66626233  0.10122056
   0.24955461  0.25045775  0.33544182
   0.41620641  0.08376510  0.33544592
   0.24953757  0.75046143  0.33537853
   0.41623553  0.58376347  0.33549634
   0.74955726  0.25044174  0.33548046
   0.91620958  0.08378942  0.33536970
   0.74954125  0.75044439  0.33544182
   0.91623390  0.58379259  0.33544592
Direct configuration=    35
   0.67012609 -0.00062633  0.09956624
   0.33093189 -0.00055784  0.10007023
   0.00062633  0.32987291  0.09956624
   0.00055784  0.66906711  0.10007023
   0.33085472  0.32975514  0.09998459
   0.67024386  0.66914428  0.09998459
   0.66709861  0.33290039  0.09848515
   0.33385040  0.66614860  0.10130553
   0.24947941  0.25053799  0.33545707
   0.41608558  0.08382932  0.33546790
   0.24945211  0.75054689  0.33538268
   0.41613160  0.58386740  0.33552912
   0.74949250  0.25050650  0.33551023
   0.91609804  0.08390096  0.33536189
   0.74946101  0.75051959  0.33545707
   0.91616968  0.58391342  0.33546790
Direct configuration=    36
   0.67014336 -0.00064327  0.09956774
   0.33095267 -0.00057182  0.10006728
   0.00064327  0.32985564  0.09956774
   0.00057182  0.66904633  0.10006728
   0.33087245  0.32973709  0.09997694
   0.67026191  0.66912655  0.09997694
   0.66711330  0.33288570  0.09846195
   0.33386598  0.66613302  0.10132188
   0.24946175  0.25055411  0.33545934
   0.41607163  0.08385068  0.33547222
   0.24943672  0.75056228  0.33538615
   0.41611521  0.58388379  0.33553389
   0.74947352  0.25052548  0.33551427
   0.91608286  0.08391614  0.33536149
   0.74944489  0.75053725  0.33545934
   0.91614832  0.58392737  0.33547222
Direct configuration=    37
   0.67019516 -0.00069408  0.09957224
   0.33101498 -0.00061375  0.10005841
   0.00069408  0.32980384  0.09957224
   0.00061375  0.66898402  0.10005841
   0.33092565  0.32968295  0.09995399
   0.67031605  0.66907335  0.09995399
   0.66715736  0.33284164  0.09839234
   0.33391274  0.66608626  0.10137093
   0.24940879  0.25060247  0.33546617
   0.41602979  0.08391474  0.33548520
   0.24939057  0.75060843  0.33539654
   0.41606604  0.58393296  0.33554818
   0.74941658  0.25058242  0.33552638
   0.91603734  0.08396166  0.33536027
   0.74939653  0.75059021  0.33546617
   0.91608426  0.58396921  0.33548520
Direct configuration=    38
   0.67029876 -0.00079570  0.09958125
   0.33113961 -0.00069761  0.10004068
   0.00079570  0.32970024  0.09958125
   0.00069761  0.66885939  0.10004068
   0.33103204  0.32957466  0.09990809
   0.67042434  0.66896696  0.09990809
   0.66724549  0.33275351  0.09825314
   0.33400626  0.66599274  0.10146901
   0.24930285  0.25069920  0.33547983
   0.41594611  0.08404288  0.33551114
   0.24929826  0.75070074  0.33541733
   0.41596769  0.58403131  0.33557677
   0.74930271  0.25069629  0.33555061
   0.91594631  0.08405269  0.33535784
   0.74929980  0.75069615  0.33547983
   0.91595612  0.58405289  0.33551114
Direct configuration=    39
   0.67050596 -0.00099894  0.09959926
   0.33138887 -0.00086533  0.10000522
   0.00099894  0.32949304  0.09959926
   0.00086533  0.66861013  0.10000522
   0.33124482  0.32935808  0.09981628
   0.67064092  0.66875418  0.09981628
   0.66742175  0.33257725  0.09797473
   0.33419329  0.66580571  0.10166519
   0.24909099  0.25089265  0.33550714
   0.41577875  0.08429914  0.33556304
   0.24911364  0.75088536  0.33545890
   0.41577100  0.58422800  0.33563395
   0.74907495  0.25092405  0.33559906
   0.91576423  0.08423477  0.33535298
   0.74910635  0.75090801  0.33550714
   0.91569986  0.58422025  0.33556304
Direct configuration=    40
   0.67092035 -0.00140544  0.09963528
   0.33188738 -0.00120077  0.09993429
   0.00140544  0.32907865  0.09963528
   0.00120077  0.66811162  0.09993429
   0.33167039  0.32892493  0.09963267
   0.67107407  0.66832861  0.09963267
   0.66777427  0.33222473  0.09741790
   0.33456736  0.66543164  0.10205754
   0.24866727  0.25127954  0.33556176
   0.41544403  0.08481167  0.33566683
   0.24874440  0.75125460  0.33554204
   0.41537762  0.58462138  0.33574830
   0.74861944  0.25137956  0.33569597
   0.91540008  0.08459892  0.33534325
   0.74871946  0.75133173  0.33556176
   0.91518733  0.58455497  0.33566683
Direct configuration=    41
   0.67071109 -0.00120016  0.09961709
   0.33163564 -0.00103137  0.09997011
   0.00120016  0.32928791  0.09961709
   0.00103137  0.66836336  0.09997011
   0.33145548  0.32914367  0.09972539
   0.67085533  0.66854352  0.09972539
   0.66759625  0.33240275  0.09769909
   0.33437846  0.66562054  0.10185941
   0.24888124  0.25108416  0.33553417
   0.41561306  0.08455285  0.33561441
   0.24893086  0.75106814  0.33550005
   0.41557628  0.58442272  0.33569055
   0.74884947  0.25114953  0.33564703
   0.91558397  0.08441503  0.33534816
   0.74891484  0.75111776  0.33553417
   0.91544615  0.58438594  0.33561441
Direct configuration=    42
   0.67076682 -0.00125011  0.09962155
   0.33168977 -0.00108764  0.09996083
   0.00125011  0.32923218  0.09962155
   0.00108764  0.66830923  0.09996083
   0.33150854  0.32909378  0.09970298
   0.67090522  0.66849046  0.09970298
   0.66764289  0.33235611  0.09762873
   0.33442195  0.66557705  0.10190941
   0.24883022  0.25113895  0.33554126
   0.41555896  0.08459536  0.33562595
   0.24887482  0.75112418  0.33551497
   0.41552770  0.58447130  0.33570033
   0.74879987  0.25119913  0.33565558
   0.91553145  0.08446755  0.33535252
   0.74886005  0.75116878  0.33554126
   0.91540364  0.58444004  0.33562595
Direct configuration=    43
   0.67093402 -0.00139994  0.09963491
   0.33185216 -0.00125645  0.09993301
   0.00139994  0.32906498  0.09963491
   0.00125645  0.66814684  0.09993301
   0.33166772  0.32894410  0.09963574
   0.67105490  0.66833128  0.09963574
   0.66778280  0.33221620  0.09741765
   0.33455243  0.66544657  0.10205940
   0.24867715  0.25130332  0.33556250
   0.41539666  0.08472288  0.33566057
   0.24870670  0.75129230  0.33555971
   0.41538197  0.58461703  0.33572964
   0.74865106  0.25134794  0.33568122
   0.91537390  0.08462510  0.33536560
   0.74869568  0.75132185  0.33556250
   0.91527612  0.58460234  0.33566057
Direct configuration=    44
   0.67126841 -0.00169962  0.09966162
   0.33217694 -0.00159406  0.09987735
   0.00169962  0.32873059  0.09966162
   0.00159406  0.66782206  0.09987735
   0.33198607  0.32864474  0.09950126
   0.67135426  0.66801293  0.09950126
   0.66806262  0.33193638  0.09699548
   0.33481338  0.66518562  0.10235939
   0.24837101  0.25163207  0.33560500
   0.41507206  0.08497793  0.33572980
   0.24837046  0.75162854  0.33564918
   0.41509052  0.58490848  0.33578828
   0.74835346  0.25164554  0.33573251
   0.91505878  0.08494022  0.33539175
   0.74836693  0.75162799  0.33560500
   0.91502107  0.58492694  0.33572980
Direct configuration=    45
   0.67193721 -0.00229896  0.09971506
   0.33282651 -0.00226929  0.09976604
   0.00229896  0.32806179  0.09971506
   0.00226929  0.66717249  0.09976604
   0.33262278  0.32804603  0.09923230
   0.67195297  0.66737622  0.09923230
   0.66862227  0.33137673  0.09615115
   0.33533528  0.66466372  0.10295938
   0.24775873  0.25228955  0.33568999
   0.41442286  0.08548803  0.33586825
   0.24769797  0.75230103  0.33582814
   0.41450762  0.58549138  0.33590556
   0.74775825  0.25224075  0.33583509
   0.91442855  0.08557045  0.33544406
   0.74770945  0.75224027  0.33568999
   0.91451097  0.58557614  0.33586825
Direct configuration=    46
   0.67205993 -0.00241668  0.09972399
   0.33294725 -0.00239637  0.09974432
   0.00241668  0.32793907  0.09972399
   0.00239637  0.66705175  0.09974432
   0.33274641  0.32793688  0.09918256
   0.67206212  0.66725259  0.09918256
   0.66873987  0.33125913  0.09598760
   0.33544802  0.66455098  0.10307672
   0.24764409  0.25240098  0.33570792
   0.41429685  0.08560979  0.33589175
   0.24758556  0.75241344  0.33586362
   0.41437948  0.58561952  0.33592322
   0.74764584  0.25235316  0.33585140
   0.91430397  0.08569503  0.33546302
   0.74759802  0.75235491  0.33570792
   0.91438921  0.58570215  0.33589175
Direct configuration=    47
   0.67242809 -0.00276985  0.09975077
   0.33330945 -0.00277760  0.09967917
   0.00276985  0.32757091  0.09975077
   0.00277760  0.66668955  0.09967917
   0.33311728  0.32760943  0.09903333
   0.67238957  0.66688172  0.09903333
   0.66909267  0.33090633  0.09549696
   0.33578624  0.66421276  0.10342876
   0.24730015  0.25273524  0.33576172
   0.41391882  0.08597508  0.33596223
   0.24724835  0.75275065  0.33597009
   0.41399507  0.58600393  0.33597619
   0.74730864  0.25269036  0.33590032