Lattice                                 
           1
     4.122281    2.380000    0.000000
    -4.122281    2.380000    0.000000
     0.000000    0.000000   15.000000
   B    C 
     4    11
Direct configuration=     1
   0.00415361  0.00267210  0.12034134
   0.35695335  0.00285503  0.09748893
   0.00423858  0.35550699  0.09749256
   0.65142295  0.65006557  0.09747688
   0.32808646  0.32671938  0.10030508
   0.68027775  0.00278085  0.10027562
   0.00416530  0.67883808  0.10026559
   0.99999933  0.49999967  0.33373333
   0.16666633  0.33333267  0.33373333
   0.99999933  0.99999967  0.33373333
   0.16666633  0.83333267  0.33373333
   0.49999933  0.49999967  0.33373333
   0.66666633  0.33333267  0.33373333
   0.49999933  0.99999967  0.33373333
   0.66666633  0.83333267  0.33373333
Direct configuration=     2
   0.00418643  0.00277059  0.11986122
   0.35646586  0.00300858  0.09765988
   0.00396424  0.35481334  0.09766232
   0.65210899  0.65049973  0.09765088
   0.32652695  0.32482789  0.10027736
   0.68212697  0.00308993  0.10025428
   0.00390898  0.68042154  0.10024613
   0.00012782  0.49998969  0.33373874
   0.16689712  0.33396574  0.33379108
   0.99999836  0.99999292  0.33362363
   0.16706027  0.83310025  0.33379388
   0.50002593  0.50015019  0.33374157
   0.66666578  0.33333787  0.33368245
   0.49986417  0.99987090  0.33373834
   0.66603280  0.83292817  0.33379091
Direct configuration=     3
   0.00416604  0.00270941  0.12015945
   0.35676867  0.00291320  0.09755369
   0.00413465  0.35524421  0.09755687
   0.65168285  0.65023005  0.09754280
   0.32749565  0.32600280  0.10029458
   0.68097831  0.00289794  0.10026753
   0.00406820  0.67943796  0.10025821
   0.00004801  0.49999589  0.33373538
   0.16675377  0.33357250  0.33375521
   0.99999896  0.99999711  0.33369177
   0.16681557  0.83324462  0.33375627
   0.50000941  0.50005669  0.33373645
   0.66666612  0.33333464  0.33371405
   0.49994813  0.99995088  0.33373523
   0.66642632  0.83317943  0.33375515
Direct configuration=     4
   0.00418327  0.00277600  0.11975959
   0.35700470  0.00300209  0.09770909
   0.00394898  0.35535966  0.09771094
   0.65158428  0.64995793  0.09770131
   0.32745845  0.32575586  0.10025504
   0.68119910  0.00307747  0.10023456
   0.00390468  0.67949920  0.10022689
  -0.00009007  0.49999474  0.33374873
   0.16664245  0.33321485  0.33379697
   0.99999994  0.00000253  0.33360837
   0.16658095  0.83336299  0.33380041
   0.50000211  0.49991461  0.33375218
   0.66666907  0.33333234  0.33366368
   0.50008282  0.00009027  0.33374820
   0.66678994  0.83342679  0.33379672
Direct configuration=     5
   0.00418404  0.00277896  0.11974181
   0.35701520  0.00300605  0.09771600
   0.00394072  0.35536480  0.09771779
   0.65157990  0.64994582  0.09770836
   0.32745680  0.32574488  0.10025328
   0.68120892  0.00308546  0.10023309
   0.00389741  0.67950192  0.10022549
  -0.00009622  0.49999469  0.33374932
   0.16663750  0.33319894  0.33379883
   0.99999999  0.00000277  0.33360466
   0.16657051  0.83336826  0.33380237
   0.50000178  0.49990829  0.33375288
   0.66666920  0.33333224  0.33366143
   0.50008881  0.00009647  0.33374877
   0.66680612  0.83343779  0.33379857
Direct configuration=     6
   0.00418855  0.00279858  0.11957810
   0.35711883  0.00302536  0.09777326
   0.00389183  0.35544099  0.09777454
   0.65151236  0.64983121  0.09776678
   0.32751556  0.32575285  0.10024332
   0.68119355  0.00312456  0.10022576
   0.00385762  0.67945119  0.10021877
  -0.00006445  0.49999740  0.33375603
   0.16664111  0.33323728  0.33381134
   0.00000155  0.00000275  0.33357924
   0.16660319  0.83336408  0.33381567
   0.50000215  0.49993786  0.33376039
   0.66666901  0.33333302  0.33364312
   0.50006215  0.00006643  0.33375534
   0.66676766  0.83340378  0.33381100
Direct configuration=     7
   0.00420209  0.00285744  0.11908698
   0.35742973  0.00308329  0.09794503
   0.00374517  0.35566959  0.09794477
   0.65130975  0.64948736  0.09794202
   0.32769184  0.32577675  0.10021344
   0.68114742  0.00324185  0.10020377
   0.00373826  0.67929899  0.10019859
   0.00003085  0.50000554  0.33377617
   0.16665194  0.33335230  0.33384888
   0.00000623  0.00000270  0.33350299
   0.16670123  0.83335155  0.33385557
   0.50000323  0.50002655  0.33378290
   0.66666842  0.33333535  0.33358819
   0.49998219 -0.00002368  0.33377505
   0.66665230  0.83330176  0.33384831
Direct configuration=     8
   0.00422918  0.00297516  0.11810474
   0.35805154  0.00319915  0.09828857
   0.00345185  0.35612677  0.09828524
   0.65090452  0.64879967  0.09829249
   0.32804440  0.32582456  0.10015369
   0.68105518  0.00347643  0.10015979
   0.00349955  0.67899460  0.10015825
   0.00022146  0.50002182  0.33381644
   0.16667361  0.33358234  0.33392395
   0.00001560  0.00000259  0.33335049
   0.16689730  0.83332649  0.33393537
   0.50000541  0.50020395  0.33382792
   0.66666724  0.33334001  0.33347831
   0.49982226 -0.00020391  0.33381446
   0.66642157  0.83309772  0.33392293
Direct configuration=     9
   0.00421391  0.00290879  0.11865851
   0.35770098  0.00313383  0.09809489
   0.00361722  0.35586902  0.09809329
   0.65113298  0.64918737  0.09809490
   0.32784563  0.32579761  0.10018738
   0.68110719  0.00334418  0.10018459
   0.00363413  0.67916621  0.10018099
   0.00011400  0.50001264  0.33379374
   0.16666139  0.33345265  0.33388163
   0.00001032  0.00000265  0.33343647
   0.16678676  0.83334062  0.33389038
   0.50000418  0.50010394  0.33380254
   0.66666791  0.33333738  0.33354026
   0.49991242 -0.00010230  0.33379224
   0.66655165  0.83321275  0.33388086
Direct configuration=    10
   0.00421240  0.00290593  0.11836356
   0.35768242  0.00309189  0.09815365
   0.00366493  0.35590033  0.09815156
   0.65111121  0.64920385  0.09815463
   0.32787510  0.32590365  0.10021477
   0.68100267  0.00325898  0.10021559
   0.00369462  0.67913655  0.10021264
   0.00004366  0.50001831  0.33380686
   0.16672857  0.33349634  0.33388013
   0.00000465  0.00000237  0.33344071
   0.16677670  0.83328256  0.33388913
   0.49999416  0.50003252  0.33381589
   0.66667373  0.33333834  0.33352907
   0.49997941 -0.00003660  0.33380520
   0.66651642  0.83323232  0.33387927
Direct configuration=    11
   0.00420788  0.00289735  0.11747871
   0.35762675  0.00296609  0.09832993
   0.00380805  0.35599425  0.09832636
   0.65104592  0.64925329  0.09833383
   0.32796349  0.32622179  0.10029693
   0.68068913  0.00300339  0.10030861
   0.00387608  0.67904756  0.10030759
  -0.00016736  0.50003529  0.33384623
   0.16693012  0.33362741  0.33387562
  -0.00001234  0.00000155  0.33345342
   0.16674651  0.83310837  0.33388536
   0.49996408  0.49981828  0.33385594
   0.66669122  0.33334120  0.33349553
   0.50018038  0.00016051  0.33384410
   0.66641076  0.83329101  0.33387450
Direct configuration=    12
   0.00420531  0.00288365  0.11718168
   0.35758642  0.00292054  0.09837074
   0.00388270  0.35600995  0.09836709
   0.65102389  0.64929881  0.09837493
   0.32795009  0.32630493  0.10034270
   0.68060812  0.00291296  0.10035694
   0.00395145  0.67904666  0.10035632
  -0.00008309  0.49999977  0.33385258
   0.16680019  0.33353473  0.33386863
   0.00000474  0.00000504  0.33347926
   0.16675769  0.83322338  0.33387794
   0.50001649  0.49992749  0.33386181
   0.66667956  0.33334045  0.33350423
   0.50008855  0.00009433  0.33385034
   0.66648856  0.83326464  0.33386749
Direct configuration=    13
   0.00420121  0.00286179  0.11670754
   0.35752206  0.00284785  0.09843587
   0.00400184  0.35603501  0.09843210
   0.65098874  0.64937146  0.09844052
   0.32792869  0.32643764  0.10041574
   0.68047880  0.00276860  0.10043409
   0.00407177  0.67904523  0.10043409
   0.00005144  0.49994306  0.33386271
   0.16659279  0.33338679  0.33385748
   0.00003201  0.00001062  0.33352051
   0.16677552  0.83340697  0.33386611
   0.50010016  0.50010181  0.33387116
   0.66666094  0.33333925  0.33351812
   0.49994196 -0.00001131  0.33386030
   0.66661275  0.83322256  0.33385632
Direct configuration=    14
   0.00419715  0.00284246  0.11648805
   0.35756206  0.00284119  0.09845495
   0.00404115  0.35608580  0.09845162
   0.65091394  0.64934115  0.09845912
   0.32792281  0.32646082  0.10045952
   0.68045622  0.00276071  0.10047830
   0.00409172  0.67903008  0.10047829
   0.00008336  0.50000311  0.33385520
   0.16664774  0.33338621  0.33385293
   0.00001697  0.00000876  0.33355644
   0.16674983  0.83337086  0.33386062
   0.50002440  0.50008531  0.33386263
   0.66667804  0.33334256  0.33355033
   0.49994173 -0.00005897  0.33385285
   0.66663355  0.83326728  0.33385181
Direct configuration=    15
   0.00419121  0.00281420  0.11616712
   0.35762054  0.00283145  0.09848285
   0.00409863  0.35616006  0.09848016
   0.65080456  0.64929683  0.09848631
   0.32791421  0.32649472  0.10052354
   0.68042322  0.00274918  0.10054294
   0.00412090  0.67900792  0.10054292
   0.00013002  0.50009091  0.33384421
   0.16672810  0.33338537  0.33384627
  -0.00000501  0.00000604  0.33360897
   0.16671225  0.83331806  0.33385260
   0.49991363  0.50006119  0.33385016
   0.66670305  0.33334740  0.33359744
   0.49994139 -0.00012867  0.33384195
   0.66666397  0.83333268  0.33384522
Direct configuration=    16
   0.00417958  0.00278368  0.11596457
   0.35775035  0.00286316  0.09850248
   0.00408857  0.35625740  0.09850053
   0.65067898  0.64917908  0.09850496
   0.32794643  0.32648032  0.10055960
   0.68044222  0.00282081  0.10057775
   0.00407786  0.67896376  0.10057748
   0.00004269  0.50003141  0.33382777
   0.16673661  0.33345212  0.33384592
   0.00001774  0.00000980  0.33365168
   0.16673208  0.83328738  0.33385101
   0.50000080  0.50001775  0.33383232
   0.66668063  0.33334444  0.33364592
   0.50001350 -0.00001409  0.33382566
   0.66657263  0.83329032  0.33384502
Direct configuration=    17
   0.00417496  0.00277153  0.11588398
   0.35780200  0.00287578  0.09851028
   0.00408457  0.35629613  0.09850863
   0.65062901  0.64913223  0.09851238
   0.32795925  0.32647458  0.10057395
   0.68044978  0.00284931  0.10059160
   0.00406073  0.67894619  0.10059123
   0.00000794  0.50000774  0.33382123
   0.16674000  0.33347868  0.33384578
   0.00002678  0.00001129  0.33366868
   0.16673996  0.83327517  0.33385038
   0.50003549  0.50000047  0.33382522
   0.66667171  0.33334326  0.33366521
   0.50004219  0.00003150  0.33381918
   0.66653629  0.83327347  0.33384493
Direct configuration=    18
   0.00416513  0.00275485  0.11581525
   0.35788064  0.00291113  0.09852647
   0.00404211  0.35633634  0.09852524
   0.65058384  0.64905755  0.09852784
   0.32798282  0.32643244  0.10057395
   0.68049632  0.00291972  0.10058964
   0.00400408  0.67893013  0.10058895
   0.00001211  0.49998472  0.33381372
   0.16671065  0.33345307  0.33384854
   0.00001375  0.00000986  0.33368686
   0.16677084  0.83332188  0.33385271
   0.50004306  0.50003810  0.33381720
   0.66668700  0.33334564  0.33368662
   0.49998932  0.00001231  0.33381186
   0.66657899  0.83325960  0.33384782
Direct configuration=    19
   0.00416119  0.00274816  0.11578769
   0.35791217  0.00292531  0.09853295
   0.00402509  0.35635247  0.09853190
   0.65056572  0.64902760  0.09853405
   0.32799227  0.32641554  0.10057395
   0.68051499  0.00294795  0.10058885
   0.00398137  0.67892369  0.10058804
   0.00001378  0.49997549  0.33381071
   0.16669888  0.33344281  0.33384965
   0.00000853  0.00000929  0.33369415
   0.16678322  0.83334061  0.33385364
   0.50004609  0.50005319  0.33381398
   0.66669313  0.33334659  0.33369520
   0.49996813  0.00000462  0.33380893
   0.66659611  0.83325404  0.33384897
Direct configuration=    20
   0.00415654  0.00274322  0.11574526
   0.35795191  0.00295531  0.09855071
   0.00398368  0.35635839  0.09855003
   0.65055923  0.64898744  0.09855097
   0.32800228  0.32637300  0.10056344
   0.68055769  0.00299989  0.10057578
   0.00393612  0.67891999  0.10057456
   0.00005453  0.50002210  0.33380886
   0.16671276  0.33343077  0.33385264
   0.00001921  0.00001115  0.33370679
   0.16673896  0.83331571  0.33385650
   0.50001229  0.50003988  0.33381189
   0.66668379  0.33334596  0.33370587
   0.49999344 -0.00002330  0.33380726
   0.66659824  0.83328784  0.33385209
Direct configuration=    21
   0.00415606  0.00274272  0.11574091
   0.35795598  0.00295838  0.09855253
   0.00397943  0.35635900  0.09855190
   0.65055857  0.64898331  0.09855271
   0.32800331  0.32636864  0.10056236
   0.68056207  0.00300522  0.10057444
   0.00393147  0.67891961  0.10057317
   0.00005871  0.50002688  0.33380867
   0.16671419  0.33342954  0.33385294
   0.00002031  0.00001134  0.33370809
   0.16673442  0.83331315  0.33385680
   0.50000882  0.50003851  0.33381168
   0.66668283  0.33334589  0.33370697
   0.49999603 -0.00002616  0.33380709
   0.66659846  0.83329130  0.33385241
Direct configuration=    22
   0.00415826  0.00274938  0.11571924
   0.35795323  0.00296634  0.09856460
   0.00396545  0.35634613  0.09856422
   0.65057179  0.64898254  0.09856406
   0.32800275  0.32635950  0.10055160
   0.68056708  0.00301114  0.10056145
   0.00392373  0.67891885  0.10055978
   0.00003850  0.50001638  0.33381185
   0.16672246  0.33344614  0.33385521
   0.00001974  0.00001158  0.33371408
   0.16674575  0.83330726  0.33385916
   0.50001909  0.50002990  0.33381488
   0.66668421  0.33334628  0.33370742
   0.50000475 -0.00000632  0.33381038
   0.66658387  0.83328224  0.33385476
Direct configuration=    23
   0.00416039  0.00275584  0.11569823
   0.35795056  0.00297404  0.09857630
   0.00395189  0.35633366  0.09857616
   0.65058461  0.64898178  0.09857506
   0.32800221  0.32635064  0.10054116
   0.68057194  0.00301688  0.10054885
   0.00391623  0.67891811  0.10054680
   0.00001891  0.50000621  0.33381493
   0.16673047  0.33346223  0.33385740
   0.00001919  0.00001182  0.33371989
   0.16675674  0.83330154  0.33386144
   0.50002904  0.50002155  0.33381797
   0.66668555  0.33334667  0.33370787
   0.50001321  0.00001292  0.33381357
   0.66656973  0.83327345  0.33385704
Direct configuration=    24
   0.00416361  0.00276486  0.11567104
   0.35793845  0.00296922  0.09858629
   0.00395070  0.35632583  0.09858643
   0.65059463  0.64898795  0.09858413
   0.32800813  0.32636982  0.10053027
   0.68054857  0.00299822  0.10053485
   0.00392643  0.67891015  0.10053219
   0.00003278  0.50000350  0.33382146
   0.16671330  0.33344589  0.33386205
   0.00001869  0.00001218  0.33372527
   0.16676170  0.83332209  0.33386630
   0.50003115  0.50003966  0.33382462
   0.66668827  0.33334751  0.33370580
   0.49999453 -0.00000141  0.33382021
   0.66658970  0.83327187  0.33386177
Direct configuration=    25
   0.00416456  0.00276751  0.11566307
   0.35793490  0.00296781  0.09858922
   0.00395036  0.35632353  0.09858944
   0.65059757  0.64898976  0.09858678
   0.32800987  0.32637544  0.10052708
   0.68054171  0.00299275  0.10053074
   0.00392942  0.67890782  0.10052791
   0.00003685  0.50000270  0.33382337
   0.16670827  0.33344110  0.33386341
   0.00001854  0.00001229  0.33372685
   0.16676315  0.83332811  0.33386773
   0.50003177  0.50004497  0.33382657
   0.66668907  0.33334776  0.33370519
   0.49998906 -0.00000561  0.33382215
   0.66659556  0.83327140  0.33386316
Direct configuration=    26
   0.00416466  0.00277046  0.11563485
   0.35792601  0.00295277  0.09859078
   0.00396041  0.35633056  0.09859120
   0.65059379  0.64899386  0.09858761
   0.32801339  0.32640298  0.10052297
   0.68051307  0.00296320  0.10052374
   0.00394862  0.67890511  0.10052034
   0.00005169  0.50002392  0.33383015
   0.16671799  0.33343730  0.33387016
   0.00002355  0.00001365  0.33372981
   0.16674351  0.83331528  0.33387467
   0.50001690  0.50003602  0.33383352
   0.66668620  0.33334803  0.33370391
   0.50000411 -0.00001415  0.33382901
   0.66659676  0.83328834  0.33386995
Direct configuration=    27
   0.00416468  0.00277120  0.11562776
   0.35792377  0.00294899  0.09859117
   0.00396293  0.35633233  0.09859165
   0.65059284  0.64899489  0.09858782
   0.32801427  0.32640989  0.10052194
   0.68050588  0.00295579  0.10052198
   0.00395344  0.67890442  0.10051844
   0.00005542  0.50002924  0.33383185
   0.16672044  0.33343635  0.33387185
   0.00002481  0.00001400  0.33373055
   0.16673858  0.83331206  0.33387641
   0.50001317  0.50003378  0.33383526
   0.66668548  0.33334810  0.33370359
   0.50000788 -0.00001630  0.33383073
   0.66659707  0.83329259  0.33387165
Direct configuration=    28
   0.00416370  0.00277127  0.11560393
   0.35792029  0.00293752  0.09858870
   0.00397119  0.35634073  0.09858930
   0.65058586  0.64899568  0.09858487
   0.32801068  0.32642162  0.10052160
   0.68049321  0.00293746  0.10051954
   0.00396549  0.67890826  0.10051558
   0.00004812  0.50002530  0.33383710
   0.16672505  0.33344327  0.33387810
   0.00002411  0.00001439  0.33373254
   0.16674518  0.83331092  0.33388279
   0.50001683  0.50003192  0.33384063
   0.66668792  0.33334891  0.33370406
   0.50000957 -0.00000930  0.33383601
   0.66659347  0.83328939  0.33387792
Direct configuration=    29
   0.00416074  0.00277147  0.11553243
   0.35790984  0.00290311  0.09858129
   0.00399595  0.35636592  0.09858227
   0.65056492  0.64899807  0.09857605
   0.32799990  0.32645682  0.10052058
   0.68045523  0.00288246  0.10051219
   0.00400164  0.67891977  0.10050700
   0.00002622  0.50001346  0.33385283
   0.16673890  0.33346403  0.33389686
   0.00002200  0.00001558  0.33373848
   0.16676497  0.83330749  0.33390191
   0.50002782  0.50002634  0.33385675
   0.66669524  0.33335134  0.33370544
   0.50001463  0.00001168  0.33385186
   0.66658267  0.83327978  0.33389672
Direct configuration=    30
   0.00416008  0.00277174  0.11550431
   0.35791343  0.00290018  0.09857674
   0.00399669  0.35637141  0.09857784
   0.65055666  0.64899240  0.09857110
   0.32799355  0.32645042  0.10052094
   0.68045831  0.00288268  0.10051058
   0.00400034  0.67892270  0.10050499
   0.00003443  0.50001072  0.33385858
   0.16672808  0.33345720  0.33390389
   0.00002550  0.00001662  0.33374217
   0.16676620  0.83331767  0.33390898
   0.50003501  0.50003601  0.33386259
   0.66669414  0.33335176  0.33370861
   0.50000942  0.00000801  0.33385762
   0.66658884  0.83327782  0.33390374
Direct configuration=    31
   0.00415808  0.00277254  0.11541993
   0.35792422  0.00289142  0.09856308
   0.00399894  0.35638787  0.09856456
   0.65053187  0.64897537  0.09855625
   0.32797450  0.32643121  0.10052204
   0.68046756  0.00288334  0.10050573
   0.00399642  0.67893148  0.10049898
   0.00005906  0.50000251  0.33387582
   0.16669561  0.33343671  0.33392497
   0.00003597  0.00001975  0.33375322
   0.16676988  0.83334818  0.33393017
   0.50005657  0.50006502  0.33388011
   0.66669086  0.33335302  0.33371812
   0.49999378 -0.00000300  0.33387490
   0.66660736  0.83327193  0.33392479
Direct configuration=    32
   0.00415867  0.00277230  0.11544503
   0.35792101  0.00289403  0.09856714
   0.00399827  0.35638297  0.09856851
   0.65053925  0.64898043  0.09856067
   0.32798016  0.32643692  0.10052171
   0.68046481  0.00288315  0.10050717
   0.00399759  0.67892887  0.10050077
   0.00005173  0.50000495  0.33387069
   0.16670527  0.33344280  0.33391870
   0.00003285  0.00001882  0.33374993
   0.16676879  0.83333910  0.33392387
   0.50005016  0.50005639  0.33387490
   0.66669183  0.33335264  0.33371529
   0.49999843  0.00000028  0.33386976
   0.66660185  0.83327368  0.33391852
Direct configuration=    33
   0.00415710  0.00277086  0.11541290
   0.35793295  0.00290009  0.09856167
   0.00399037  0.35638704  0.09856313
   0.65052878  0.64896648  0.09855494
   0.32798187  0.32642337  0.10052062
   0.68047462  0.00290079  0.10050446
   0.00398256  0.67892238  0.10049774
   0.00005587  0.50001636  0.33387732
   0.16671596  0.33344150  0.33392611
   0.00003237  0.00001958  0.33375668
   0.16676230  0.83333284  0.33393120
   0.50003897  0.50005095  0.33388156
   0.66669529  0.33335395  0.33372208
   0.50000391 -0.00000369  0.33387637
   0.66660775  0.83328482  0.33392589
Direct configuration=    34
   0.00415297  0.00276708  0.11532838
   0.35796435  0.00291603  0.09854726
   0.00396958  0.35639774  0.09854898
   0.65050125  0.64892979  0.09853989
   0.32798636  0.32638772  0.10051777
   0.68050042  0.00294720  0.10049732
   0.00394304  0.67890533  0.10048977
   0.00006676  0.50004637  0.33389475
   0.16674408  0.33343807  0.33394559
   0.00003108  0.00002159  0.33377444
   0.16674523  0.83331638  0.33395048
   0.50000955  0.50003666  0.33389908
   0.66670438  0.33335740  0.33373992
   0.50001833 -0.00001410  0.33389378
   0.66662327  0.83331409  0.33394527
Direct configuration=    35
   0.00415441  0.00276840  0.11535778
   0.35795343  0.00291048  0.09855227
   0.00397681  0.35639402  0.09855390
   0.65051082  0.64894255  0.09854512
   0.32798480  0.32640012  0.10051876
   0.68049145  0.00293105  0.10049980
   0.00395679  0.67891126  0.10049254
   0.00006297  0.50003593  0.33388869
   0.16673430  0.33343926  0.33393881
   0.00003153  0.00002089  0.33376826
   0.16675116  0.83332211  0.33394378
   0.50001978  0.50004163  0.33389299
   0.66670122  0.33335620  0.33373371
   0.50001332 -0.00001048  0.33388773
   0.66661787  0.83330391  0.33393853
Direct configuration=    36
   0.00415005  0.00276214  0.11532274
   0.35796912  0.00292202  0.09854746
   0.00396321  0.35639697  0.09854909
   0.65050029  0.64892482  0.09854036
   0.32800082  0.32639387  0.10051324
   0.68049614  0.00295588  0.10049357
   0.00393439  0.67889255  0.10048617
   0.00005495  0.50002782  0.33389653
   0.16673727  0.33345142  0.33394599
   0.00003370  0.00002211  0.33377953
   0.16676189  0.83332172  0.33395074
   0.50003141  0.50004192  0.33390076
   0.66670250  0.33335731  0.33374532
   0.50001677  0.00000116  0.33389552
   0.66660815  0.83329562  0.33394564
Direct configuration=    37
   0.00414474  0.00275452  0.11528007
   0.35798823  0.00293607  0.09854160
   0.00394665  0.35640056  0.09854322
   0.65048747  0.64890322  0.09853456
   0.32802033  0.32638626  0.10050651
   0.68050185  0.00298611  0.10048599
   0.00390711  0.67886977  0.10047841
   0.00004517  0.50001794  0.33390608
   0.16674089  0.33346624  0.33395474
   0.00003634  0.00002360  0.33379325
   0.16677496  0.83332125  0.33395923
   0.50004558  0.50004227  0.33391024
   0.66670405  0.33335866  0.33375945
   0.50002098  0.00001533  0.33390501
   0.66659631  0.83328553  0.33395430
Direct configuration=    38
   0.00413997  0.00274703  0.11525298
   0.35798924  0.00294136  0.09853988
   0.00394060  0.35639696  0.09854135
   0.65048767  0.64890111  0.09853323
   0.32802812  0.32638982  0.10049627
   0.68049767  0.00299053  0.10047661
   0.00389967  0.67886073  0.10046920
   0.00005269  0.50001861  0.33391308
   0.16673382  0.33345811  0.33395983
   0.00003944  0.00002488  0.33380545
   0.16677381  0.83332977  0.33396405
   0.50004930  0.50004880  0.33391710
   0.66670440  0.33335956  0.33377239
   0.50001866  0.00001216  0.33391193
   0.66660562  0.83328791  0.33395931
Direct configuration=    39
   0.00412567  0.00272456  0.11517171
   0.35799225  0.00295724  0.09853472
   0.00392244  0.35638616  0.09853573
   0.65048825  0.64889477  0.09852926
   0.32805147  0.32640048  0.10046554
   0.68048511  0.00300380  0.10044848
   0.00387735  0.67883363  0.10044155
   0.00007526  0.50002060  0.33393407
   0.16671260  0.33343373  0.33397510
   0.00004874  0.00002873  0.33384204
   0.16677036  0.83335532  0.33397852
   0.50006047  0.50006838  0.33393768
   0.66670547  0.33336223  0.33381124
   0.50001170  0.00000264  0.33393269
   0.66663353  0.83329505  0.33397434
Direct configuration=    40
   0.00413091  0.00273280  0.11520153
   0.35799115  0.00295142  0.09853661
   0.00392910  0.35639012  0.09853779
   0.65048804  0.64889710  0.09853072
   0.32804291  0.32639657  0.10047681
   0.68048971  0.00299893  0.10045880
   0.00388554  0.67884357  0.10045170
   0.00006698  0.50001987  0.33392637
   0.16672038  0.33344268  0.33396950
   0.00004532  0.00002732  0.33382861
   0.16677162  0.83334595  0.33397321
   0.50005637  0.50006120  0.33393013
   0.66670508  0.33336125  0.33379699
   0.50001425  0.00000613  0.33392507
   0.66662329  0.83329243  0.33396883
Direct configuration=    41
   0.00412903  0.00273047  0.11517797
   0.35798616  0.00295079  0.09853512
   0.00392994  0.35638609  0.09853614
   0.65048858  0.64890026  0.09852969
   0.32803638  0.32639888  0.10046569
   0.68048368  0.00299024  0.10044915
   0.00389007  0.67884478  0.10044231
   0.00006682  0.50002836  0.33393297
   0.16673429  0.33344861  0.33397472
   0.00004383  0.00002804  0.33383925
   0.16677137  0.83333809  0.33397823
   0.50004724  0.50005512  0.33393660
   0.66670987  0.33336289  0.33380923
   0.50001966  0.00000567  0.33393160
   0.66662372  0.83329906  0.33397399
Direct configuration=    42
   0.00412404  0.00272428  0.11511550
   0.35797295  0.00294913  0.09853118
   0.00393217  0.35637540  0.09853175
   0.65049003  0.64890865  0.09852698
   0.32801907  0.32640500  0.10043620
   0.68046770  0.00296717  0.10042355
   0.00390210  0.67884797  0.10041744
   0.00006638  0.50005086  0.33395046
   0.16677117  0.33346436  0.33398858
   0.00003988  0.00002995  0.33386746
   0.16677070  0.83331725  0.33399153
   0.50002304  0.50003899  0.33395378
   0.66672258  0.33336723  0.33384169
   0.50003401  0.00000447  0.33394889
   0.66662486  0.83331664  0.33398768
Direct configuration=    43
   0.00412662  0.00272748  0.11514778
   0.35797978  0.00294999  0.09853322
   0.00393102  0.35638092  0.09853402
   0.65048928  0.64890432  0.09852838
   0.32802801  0.32640183  0.10045144
   0.68047596  0.00297909  0.10043678
   0.00389588  0.67884632  0.10043029
   0.00006660  0.50003923  0.33394142
   0.16675211  0.33345622  0.33398142
   0.00004192  0.00002896  0.33385288
   0.16677105  0.83332802  0.33398466
   0.50003555  0.50004732  0.33394491
   0.66671601  0.33336499  0.33382492
   0.50002660  0.00000509  0.33393995
   0.66662427  0.83330755  0.33398060
Direct configuration=    44
   0.00412740  0.00273059  0.11512752
   0.35797480  0.00294320  0.09853019
   0.00393692  0.35638208  0.09853082
   0.65048400  0.64890541  0.09852584
   0.32801322  0.32640469  0.10044018
   0.68046737  0.00296130  0.10042754
   0.00390907  0.67885350  0.10042144
   0.00006480  0.50003343  0.33394816
   0.16675031  0.33346419  0.33398797
   0.00004649  0.00003056  0.33386092
   0.16677778  0.83332942  0.33399112
   0.50004737  0.50004987  0.33395158
   0.66671491  0.33336570  0.33383561
   0.50003031  0.00001304  0.33394663
   0.66661590  0.83330034  0.33398713
Direct configuration=    45
   0.00412857  0.00273522  0.11509745
   0.35796742  0.00293312  0.09852570
   0.00394568  0.35638380  0.09852608
   0.65047617  0.64890703  0.09852206
   0.32799125  0.32640894  0.10042347
   0.68045463  0.00293490  0.10041383
   0.00392864  0.67886416  0.10040831
   0.00006214  0.50002483  0.33395817
   0.16674764  0.33347601  0.33399770
   0.00005328  0.00003292  0.33387286
   0.16678778  0.83333151  0.33400071
   0.50006493  0.50005366  0.33396148
   0.66671328  0.33336676  0.33385149
   0.50003582  0.00002484  0.33395654
   0.66660346  0.83328963  0.33399681
Direct configuration=    46
   0.00412810  0.00273336  0.11510957
   0.35797039  0.00293719  0.09852751
   0.00394215  0.35638311  0.09852800
   0.65047933  0.64890637  0.09852358
   0.32800011  0.32640723  0.10043020
   0.68045977  0.00294554  0.10041935
   0.00392075  0.67885987  0.10041360
   0.00006321  0.50002830  0.33395414
   0.16674872  0.33347125  0.33399378
   0.00005054  0.00003197  0.33386805
   0.16678375  0.83333067  0.33399684
   0.50005785  0.50005213  0.33395749
   0.66671394  0.33336633  0.33384509
   0.50003360  0.00002008  0.33395255
   0.66660847  0.83329395  0.33399291
Direct configuration=    47
   0.00412823  0.00273647  0.11509588
   0.35797162  0.00292871  0.09852225
   0.00394549  0.35639175  0.09852259
   0.65046848  0.64889974  0.09851872
   0.32799427  0.32641279  0.10042214
   0.68045079  0.00293224  0.10041333
   0.00392953  0.67886287  0.10040799
   0.00006510  0.50002797  0.33396025
   0.16674505  0.33346358  0.33400064
   0.00005083  0.00003270  0.33387179
   0.16678454  0.83333869  0.33400379
   0.50005923  0.50005597  0.33396361
   0.66671673  0.33336750  0.33385127
   0.50003060  0.00001909  0.33395863
   0.66662018  0.83329726  0.33399979
Direct configuration=    48
   0.00412864  0.00274580  0.11505480
   0.35797528  0.00290329  0.09850647
   0.00395550  0.35641768  0.09850639
   0.65043594  0.64887984  0.09850414
   0.32797677  0.32642947  0.10039794
   0.68042387  0.00289234  0.10039527
   0.00395589  0.67887187  0.10039116
   0.00007077  0.50002699  0.33397858
   0.16673403  0.33344059  0.33402122
   0.00005169  0.00003489  0.33388301
   0.16678690  0.83336275  0.33402462
   0.50006337  0.50006749  0.33398196
   0.66672512  0.33337102  0.33386978
   0.50002162  0.00001611  0.33397690
   0.66665528  0.83330719  0.33402043
Direct configuration=    49
   0.00412842  0.00274085  0.11507658
   0.35797334  0.00291677  0.09851484
   0.00395019  0.35640393  0.09851498
   0.65045319  0.64889039  0.09851187
   0.32798605  0.32642063  0.10041077
   0.68043815  0.00291349  0.10040485
   0.00394192  0.67886710  0.10040008
   0.00006776  0.50002751  0.33396886
   0.16673987  0.33345278  0.33401031
   0.00005124  0.00003373  0.33387706
   0.16678564  0.83334999  0.33401358
   0.50006117  0.50006139  0.33397223
   0.66672067  0.33336915  0.33385997
   0.50002638  0.00001769  0.33396721
   0.66663667  0.83330192  0.33400948
Direct configuration=    50
   0.00412694  0.00274161  0.11506501
   0.35797443  0.00291031  0.09850792
   0.00394945  0.35641053  0.09850794
   0.65044647  0.64888472  0.09850529
   0.32798458  0.32642187  0.10040390
   0.68043420  0.00290785  0.10039994
   0.00394300  0.67886820  0.10039558
   0.00007335  0.50003480  0.33397548
   0.16674614  0.33345592  0.33401736
   0.00005337  0.00003488  0.33387995
   0.16678303  0.83334513  0.33402079
   0.50005725  0.50005959  0.33397888