   8   8   0   0
  0.4338553E+02  0.5169000E-09  0.5169000E-09  0.1500000E-08  0.5000000E-15
  1.000000000000000E-004
  CAR 
 BC3                                     
      9.53060513    -21.28561026  301     -3.47716597      1.00000000
    -21.286  0.0000E+00  0.0000E+00
    -21.183  0.0000E+00  0.0000E+00
    -21.080  0.0000E+00  0.0000E+00
    -20.977  0.0000E+00  0.0000E+00
    -20.875  0.0000E+00  0.0000E+00
    -20.772  0.0000E+00  0.0000E+00
    -20.669  0.0000E+00  0.0000E+00
    -20.567  0.0000E+00  0.0000E+00
    -20.464  0.1186E-18  0.1218E-19
    -20.361  0.1485E-13  0.1525E-14
    -20.258  0.1442E-09  0.1482E-10
    -20.156  0.1912E-06  0.1965E-07
    -20.053  0.3711E-04  0.3831E-05
    -19.950  0.1199E-02  0.1270E-03
    -19.848  0.8107E-02  0.9598E-03
    -19.745  0.1714E-01  0.2720E-02
    -19.642  0.2080E-01  0.4856E-02
    -19.539  0.2343E-01  0.7263E-02
    -19.437  0.2879E-01  0.1022E-01
    -19.334  0.3995E-01  0.1432E-01
    -19.231  0.3924E-01  0.1835E-01
    -19.128  0.1455E-01  0.1985E-01
    -19.026  0.1435E-02  0.2000E-01
    -18.923  0.2900E-04  0.2000E-01
    -18.820  0.9761E-07  0.2000E-01
    -18.718  0.4806E-10  0.2000E-01
    -18.615  0.3223E-14  0.2000E-01
    -18.512  0.0000E+00  0.2000E-01
    -18.409  0.0000E+00  0.2000E-01
    -18.307  0.0000E+00  0.2000E-01
    -18.204  0.0000E+00  0.2000E-01
    -18.101  0.8500E-14  0.2000E-01
    -17.999  0.9898E-10  0.2000E-01
    -17.896  0.1567E-06  0.2000E-01
    -17.793  0.3606E-04  0.2000E-01
    -17.690  0.1364E-02  0.2014E-01
    -17.588  0.1060E-01  0.2123E-01
    -17.485  0.2529E-01  0.2383E-01
    -17.382  0.3226E-01  0.2714E-01
    -17.280  0.2728E-01  0.2995E-01
    -17.177  0.1970E-01  0.3197E-01
    -17.074  0.1846E-01  0.3387E-01
    -16.971  0.1912E-01  0.3583E-01
    -16.869  0.2010E-01  0.3790E-01
    -16.766  0.2148E-01  0.4010E-01
    -16.663  0.2363E-01  0.4253E-01
    -16.560  0.2775E-01  0.4538E-01
    -16.458  0.3446E-01  0.4892E-01
    -16.355  0.3395E-01  0.5241E-01
    -16.252  0.2596E-01  0.5507E-01
    -16.150  0.2054E-01  0.5718E-01
    -16.047  0.1643E-01  0.5887E-01
    -15.944  0.9071E-02  0.5980E-01
    -15.841  0.1849E-02  0.5999E-01
    -15.739  0.8681E-04  0.6000E-01
    -15.636  0.7148E-06  0.6000E-01
    -15.533  0.8881E-09  0.6000E-01
    -15.431  0.1537E-12  0.6000E-01
    -15.328  0.3410E-17  0.6000E-01
    -15.225  0.0000E+00  0.6000E-01
    -15.122  0.0000E+00  0.6000E-01
    -15.020  0.0000E+00  0.6000E-01
    -14.917  0.0000E+00  0.6000E-01
    -14.814  0.0000E+00  0.6000E-01
    -14.711  0.1134E-15  0.6000E-01
    -14.609  0.2722E-11  0.6000E-01
    -14.506  0.8850E-08  0.6000E-01
    -14.403  0.4134E-05  0.6000E-01
    -14.301  0.3042E-03  0.6003E-01
    -14.198  0.4150E-02  0.6046E-01
    -14.095  0.1431E-01  0.6193E-01
    -13.992  0.2101E-01  0.6409E-01
    -13.890  0.2442E-01  0.6659E-01
    -13.787  0.2981E-01  0.6966E-01
    -13.684  0.3552E-01  0.7331E-01
    -13.582  0.2732E-01  0.7611E-01
    -13.479  0.1849E-01  0.7801E-01
    -13.376  0.1555E-01  0.7961E-01
    -13.273  0.1447E-01  0.8109E-01
    -13.171  0.1382E-01  0.8251E-01
    -13.068  0.1330E-01  0.8388E-01
    -12.965  0.1272E-01  0.8519E-01
    -12.863  0.1285E-01  0.8651E-01
    -12.760  0.1423E-01  0.8797E-01
    -12.657  0.1872E-01  0.8989E-01
    -12.554  0.1994E-01  0.9194E-01
    -12.452  0.1878E-01  0.9387E-01
    -12.349  0.1750E-01  0.9567E-01
    -12.246  0.1603E-01  0.9731E-01
    -12.143  0.1516E-01  0.9887E-01
    -12.041  0.1426E-01  0.1003E+00
    -11.938  0.1302E-01  0.1017E+00
    -11.835  0.1020E-01  0.1027E+00
    -11.733  0.5820E-02  0.1033E+00
    -11.630  0.4293E-02  0.1038E+00
    -11.527  0.5168E-02  0.1043E+00
    -11.424  0.3855E-02  0.1047E+00
    -11.322  0.5761E-02  0.1053E+00
    -11.219  0.6067E-02  0.1059E+00
    -11.116  0.7125E-02  0.1066E+00
    -11.014  0.9972E-02  0.1077E+00
    -10.911  0.8790E-02  0.1086E+00
    -10.808  0.1307E-01  0.1099E+00
    -10.705  0.1648E-01  0.1116E+00
    -10.603  0.1504E-01  0.1131E+00
    -10.500  0.1837E-01  0.1150E+00
    -10.397  0.2014E-01  0.1171E+00
    -10.294  0.2094E-01  0.1192E+00
    -10.192  0.2373E-01  0.1217E+00
    -10.089  0.1643E-01  0.1234E+00
     -9.986  0.1298E-01  0.1247E+00
     -9.884  0.1688E-01  0.1264E+00
     -9.781  0.2619E-01  0.1291E+00
     -9.678  0.2719E-01  0.1319E+00
     -9.575  0.2164E-01  0.1341E+00
     -9.473  0.2108E-01  0.1363E+00
     -9.370  0.1905E-01  0.1383E+00
     -9.267  0.1757E-01  0.1401E+00
     -9.165  0.2088E-01  0.1422E+00
     -9.062  0.2148E-01  0.1444E+00
     -8.959  0.2377E-01  0.1469E+00
     -8.856  0.2724E-01  0.1497E+00
     -8.754  0.2417E-01  0.1521E+00
     -8.651  0.2666E-01  0.1549E+00
     -8.548  0.3013E-01  0.1580E+00
     -8.446  0.2809E-01  0.1609E+00
     -8.343  0.2321E-01  0.1632E+00
     -8.240  0.2068E-01  0.1654E+00
     -8.137  0.1996E-01  0.1674E+00
     -8.035  0.2466E-01  0.1700E+00
     -7.932  0.3183E-01  0.1732E+00
     -7.829  0.3974E-01  0.1773E+00
     -7.726  0.4431E-01  0.1819E+00
     -7.624  0.4325E-01  0.1863E+00
     -7.521  0.3898E-01  0.1903E+00
     -7.418  0.2574E-01  0.1929E+00
     -7.316  0.1737E-01  0.1947E+00
     -7.213  0.2004E-01  0.1968E+00
     -7.110  0.2087E-01  0.1989E+00
     -7.007  0.1756E-01  0.2007E+00
     -6.905  0.1607E-01  0.2024E+00
     -6.802  0.1639E-01  0.2041E+00
     -6.699  0.1843E-01  0.2060E+00
     -6.597  0.2710E-01  0.2087E+00
     -6.494  0.4210E-01  0.2131E+00
     -6.391  0.6829E-01  0.2201E+00
     -6.288  0.7935E-01  0.2282E+00
     -6.186  0.5789E-01  0.2342E+00
     -6.083  0.3938E-01  0.2382E+00
     -5.980  0.2680E-01  0.2410E+00
     -5.878  0.2357E-01  0.2434E+00
     -5.775  0.2325E-01  0.2458E+00
     -5.672  0.2482E-01  0.2483E+00
     -5.569  0.2484E-01  0.2509E+00
     -5.467  0.2677E-01  0.2536E+00
     -5.364  0.2775E-01  0.2565E+00
     -5.261  0.2964E-01  0.2595E+00
     -5.158  0.3276E-01  0.2629E+00
     -5.056  0.3702E-01  0.2667E+00
     -4.953  0.4179E-01  0.2710E+00
     -4.850  0.4365E-01  0.2755E+00
     -4.748  0.4716E-01  0.2803E+00
     -4.645  0.4635E-01  0.2851E+00
     -4.542  0.3934E-01  0.2891E+00
     -4.439  0.2802E-01  0.2920E+00
     -4.337  0.1592E-01  0.2936E+00
     -4.234  0.1278E-01  0.2950E+00
     -4.131  0.1201E-01  0.2962E+00
     -4.029  0.1164E-01  0.2974E+00
     -3.926  0.1117E-01  0.2985E+00
     -3.823  0.9406E-02  0.2995E+00
     -3.720  0.4283E-02  0.2999E+00
     -3.618  0.5849E-03  0.3000E+00
     -3.515  0.1638E-04  0.3000E+00
     -3.412  0.4549E-06  0.3000E+00
     -3.309  0.5197E-04  0.3000E+00
     -3.207  0.1283E-02  0.3001E+00
     -3.104  0.7096E-02  0.3009E+00
     -3.001  0.1328E-01  0.3022E+00
     -2.899  0.1618E-01  0.3039E+00
     -2.796  0.1826E-01  0.3058E+00
     -2.693  0.2345E-01  0.3082E+00
     -2.590  0.2657E-01  0.3109E+00
     -2.488  0.2306E-01  0.3133E+00
     -2.385  0.1535E-01  0.3149E+00
     -2.282  0.1314E-01  0.3162E+00
     -2.180  0.9557E-02  0.3172E+00
     -2.077  0.8605E-02  0.3181E+00
     -1.974  0.6372E-02  0.3187E+00
     -1.871  0.4236E-02  0.3192E+00
     -1.769  0.3282E-02  0.3195E+00
     -1.666  0.1950E-02  0.3197E+00
     -1.563  0.1811E-02  0.3199E+00
     -1.461  0.7186E-03  0.3200E+00
     -1.358  0.5416E-03  0.3200E+00
     -1.255  0.4921E-03  0.3201E+00
     -1.152  0.1029E-02  0.3202E+00
     -1.050  0.1912E-02  0.3204E+00
     -0.947  0.2220E-02  0.3206E+00
     -0.844  0.3580E-02  0.3210E+00
     -0.741  0.3714E-02  0.3213E+00
     -0.639  0.5249E-02  0.3219E+00
     -0.536  0.6171E-02  0.3225E+00
     -0.433  0.6949E-02  0.3232E+00
     -0.331  0.1058E-01  0.3243E+00
     -0.228  0.1439E-01  0.3258E+00
     -0.125  0.2881E-01  0.3287E+00
     -0.022  0.2879E-01  0.3317E+00
      0.080  0.2158E-01  0.3339E+00
      0.183  0.1753E-01  0.3357E+00
      0.286  0.1403E-01  0.3372E+00
      0.388  0.1382E-01  0.3386E+00
      0.491  0.1478E-01  0.3401E+00
      0.594  0.1463E-01  0.3416E+00
      0.697  0.1387E-01  0.3430E+00
      0.799  0.1142E-01  0.3442E+00
      0.902  0.1360E-01  0.3456E+00
      1.005  0.1780E-01  0.3474E+00
      1.108  0.1898E-01  0.3494E+00
      1.210  0.1914E-01  0.3513E+00
      1.313  0.2034E-01  0.3534E+00
      1.416  0.2092E-01  0.3556E+00
      1.518  0.2300E-01  0.3579E+00
      1.621  0.2414E-01  0.3604E+00
      1.724  0.2365E-01  0.3629E+00
      1.827  0.2419E-01  0.3653E+00
      1.929  0.2778E-01  0.3682E+00
      2.032  0.3001E-01  0.3713E+00
      2.135  0.2984E-01  0.3743E+00
      2.237  0.3251E-01  0.3777E+00
      2.340  0.3601E-01  0.3814E+00
      2.443  0.3869E-01  0.3854E+00
      2.546  0.3899E-01  0.3894E+00
      2.648  0.3866E-01  0.3933E+00
      2.751  0.3801E-01  0.3972E+00
      2.854  0.3869E-01  0.4012E+00
      2.956  0.3850E-01  0.4052E+00
      3.059  0.3741E-01  0.4090E+00
      3.162  0.3877E-01  0.4130E+00
      3.265  0.3744E-01  0.4168E+00
      3.367  0.3855E-01  0.4208E+00
      3.470  0.3747E-01  0.4246E+00
      3.573  0.3801E-01  0.4285E+00
      3.676  0.3809E-01  0.4325E+00
      3.778  0.3786E-01  0.4363E+00
      3.881  0.3836E-01  0.4403E+00
      3.984  0.4173E-01  0.4446E+00
      4.086  0.3831E-01  0.4485E+00
      4.189  0.3149E-01  0.4517E+00
      4.292  0.3513E-01  0.4554E+00
      4.395  0.4145E-01  0.4596E+00
      4.497  0.4918E-01  0.4647E+00
      4.600  0.4961E-01  0.4698E+00
      4.703  0.4626E-01  0.4745E+00
      4.805  0.5004E-01  0.4796E+00
      4.908  0.5545E-01  0.4853E+00
      5.011  0.5862E-01  0.4914E+00
      5.114  0.6122E-01  0.4977E+00
      5.216  0.6599E-01  0.5044E+00
      5.319  0.7122E-01  0.5117E+00
      5.422  0.7608E-01  0.5196E+00
      5.524  0.7981E-01  0.5278E+00
      5.627  0.7508E-01  0.5355E+00
      5.730  0.6145E-01  0.5418E+00
      5.833  0.6539E-01  0.5485E+00
      5.935  0.7846E-01  0.5566E+00
      6.038  0.8021E-01  0.5648E+00
      6.141  0.7173E-01  0.5722E+00
      6.244  0.6574E-01  0.5789E+00
      6.346  0.7283E-01  0.5864E+00
      6.449  0.7885E-01  0.5945E+00
      6.552  0.6614E-01  0.6013E+00
      6.654  0.6126E-01  0.6076E+00
      6.757  0.6436E-01  0.6142E+00
      6.860  0.6994E-01  0.6214E+00
      6.963  0.6261E-01  0.6278E+00
      7.065  0.4370E-01  0.6323E+00
      7.168  0.2635E-01  0.6350E+00
      7.271  0.1499E-01  0.6366E+00
      7.373  0.8868E-02  0.6375E+00
      7.476  0.7186E-02  0.6382E+00
      7.579  0.4785E-02  0.6387E+00
      7.682  0.4224E-02  0.6391E+00
      7.784  0.3024E-02  0.6394E+00
      7.887  0.2084E-02  0.6397E+00
      7.990  0.1284E-02  0.6398E+00
      8.093  0.9616E-03  0.6399E+00
      8.195  0.9475E-03  0.6400E+00
      8.298  0.1972E-03  0.6400E+00
      8.401  0.6898E-05  0.6400E+00
      8.503  0.3687E-07  0.6400E+00
      8.606  0.2838E-10  0.6400E+00
      8.709  0.3026E-14  0.6400E+00
      8.812  0.2965E-19  0.6400E+00
      8.914  0.0000E+00  0.6400E+00
      9.017  0.0000E+00  0.6400E+00
      9.120  0.0000E+00  0.6400E+00
      9.222  0.0000E+00  0.6400E+00
      9.325  0.0000E+00  0.6400E+00
      9.428  0.0000E+00  0.6400E+00
      9.531  0.0000E+00  0.6400E+00
