 running on   16 total cores
 distrk:  each k-point on   16 cores,    1 groups
 distr:  one band on    1 cores,   16 groups
 using from now: INCAR     
 vasp.5.4.4.18Apr17-6-g9f103f2a35 (build Mar 30 2023 15:39:25) complex          
  
 POSCAR found type information on POSCAR  B  C 
 POSCAR found :  2 types and       8 ions
 scaLAPACK will be used

 ----------------------------------------------------------------------------- 
|                                                                             |
|           W    W    AA    RRRRR   N    N  II  N    N   GGGG   !!!           |
|           W    W   A  A   R    R  NN   N  II  NN   N  G    G  !!!           |
|           W    W  A    A  R    R  N N  N  II  N N  N  G       !!!           |
|           W WW W  AAAAAA  RRRRR   N  N N  II  N  N N  G  GGG   !            |
|           WW  WW  A    A  R   R   N   NN  II  N   NN  G    G                |
|           W    W  A    A  R    R  N    N  II  N    N   GGGG   !!!           |
|                                                                             |
|      For optimal performance we recommend to set                            |
|        NCORE= 4 - approx SQRT( number of cores)                             |
|      NCORE specifies how many cores store one orbital (NPAR=cpu/NCORE).     |
|      This setting can  greatly improve the performance of VASP for DFT.     |
|      The default,   NCORE=1            might be grossly inefficient         |
|      on modern multi-core architectures or massively parallel machines.     |
|      Do your own testing !!!!                                               |
|      Unfortunately you need to use the default for GW and RPA calculations. |
|      (for HF NCORE is supported but not extensively tested yet)             |
|                                                                             |
 ----------------------------------------------------------------------------- 

 LDA part: xc-table for Pade appr. of Perdew
 POSCAR, INCAR and KPOINTS ok, starting setup
 FFT: planning ...
 WAVECAR not read
 entering main loop
       N       E                     dE             d eps       ncg     rms          rms(c)
DAV:   1     0.181033324921E+03    0.18103E+03   -0.10093E+04 23360   0.620E+02
DAV:   2    -0.503696043576E+02   -0.23140E+03   -0.20387E+03 38768   0.156E+02
DAV:   3    -0.729296567442E+02   -0.22560E+02   -0.22321E+02 32736   0.553E+01
DAV:   4    -0.734692950910E+02   -0.53964E+00   -0.53868E+00 32720   0.104E+01
DAV:   5    -0.734814452109E+02   -0.12150E-01   -0.12142E-01 29984   0.147E+00    0.132E+01
DAV:   6    -0.689753873729E+02    0.45061E+01   -0.40610E+00 33328   0.791E+00    0.742E+00
DAV:   7    -0.673311777517E+02    0.16442E+01   -0.37062E+00 33872   0.710E+00    0.220E+00
DAV:   8    -0.672518832659E+02    0.79294E-01   -0.22531E-01 31616   0.180E+00    0.528E-01
DAV:   9    -0.672369298492E+02    0.14953E-01   -0.22400E-02 30784   0.648E-01    0.180E-01
DAV:  10    -0.672258725557E+02    0.11057E-01   -0.69931E-03 30688   0.295E-01    0.158E-01
DAV:  11    -0.672251891880E+02    0.68337E-03   -0.31158E-03 30848   0.196E-01    0.519E-02
DAV:  12    -0.672231591882E+02    0.20300E-02   -0.14561E-03 25696   0.105E-01    0.399E-02
DAV:  13    -0.672258914654E+02   -0.27323E-02   -0.28058E-04 29648   0.604E-02    0.230E-02
DAV:  14    -0.672287839959E+02   -0.28925E-02   -0.59763E-04 30080   0.632E-02    0.186E-02
DAV:  15    -0.672290277798E+02   -0.24378E-03   -0.34452E-05 31920   0.198E-02    0.763E-03
DAV:  16    -0.672295949080E+02   -0.56713E-03   -0.55318E-05 28160   0.178E-02    0.268E-03
DAV:  17    -0.672296468548E+02   -0.51947E-04   -0.17402E-06 29296   0.421E-03    0.153E-03
DAV:  18    -0.672296749465E+02   -0.28092E-04   -0.95070E-07 25056   0.251E-03    0.305E-04
DAV:  19    -0.672296764292E+02   -0.14827E-05   -0.18813E-08 24400   0.458E-04    0.162E-04
DAV:  20    -0.672296776576E+02   -0.12283E-05   -0.28242E-08 19456   0.408E-04    0.646E-05
DAV:  21    -0.672296777520E+02   -0.94472E-07   -0.33410E-09 23456   0.160E-04
   1 F= -.67907715E+02 E0= -.67907715E+02  d E =-.679077E+02
 curvature:   0.00 expect dE= 0.000E+00 dE for cont linesearch  0.000E+00
 trial: gam= 0.00000 g(F)=  0.163E-05 g(S)=  0.000E+00 ort = 0.000E+00 (trialstep = 0.100E+01)
 search vector abs. value=  0.163E-05
 reached required accuracy - stopping structural energy minimisation
