Automatically generated mesh
     221
Reciprocal lattice
    0.00000000000000    0.00000000000000    0.00000000000000             1
    0.04761904761905   -0.00000000000000    0.00000000000000             2
    0.00000000000000    0.04761904761905    0.00000000000000             2
   -0.04761904761905    0.04761904761905    0.00000000000000             2
    0.09523809523809    0.00000000000000    0.00000000000000             2
    0.00000000000000    0.09523809523809    0.00000000000000             2
   -0.09523809523809    0.09523809523809    0.00000000000000             2
    0.14285714285715    0.00000000000000    0.00000000000000             2
   -0.00000000000000    0.14285714285715    0.00000000000000             2
   -0.14285714285715    0.14285714285715    0.00000000000000             2
    0.19047619047619    0.00000000000000    0.00000000000000             2
    0.00000000000000    0.19047619047619    0.00000000000000             2
   -0.19047619047619    0.19047619047619    0.00000000000000             2
    0.23809523809524    0.00000000000000    0.00000000000000             2
   -0.00000000000000    0.23809523809524    0.00000000000000             2
   -0.23809523809524    0.23809523809524    0.00000000000000             2
    0.28571428571428    0.00000000000000    0.00000000000000             2
    0.00000000000000    0.28571428571428    0.00000000000000             2
   -0.28571428571428    0.28571428571428    0.00000000000000             2
    0.33333333333334    0.00000000000000    0.00000000000000             2
    0.00000000000000    0.33333333333334    0.00000000000000             2
   -0.33333333333334    0.33333333333334    0.00000000000000             2
    0.38095238095238    0.00000000000000    0.00000000000000             2
    0.00000000000000    0.38095238095238    0.00000000000000             2
   -0.38095238095238    0.38095238095238    0.00000000000000             2
    0.42857142857143    0.00000000000000    0.00000000000000             2
    0.00000000000000    0.42857142857143    0.00000000000000             2
   -0.42857142857143    0.42857142857143    0.00000000000000             2
    0.47619047619047    0.00000000000000    0.00000000000000             2
    0.00000000000000    0.47619047619047    0.00000000000000             2
   -0.47619047619047    0.47619047619047    0.00000000000000             2
    0.04761904761905    0.04761904761905    0.00000000000000             2
   -0.04761904761905    0.09523809523810    0.00000000000000             2
   -0.09523809523810    0.04761904761905    0.00000000000000             2
    0.09523809523809    0.04761904761905    0.00000000000000             2
   -0.04761904761905    0.14285714285715    0.00000000000000             2
   -0.14285714285715    0.09523809523809    0.00000000000000             2
   -0.09523809523809    0.14285714285715    0.00000000000000             2
    0.04761904761905    0.09523809523809    0.00000000000000             2
    0.14285714285715   -0.04761904761905    0.00000000000000             2
    0.14285714285715    0.04761904761905    0.00000000000000             2
   -0.04761904761905    0.19047619047620    0.00000000000000             2
   -0.19047619047620    0.14285714285715    0.00000000000000             2
   -0.14285714285715    0.19047619047620    0.00000000000000             2
    0.04761904761905    0.14285714285715    0.00000000000000             2
    0.19047619047620   -0.04761904761905    0.00000000000000             2
    0.19047619047619    0.04761904761905    0.00000000000000             2
   -0.04761904761905    0.23809523809524    0.00000000000000             2
   -0.23809523809524    0.19047619047619    0.00000000000000             2
   -0.19047619047619    0.23809523809524    0.00000000000000             2
    0.04761904761905    0.19047619047619    0.00000000000000             2
    0.23809523809524   -0.04761904761905    0.00000000000000             2
    0.23809523809524    0.04761904761905    0.00000000000000             2
   -0.04761904761905    0.28571428571429    0.00000000000000             2
   -0.28571428571429    0.23809523809524    0.00000000000000             2
   -0.23809523809524    0.28571428571429    0.00000000000000             2
    0.04761904761905    0.23809523809524    0.00000000000000             2
    0.28571428571429   -0.04761904761905    0.00000000000000             2
    0.28571428571428    0.04761904761905    0.00000000000000             2
   -0.04761904761905    0.33333333333334    0.00000000000000             2
   -0.33333333333334    0.28571428571428    0.00000000000000             2
   -0.28571428571428    0.33333333333334    0.00000000000000             2
    0.04761904761905    0.28571428571428    0.00000000000000             2
    0.33333333333334   -0.04761904761905    0.00000000000000             2
    0.33333333333334    0.04761904761905    0.00000000000000             2
   -0.04761904761905    0.38095238095239    0.00000000000000             2
   -0.38095238095239    0.33333333333334    0.00000000000000             2
   -0.33333333333334    0.38095238095239    0.00000000000000             2
    0.04761904761905    0.33333333333334    0.00000000000000             2
    0.38095238095239   -0.04761904761905    0.00000000000000             2
    0.38095238095238    0.04761904761905    0.00000000000000             2
   -0.04761904761905    0.42857142857143    0.00000000000000             2
   -0.42857142857143    0.38095238095238    0.00000000000000             2
   -0.38095238095238    0.42857142857143    0.00000000000000             2
    0.04761904761905    0.38095238095238    0.00000000000000             2
    0.42857142857143   -0.04761904761905    0.00000000000000             2
    0.42857142857143    0.04761904761905    0.00000000000000             2
   -0.04761904761905    0.47619047619048    0.00000000000000             2
   -0.47619047619048    0.42857142857143    0.00000000000000             2
   -0.42857142857143    0.47619047619048    0.00000000000000             2
    0.04761904761905    0.42857142857143    0.00000000000000             2
    0.47619047619048   -0.04761904761905    0.00000000000000             2
    0.47619047619047    0.04761904761905    0.00000000000000             2
   -0.04761904761905   -0.47619047619047    0.00000000000000             2
    0.47619047619047    0.47619047619047    0.00000000000000             2
    0.09523809523809    0.09523809523809    0.00000000000000             2
   -0.09523809523809    0.19047619047619    0.00000000000000             2
   -0.19047619047619    0.09523809523809    0.00000000000000             2
    0.14285714285715    0.09523809523809    0.00000000000000             2
   -0.09523809523809    0.23809523809524    0.00000000000000             2
   -0.23809523809524    0.14285714285715    0.00000000000000             2
   -0.14285714285715    0.23809523809524    0.00000000000000             2
    0.09523809523809    0.14285714285715    0.00000000000000             2
    0.23809523809524   -0.09523809523809    0.00000000000000             2
    0.19047619047619    0.09523809523809    0.00000000000000             2
   -0.09523809523809    0.28571428571428    0.00000000000000             2
   -0.28571428571428    0.19047619047619    0.00000000000000             2
   -0.19047619047619    0.28571428571428    0.00000000000000             2
    0.09523809523809    0.19047619047619    0.00000000000000             2
    0.28571428571428   -0.09523809523809    0.00000000000000             2
    0.23809523809524    0.09523809523809    0.00000000000000             2
   -0.09523809523809    0.33333333333334    0.00000000000000             2
   -0.33333333333334    0.23809523809524    0.00000000000000             2
   -0.23809523809524    0.33333333333334    0.00000000000000             2
    0.09523809523809    0.23809523809524    0.00000000000000             2
    0.33333333333334   -0.09523809523809    0.00000000000000             2
    0.28571428571428    0.09523809523809    0.00000000000000             2
   -0.09523809523809    0.38095238095238    0.00000000000000             2
   -0.38095238095238    0.28571428571428    0.00000000000000             2
   -0.28571428571428    0.38095238095238    0.00000000000000             2
    0.09523809523809    0.28571428571428    0.00000000000000             2
    0.38095238095238   -0.09523809523809    0.00000000000000             2
    0.33333333333334    0.09523809523809    0.00000000000000             2
   -0.09523809523809    0.42857142857143    0.00000000000000             2
   -0.42857142857143    0.33333333333334    0.00000000000000             2
   -0.33333333333334    0.42857142857143    0.00000000000000             2
    0.09523809523809    0.33333333333334    0.00000000000000             2
    0.42857142857143   -0.09523809523809    0.00000000000000             2
    0.38095238095238    0.09523809523809    0.00000000000000             2
   -0.09523809523809    0.47619047619047    0.00000000000000             2
   -0.47619047619047    0.38095238095238    0.00000000000000             2
   -0.38095238095238    0.47619047619047    0.00000000000000             2
    0.09523809523809    0.38095238095238    0.00000000000000             2
    0.47619047619047   -0.09523809523809    0.00000000000000             2
    0.42857142857143    0.09523809523809    0.00000000000000             2
   -0.09523809523809   -0.47619047619047    0.00000000000000             2
    0.47619047619047    0.42857142857143    0.00000000000000             2
   -0.42857142857143   -0.47619047619047    0.00000000000000             2
    0.09523809523809    0.42857142857143    0.00000000000000             2
   -0.47619047619047   -0.09523809523809    0.00000000000000             2
    0.14285714285715    0.14285714285715    0.00000000000000             2
   -0.14285714285715    0.28571428571429    0.00000000000000             2
   -0.28571428571429    0.14285714285715    0.00000000000000             2
    0.19047619047619    0.14285714285715    0.00000000000000             2
   -0.14285714285715    0.33333333333334    0.00000000000000             2
   -0.33333333333334    0.19047619047619    0.00000000000000             2
   -0.19047619047619    0.33333333333334    0.00000000000000             2
    0.14285714285715    0.19047619047619    0.00000000000000             2
    0.33333333333334   -0.14285714285715    0.00000000000000             2
    0.23809523809524    0.14285714285715    0.00000000000000             2
   -0.14285714285715    0.38095238095239    0.00000000000000             2
   -0.38095238095239    0.23809523809524    0.00000000000000             2
   -0.23809523809524    0.38095238095239    0.00000000000000             2
    0.14285714285715    0.23809523809524    0.00000000000000             2
    0.38095238095239   -0.14285714285715    0.00000000000000             2
    0.28571428571428    0.14285714285715    0.00000000000000             2
   -0.14285714285715    0.42857142857143    0.00000000000000             2
   -0.42857142857143    0.28571428571428    0.00000000000000             2
   -0.28571428571428    0.42857142857143    0.00000000000000             2
    0.14285714285715    0.28571428571428    0.00000000000000             2
    0.42857142857143   -0.14285714285715    0.00000000000000             2
    0.33333333333334    0.14285714285715    0.00000000000000             2
   -0.14285714285715    0.47619047619048    0.00000000000000             2
   -0.47619047619048    0.33333333333334    0.00000000000000             2
   -0.33333333333334    0.47619047619048    0.00000000000000             2
    0.14285714285715    0.33333333333334    0.00000000000000             2
    0.47619047619048   -0.14285714285715    0.00000000000000             2
    0.38095238095238    0.14285714285715    0.00000000000000             2
   -0.14285714285715   -0.47619047619047    0.00000000000000             2
    0.47619047619047    0.38095238095238    0.00000000000000             2
   -0.38095238095238   -0.47619047619047    0.00000000000000             2
    0.14285714285715    0.38095238095238    0.00000000000000             2
   -0.47619047619047   -0.14285714285715    0.00000000000000             2
    0.42857142857143    0.14285714285715    0.00000000000000             2
   -0.14285714285715   -0.42857142857142    0.00000000000000             2
    0.42857142857142    0.42857142857143    0.00000000000000             2
    0.19047619047619    0.19047619047619    0.00000000000000             2
   -0.19047619047619    0.38095238095238    0.00000000000000             2
   -0.38095238095238    0.19047619047619    0.00000000000000             2
    0.23809523809524    0.19047619047619    0.00000000000000             2
   -0.19047619047619    0.42857142857143    0.00000000000000             2
   -0.42857142857143    0.23809523809524    0.00000000000000             2
   -0.23809523809524    0.42857142857143    0.00000000000000             2
    0.19047619047619    0.23809523809524    0.00000000000000             2
    0.42857142857143   -0.19047619047619    0.00000000000000             2
    0.28571428571428    0.19047619047619    0.00000000000000             2
   -0.19047619047619    0.47619047619047    0.00000000000000             2
   -0.47619047619047    0.28571428571428    0.00000000000000             2
   -0.28571428571428    0.47619047619047    0.00000000000000             2
    0.19047619047619    0.28571428571428    0.00000000000000             2
    0.47619047619047   -0.19047619047619    0.00000000000000             2
    0.33333333333334    0.19047619047619    0.00000000000000             2
   -0.19047619047619   -0.47619047619047    0.00000000000000             2
    0.47619047619047    0.33333333333334    0.00000000000000             2
   -0.33333333333334   -0.47619047619047    0.00000000000000             2
    0.19047619047619    0.33333333333334    0.00000000000000             2
   -0.47619047619047   -0.19047619047619    0.00000000000000             2
    0.38095238095238    0.19047619047619    0.00000000000000             2
   -0.19047619047619   -0.42857142857143    0.00000000000000             2
    0.42857142857143    0.38095238095238    0.00000000000000             2
   -0.38095238095238   -0.42857142857143    0.00000000000000             2
    0.19047619047619    0.38095238095238    0.00000000000000             2
   -0.42857142857143   -0.19047619047619    0.00000000000000             2
    0.23809523809524    0.23809523809524    0.00000000000000             2
   -0.23809523809524    0.47619047619048    0.00000000000000             2
   -0.47619047619048    0.23809523809524    0.00000000000000             2
    0.28571428571428    0.23809523809524    0.00000000000000             2
   -0.23809523809524   -0.47619047619047    0.00000000000000             2
    0.47619047619047    0.28571428571428    0.00000000000000             2
   -0.28571428571428   -0.47619047619047    0.00000000000000             2
    0.23809523809524    0.28571428571428    0.00000000000000             2
   -0.47619047619047   -0.23809523809524    0.00000000000000             2
    0.33333333333334    0.23809523809524    0.00000000000000             2
   -0.23809523809524   -0.42857142857142    0.00000000000000             2
    0.42857142857142    0.33333333333334    0.00000000000000             2
   -0.33333333333334   -0.42857142857142    0.00000000000000             2
    0.23809523809524    0.33333333333334    0.00000000000000             2
   -0.42857142857142   -0.23809523809524    0.00000000000000             2
    0.38095238095238    0.23809523809524    0.00000000000000             2
   -0.23809523809524   -0.38095238095238    0.00000000000000             2
    0.38095238095238    0.38095238095238    0.00000000000000             2
    0.28571428571428    0.28571428571428    0.00000000000000             2
   -0.28571428571428   -0.42857142857143    0.00000000000000             2
    0.42857142857143    0.28571428571428    0.00000000000000             2
    0.33333333333334    0.28571428571428    0.00000000000000             2
   -0.28571428571428   -0.38095238095238    0.00000000000000             2
    0.38095238095238    0.33333333333334    0.00000000000000             2
   -0.33333333333334   -0.38095238095238    0.00000000000000             2
    0.28571428571428    0.33333333333334    0.00000000000000             2
   -0.38095238095238   -0.28571428571428    0.00000000000000             2
    0.33333333333334    0.33333333333334    0.00000000000000             2
