<?xml version="1.0" encoding="ISO-8859-1"?>
<modeling>
 <generator>
  <i name="program" type="string">vasp </i>
  <i name="version" type="string">6.3.2  </i>
  <i name="subversion" type="string">27Jun22 (build Dec 22 2022 13:13:19) complex                          parallel </i>
  <i name="platform" type="string">LinuxIFC </i>
  <i name="date" type="string">2023 08 23 </i>
  <i name="time" type="string">00:25:52 </i>
 </generator>
 <incar>
  <i type="string" name="SYSTEM">Lattice</i>
  <i type="int" name="ISTART">     0</i>
  <i type="string" name="PREC">Accurate</i>
  <i type="string" name="ALGO">Normal</i>
  <i type="int" name="ISPIN">     2</i>
  <i type="int" name="ICHARG">     2</i>
  <i type="int" name="NELM">    64</i>
  <i type="int" name="IBRION">     2</i>
  <i name="EDIFF">      0.00000100</i>
  <i name="EDIFFG">     -0.00100000</i>
  <i type="int" name="NSW">   128</i>
  <i type="int" name="ISIF">     2</i>
  <i name="ENCUT">    450.00000000</i>
  <i name="POTIM">      0.50000000</i>
  <i type="int" name="ISMEAR">     0</i>
  <i name="SIGMA">      0.10000000</i>
  <i type="logical" name="LWAVE"> F  </i>
  <i type="logical" name="LCHARG"> F  </i>
  <i type="string" name="GGA">PE</i>
  <i type="int" name="IVDW">    12</i>
 </incar>
 <primitive_cell>
  <structure name="primitive_cell" >
   <crystal>
    <varray name="basis" >
     <v>       4.31973471       2.49400000       0.00000000 </v>
     <v>      -4.31973471       2.49400000       0.00000000 </v>
     <v>       0.00000000       0.00000000      15.00000000 </v>
    </varray>
    <i name="volume">    323.20255131 </i>
    <varray name="rec_basis" >
     <v>       0.11574785       0.20048115       0.00000000 </v>
     <v>      -0.11574785       0.20048115       0.00000000 </v>
     <v>       0.00000000       0.00000000       0.06666667 </v>
    </varray>
   </crystal>
   <varray name="positions" >
    <v>       0.66888689       1.00000000       0.10000000 </v>
    <v>       0.33111211       1.00000000       0.10000000 </v>
    <v>       1.00000000       0.33111211       0.10000000 </v>
    <v>       1.00000000       0.66888689       0.10000000 </v>
    <v>       0.33111211       0.33111211       0.10000000 </v>
    <v>       0.66888689       0.66888689       0.10000000 </v>
    <v>       0.66666600       0.33333300       0.09922189 </v>
    <v>       0.33333300       0.66666600       0.10077811 </v>
    <v>       0.16666600       0.33333300       0.46773333 </v>
    <v>       0.33333300       0.16666600       0.46773333 </v>
    <v>       0.16666600       0.83333300       0.46773333 </v>
    <v>       0.33333300       0.66666600       0.46773333 </v>
    <v>       0.66666600       0.33333300       0.46773333 </v>
    <v>       0.83333300       0.16666600       0.46773333 </v>
    <v>       0.66666600       0.83333300       0.46773333 </v>
    <v>       0.83333300       0.66666600       0.46773333 </v>
   </varray>
  </structure>
  <varray name="primitive_index" >
   <v type="int" >        1 </v>
   <v type="int" >        2 </v>
   <v type="int" >        3 </v>
   <v type="int" >        4 </v>
   <v type="int" >        5 </v>
   <v type="int" >        6 </v>
   <v type="int" >        7 </v>
   <v type="int" >        8 </v>
   <v type="int" >        9 </v>
   <v type="int" >       10 </v>
   <v type="int" >       11 </v>
   <v type="int" >       12 </v>
   <v type="int" >       13 </v>
   <v type="int" >       14 </v>
   <v type="int" >       15 </v>
   <v type="int" >       16 </v>
  </varray>
 </primitive_cell>
 <kpoints>
  <generation param="Gamma">
   <v type="int" name="divisions">      12       12        1 </v>
   <v name="usershift">      0.00000000       0.00000000       0.00000000 </v>
   <v name="genvec1">      0.08333333      -0.00000000       0.00000000 </v>
   <v name="genvec2">     -0.00000000       0.08333333       0.00000000 </v>
   <v name="genvec3">      0.00000000       0.00000000       1.00000000 </v>
   <v name="shift">      0.00000000       0.00000000       0.00000000 </v>
  </generation>
  <varray name="kpointlist" >
   <v>       0.00000000       0.00000000       0.00000000 </v>
   <v>       0.08333333      -0.00000000       0.00000000 </v>
   <v>       0.16666667      -0.00000000       0.00000000 </v>
   <v>       0.25000000      -0.00000000       0.00000000 </v>
   <v>       0.33333333       0.00000000       0.00000000 </v>
   <v>       0.41666667      -0.00000000       0.00000000 </v>
   <v>       0.50000000      -0.00000000       0.00000000 </v>
   <v>       0.08333333       0.08333333       0.00000000 </v>
   <v>       0.16666667       0.08333333       0.00000000 </v>
   <v>       0.25000000       0.08333333       0.00000000 </v>
   <v>       0.33333333       0.08333333       0.00000000 </v>
   <v>       0.41666667       0.08333333       0.00000000 </v>
   <v>       0.16666667       0.16666667       0.00000000 </v>
   <v>       0.25000000       0.16666667       0.00000000 </v>
   <v>       0.33333333       0.16666667       0.00000000 </v>
   <v>       0.41666667       0.16666667       0.00000000 </v>
   <v>       0.25000000       0.25000000       0.00000000 </v>
   <v>       0.33333333       0.25000000       0.00000000 </v>
   <v>       0.33333333       0.33333333       0.00000000 </v>
  </varray>
  <varray name="weights" >
   <v>       0.00694444 </v>
   <v>       0.04166667 </v>
   <v>       0.04166667 </v>
   <v>       0.04166667 </v>
   <v>       0.04166667 </v>
   <v>       0.04166667 </v>
   <v>       0.02083333 </v>
   <v>       0.04166667 </v>
   <v>       0.08333333 </v>
   <v>       0.08333333 </v>
   <v>       0.08333333 </v>
   <v>       0.08333333 </v>
   <v>       0.04166667 </v>
   <v>       0.08333333 </v>
   <v>       0.08333333 </v>
   <v>       0.04166667 </v>
   <v>       0.04166667 </v>
   <v>       0.08333333 </v>
   <v>       0.01388889 </v>
  </varray>
 </kpoints>
 <parameters>
  <separator name="general" >
   <i type="string" name="SYSTEM">Lattice</i>
   <i type="logical" name="LCOMPAT"> F  </i>
  </separator>
  <separator name="electronic" >
   <i type="string" name="PREC">accura</i>
   <i name="ENMAX">    450.00000000</i>
   <i name="ENAUG">    644.87300000</i>
   <i name="EDIFF">      0.00000100</i>
   <i type="int" name="IALGO">    38</i>
   <i type="int" name="IWAVPR">    11</i>
   <i type="int" name="NBANDS">    48</i>
   <i type="int" name="NBANDSLOW">    -1</i>
   <i type="int" name="NBANDSHIGH">    -1</i>
   <i name="NELECT">     56.00000000</i>
   <i type="int" name="TURBO">     0</i>
   <i type="int" name="IRESTART">     0</i>
   <i type="int" name="NREBOOT">     0</i>
   <i type="int" name="NMIN">     0</i>
   <i name="EREF">      0.00000000</i>
   <separator name="electronic smearing" >
    <i type="int" name="ISMEAR">     0</i>
    <i name="SIGMA">      0.10000000</i>
    <i name="KSPACING">      0.50000000</i>
    <i type="logical" name="KGAMMA"> T  </i>
    <i type="logical" name="KBLOWUP"> T  </i>
   </separator>
   <separator name="electronic projectors" >
    <i type="logical" name="LREAL"> F  </i>
    <v name="ROPT">      0.00000000      0.00000000</v>
    <i type="int" name="LMAXPAW">  -100</i>
    <i type="int" name="LMAXMIX">     2</i>
    <i type="logical" name="NLSPLINE"> F  </i>
   </separator>
   <separator name="electronic startup" >
    <i type="int" name="ISTART">     0</i>
    <i type="int" name="ICHARG">     2</i>
    <i type="int" name="INIWAV">     1</i>
   </separator>
   <separator name="electronic spin" >
    <i type="int" name="ISPIN">     2</i>
    <i type="logical" name="LNONCOLLINEAR"> F  </i>
    <v name="MAGMOM">      1.00000000      1.00000000      1.00000000      1.00000000      1.00000000      1.00000000      1.00000000      1.00000000      1.00000000      1.00000000      1.00000000      1.00000000      1.00000000      1.00000000      1.00000000      1.00000000</v>
    <i name="NUPDOWN">     -1.00000000</i>
    <i type="logical" name="LSORBIT"> F  </i>
    <v name="SAXIS">      0.00000000      0.00000000      1.00000000</v>
    <i type="logical" name="LSPIRAL"> F  </i>
    <v name="QSPIRAL">      0.00000000      0.00000000      0.00000000</v>
    <i type="logical" name="LZEROZ"> F  </i>
   </separator>
   <separator name="electronic exchange-correlation" >
    <i type="logical" name="LASPH"> F  </i>
    <i type="logical" name="LMETAGGA"> F  </i>
   </separator>
   <separator name="electronic convergence" >
    <i type="int" name="NELM">    64</i>
    <i type="int" name="NELMDL">    -5</i>
    <i type="int" name="NELMIN">     2</i>
    <i name="ENINI">    450.00000000</i>
    <separator name="electronic convergence detail" >
     <i type="logical" name="LDIAG"> T  </i>
     <i type="logical" name="LSUBROT"> F  </i>
     <i name="WEIMIN">      0.00100000</i>
     <i name="EBREAK">      0.00000001</i>
     <i name="DEPER">      0.30000000</i>
     <i type="int" name="NRMM">     4</i>
     <i name="TIME">      0.40000000</i>
    </separator>
   </separator>
   <separator name="electronic mixer" >
    <i name="AMIX">      0.40000000</i>
    <i name="BMIX">      1.00000000</i>
    <i name="AMIN">      0.10000000</i>
    <i name="AMIX_MAG">      1.60000000</i>
    <i name="BMIX_MAG">      1.00000000</i>
    <separator name="electronic mixer details" >
     <i type="int" name="IMIX">     4</i>
     <i type="logical" name="MIXFIRST"> F  </i>
     <i type="int" name="MAXMIX">   -45</i>
     <i name="WC">    100.00000000</i>
     <i type="int" name="INIMIX">     1</i>
     <i type="int" name="MIXPRE">     1</i>
     <i type="int" name="MREMOVE">     5</i>
    </separator>
   </separator>
   <separator name="electronic dipolcorrection" >
    <i type="logical" name="LDIPOL"> F  </i>
    <i type="logical" name="LMONO"> F  </i>
    <i type="int" name="IDIPOL">     0</i>
    <i name="EPSILON">      1.00000000</i>
    <v name="DIPOL">   -100.00000000   -100.00000000   -100.00000000</v>
    <i name="EFIELD">      0.00000000</i>
   </separator>
  </separator>
  <separator name="grids" >
   <i type="int" name="NGX">    36</i>
   <i type="int" name="NGY">    36</i>
   <i type="int" name="NGZ">   108</i>
   <i type="int" name="NGXF">    72</i>
   <i type="int" name="NGYF">    72</i>
   <i type="int" name="NGZF">   216</i>
   <i type="logical" name="ADDGRID"> F  </i>
  </separator>
  <separator name="ionic" >
   <i type="int" name="NSW">   128</i>
   <i type="int" name="IBRION">     2</i>
   <i type="int" name="MDALGO">     0</i>
   <i type="int" name="ISIF">     2</i>
   <i name="PSTRESS">      0.00000000</i>
   <i name="EDIFFG">     -0.00100000</i>
   <i type="int" name="NFREE">     1</i>
   <i name="POTIM">      0.50000000</i>
   <i name="SMASS">     -3.00000000</i>
   <i name="SCALEE">      1.00000000</i>
  </separator>
  <separator name="ionic md" >
   <i name="TEBEG">      0.00010000</i>
   <i name="TEEND">      0.00010000</i>
   <i type="int" name="NBLOCK">     1</i>
   <i type="int" name="KBLOCK">   128</i>
   <i type="int" name="NPACO">   256</i>
   <i name="APACO">     10.00000000</i>
  </separator>
  <separator name="symmetry" >
   <i type="int" name="ISYM">     2</i>
   <i name="SYMPREC">      0.00001000</i>
  </separator>
  <separator name="dos" >
   <i type="int" name="LORBIT">     0</i>
   <v name="RWIGS">     -1.00000000     -1.00000000</v>
   <i type="int" name="NEDOS">   301</i>
   <i name="EMIN">     10.00000000</i>
   <i name="EMAX">    -10.00000000</i>
   <i name="EFERMI">      0.00000000</i>
  </separator>
  <separator name="writing" >
   <i type="int" name="NWRITE">     2</i>
   <i type="logical" name="LWAVE"> F  </i>
   <i type="logical" name="LDOWNSAMPLE"> F  </i>
   <i type="logical" name="LCHARG"> F  </i>
   <i type="logical" name="LPARD"> F  </i>
   <i type="logical" name="LVTOT"> F  </i>
   <i type="logical" name="LVHAR"> F  </i>
   <i type="logical" name="LELF"> F  </i>
   <i type="logical" name="LOPTICS"> F  </i>
   <v name="STM">      0.00000000      0.00000000      0.00000000      0.00000000      0.00000000      0.00000000      0.00000000</v>
  </separator>
  <separator name="performance" >
   <i type="int" name="NPAR">    48</i>
   <i type="int" name="NSIM">     4</i>
   <i type="int" name="NBLK">    -1</i>
   <i type="logical" name="LPLANE"> T  </i>
   <i type="logical" name="LSCALAPACK"> T  </i>
   <i type="logical" name="LSCAAWARE"> F  </i>
   <i type="logical" name="LSCALU"> F  </i>
   <i type="logical" name="LASYNC"> F  </i>
   <i type="logical" name="LORBITALREAL"> F  </i>
  </separator>
  <separator name="miscellaneous" >
   <i type="int" name="IDIOT">     3</i>
   <i type="int" name="PHON_NSTRUCT">    -1</i>
   <i type="logical" name="LMUSIC"> F  </i>
   <v name="POMASS">     10.81100000     12.01100000</v>
   <v name="DARWINR">      0.00000000      0.00000000</v>
   <v name="DARWINV">      1.00000000      1.00000000</v>
   <i type="logical" name="LCORR"> T  </i>
  </separator>
  <i type="logical" name="GGA_COMPAT"> T  </i>
  <i type="logical" name="LBERRY"> F  </i>
  <i type="int" name="ICORELEVEL">     0</i>
  <i type="logical" name="LDAU"> F  </i>
  <i type="int" name="I_CONSTRAINED_M">     0</i>
  <separator name="electronic exchange-correlation" >
   <i type="string" name="GGA">PE</i>
   <i type="int" name="VOSKOWN">     0</i>
   <i type="logical" name="LHFCALC"> F  </i>
   <i type="string" name="PRECFOCK"></i>
   <i type="logical" name="LSYMGRAD"> F  </i>
   <i type="logical" name="LHFONE"> F  </i>
   <i type="logical" name="LRHFCALC"> F  </i>
   <i type="logical" name="LTHOMAS"> F  </i>
   <i type="logical" name="LMODELHF"> F  </i>
   <i type="logical" name="LFOCKACE"> F  </i>
   <i name="ENCUT4O">     -1.00000000</i>
   <i type="int" name="EXXOEP">     0</i>
   <i type="int" name="FOURORBIT">     0</i>
   <i name="AEXX">      0.00000000</i>
   <i name="HFALPHA">      0.00000000</i>
   <i name="MCALPHA">      0.00000000</i>
   <i name="ALDAX">      1.00000000</i>
   <i name="AGGAX">      1.00000000</i>
   <i name="ALDAC">      1.00000000</i>
   <i name="AGGAC">      1.00000000</i>
   <i type="int" name="NKREDX">     1</i>
   <i type="int" name="NKREDY">     1</i>
   <i type="int" name="NKREDZ">     1</i>
   <i type="logical" name="SHIFTRED"> F  </i>
   <i type="logical" name="ODDONLY"> F  </i>
   <i type="logical" name="EVENONLY"> F  </i>
   <i type="int" name="LMAXFOCK">     0</i>
   <i type="int" name="NMAXFOCKAE">     0</i>
   <i type="logical" name="LFOCKAEDFT"> F  </i>
   <i name="HFSCREEN">      0.00000000</i>
   <i name="HFSCREENC">      0.00000000</i>
   <i type="int" name="NBANDSGWLOW">     0</i>
  </separator>
  <separator name="vdW DFT" >
   <i type="logical" name="LUSE_VDW"> F  </i>
   <i name="Zab_VDW">     -0.84910000</i>
   <i name="PARAM1">      0.12340000</i>
   <i name="PARAM2">      1.00000000</i>
   <i name="PARAM3">      0.00000000</i>
  </separator>
  <separator name="model GW" >
   <i type="int" name="MODEL_GW">     0</i>
   <i name="MODEL_EPS0">     12.12009567</i>
   <i name="MODEL_ALPHA">      1.00000000</i>
  </separator>
  <separator name="linear response parameters" >
   <i type="logical" name="LEPSILON"> F  </i>
   <i type="logical" name="LRPA"> F  </i>
   <i type="logical" name="LNABLA"> F  </i>
   <i type="logical" name="LVEL"> F  </i>
   <i name="CSHIFT">      0.10000000</i>
   <i name="OMEGAMAX">     -1.00000000</i>
   <i name="DEG_THRESHOLD">      0.00200000</i>
   <i name="RTIME">     -0.10000000</i>
   <i name="WPLASMAI">      0.00000000</i>
   <v name="DFIELD">      0.00000000      0.00000000      0.00000000</v>
   <v name="WPLASMA">      0.00000000      0.00000000      0.00000000      0.00000000      0.00000000      0.00000000      0.00000000      0.00000000      0.00000000</v>
  </separator>
  <separator name="orbital magnetization" >
   <i type="logical" name="NUCIND"> F  </i>
   <v name="MAGPOS">      0.00000000      0.00000000      0.00000000</v>
   <i type="logical" name="LNICSALL"> T  </i>
   <i type="logical" name="ORBITALMAG"> F  </i>
   <i type="logical" name="LMAGBLOCH"> F  </i>
   <i type="logical" name="LCHIMAG"> F  </i>
   <i type="logical" name="LGAUGE"> T  </i>
   <i type="int" name="MAGATOM">     0</i>
   <v name="MAGDIPOL">      0.00000000      0.00000000      0.00000000</v>
   <v name="AVECCONST">      0.00000000      0.00000000      0.00000000</v>
  </separator>
  <separator name="response functions" >
   <i type="logical" name="LFINITE_TEMPERATURE"> F  </i>
   <i type="logical" name="LADDER"> F  </i>
   <i type="logical" name="LRPAFORCE"> F  </i>
   <i type="logical" name="LFXC"> F  </i>
   <i type="logical" name="LHARTREE"> T  </i>
   <i type="int" name="IBSE">     0</i>
   <v type="int" name="KPOINT">    -1     0     0     0</v>
   <i type="logical" name="LTCTC"> F  </i>
   <i type="logical" name="LTCTE"> F  </i>
   <i type="logical" name="LTETE"> F  </i>
   <i type="logical" name="LTRIPLET"> F  </i>
   <i type="logical" name="LFXCEPS"> F  </i>
   <i type="logical" name="LFXHEG"> F  </i>
   <i type="int" name="NATURALO">     2</i>
   <i type="logical" name="LHOLEGF"> F  </i>
   <i type="logical" name="L2ORDER"> F  </i>
   <i type="logical" name="LDMP1"> F  </i>
   <i type="logical" name="LMP2LT"> F  </i>
   <i type="logical" name="LSMP2LT"> F  </i>
   <i type="logical" name="LGWLF"> F  </i>
   <i name="ENCUTGW">     -2.00000000</i>
   <i name="ENCUTGWSOFT">     -2.00000000</i>
   <i name="ENCUTLF">     -1.00000000</i>
   <i type="logical" name="LESF_SPLINES"> F  </i>
   <i type="int" name="LMAXMP2">    -1</i>
   <i name="SCISSOR">      0.00000000</i>
   <i type="int" name="NOMEGA">     0</i>
   <i type="int" name="NOMEGAR">     0</i>
   <i type="int" name="NBANDSGW">    -1</i>
   <i type="int" name="NBANDSO">    -1</i>
   <i type="int" name="NBANDSV">    -1</i>
   <i type="int" name="NELMGW">     1</i>
   <i type="int" name="NELMHF">     1</i>
   <i type="int" name="DIM">     3</i>
   <i type="int" name="IESPILON">     4</i>
   <i type="int" name="ANTIRES">     0</i>
   <i name="OMEGAMAX">    -30.00000000</i>
   <i name="OMEGAMIN">    -30.00000000</i>
   <i name="OMEGATL">   -200.00000000</i>
   <i type="int" name="OMEGAGRID">     0</i>
   <i name="CSHIFT">     -0.10000000</i>
   <i type="logical" name="LSELFENERGY"> F  </i>
   <i type="logical" name="LSPECTRAL"> F  </i>
   <i type="logical" name="LSPECTRALGW"> F  </i>
   <i type="logical" name="LSINGLES"> F  </i>
   <i type="logical" name="LFERMIGW"> F  </i>
   <i type="logical" name="ODDONLYGW"> F  </i>
   <i type="logical" name="EVENONLYGW"> F  </i>
   <i type="int" name="NKREDLFX">     1</i>
   <i type="int" name="NKREDLFY">     1</i>
   <i type="int" name="NKREDLFZ">     1</i>
   <i type="int" name="MAXMEM">  2800</i>
   <i type="int" name="TELESCOPE">     0</i>
   <i type="int" name="NTAUPAR">    -1</i>
   <i type="int" name="NOMEGAPAR">    -1</i>
   <i name="DAMP_NEWTON">      0.80000001</i>
   <i name="LAMBDA">      1.00000000</i>
  </separator>
  <separator name="External order field" >
   <i name="OFIELD_KAPPA">      0.00000000</i>
   <v name="OFIELD_K">      0.00000000      0.00000000      0.00000000</v>
   <i name="OFIELD_Q6_NEAR">      0.00000000</i>
   <i name="OFIELD_Q6_FAR">      0.00000000</i>
   <i name="OFIELD_A">      0.00000000</i>
  </separator>
  <separator name="optional k-points parameters" >
   <i type="int" name="KPOINTS_OPT_MODE">     1</i>
   <i type="logical" name="LKPOINTS_OPT"> F  </i>
  </separator>
  <separator name="solvation model" >
   <i type="logical" name="LSOL"> F  </i>
  </separator>
 </parameters>
 <atominfo>
  <atoms>      16 </atoms>
  <types>       2 </types>
  <array name="atoms" >
   <dimension dim="1">ion</dimension>
   <field type="string">element</field>
   <field type="int">atomtype</field>
   <set>
    <rc><c>B </c><c>   1</c></rc>
    <rc><c>B </c><c>   1</c></rc>
    <rc><c>B </c><c>   1</c></rc>
    <rc><c>B </c><c>   1</c></rc>
    <rc><c>B </c><c>   1</c></rc>
    <rc><c>B </c><c>   1</c></rc>
    <rc><c>B </c><c>   1</c></rc>
    <rc><c>B </c><c>   1</c></rc>
    <rc><c>C </c><c>   2</c></rc>
    <rc><c>C </c><c>   2</c></rc>
    <rc><c>C </c><c>   2</c></rc>
    <rc><c>C </c><c>   2</c></rc>
    <rc><c>C </c><c>   2</c></rc>
    <rc><c>C </c><c>   2</c></rc>
    <rc><c>C </c><c>   2</c></rc>
    <rc><c>C </c><c>   2</c></rc>
   </set>
  </array>
  <array name="atomtypes" >
   <dimension dim="1">type</dimension>
   <field type="int">atomspertype</field>
   <field type="string">element</field>
   <field>mass</field>
   <field>valence</field>
   <field type="string">pseudopotential</field>
   <set>
    <rc><c>   8</c><c>B </c><c>     10.81100000</c><c>      3.00000000</c><c>  PAW_PBE B 06Sep2000                   </c></rc>
    <rc><c>   8</c><c>C </c><c>     12.01100000</c><c>      4.00000000</c><c>  PAW_PBE C 08Apr2002                   </c></rc>
   </set>
  </array>
 </atominfo>
 <structure name="initialpos" >
  <crystal>
   <varray name="basis" >
    <v>       4.31973471       2.49400000       0.00000000 </v>
    <v>      -4.31973471       2.49400000       0.00000000 </v>
    <v>       0.00000000       0.00000000      15.00000000 </v>
   </varray>
   <i name="volume">    323.20255131 </i>
   <varray name="rec_basis" >
    <v>       0.11574785       0.20048115       0.00000000 </v>
    <v>      -0.11574785       0.20048115       0.00000000 </v>
    <v>       0.00000000       0.00000000       0.06666667 </v>
   </varray>
  </crystal>
  <varray name="positions" >
   <v>       0.66888689       0.00000000       0.10000000 </v>
   <v>       0.33111211       0.00000000       0.10000000 </v>
   <v>       0.00000000       0.33111211       0.10000000 </v>
   <v>       0.00000000       0.66888689       0.10000000 </v>
   <v>       0.33111211       0.33111211       0.10000000 </v>
   <v>       0.66888689       0.66888689       0.10000000 </v>
   <v>       0.66666600       0.33333300       0.09922189 </v>
   <v>       0.33333300       0.66666600       0.10077811 </v>
   <v>       0.16666600       0.33333300       0.46773333 </v>
   <v>       0.33333300       0.16666600       0.46773333 </v>
   <v>       0.16666600       0.83333300       0.46773333 </v>
   <v>       0.33333300       0.66666600       0.46773333 </v>
   <v>       0.66666600       0.33333300       0.46773333 </v>
   <v>       0.83333300       0.16666600       0.46773333 </v>
   <v>       0.66666600       0.83333300       0.46773333 </v>
   <v>       0.83333300       0.66666600       0.46773333 </v>
  </varray>
 </structure>
 <calculation>
  <scstep>
   <time name="dav">    1.45    1.46</time>
   <time name="total">    1.50    1.51</time>
   <energy>
    <i name="alphaZ">     60.25272160 </i>
    <i name="ewald">   1879.90947535 </i>
    <i name="hartreedc">  -3295.35551826 </i>
    <i name="XCdc">    163.30319680 </i>
    <i name="pawpsdc">   1214.24570090 </i>
    <i name="pawaedc">  -1211.68112031 </i>
    <i name="eentropy">     -0.02025796 </i>
    <i name="bandstr">   -370.64593490 </i>
    <i name="atom">   1746.50554237 </i>
    <i name="e_fr_energy">    186.51380558 </i>
    <i name="e_wo_entrp">    186.53406355 </i>
    <i name="e_0_energy">    186.52393456 </i>
   </energy>
  </scstep>
  <scstep>
   <time name="dav">    2.41    2.43</time>
   <time name="total">    2.41    2.43</time>
   <energy>
    <i name="e_fr_energy">   -118.71412215 </i>
    <i name="e_wo_entrp">   -118.70380226 </i>
    <i name="e_0_energy">   -118.70896220 </i>
   </energy>
  </scstep>
  <scstep>
   <time name="dav">    2.54    2.57</time>
   <time name="total">    2.54    2.57</time>
   <energy>
    <i name="e_fr_energy">   -127.76225108 </i>
    <i name="e_wo_entrp">   -127.74980077 </i>
    <i name="e_0_energy">   -127.75602592 </i>
   </energy>
  </scstep>
  <scstep>
   <time name="dav">    2.46    2.49</time>
   <time name="total">    2.46    2.49</time>
   <energy>
    <i name="e_fr_energy">   -127.79123148 </i>
    <i name="e_wo_entrp">   -127.77876180 </i>
    <i name="e_0_energy">   -127.78499664 </i>
   </energy>
  </scstep>
  <scstep>
   <time name="dav">    2.37    2.40</time>
   <time name="total">    2.48    2.51</time>
   <energy>
    <i name="e_fr_energy">   -127.79126188 </i>
    <i name="e_wo_entrp">   -127.77879212 </i>
    <i name="e_0_energy">   -127.78502700 </i>
   </energy>
  </scstep>
  <scstep>
   <time name="dav">    2.04    2.07</time>
   <time name="total">    2.18    2.22</time>
   <energy>
    <i name="e_fr_energy">    -94.48758822 </i>
    <i name="e_wo_entrp">    -94.47692133 </i>
    <i name="e_0_energy">    -94.48225478 </i>
   </energy>
  </scstep>
  <scstep>
   <time name="dav">    2.22    2.24</time>
   <time name="total">    2.36    2.40</time>
   <energy>
    <i name="e_fr_energy">   -105.62332994 </i>
    <i name="e_wo_entrp">   -105.61386855 </i>
    <i name="e_0_energy">   -105.61859924 </i>
   </energy>
  </scstep>
  <scstep>
   <time name="dav">    2.21    2.23</time>
   <time name="total">    2.35    2.38</time>
   <energy>
    <i name="e_fr_energy">   -111.42481949 </i>
    <i name="e_wo_entrp">   -111.41534702 </i>
    <i name="e_0_energy">   -111.42008325 </i>
   </energy>
  </scstep>
  <scstep>
   <time name="dav">    1.90    1.92</time>
   <time name="total">    2.03    2.06</time>
   <energy>
    <i name="e_fr_energy">   -116.67566730 </i>
    <i name="e_wo_entrp">   -116.67289106 </i>
    <i name="e_0_energy">   -116.67427918 </i>
   </energy>
  </scstep>
  <scstep>
   <time name="dav">    2.20    2.21</time>
   <time name="total">    2.33    2.35</time>
   <energy>
    <i name="e_fr_energy">   -120.90811189 </i>
    <i name="e_wo_entrp">   -120.90329544 </i>
    <i name="e_0_energy">   -120.90570367 </i>
   </energy>
  </scstep>
  <scstep>
   <time name="dav">    2.12    2.14</time>
   <time name="total">    2.25    2.28</time>
   <energy>
    <i name="e_fr_energy">   -122.77107758 </i>
    <i name="e_wo_entrp">   -122.76786444 </i>
    <i name="e_0_energy">   -122.76947101 </i>
   </energy>
  </scstep>
  <scstep>
   <time name="dav">    2.35    2.38</time>
   <time name="total">    2.49    2.53</time>
   <energy>
    <i name="e_fr_energy">   -123.76413522 </i>
    <i name="e_wo_entrp">   -123.75951834 </i>
    <i name="e_0_energy">   -123.76182678 </i>
   </energy>
  </scstep>
  <scstep>
   <time name="dav">    2.22    2.24</time>
   <time name="total">    2.35    2.38</time>
   <energy>
    <i name="e_fr_energy">   -124.06976710 </i>
    <i name="e_wo_entrp">   -124.06372467 </i>
    <i name="e_0_energy">   -124.06674588 </i>
   </energy>
  </scstep>
  <scstep>
   <time name="dav">    1.86    1.87</time>
   <time name="total">    1.99    2.01</time>
   <energy>
    <i name="e_fr_energy">   -124.12209316 </i>
    <i name="e_wo_entrp">   -124.11599729 </i>
    <i name="e_0_energy">   -124.11904522 </i>
   </energy>
  </scstep>
  <scstep>
   <time name="dav">    1.76    1.77</time>
   <time name="total">    1.89    1.92</time>
   <energy>
    <i name="e_fr_energy">   -124.14534671 </i>
    <i name="e_wo_entrp">   -124.13926388 </i>
    <i name="e_0_energy">   -124.14230529 </i>
   </energy>
  </scstep>
  <scstep>
   <time name="dav">    1.69    1.70</time>
   <time name="total">    1.82    1.85</time>
   <energy>
    <i name="e_fr_energy">   -124.14691046 </i>
    <i name="e_wo_entrp">   -124.14085325 </i>
    <i name="e_0_energy">   -124.14388186 </i>
   </energy>
  </scstep>
  <scstep>
   <time name="dav">    1.57    1.58</time>
   <time name="total">    1.69    1.71</time>
   <energy>
    <i name="e_fr_energy">   -124.14759361 </i>
    <i name="e_wo_entrp">   -124.14154728 </i>
    <i name="e_0_energy">   -124.14457045 </i>
   </energy>
  </scstep>
  <scstep>
   <time name="dav">    1.54    1.55</time>
   <time name="total">    1.66    1.68</time>
   <energy>
    <i name="e_fr_energy">   -124.14764580 </i>
    <i name="e_wo_entrp">   -124.14158730 </i>
    <i name="e_0_energy">   -124.14461655 </i>
   </energy>
  </scstep>
  <scstep>
   <time name="dav">    1.58    1.60</time>
   <time name="total">    1.71    1.73</time>
   <energy>
    <i name="e_fr_energy">   -124.14770089 </i>
    <i name="e_wo_entrp">   -124.14163759 </i>
    <i name="e_0_energy">   -124.14466924 </i>
   </energy>
  </scstep>
  <scstep>
   <time name="dav">    1.55    1.57</time>
   <time name="total">    1.67    1.70</time>
   <energy>
    <i name="e_fr_energy">   -124.14773013 </i>
    <i name="e_wo_entrp">   -124.14166953 </i>
    <i name="e_0_energy">   -124.14469983 </i>
   </energy>
  </scstep>
  <scstep>
   <time name="dav">    1.54    1.56</time>
   <time name="total">    1.67    1.70</time>
   <energy>
    <i name="e_fr_energy">   -124.14777351 </i>
    <i name="e_wo_entrp">   -124.14171420 </i>
    <i name="e_0_energy">   -124.14474386 </i>
   </energy>
  </scstep>
  <scstep>
   <time name="dav">    1.70    1.72</time>
   <time name="total">    1.83    1.86</time>
   <energy>
    <i name="e_fr_energy">   -124.14779766 </i>
    <i name="e_wo_entrp">   -124.14173798 </i>
    <i name="e_0_energy">   -124.14476782 </i>
   </energy>
  </scstep>
  <scstep>
   <time name="dav">    2.19    2.20</time>
   <time name="total">    2.31    2.33</time>
   <energy>
    <i name="e_fr_energy">   -124.14780238 </i>
    <i name="e_wo_entrp">   -124.14174267 </i>
    <i name="e_0_energy">   -124.14477252 </i>
   </energy>
  </scstep>
  <scstep>
   <time name="dav">    2.06    2.08</time>
   <time name="total">    2.19    2.21</time>
   <energy>
    <i name="e_fr_energy">   -124.14780564 </i>
    <i name="e_wo_entrp">   -124.14174576 </i>
    <i name="e_0_energy">   -124.14477570 </i>
   </energy>
  </scstep>
  <scstep>
   <time name="dav">    1.83    1.84</time>
   <time name="total">    1.96    1.98</time>
   <energy>
    <i name="e_fr_energy">   -124.14780719 </i>
    <i name="e_wo_entrp">   -124.14174736 </i>
    <i name="e_0_energy">   -124.14477727 </i>
   </energy>
  </scstep>
  <scstep>
   <time name="dav">    2.17    2.18</time>
   <time name="total">    2.20    2.22</time>
   <energy>
    <i name="alphaZ">     60.25272160 </i>
    <i name="ewald">   1879.90947535 </i>
    <i name="hartreedc">  -3489.40900850 </i>
    <i name="XCdc">    168.09684953 </i>
    <i name="pawpsdc">   5754.28508324 </i>
    <i name="pawaedc">  -5753.64008735 </i>
    <i name="eentropy">     -0.00605967 </i>
    <i name="bandstr">   -490.14232416 </i>
    <i name="atom">   1746.50554237 </i>
    <i name="e_fr_energy">   -124.14780759 </i>
    <i name="e_wo_entrp">   -124.14174792 </i>
    <i name="e_0_energy">   -124.14477776 </i>
   </energy>
  </scstep>
  <structure>
   <crystal>
    <varray name="basis" >
     <v>       4.31973471       2.49400000       0.00000000 </v>
     <v>      -4.31973471       2.49400000       0.00000000 </v>
     <v>       0.00000000       0.00000000      15.00000000 </v>
    </varray>
    <i name="volume">    323.20255131 </i>
    <varray name="rec_basis" >
     <v>       0.11574785       0.20048115       0.00000000 </v>
     <v>      -0.11574785       0.20048115       0.00000000 </v>
     <v>       0.00000000       0.00000000       0.06666667 </v>
    </varray>
   </crystal>
   <varray name="positions" >
    <v>       0.66888689       0.00000000       0.10000000 </v>
    <v>       0.33111211       0.00000000       0.10000000 </v>
    <v>       0.00000000       0.33111211       0.10000000 </v>
    <v>       0.00000000       0.66888689       0.10000000 </v>
    <v>       0.33111211       0.33111211       0.10000000 </v>
    <v>       0.66888689       0.66888689       0.10000000 </v>
    <v>       0.66666600       0.33333300       0.09922189 </v>
    <v>       0.33333300       0.66666600       0.10077811 </v>
    <v>       0.16666600       0.33333300       0.46773333 </v>
    <v>       0.33333300       0.16666600       0.46773333 </v>
    <v>       0.16666600       0.83333300       0.46773333 </v>
    <v>       0.33333300       0.66666600       0.46773333 </v>
    <v>       0.66666600       0.33333300       0.46773333 </v>
    <v>       0.83333300       0.16666600       0.46773333 </v>
    <v>       0.66666600       0.83333300       0.46773333 </v>
    <v>       0.83333300       0.66666600       0.46773333 </v>
   </varray>
  </structure>
  <varray name="forces" >
   <v>       0.13135921       0.07584194       0.00835945 </v>
   <v>      -0.13136065      -0.07583945       0.00835945 </v>
   <v>       0.13135921      -0.07584194       0.00835945 </v>
   <v>      -0.13136065       0.07583945       0.00835945 </v>
   <v>       0.00000144      -0.15168139       0.00835945 </v>
   <v>       0.00000144       0.15168139       0.00835945 </v>
   <v>      -0.00000000      -0.00000000       0.00799540 </v>
   <v>      -0.00000000       0.00000000       0.01071788 </v>
   <v>       0.00020691      -0.00035837      -0.00861379 </v>
   <v>      -0.00020140      -0.00034884      -0.00860712 </v>
   <v>      -0.00041382       0.00000000      -0.00861379 </v>
   <v>      -0.00000000       0.00000000      -0.00861680 </v>
   <v>      -0.00000000       0.00000000      -0.00859044 </v>
   <v>       0.00040281      -0.00000000      -0.00860712 </v>
   <v>       0.00020691       0.00035837      -0.00861379 </v>
   <v>      -0.00020140       0.00034884      -0.00860712 </v>
  </varray>
  <varray name="stress" >
   <v>      -5.43799163       0.00000000      -0.00000000 </v>
   <v>       0.00000000      -5.43799163       0.00000000 </v>
   <v>       0.00000000       0.00000000      -3.65372248 </v>
  </varray>
  <energy>
   <i name="e_fr_energy">   -125.63565972 </i>
   <i name="e_wo_entrp">   -125.62960006 </i>
   <i name="e_0_energy">   -125.63262989 </i>
  </energy>
  <time name="totalsc">   55.76   56.49</time>
 </calculation>
 <calculation>
  <scstep>
   <time name="dav">    1.55    1.57</time>
   <time name="total">    1.68    1.71</time>
   <energy>
    <i name="alphaZ">     60.25272160 </i>
    <i name="ewald">   1879.18032704 </i>
    <i name="hartreedc">  -3489.29163288 </i>
    <i name="XCdc">    168.06613615 </i>
    <i name="pawpsdc">   5754.28478997 </i>
    <i name="pawaedc">  -5753.63979760 </i>
    <i name="eentropy">     -0.00610667 </i>
    <i name="bandstr">   -489.50274110 </i>
    <i name="atom">   1746.50554237 </i>
    <i name="e_fr_energy">   -124.15076111 </i>
    <i name="e_wo_entrp">   -124.14465444 </i>
    <i name="e_0_energy">   -124.14770778 </i>
   </energy>
  </scstep>
  <scstep>
   <time name="dav">    2.40    2.42</time>
   <time name="total">    2.53    2.56</time>
   <energy>
    <i name="e_fr_energy">   -124.14830021 </i>
    <i name="e_wo_entrp">   -124.14220474 </i>
    <i name="e_0_energy">   -124.14525247 </i>
   </energy>
  </scstep>
  <scstep>
   <time name="dav">    2.16    2.18</time>
   <time name="total">    2.29    2.32</time>
   <energy>
    <i name="e_fr_energy">   -124.14790673 </i>
    <i name="e_wo_entrp">   -124.14185203 </i>
    <i name="e_0_energy">   -124.14487938 </i>
   </energy>
  </scstep>
  <scstep>
   <time name="dav">    2.02    2.03</time>
   <time name="total">    2.15    2.17</time>
   <energy>
    <i name="e_fr_energy">   -124.14789278 </i>
    <i name="e_wo_entrp">   -124.14184588 </i>
    <i name="e_0_energy">   -124.14486933 </i>
   </energy>
  </scstep>
  <scstep>
   <time name="dav">    2.20    2.22</time>
   <time name="total">    2.23    2.26</time>
   <energy>
    <i name="alphaZ">     60.25272160 </i>
    <i name="ewald">   1879.18032704 </i>
    <i name="hartreedc">  -3488.77677065 </i>
    <i name="XCdc">    168.05591265 </i>
    <i name="pawpsdc">   5739.95422999 </i>
    <i name="pawaedc">  -5739.30477623 </i>
    <i name="eentropy">     -0.00604831 </i>
    <i name="bandstr">   -490.00903090 </i>
    <i name="atom">   1746.50554237 </i>
    <i name="e_fr_energy">   -124.14789244 </i>
    <i name="e_wo_entrp">   -124.14184413 </i>
    <i name="e_0_energy">   -124.14486829 </i>
   </energy>
  </scstep>
  <structure>
   <crystal>
    <varray name="basis" >
     <v>       4.31973471       2.49400000       0.00000000 </v>
     <v>      -4.31973471       2.49400000       0.00000000 </v>
     <v>       0.00000000       0.00000000      15.00000000 </v>
    </varray>
    <i name="volume">    323.20255131 </i>
    <varray name="rec_basis" >
     <v>       0.11574785       0.20048115       0.00000000 </v>
     <v>      -0.11574785       0.20048115       0.00000000 </v>
     <v>       0.00000000       0.00000000       0.06666667 </v>
    </varray>
   </crystal>
   <varray name="positions" >
    <v>       0.67035392       0.00000002       0.10002689 </v>
    <v>       0.32964510       0.00000002       0.10002689 </v>
    <v>      -0.00000002       0.32964508       0.10002689 </v>
    <v>      -0.00000002       0.67035390       0.10002689 </v>
    <v>       0.32964510       0.32964508       0.10002689 </v>
    <v>       0.67035392       0.67035390       0.10002689 </v>
    <v>       0.66666600       0.33333300       0.09924760 </v>
    <v>       0.33333300       0.66666600       0.10081258 </v>
    <v>       0.16666369       0.33332838       0.46770563 </v>
    <v>       0.33332850       0.16666375       0.46770565 </v>
    <v>       0.16666369       0.83333531       0.46770563 </v>
    <v>       0.33333300       0.66666600       0.46770562 </v>
    <v>       0.66666600       0.33333300       0.46770570 </v>
    <v>       0.83333525       0.16666375       0.46770565 </v>
    <v>       0.66667062       0.83333531       0.46770563 </v>
    <v>       0.83333525       0.66667050       0.46770565 </v>
   </varray>
  </structure>
  <varray name="forces" >
   <v>      -0.12156239      -0.07019280       0.00842049 </v>
   <v>       0.12156994       0.07017971       0.00842049 </v>
   <v>      -0.12156239       0.07019280       0.00842049 </v>
   <v>       0.12156994      -0.07017971       0.00842049 </v>
   <v>      -0.00000756       0.14037252       0.00842049 </v>
   <v>      -0.00000756      -0.14037252       0.00842049 </v>
   <v>      -0.00000000      -0.00000000       0.00961439 </v>
   <v>      -0.00000000      -0.00000000       0.00873477 </v>
   <v>      -0.00052042       0.00090139      -0.00861383 </v>
   <v>       0.00050576       0.00087599      -0.00860859 </v>
   <v>       0.00104083      -0.00000000      -0.00861383 </v>
   <v>      -0.00000000      -0.00000000      -0.00860835 </v>
   <v>      -0.00000000      -0.00000000      -0.00859647 </v>
   <v>      -0.00101151      -0.00000000      -0.00860859 </v>
   <v>      -0.00052042      -0.00090139      -0.00861383 </v>
   <v>       0.00050576      -0.00087599      -0.00860859 </v>
  </varray>
  <varray name="stress" >
   <v>      -6.69057137       0.00000000      -0.00000000 </v>
   <v>       0.00000000      -6.69057137       0.00000000 </v>
   <v>      -0.00000000       0.00000000      -3.67180309 </v>
  </varray>
  <energy>
   <i name="e_fr_energy">   -125.63596458 </i>
   <i name="e_wo_entrp">   -125.62991627 </i>
   <i name="e_0_energy">   -125.63294043 </i>
  </energy>
  <time name="totalsc">   12.34   12.50</time>
 </calculation>
 <calculation>
  <scstep>
   <time name="dav">    1.49    1.50</time>
   <time name="total">    1.61    1.64</time>
   <energy>
    <i name="alphaZ">     60.25272160 </i>
    <i name="ewald">   1879.51836754 </i>
    <i name="hartreedc">  -3488.82029480 </i>
    <i name="XCdc">    168.07036981 </i>
    <i name="pawpsdc">   5739.78229658 </i>
    <i name="pawaedc">  -5739.13283397 </i>
    <i name="eentropy">     -0.00595767 </i>
    <i name="bandstr">   -490.32030324 </i>
    <i name="atom">   1746.50554237 </i>
    <i name="e_fr_energy">   -124.15009178 </i>
    <i name="e_wo_entrp">   -124.14413411 </i>
    <i name="e_0_energy">   -124.14711295 </i>
   </energy>
  </scstep>
  <scstep>
   <time name="dav">    2.35    2.37</time>
   <time name="total">    2.47    2.50</time>
   <energy>
    <i name="e_fr_energy">   -124.14953595 </i>
    <i name="e_wo_entrp">   -124.14353097 </i>
    <i name="e_0_energy">   -124.14653346 </i>
   </energy>
  </scstep>
  <scstep>
   <time name="dav">    2.01    2.02</time>
   <time name="total">    2.13    2.16</time>
   <energy>
    <i name="e_fr_energy">   -124.14944822 </i>
    <i name="e_wo_entrp">   -124.14341350 </i>
    <i name="e_0_energy">   -124.14643086 </i>
   </energy>
  </scstep>
  <scstep>
   <time name="dav">    2.06    2.08</time>
   <time name="total">    2.19    2.22</time>
   <energy>
    <i name="e_fr_energy">   -124.14944598 </i>
    <i name="e_wo_entrp">   -124.14340908 </i>
    <i name="e_0_energy">   -124.14642753 </i>
   </energy>
  </scstep>
  <scstep>
   <time name="dav">    2.28    2.30</time>
   <time name="total">    2.32    2.34</time>
   <energy>
    <i name="alphaZ">     60.25272160 </i>
    <i name="ewald">   1879.51836754 </i>
    <i name="hartreedc">  -3489.04870162 </i>
    <i name="XCdc">    168.07497447 </i>
    <i name="pawpsdc">   5746.51475634 </i>
    <i name="pawaedc">  -5745.86733861 </i>
    <i name="eentropy">     -0.00603666 </i>
    <i name="bandstr">   -490.09373144 </i>
    <i name="atom">   1746.50554237 </i>
    <i name="e_fr_energy">   -124.14944603 </i>
    <i name="e_wo_entrp">   -124.14340937 </i>
    <i name="e_0_energy">   -124.14642770 </i>
   </energy>
  </scstep>
  <structure>
   <crystal>
    <varray name="basis" >
     <v>       4.31973471       2.49400000       0.00000000 </v>
     <v>      -4.31973471       2.49400000       0.00000000 </v>
     <v>       0.00000000       0.00000000      15.00000000 </v>
    </varray>
    <i name="volume">    323.20255131 </i>
    <varray name="rec_basis" >
     <v>       0.11574785       0.20048115       0.00000000 </v>
     <v>      -0.11574785       0.20048115       0.00000000 </v>
     <v>       0.00000000       0.00000000       0.06666667 </v>
    </varray>
   </crystal>
   <varray name="positions" >
    <v>       0.66965536       0.00000001       0.10001408 </v>
    <v>       0.33034365       0.00000001       0.10001408 </v>
    <v>      -0.00000001       0.33034364       0.10001408 </v>
    <v>      -0.00000001       0.66965535       0.10001408 </v>
    <v>       0.33034365       0.33034364       0.10001408 </v>
    <v>       0.66965536       0.66965535       0.10001408 </v>
    <v>       0.66666600       0.33333300       0.09923536 </v>
    <v>       0.33333300       0.66666600       0.10079617 </v>
    <v>       0.16666479       0.33333058       0.46771882 </v>
    <v>       0.33333064       0.16666482       0.46771883 </v>
    <v>       0.16666479       0.83333421       0.46771882 </v>
    <v>       0.33333300       0.66666600       0.46771882 </v>
    <v>       0.66666600       0.33333300       0.46771886 </v>
    <v>       0.83333418       0.16666482       0.46771883 </v>
    <v>       0.66666842       0.83333421       0.46771882 </v>
    <v>       0.83333418       0.66666836       0.46771883 </v>
   </varray>
  </structure>
  <varray name="forces" >
   <v>      -0.00057534      -0.00033626       0.00840026 </v>
   <v>       0.00057888       0.00033013       0.00840026 </v>
   <v>      -0.00057534       0.00033626       0.00840026 </v>
   <v>       0.00057888      -0.00033013       0.00840026 </v>
   <v>      -0.00000354       0.00066639       0.00840026 </v>
   <v>      -0.00000354      -0.00066639       0.00840026 </v>
   <v>      -0.00000000      -0.00000000       0.00883471 </v>
   <v>      -0.00000000      -0.00000000       0.00965732 </v>
   <v>      -0.00017303       0.00029970      -0.00861631 </v>
   <v>       0.00016803       0.00029104      -0.00861026 </v>
   <v>       0.00034607       0.00000000      -0.00861631 </v>
   <v>      -0.00000000       0.00000000      -0.00861649 </v>
   <v>      -0.00000000      -0.00000000      -0.00859734 </v>
   <v>      -0.00033606      -0.00000000      -0.00861026 </v>
   <v>      -0.00017303      -0.00029970      -0.00861631 </v>
   <v>       0.00016803      -0.00029104      -0.00861026 </v>
  </varray>
  <varray name="stress" >
   <v>      -6.13180547       0.00000000      -0.00000000 </v>
   <v>       0.00000000      -6.13180547       0.00000000 </v>
   <v>       0.00000000       0.00000000      -3.65253938 </v>
  </varray>
  <energy>
   <i name="e_fr_energy">   -125.63741419 </i>
   <i name="e_wo_entrp">   -125.63137753 </i>
   <i name="e_0_energy">   -125.63439586 </i>
  </energy>
  <time name="totalsc">   12.18   12.32</time>
 </calculation>
 <calculation>
  <scstep>
   <time name="dav">    2.20    2.22</time>
   <time name="total">    2.33    2.35</time>
   <energy>
    <i name="alphaZ">     60.25272160 </i>
    <i name="ewald">   1879.51678435 </i>
    <i name="hartreedc">  -3489.04864249 </i>
    <i name="XCdc">    168.07482940 </i>
    <i name="pawpsdc">   5746.60850794 </i>
    <i name="pawaedc">  -5745.96109393 </i>
    <i name="eentropy">     -0.00603669 </i>
    <i name="bandstr">   -490.09205808 </i>
    <i name="atom">   1746.50554237 </i>
    <i name="e_fr_energy">   -124.14944554 </i>
    <i name="e_wo_entrp">   -124.14340884 </i>
    <i name="e_0_energy">   -124.14642719 </i>
   </energy>
  </scstep>
  <scstep>
   <time name="dav">    2.35    2.36</time>
   <time name="total">    2.38    2.40</time>
   <energy>
    <i name="alphaZ">     60.25272160 </i>
    <i name="ewald">   1879.51678435 </i>
    <i name="hartreedc">  -3489.04870080 </i>
    <i name="XCdc">    168.07482367 </i>
    <i name="pawpsdc">   5746.58690568 </i>
    <i name="pawaedc">  -5745.93948986 </i>
    <i name="eentropy">     -0.00603677 </i>
    <i name="bandstr">   -490.09199572 </i>
    <i name="atom">   1746.50554237 </i>
    <i name="e_fr_energy">   -124.14944549 </i>
    <i name="e_wo_entrp">   -124.14340872 </i>
    <i name="e_0_energy">   -124.14642710 </i>
   </energy>
  </scstep>
  <structure>
   <crystal>
    <varray name="basis" >
     <v>       4.31973471       2.49400000       0.00000000 </v>
     <v>      -4.31973471       2.49400000       0.00000000 </v>
     <v>       0.00000000       0.00000000      15.00000000 </v>
    </varray>
    <i name="volume">    323.20255131 </i>
    <varray name="rec_basis" >
     <v>       0.11574785       0.20048115       0.00000000 </v>
     <v>      -0.11574785       0.20048115       0.00000000 </v>
     <v>       0.00000000       0.00000000       0.06666667 </v>
    </varray>
   </crystal>
   <varray name="positions" >
    <v>       0.66965855       0.00000001       0.10001414 </v>
    <v>       0.33034045       0.00000001       0.10001414 </v>
    <v>      -0.00000001       0.33034045       0.10001414 </v>
    <v>      -0.00000001       0.66965855       0.10001414 </v>
    <v>       0.33034045       0.33034045       0.10001414 </v>
    <v>       0.66965855       0.66965855       0.10001414 </v>
    <v>       0.66666600       0.33333300       0.09923541 </v>
    <v>       0.33333300       0.66666600       0.10079624 </v>
    <v>       0.16666478       0.33333057       0.46771876 </v>
    <v>       0.33333063       0.16666482       0.46771877 </v>
    <v>       0.16666478       0.83333422       0.46771876 </v>
    <v>       0.33333300       0.66666600       0.46771876 </v>
    <v>       0.66666600       0.33333300       0.46771880 </v>
    <v>       0.83333418       0.16666482       0.46771877 </v>
    <v>       0.66666843       0.83333422       0.46771876 </v>
    <v>       0.83333418       0.66666837       0.46771877 </v>
   </varray>
  </structure>
  <varray name="forces" >
   <v>      -0.00150398      -0.00087176       0.00839652 </v>
   <v>       0.00150696       0.00086660       0.00839652 </v>
   <v>      -0.00150398       0.00087176       0.00839652 </v>
   <v>       0.00150696      -0.00086660       0.00839652 </v>
   <v>      -0.00000298       0.00173837       0.00839652 </v>
   <v>      -0.00000298      -0.00173837       0.00839652 </v>
   <v>       0.00000000       0.00000000       0.00883549 </v>
   <v>       0.00000000      -0.00000000       0.00964198 </v>
   <v>      -0.00017509       0.00030327      -0.00861189 </v>
   <v>       0.00016999       0.00029444      -0.00860587 </v>
   <v>       0.00035019      -0.00000000      -0.00861189 </v>
   <v>       0.00000000      -0.00000000      -0.00861116 </v>
   <v>      -0.00000000      -0.00000000      -0.00859219 </v>
   <v>      -0.00033999      -0.00000000      -0.00860587 </v>
   <v>      -0.00017509      -0.00030327      -0.00861189 </v>
   <v>       0.00016999      -0.00029444      -0.00860587 </v>
  </varray>
  <varray name="stress" >
   <v>      -6.13063548       0.00000000      -0.00000000 </v>
   <v>       0.00000000      -6.13063548       0.00000000 </v>
   <v>       0.00000000       0.00000000      -3.65289016 </v>
  </varray>
  <energy>
   <i name="e_fr_energy">   -125.63741413 </i>
   <i name="e_wo_entrp">   -125.63137736 </i>
   <i name="e_0_energy">   -125.63439574 </i>
  </energy>
  <time name="totalsc">    6.16    6.22</time>
 </calculation>
 <calculation>
  <scstep>
   <time name="dav">    2.02    2.04</time>
   <time name="total">    2.15    2.17</time>
   <energy>
    <i name="alphaZ">     60.25272160 </i>
    <i name="ewald">   1879.51742489 </i>
    <i name="hartreedc">  -3489.04919467 </i>
    <i name="XCdc">    168.07485494 </i>
    <i name="pawpsdc">   5746.57343116 </i>
    <i name="pawaedc">  -5745.92601414 </i>
    <i name="eentropy">     -0.00603663 </i>
    <i name="bandstr">   -490.09217523 </i>
    <i name="atom">   1746.50554237 </i>
    <i name="e_fr_energy">   -124.14944571 </i>
    <i name="e_wo_entrp">   -124.14340908 </i>
    <i name="e_0_energy">   -124.14642739 </i>
   </energy>
  </scstep>
  <scstep>
   <time name="dav">    1.98    2.00</time>
   <time name="total">    2.01    2.04</time>
   <energy>
    <i name="alphaZ">     60.25272160 </i>
    <i name="ewald">   1879.51742489 </i>
    <i name="hartreedc">  -3489.04987129 </i>
    <i name="XCdc">    168.07486848 </i>
    <i name="pawpsdc">   5746.57343667 </i>
    <i name="pawaedc">  -5745.92602143 </i>
    <i name="eentropy">     -0.00603673 </i>
    <i name="bandstr">   -490.09151027 </i>
    <i name="atom">   1746.50554237 </i>
    <i name="e_fr_energy">   -124.14944571 </i>
    <i name="e_wo_entrp">   -124.14340899 </i>
    <i name="e_0_energy">   -124.14642735 </i>
   </energy>
  </scstep>
  <structure>
   <crystal>
    <varray name="basis" >
     <v>       4.31973471       2.49400000       0.00000000 </v>
     <v>      -4.31973471       2.49400000       0.00000000 </v>
     <v>       0.00000000       0.00000000      15.00000000 </v>
    </varray>
    <i name="volume">    323.20255131 </i>
    <varray name="rec_basis" >
     <v>       0.11574785       0.20048115       0.00000000 </v>
     <v>      -0.11574785       0.20048115       0.00000000 </v>
     <v>       0.00000000       0.00000000       0.06666667 </v>
    </varray>
   </crystal>
   <varray name="positions" >
    <v>       0.66965726       0.00000001       0.10001412 </v>
    <v>       0.33034175       0.00000001       0.10001412 </v>
    <v>      -0.00000001       0.33034174       0.10001412 </v>
    <v>      -0.00000001       0.66965725       0.10001412 </v>
    <v>       0.33034175       0.33034174       0.10001412 </v>
    <v>       0.66965726       0.66965725       0.10001412 </v>
    <v>       0.66666600       0.33333300       0.09923539 </v>
    <v>       0.33333300       0.66666600       0.10079621 </v>
    <v>       0.16666479       0.33333057       0.46771879 </v>
    <v>       0.33333064       0.16666482       0.46771880 </v>
    <v>       0.16666479       0.83333421       0.46771879 </v>
    <v>       0.33333300       0.66666600       0.46771878 </v>
    <v>       0.66666600       0.33333300       0.46771883 </v>
    <v>       0.83333418       0.16666482       0.46771880 </v>
    <v>       0.66666843       0.83333421       0.46771879 </v>
    <v>       0.83333418       0.66666836       0.46771880 </v>
   </varray>
  </structure>
  <varray name="forces" >
   <v>      -0.00148098      -0.00085851       0.00839255 </v>
   <v>       0.00148398       0.00085331       0.00839255 </v>
   <v>      -0.00148098       0.00085851       0.00839255 </v>
   <v>       0.00148398      -0.00085331       0.00839255 </v>
   <v>      -0.00000300       0.00171182       0.00839255 </v>
   <v>      -0.00000300      -0.00171182       0.00839255 </v>
   <v>      -0.00000000       0.00000000       0.00883741 </v>
   <v>      -0.00000000      -0.00000000       0.00964224 </v>
   <v>      -0.00017455       0.00030232      -0.00860917 </v>
   <v>       0.00016946       0.00029352      -0.00860315 </v>
   <v>       0.00034909      -0.00000000      -0.00860917 </v>
   <v>      -0.00000000      -0.00000000      -0.00860847 </v>
   <v>       0.00000000      -0.00000000      -0.00858951 </v>
   <v>      -0.00033893       0.00000000      -0.00860315 </v>
   <v>      -0.00017455      -0.00030232      -0.00860917 </v>
   <v>       0.00016946      -0.00029352      -0.00860315 </v>
  </varray>
  <varray name="stress" >
   <v>      -6.12935956       0.00000000      -0.00000000 </v>
   <v>       0.00000000      -6.12935956       0.00000000 </v>
   <v>       0.00000000       0.00000000      -3.65130007 </v>
  </varray>
  <energy>
   <i name="e_fr_energy">   -125.63741416 </i>
   <i name="e_wo_entrp">   -125.63137743 </i>
   <i name="e_0_energy">   -125.63439580 </i>
  </energy>
  <time name="totalsc">    5.62    5.69</time>
 </calculation>
 <calculation>
  <scstep>
   <time name="dav">    1.79    1.81</time>
   <time name="total">    1.92    1.94</time>
   <energy>
    <i name="alphaZ">     60.25272160 </i>
    <i name="ewald">   1879.51789620 </i>
    <i name="hartreedc">  -3489.05035838 </i>
    <i name="XCdc">    168.07489542 </i>
    <i name="pawpsdc">   5746.57256719 </i>
    <i name="pawaedc">  -5745.92515270 </i>
    <i name="eentropy">     -0.00603668 </i>
    <i name="bandstr">   -490.09152090 </i>
    <i name="atom">   1746.50554237 </i>
    <i name="e_fr_energy">   -124.14944587 </i>
    <i name="e_wo_entrp">   -124.14340919 </i>
    <i name="e_0_energy">   -124.14642753 </i>
   </energy>
  </scstep>
  <scstep>
   <time name="dav">    1.86    1.87</time>
   <time name="total">    1.89    1.91</time>
   <energy>
    <i name="alphaZ">     60.25272160 </i>
    <i name="ewald">   1879.51789620 </i>
    <i name="hartreedc">  -3489.05090255 </i>
    <i name="XCdc">    168.07490579 </i>
    <i name="pawpsdc">   5746.57619329 </i>
    <i name="pawaedc">  -5745.92878057 </i>
    <i name="eentropy">     -0.00603678 </i>
    <i name="bandstr">   -490.09098522 </i>
    <i name="atom">   1746.50554237 </i>
    <i name="e_fr_energy">   -124.14944588 </i>
    <i name="e_wo_entrp">   -124.14340910 </i>
    <i name="e_0_energy">   -124.14642749 </i>
   </energy>
  </scstep>
  <structure>
   <crystal>
    <varray name="basis" >
     <v>       4.31973471       2.49400000       0.00000000 </v>
     <v>      -4.31973471       2.49400000       0.00000000 </v>
     <v>       0.00000000       0.00000000      15.00000000 </v>
    </varray>
    <i name="volume">    323.20255131 </i>
    <varray name="rec_basis" >
     <v>       0.11574785       0.20048115       0.00000000 </v>
     <v>      -0.11574785       0.20048115       0.00000000 </v>
     <v>       0.00000000       0.00000000       0.06666667 </v>
    </varray>
   </crystal>
   <varray name="positions" >
    <v>       0.66965631       0.00000001       0.10001410 </v>
    <v>       0.33034270       0.00000001       0.10001410 </v>
    <v>      -0.00000001       0.33034269       0.10001410 </v>
    <v>      -0.00000001       0.66965630       0.10001410 </v>
    <v>       0.33034270       0.33034269       0.10001410 </v>
    <v>       0.66965631       0.66965630       0.10001410 </v>
    <v>       0.66666600       0.33333300       0.09923537 </v>
    <v>       0.33333300       0.66666600       0.10079619 </v>
    <v>       0.16666479       0.33333058       0.46771880 </v>
    <v>       0.33333064       0.16666482       0.46771881 </v>
    <v>       0.16666479       0.83333421       0.46771880 </v>
    <v>       0.33333300       0.66666600       0.46771880 </v>
    <v>       0.66666600       0.33333300       0.46771884 </v>
    <v>       0.83333418       0.16666482       0.46771881 </v>
    <v>       0.66666842       0.83333421       0.46771880 </v>
    <v>       0.83333418       0.66666836       0.46771881 </v>
   </varray>
  </structure>
  <varray name="forces" >
   <v>      -0.00132726      -0.00076975       0.00839240 </v>
   <v>       0.00133025       0.00076457       0.00839240 </v>
   <v>      -0.00132726       0.00076975       0.00839240 </v>
   <v>       0.00133025      -0.00076457       0.00839240 </v>
   <v>      -0.00000299       0.00153431       0.00839240 </v>
   <v>      -0.00000299      -0.00153431       0.00839240 </v>
   <v>       0.00000000      -0.00000000       0.00883797 </v>
   <v>       0.00000000      -0.00000000       0.00964524 </v>
   <v>      -0.00017407       0.00030149      -0.00860949 </v>
   <v>       0.00016899       0.00029270      -0.00860348 </v>
   <v>       0.00034813      -0.00000000      -0.00860949 </v>
   <v>       0.00000000      -0.00000000      -0.00860884 </v>
   <v>      -0.00000000      -0.00000000      -0.00858987 </v>
   <v>      -0.00033798      -0.00000000      -0.00860348 </v>
   <v>      -0.00017407      -0.00030149      -0.00860949 </v>
   <v>       0.00016899      -0.00029270      -0.00860348 </v>
  </varray>
  <varray name="stress" >
   <v>      -6.12852027       0.00000000       0.00000000 </v>
   <v>       0.00000000      -6.12852027       0.00000000 </v>
   <v>      -0.00000000       0.00000000      -3.65195574 </v>
  </varray>
  <energy>
   <i name="e_fr_energy">   -125.63741418 </i>
   <i name="e_wo_entrp">   -125.63137740 </i>
   <i name="e_0_energy">   -125.63439579 </i>
  </energy>
  <time name="totalsc">    5.27    5.33</time>
 </calculation>
 <calculation>
  <scstep>
   <time name="dav">    1.47    1.49</time>
   <time name="total">    1.60    1.62</time>
   <energy>
    <i name="alphaZ">     60.25272160 </i>
    <i name="ewald">   1880.16545430 </i>
    <i name="hartreedc">  -3489.69897569 </i>
    <i name="XCdc">    168.07491655 </i>
    <i name="pawpsdc">   5746.57856527 </i>
    <i name="pawaedc">  -5745.93115370 </i>
    <i name="eentropy">     -0.00603684 </i>
    <i name="bandstr">   -490.09048662 </i>
    <i name="atom">   1746.50554237 </i>
    <i name="e_fr_energy">   -124.14945277 </i>
    <i name="e_wo_entrp">   -124.14341593 </i>
    <i name="e_0_energy">   -124.14643435 </i>
   </energy>
  </scstep>
  <scstep>
   <time name="dav">    1.62    1.63</time>
   <time name="total">    1.74    1.77</time>
   <energy>
    <i name="e_fr_energy">   -124.14945157 </i>
    <i name="e_wo_entrp">   -124.14341441 </i>
    <i name="e_0_energy">   -124.14643299 </i>
   </energy>
  </scstep>
  <scstep>
   <time name="dav">    1.66    1.67</time>
   <time name="total">    1.69    1.71</time>
   <energy>
    <i name="alphaZ">     60.25272160 </i>
    <i name="ewald">   1880.16545430 </i>
    <i name="hartreedc">  -3489.70757148 </i>
    <i name="XCdc">    168.07493995 </i>
    <i name="pawpsdc">   5746.56463871 </i>
    <i name="pawaedc">  -5745.91722577 </i>
    <i name="eentropy">     -0.00603696 </i>
    <i name="bandstr">   -490.08191372 </i>
    <i name="atom">   1746.50554237 </i>
    <i name="e_fr_energy">   -124.14945101 </i>
    <i name="e_wo_entrp">   -124.14341405 </i>
    <i name="e_0_energy">   -124.14643253 </i>
   </energy>
  </scstep>
  <structure>
   <crystal>
    <varray name="basis" >
     <v>       4.31973471       2.49400000       0.00000000 </v>
     <v>      -4.31973471       2.49400000       0.00000000 </v>
     <v>       0.00000000       0.00000000      15.00000000 </v>
    </varray>
    <i name="volume">    323.20255131 </i>
    <varray name="rec_basis" >
     <v>       0.11574785       0.20048115       0.00000000 </v>
     <v>      -0.11574785       0.20048115       0.00000000 </v>
     <v>       0.00000000       0.00000000       0.06666667 </v>
    </varray>
   </crystal>
   <varray name="positions" >
    <v>       0.66965632      -0.00000002       0.10003877 </v>
    <v>       0.33034266      -0.00000002       0.10003877 </v>
    <v>       0.00000002       0.33034268       0.10003877 </v>
    <v>       0.00000002       0.66965634       0.10003877 </v>
    <v>       0.33034266       0.33034268       0.10003877 </v>
    <v>       0.66965632       0.66965634       0.10003877 </v>
    <v>       0.66666600       0.33333300       0.09926133 </v>
    <v>       0.33333300       0.66666600       0.10082458 </v>
    <v>       0.16666653       0.33333405       0.46769349 </v>
    <v>       0.33333402       0.16666651       0.46769352 </v>
    <v>       0.16666653       0.83333247       0.46769349 </v>
    <v>       0.33333300       0.66666600       0.46769349 </v>
    <v>       0.66666600       0.33333300       0.46769359 </v>
    <v>       0.83333249       0.16666651       0.46769352 </v>
    <v>       0.66666495       0.83333247       0.46769349 </v>
    <v>       0.83333249       0.66666498       0.46769352 </v>
   </varray>
  </structure>
  <varray name="forces" >
   <v>      -0.00129981      -0.00074996       0.00808850 </v>
   <v>       0.00129939       0.00075069       0.00808850 </v>
   <v>      -0.00129981       0.00074996       0.00808850 </v>
   <v>       0.00129939      -0.00075069       0.00808850 </v>
   <v>       0.00000042       0.00150065       0.00808850 </v>
   <v>       0.00000042      -0.00150065       0.00808850 </v>
   <v>      -0.00000000       0.00000000       0.00852613 </v>
   <v>      -0.00000000       0.00000000       0.00933979 </v>
   <v>       0.00039867      -0.00069051      -0.00830119 </v>
   <v>      -0.00038694      -0.00067020      -0.00829819 </v>
   <v>      -0.00079734       0.00000000      -0.00830119 </v>
   <v>      -0.00000000       0.00000000      -0.00830407 </v>
   <v>      -0.00000000       0.00000000      -0.00829472 </v>
   <v>       0.00077388       0.00000000      -0.00829819 </v>
   <v>       0.00039867       0.00069051      -0.00830119 </v>
   <v>      -0.00038694       0.00067020      -0.00829819 </v>
  </varray>
  <varray name="stress" >
   <v>      -6.12854370       0.00000000       0.00000000 </v>
   <v>       0.00000000      -6.12854370       0.00000000 </v>
   <v>       0.00000000       0.00000000      -3.65675254 </v>
  </varray>
  <energy>
   <i name="e_fr_energy">   -125.63746643 </i>
   <i name="e_wo_entrp">   -125.63142947 </i>
   <i name="e_0_energy">   -125.63444795 </i>
  </energy>
  <time name="totalsc">    6.50    6.58</time>
 </calculation>
 <calculation>
  <scstep>
   <time name="dav">    1.44    1.45</time>
   <time name="total">    1.57    1.59</time>
   <energy>
    <i name="alphaZ">     60.25272160 </i>
    <i name="ewald">   1882.10961283 </i>
    <i name="hartreedc">  -3491.64929755 </i>
    <i name="XCdc">    168.07494110 </i>
    <i name="pawpsdc">   5746.56675726 </i>
    <i name="pawaedc">  -5745.91934375 </i>
    <i name="eentropy">     -0.00603686 </i>
    <i name="bandstr">   -490.08437948 </i>
    <i name="atom">   1746.50554237 </i>
    <i name="e_fr_energy">   -124.14948247 </i>
    <i name="e_wo_entrp">   -124.14344561 </i>
    <i name="e_0_energy">   -124.14646404 </i>
   </energy>
  </scstep>
  <scstep>
   <time name="dav">    1.66    1.67</time>
   <time name="total">    1.79    1.81</time>
   <energy>
    <i name="e_fr_energy">   -124.14947358 </i>
    <i name="e_wo_entrp">   -124.14343582 </i>
    <i name="e_0_energy">   -124.14645470 </i>
   </energy>
  </scstep>
  <scstep>
   <time name="dav">    2.03    2.05</time>
   <time name="total">    2.16    2.18</time>
   <energy>
    <i name="e_fr_energy">   -124.14946713 </i>
    <i name="e_wo_entrp">   -124.14343002 </i>
    <i name="e_0_energy">   -124.14644857 </i>
   </energy>
  </scstep>
  <scstep>
   <time name="dav">    1.63    1.64</time>
   <time name="total">    1.66    1.67</time>
   <energy>
    <i name="alphaZ">     60.25272160 </i>
    <i name="ewald">   1882.10961283 </i>
    <i name="hartreedc">  -3491.66438457 </i>
    <i name="XCdc">    168.07498142 </i>
    <i name="pawpsdc">   5746.56364377 </i>
    <i name="pawaedc">  -5745.91622415 </i>
    <i name="eentropy">     -0.00603685 </i>
    <i name="bandstr">   -490.06932397 </i>
    <i name="atom">   1746.50554237 </i>
    <i name="e_fr_energy">   -124.14946755 </i>
    <i name="e_wo_entrp">   -124.14343071 </i>
    <i name="e_0_energy">   -124.14644913 </i>
   </energy>
  </scstep>
  <structure>
   <crystal>
    <varray name="basis" >
     <v>       4.31973471       2.49400000       0.00000000 </v>
     <v>      -4.31973471       2.49400000       0.00000000 </v>
     <v>       0.00000000       0.00000000      15.00000000 </v>
    </varray>
    <i name="volume">    323.20255131 </i>
    <varray name="rec_basis" >
     <v>       0.11574785       0.20048115       0.00000000 </v>
     <v>      -0.11574785       0.20048115       0.00000000 </v>
     <v>       0.00000000       0.00000000       0.06666667 </v>
    </varray>
   </crystal>
   <varray name="positions" >
    <v>       0.66965633      -0.00000011       0.10011278 </v>
    <v>       0.33034256      -0.00000011       0.10011278 </v>
    <v>       0.00000011       0.33034267       0.10011278 </v>
    <v>       0.00000011       0.66965644       0.10011278 </v>
    <v>       0.33034256       0.33034267       0.10011278 </v>
    <v>       0.66965633       0.66965644       0.10011278 </v>
    <v>       0.66666600       0.33333300       0.09933920 </v>
    <v>       0.33333300       0.66666600       0.10090974 </v>
    <v>       0.16667174       0.33334448       0.46761756 </v>
    <v>       0.33334414       0.16667157       0.46761764 </v>
    <v>       0.16667174       0.83332726       0.46761756 </v>
    <v>       0.33333300       0.66666600       0.46761756 </v>
    <v>       0.66666600       0.33333300       0.46761783 </v>
    <v>       0.83332743       0.16667157       0.46761764 </v>
    <v>       0.66665452       0.83332726       0.46761756 </v>
    <v>       0.83332743       0.66665486       0.46761764 </v>
   </varray>
  </structure>
  <varray name="forces" >
   <v>      -0.00131700      -0.00076223       0.00845201 </v>
   <v>       0.00131861       0.00075944       0.00845201 </v>
   <v>      -0.00131700       0.00076223       0.00845201 </v>
   <v>       0.00131861      -0.00075944       0.00845201 </v>
   <v>      -0.00000161       0.00152167       0.00845201 </v>
   <v>      -0.00000161      -0.00152167       0.00845201 </v>
   <v>       0.00000000      -0.00000000       0.00868770 </v>
   <v>       0.00000000      -0.00000000       0.00950638 </v>
   <v>       0.00203118      -0.00351811      -0.00860812 </v>
   <v>      -0.00197072      -0.00341338      -0.00861156 </v>
   <v>      -0.00406236      -0.00000000      -0.00860812 </v>
   <v>       0.00000000      -0.00000000      -0.00861600 </v>
   <v>      -0.00000000      -0.00000000      -0.00863113 </v>
   <v>       0.00394144      -0.00000000      -0.00861156 </v>
   <v>       0.00203118       0.00351811      -0.00860812 </v>
   <v>      -0.00197072       0.00341338      -0.00861156 </v>
  </varray>
  <varray name="stress" >
   <v>      -6.12888848       0.00000000       0.00000000 </v>
   <v>       0.00000000      -6.12888848       0.00000000 </v>
   <v>      -0.00000000       0.00000000      -3.66108058 </v>
  </varray>
  <energy>
   <i name="e_fr_energy">   -125.63762452 </i>
   <i name="e_wo_entrp">   -125.63158768 </i>
   <i name="e_0_energy">   -125.63460610 </i>
  </energy>
  <time name="totalsc">    8.64    8.73</time>
 </calculation>
 <calculation>
  <scstep>
   <time name="dav">    1.43    1.44</time>
   <time name="total">    1.56    1.58</time>
   <energy>
    <i name="alphaZ">     60.25272160 </i>
    <i name="ewald">   1886.00462241 </i>
    <i name="hartreedc">  -3495.55239871 </i>
    <i name="XCdc">    168.07499121 </i>
    <i name="pawpsdc">   5746.56783606 </i>
    <i name="pawaedc">  -5745.92041969 </i>
    <i name="eentropy">     -0.00603675 </i>
    <i name="bandstr">   -490.07640962 </i>
    <i name="atom">   1746.50554237 </i>
    <i name="e_fr_energy">   -124.14955113 </i>
    <i name="e_wo_entrp">   -124.14351438 </i>
    <i name="e_0_energy">   -124.14653276 </i>
   </energy>
  </scstep>
  <scstep>
   <time name="dav">    1.65    1.67</time>
   <time name="total">    1.77    1.80</time>
   <energy>
    <i name="e_fr_energy">   -124.14951974 </i>
    <i name="e_wo_entrp">   -124.14348121 </i>
    <i name="e_0_energy">   -124.14650048 </i>
   </energy>
  </scstep>
  <scstep>
   <time name="dav">    2.00    2.02</time>
   <time name="total">    2.12    2.15</time>
   <energy>
    <i name="e_fr_energy">   -124.14949064 </i>
    <i name="e_wo_entrp">   -124.14345336 </i>
    <i name="e_0_energy">   -124.14647200 </i>
   </energy>
  </scstep>
  <scstep>
   <time name="dav">    2.01    2.02</time>
   <time name="total">    2.13    2.16</time>
   <energy>
    <i name="e_fr_energy">   -124.14949199 </i>
    <i name="e_wo_entrp">   -124.14345523 </i>
    <i name="e_0_energy">   -124.14647361 </i>
   </energy>
  </scstep>
  <scstep>
   <time name="dav">    1.48    1.50</time>
   <time name="total">    1.52    1.53</time>
   <energy>
    <i name="alphaZ">     60.25272160 </i>
    <i name="ewald">   1886.00462241 </i>
    <i name="hartreedc">  -3495.56916388 </i>
    <i name="XCdc">    168.07505747 </i>
    <i name="pawpsdc">   5746.56294004 </i>
    <i name="pawaedc">  -5745.91551875 </i>
    <i name="eentropy">     -0.00603663 </i>
    <i name="bandstr">   -490.05965718 </i>
    <i name="atom">   1746.50554237 </i>
    <i name="e_fr_energy">   -124.14949255 </i>
    <i name="e_wo_entrp">   -124.14345592 </i>
    <i name="e_0_energy">   -124.14647423 </i>
   </energy>
  </scstep>
  <structure>
   <crystal>
    <varray name="basis" >
     <v>       4.31973471       2.49400000       0.00000000 </v>
     <v>      -4.31973471       2.49400000       0.00000000 </v>
     <v>       0.00000000       0.00000000      15.00000000 </v>
    </varray>
    <i name="volume">    323.20255131 </i>
    <varray name="rec_basis" >
     <v>       0.11574785       0.20048115       0.00000000 </v>
     <v>      -0.11574785       0.20048115       0.00000000 </v>
     <v>       0.00000000       0.00000000       0.06666667 </v>
    </varray>
   </crystal>
   <varray name="positions" >
    <v>       0.66965636      -0.00000029       0.10026081 </v>
    <v>       0.33034235      -0.00000029       0.10026081 </v>
    <v>       0.00000029       0.33034264       0.10026081 </v>
    <v>       0.00000029       0.66965665       0.10026081 </v>
    <v>       0.33034235       0.33034264       0.10026081 </v>
    <v>       0.66965636       0.66965665       0.10026081 </v>
    <v>       0.66666600       0.33333300       0.09949494 </v>
    <v>       0.33333300       0.66666600       0.10108006 </v>
    <v>       0.16668217       0.33336533       0.46746570 </v>
    <v>       0.33336438       0.16668169       0.46746589 </v>
    <v>       0.16668217       0.83331683       0.46746570 </v>
    <v>       0.33333300       0.66666600       0.46746571 </v>
    <v>       0.66666600       0.33333300       0.46746632 </v>
    <v>       0.83331731       0.16668169       0.46746589 </v>
    <v>       0.66663367       0.83331683       0.46746570 </v>
    <v>       0.83331731       0.66663462       0.46746589 </v>
   </varray>
  </structure>
  <varray name="forces" >
   <v>      -0.00135368      -0.00076678       0.00846047 </v>
   <v>       0.00134089       0.00078894       0.00846047 </v>
   <v>      -0.00135368       0.00076678       0.00846047 </v>
   <v>       0.00134089      -0.00078894       0.00846047 </v>
   <v>       0.00001279       0.00155571       0.00846047 </v>
   <v>       0.00001279      -0.00155571       0.00846047 </v>
   <v>       0.00000000       0.00000000       0.00825161 </v>
   <v>       0.00000000       0.00000000       0.00906195 </v>
   <v>       0.00532778      -0.00922799      -0.00848814 </v>
   <v>      -0.00516973      -0.00895423      -0.00850623 </v>
   <v>      -0.01065557       0.00000000      -0.00848814 </v>
   <v>       0.00000000       0.00000000      -0.00851291 </v>
   <v>       0.00000000       0.00000000      -0.00858035 </v>
   <v>       0.01033946       0.00000000      -0.00850623 </v>
   <v>       0.00532778       0.00922799      -0.00848814 </v>
   <v>      -0.00516973       0.00895423      -0.00850623 </v>
  </varray>
  <varray name="stress" >
   <v>      -6.12973035       0.00000000       0.00000000 </v>
   <v>       0.00000000      -6.12973035       0.00000000 </v>
   <v>       0.00000000       0.00000000      -3.67130656 </v>
  </varray>
  <energy>
   <i name="e_fr_energy">   -125.63793348 </i>
   <i name="e_wo_entrp">   -125.63189685 </i>
   <i name="e_0_energy">   -125.63491517 </i>
  </energy>
  <time name="totalsc">   10.56   10.70</time>
 </calculation>
 <calculation>
  <scstep>
   <time name="dav">    1.43    1.44</time>
   <time name="total">    1.56    1.58</time>
   <energy>
    <i name="alphaZ">     60.25272160 </i>
    <i name="ewald">   1893.82139302 </i>
    <i name="hartreedc">  -3503.37766952 </i>
    <i name="XCdc">    168.07505556 </i>
    <i name="pawpsdc">   5746.56536418 </i>
    <i name="pawaedc">  -5745.91794458 </i>
    <i name="eentropy">     -0.00603656 </i>
    <i name="bandstr">   -490.06818848 </i>
    <i name="atom">   1746.50554237 </i>
    <i name="e_fr_energy">   -124.14976242 </i>
    <i name="e_wo_entrp">   -124.14372586 </i>
    <i name="e_0_energy">   -124.14674414 </i>
   </energy>
  </scstep>
  <scstep>
   <time name="dav">    1.62    1.64</time>
   <time name="total">    1.75    1.77</time>
   <energy>
    <i name="e_fr_energy">   -124.14965190 </i>
    <i name="e_wo_entrp">   -124.14361189 </i>
    <i name="e_0_energy">   -124.14663189 </i>
   </energy>
  </scstep>
  <scstep>
   <time name="dav">    1.97    1.99</time>
   <time name="total">    2.10    2.12</time>
   <energy>
    <i name="e_fr_energy">   -124.14952722 </i>
    <i name="e_wo_entrp">   -124.14348957 </i>
    <i name="e_0_energy">   -124.14650839 </i>
   </energy>
  </scstep>
  <scstep>
   <time name="dav">    2.08    2.09</time>
   <time name="total">    2.20    2.23</time>
   <energy>
    <i name="e_fr_energy">   -124.14953038 </i>
    <i name="e_wo_entrp">   -124.14349378 </i>
    <i name="e_0_energy">   -124.14651208 </i>
   </energy>
  </scstep>
  <scstep>
   <time name="dav">    1.75    1.76</time>
   <time name="total">    1.78    1.79</time>
   <energy>
    <i name="alphaZ">     60.25272160 </i>
    <i name="ewald">   1893.82139302 </i>
    <i name="hartreedc">  -3503.41449642 </i>
    <i name="XCdc">    168.07518924 </i>
    <i name="pawpsdc">   5746.54293493 </i>
    <i name="pawaedc">  -5745.89550919 </i>
    <i name="eentropy">     -0.00603630 </i>
    <i name="bandstr">   -490.03126880 </i>
    <i name="atom">   1746.50554237 </i>
    <i name="e_fr_energy">   -124.14952955 </i>
    <i name="e_wo_entrp">   -124.14349325 </i>
    <i name="e_0_energy">   -124.14651140 </i>
   </energy>
  </scstep>
  <structure>
   <crystal>
    <varray name="basis" >
     <v>       4.31973471       2.49400000       0.00000000 </v>
     <v>      -4.31973471       2.49400000       0.00000000 </v>
     <v>       0.00000000       0.00000000      15.00000000 </v>
    </varray>
    <i name="volume">    323.20255131 </i>
    <varray name="rec_basis" >
     <v>       0.11574785       0.20048115       0.00000000 </v>
     <v>      -0.11574785       0.20048115       0.00000000 </v>
     <v>       0.00000000       0.00000000       0.06666667 </v>
    </varray>
   </crystal>
   <varray name="positions" >
    <v>       0.66965642      -0.00000065       0.10055686 </v>
    <v>       0.33034193      -0.00000065       0.10055686 </v>
    <v>       0.00000065       0.33034258       0.10055686 </v>
    <v>       0.00000065       0.66965707       0.10055686 </v>
    <v>       0.33034193       0.33034258       0.10055686 </v>
    <v>       0.66965642       0.66965707       0.10055686 </v>
    <v>       0.66666600       0.33333300       0.09980643 </v>
    <v>       0.33333300       0.66666600       0.10142070 </v>
    <v>       0.16670302       0.33340704       0.46716198 </v>
    <v>       0.33340488       0.16670194       0.46716238 </v>
    <v>       0.16670302       0.83329598       0.46716198 </v>
    <v>       0.33333300       0.66666600       0.46716201 </v>
    <v>       0.66666600       0.33333300       0.46716329 </v>
    <v>       0.83329706       0.16670194       0.46716238 </v>
    <v>       0.66659196       0.83329598       0.46716198 </v>
    <v>       0.83329706       0.66659412       0.46716238 </v>
   </varray>
  </structure>
  <varray name="forces" >
   <v>      -0.00142690      -0.00078824       0.00857912 </v>
   <v>       0.00139609       0.00084162       0.00857912 </v>
   <v>      -0.00142690       0.00078824       0.00857912 </v>
   <v>       0.00139609      -0.00084162       0.00857912 </v>
   <v>       0.00003082       0.00162985       0.00857912 </v>
   <v>       0.00003082      -0.00162985       0.00857912 </v>
   <v>      -0.00000000       0.00000000       0.00756851 </v>
   <v>       0.00000000       0.00000000       0.00838392 </v>
   <v>       0.01193083      -0.02066480      -0.00837476 </v>
   <v>      -0.01157675      -0.02005152      -0.00842198 </v>
   <v>      -0.02386165       0.00000000      -0.00837476 </v>
   <v>      -0.00000000       0.00000000      -0.00843268 </v>
   <v>       0.00000000       0.00000000      -0.00860428 </v>
   <v>       0.02315351       0.00000000      -0.00842198 </v>
   <v>       0.01193083       0.02066480      -0.00837476 </v>
   <v>      -0.01157675       0.02005152      -0.00842198 </v>
  </varray>
  <varray name="stress" >
   <v>      -6.13172408       0.00000000      -0.00000000 </v>
   <v>      -0.00000000      -6.13172408       0.00000000 </v>
   <v>      -0.00000000       0.00000000      -3.69124588 </v>
  </varray>
  <energy>
   <i name="e_fr_energy">   -125.63854241 </i>
   <i name="e_wo_entrp">   -125.63250611 </i>
   <i name="e_0_energy">   -125.63552426 </i>
  </energy>
  <time name="totalsc">   10.83   10.96</time>
 </calculation>
 <calculation>
  <scstep>
   <time name="dav">    1.44    1.45</time>
   <time name="total">    1.57    1.59</time>
   <energy>
    <i name="alphaZ">     60.25272160 </i>
    <i name="ewald">   1909.56195246 </i>
    <i name="hartreedc">  -3519.13059721 </i>
    <i name="XCdc">    168.07512799 </i>
    <i name="pawpsdc">   5746.54758862 </i>
    <i name="pawaedc">  -5745.90016408 </i>
    <i name="eentropy">     -0.00603614 </i>
    <i name="bandstr">   -490.05662796 </i>
    <i name="atom">   1746.50554237 </i>
    <i name="e_fr_energy">   -124.15049234 </i>
    <i name="e_wo_entrp">   -124.14445621 </i>
    <i name="e_0_energy">   -124.14747427 </i>
   </energy>
  </scstep>
  <scstep>
   <time name="dav">    1.76    1.77</time>
   <time name="total">    1.88    1.91</time>
   <energy>
    <i name="e_fr_energy">   -124.15003606 </i>
    <i name="e_wo_entrp">   -124.14399376 </i>
    <i name="e_0_energy">   -124.14701491 </i>
   </energy>
  </scstep>
  <scstep>
   <time name="dav">    1.82    1.83</time>
   <time name="total">    1.94    1.96</time>
   <energy>
    <i name="e_fr_energy">   -124.14955535 </i>
    <i name="e_wo_entrp">   -124.14351666 </i>
    <i name="e_0_energy">   -124.14653601 </i>
   </energy>
  </scstep>
  <scstep>
   <time name="dav">    2.39    2.40</time>
   <time name="total">    2.51    2.54</time>
   <energy>
    <i name="e_fr_energy">   -124.14956234 </i>
    <i name="e_wo_entrp">   -124.14352603 </i>
    <i name="e_0_energy">   -124.14654419 </i>
   </energy>
  </scstep>
  <scstep>
   <time name="dav">    1.81    1.83</time>
   <time name="total">    1.94    1.96</time>
   <energy>
[...]
       <r>     2.5252     1.3236    31.2558 </r>
       <r>     2.6280     1.8900    31.4501 </r>
       <r>     2.7307     1.7709    31.6320 </r>
       <r>     2.8335     1.6902    31.8057 </r>
       <r>     2.9363     1.1387    31.9227 </r>
       <r>     3.0390     1.3344    32.0598 </r>
       <r>     3.1418     1.9403    32.2592 </r>
       <r>     3.2445     2.3680    32.5026 </r>
       <r>     3.3473     2.4017    32.7493 </r>
       <r>     3.4500     1.9541    32.9501 </r>
       <r>     3.5528     2.5480    33.2120 </r>
       <r>     3.6556     2.8030    33.5000 </r>
       <r>     3.7583     2.4539    33.7522 </r>
       <r>     3.8611     2.4318    34.0020 </r>
       <r>     3.9638     2.3836    34.2470 </r>
       <r>     4.0666     2.2841    34.4817 </r>
       <r>     4.1693     3.0002    34.7900 </r>
       <r>     4.2721     3.2985    35.1289 </r>
       <r>     4.3749     2.9309    35.4301 </r>
       <r>     4.4776     2.1397    35.6500 </r>
       <r>     4.5804     2.9060    35.9486 </r>
       <r>     4.6831     3.6924    36.3280 </r>
       <r>     4.7859     2.5757    36.5927 </r>
       <r>     4.8887     2.7015    36.8703 </r>
       <r>     4.9914     3.5179    37.2318 </r>
       <r>     5.0942     3.9360    37.6362 </r>
       <r>     5.1969     3.9200    38.0390 </r>
       <r>     5.2997     3.4884    38.3975 </r>
       <r>     5.4024     2.6321    38.6680 </r>
       <r>     5.5052     3.1483    38.9915 </r>
       <r>     5.6080     3.7996    39.3819 </r>
       <r>     5.7107     3.3934    39.7306 </r>
       <r>     5.8135     2.9108    40.0297 </r>
       <r>     5.9162     2.4411    40.2806 </r>
       <r>     6.0190     2.8873    40.5773 </r>
       <r>     6.1218     3.1259    40.8985 </r>
       <r>     6.2245     2.3229    41.1372 </r>
       <r>     6.3273     2.5731    41.4016 </r>
       <r>     6.4300     2.7394    41.6831 </r>
       <r>     6.5328     3.3216    42.0244 </r>
       <r>     6.6355     3.7764    42.4124 </r>
       <r>     6.7383     4.0025    42.8237 </r>
       <r>     6.8411     3.8122    43.2155 </r>
       <r>     6.9438     3.3468    43.5594 </r>
       <r>     7.0466     2.9914    43.8668 </r>
       <r>     7.1493     3.6305    44.2398 </r>
       <r>     7.2521     4.4048    44.6925 </r>
       <r>     7.3548     5.8161    45.2901 </r>
       <r>     7.4576     5.1204    45.8163 </r>
       <r>     7.5604     3.4140    46.1671 </r>
       <r>     7.6631     3.9798    46.5761 </r>
       <r>     7.7659     4.5854    47.0472 </r>
       <r>     7.8686     3.5140    47.4083 </r>
       <r>     7.9714     2.5731    47.6727 </r>
       <r>     8.0742     2.1010    47.8886 </r>
       <r>     8.1769     0.9119    47.9823 </r>
       <r>     8.2797     0.1223    47.9949 </r>
       <r>     8.3824     0.0375    47.9988 </r>
       <r>     8.4852     0.0114    47.9999 </r>
       <r>     8.5879     0.0006    48.0000 </r>
       <r>     8.6907     0.0000    48.0000 </r>
       <r>     8.7935     0.0000    48.0000 </r>
       <r>     8.8962     0.0000    48.0000 </r>
       <r>     8.9990     0.0000    48.0000 </r>
       <r>     9.1017     0.0000    48.0000 </r>
       <r>     9.2045     0.0000    48.0000 </r>
       <r>     9.3072     0.0000    48.0000 </r>
       <r>     9.4100     0.0000    48.0000 </r>
       <r>     9.5128     0.0000    48.0000 </r>
       <r>     9.6155     0.0000    48.0000 </r>
       <r>     9.7183     0.0000    48.0000 </r>
      </set>
      <set comment="spin 2">
       <r>   -21.1091     0.0000     0.0000 </r>
       <r>   -21.0064     0.0000     0.0000 </r>
       <r>   -20.9036     0.0000     0.0000 </r>
       <r>   -20.8008     0.0000     0.0000 </r>
       <r>   -20.6981     0.0000     0.0000 </r>
       <r>   -20.5953     0.0000     0.0000 </r>
       <r>   -20.4926     0.0000     0.0000 </r>
       <r>   -20.3898     0.0000     0.0000 </r>
       <r>   -20.2870     0.0000     0.0000 </r>
       <r>   -20.1843     0.0000     0.0000 </r>
       <r>   -20.0815     0.0000     0.0000 </r>
       <r>   -19.9788     0.0000     0.0000 </r>
       <r>   -19.8760     0.0012     0.0001 </r>
       <r>   -19.7733     0.0402     0.0043 </r>
       <r>   -19.6705     0.2671     0.0317 </r>
       <r>   -19.5677     0.5524     0.0885 </r>
       <r>   -19.4650     0.6121     0.1514 </r>
       <r>   -19.3622     0.6552     0.2187 </r>
       <r>   -19.2595     0.5720     0.2775 </r>
       <r>   -19.1567     0.7157     0.3510 </r>
       <r>   -19.0540     0.5585     0.4084 </r>
       <r>   -18.9512     0.6037     0.4704 </r>
       <r>   -18.8484     0.7848     0.5511 </r>
       <r>   -18.7457     0.4933     0.6018 </r>
       <r>   -18.6429     0.5717     0.6605 </r>
       <r>   -18.5402     0.8173     0.7445 </r>
       <r>   -18.4374     0.6574     0.8120 </r>
       <r>   -18.3346     0.3897     0.8521 </r>
       <r>   -18.2319     0.6858     0.9226 </r>
       <r>   -18.1291     0.8831     1.0133 </r>
       <r>   -18.0264     0.5797     1.0729 </r>
       <r>   -17.9236     0.4765     1.1218 </r>
       <r>   -17.8209     0.4875     1.1719 </r>
       <r>   -17.7181     0.9593     1.2705 </r>
       <r>   -17.6153     0.7798     1.3506 </r>
       <r>   -17.5126     0.4217     1.3940 </r>
       <r>   -17.4098     0.4924     1.4446 </r>
       <r>   -17.3071     0.6105     1.5073 </r>
       <r>   -17.2043     0.9214     1.6020 </r>
       <r>   -17.1015     0.8129     1.6855 </r>
       <r>   -16.9988     0.5398     1.7410 </r>
       <r>   -16.8960     0.2966     1.7715 </r>
       <r>   -16.7933     0.6416     1.8374 </r>
       <r>   -16.6905     0.9307     1.9330 </r>
       <r>   -16.5878     0.8147     2.0167 </r>
       <r>   -16.4850     0.6664     2.0852 </r>
       <r>   -16.3822     0.5648     2.1433 </r>
       <r>   -16.2795     0.3163     2.1758 </r>
       <r>   -16.1767     0.5654     2.2339 </r>
       <r>   -16.0740     1.1864     2.3558 </r>
       <r>   -15.9712     0.8724     2.4454 </r>
       <r>   -15.8685     1.0229     2.5505 </r>
       <r>   -15.7657     1.2611     2.6801 </r>
       <r>   -15.6629     1.3500     2.8188 </r>
       <r>   -15.5602     1.2546     2.9478 </r>
       <r>   -15.4574     1.8040     3.1331 </r>
       <r>   -15.3547     2.0532     3.3441 </r>
       <r>   -15.2519     1.6603     3.5147 </r>
       <r>   -15.1491     1.5885     3.6780 </r>
       <r>   -15.0464     1.8451     3.8676 </r>
       <r>   -14.9436     1.4368     4.0152 </r>
       <r>   -14.8409     1.3357     4.1525 </r>
       <r>   -14.7381     1.4818     4.3047 </r>
       <r>   -14.6354     1.3457     4.4430 </r>
       <r>   -14.5326     1.0712     4.5531 </r>
       <r>   -14.4298     1.0067     4.6565 </r>
       <r>   -14.3271     0.9116     4.7502 </r>
       <r>   -14.2243     1.2924     4.8830 </r>
       <r>   -14.1216     2.1748     5.1065 </r>
       <r>   -14.0188     1.5118     5.2618 </r>
       <r>   -13.9161     0.7095     5.3347 </r>
       <r>   -13.8133     0.6907     5.4057 </r>
       <r>   -13.7105     0.6238     5.4698 </r>
       <r>   -13.6078     0.5659     5.5280 </r>
       <r>   -13.5050     0.9687     5.6275 </r>
       <r>   -13.4023     1.1396     5.7446 </r>
       <r>   -13.2995     0.8372     5.8306 </r>
       <r>   -13.1967     0.7787     5.9107 </r>
       <r>   -13.0940     0.9530     6.0086 </r>
       <r>   -12.9912     1.1308     6.1248 </r>
       <r>   -12.8885     0.8513     6.2123 </r>
       <r>   -12.7857     1.0411     6.3192 </r>
       <r>   -12.6830     1.1310     6.4355 </r>
       <r>   -12.5802     1.3713     6.5764 </r>
       <r>   -12.4774     1.7972     6.7611 </r>
       <r>   -12.3747     1.3799     6.9028 </r>
       <r>   -12.2719     1.7866     7.0864 </r>
       <r>   -12.1692     1.5721     7.2480 </r>
       <r>   -12.0664     1.6937     7.4220 </r>
       <r>   -11.9637     2.5923     7.6884 </r>
       <r>   -11.8609     2.0827     7.9024 </r>
       <r>   -11.7581     1.5350     8.0601 </r>
       <r>   -11.6554     1.4491     8.2091 </r>
       <r>   -11.5526     1.3742     8.3503 </r>
       <r>   -11.4499     1.0196     8.4550 </r>
       <r>   -11.3471     0.5858     8.5152 </r>
       <r>   -11.2443     0.4134     8.5577 </r>
       <r>   -11.1416     0.6422     8.6237 </r>
       <r>   -11.0388     0.7094     8.6966 </r>
       <r>   -10.9361     0.8059     8.7794 </r>
       <r>   -10.8333     0.8831     8.8702 </r>
       <r>   -10.7306     1.1114     8.9844 </r>
       <r>   -10.6278     1.0667     9.0940 </r>
       <r>   -10.5250     1.6722     9.2658 </r>
       <r>   -10.4223     2.7681     9.5503 </r>
       <r>   -10.3195     2.1643     9.7727 </r>
       <r>   -10.2168     0.7989     9.8547 </r>
       <r>   -10.1140     0.4860     9.9047 </r>
       <r>   -10.0113     1.3253    10.0409 </r>
       <r>    -9.9085     2.4498    10.2926 </r>
       <r>    -9.8057     1.3551    10.4319 </r>
       <r>    -9.7030     0.5608    10.4895 </r>
       <r>    -9.6002     0.8650    10.5784 </r>
       <r>    -9.4975     1.6751    10.7505 </r>
       <r>    -9.3947     2.5538    11.0129 </r>
       <r>    -9.2919     1.9428    11.2126 </r>
       <r>    -9.1892     2.2529    11.4441 </r>
       <r>    -9.0864     1.9992    11.6495 </r>
       <r>    -8.9837     1.4933    11.8029 </r>
       <r>    -8.8809     1.8920    11.9974 </r>
       <r>    -8.7782     2.1811    12.2215 </r>
       <r>    -8.6754     1.8137    12.4079 </r>
       <r>    -8.5726     1.2031    12.5315 </r>
       <r>    -8.4699     1.7857    12.7150 </r>
       <r>    -8.3671     2.7380    12.9963 </r>
       <r>    -8.2644     2.0838    13.2105 </r>
       <r>    -8.1616     1.0383    13.3172 </r>
       <r>    -8.0588     1.6569    13.4874 </r>
       <r>    -7.9561     1.8118    13.6736 </r>
       <r>    -7.8533     2.2188    13.9016 </r>
       <r>    -7.7506     3.2654    14.2371 </r>
       <r>    -7.6478     2.3976    14.4835 </r>
       <r>    -7.5451     1.8273    14.6713 </r>
       <r>    -7.4423     1.8828    14.8647 </r>
       <r>    -7.3395     2.5678    15.1286 </r>
       <r>    -7.2368     2.5389    15.3895 </r>
       <r>    -7.1340     1.8672    15.5814 </r>
       <r>    -7.0313     1.9017    15.7768 </r>
       <r>    -6.9285     2.3166    16.0148 </r>
       <r>    -6.8258     3.1378    16.3373 </r>
       <r>    -6.7230     3.2190    16.6680 </r>
       <r>    -6.6202     3.5041    17.0281 </r>
       <r>    -6.5175     3.1174    17.3485 </r>
       <r>    -6.4147     3.3261    17.6902 </r>
       <r>    -6.3120     3.5971    18.0599 </r>
       <r>    -6.2092     2.9590    18.3639 </r>
       <r>    -6.1064     2.2512    18.5953 </r>
       <r>    -6.0037     1.9378    18.7944 </r>
       <r>    -5.9009     2.0988    19.0101 </r>
       <r>    -5.7982     2.0407    19.2198 </r>
       <r>    -5.6954     2.3501    19.4612 </r>
       <r>    -5.5927     1.9147    19.6580 </r>
       <r>    -5.4899     1.1804    19.7793 </r>
       <r>    -5.3871     1.6837    19.9523 </r>
       <r>    -5.2844     2.3171    20.1904 </r>
       <r>    -5.1816     2.1834    20.4148 </r>
       <r>    -5.0789     1.6523    20.5846 </r>
       <r>    -4.9761     1.9312    20.7830 </r>
       <r>    -4.8734     2.4402    21.0338 </r>
       <r>    -4.7706     1.6096    21.1992 </r>
       <r>    -4.6678     1.2375    21.3263 </r>
       <r>    -4.5651     1.8035    21.5117 </r>
       <r>    -4.4623     2.4708    21.7655 </r>
       <r>    -4.3596     2.2337    21.9951 </r>
       <r>    -4.2568     2.0891    22.2097 </r>
       <r>    -4.1540     2.6121    22.4782 </r>
       <r>    -4.0513     2.6220    22.7476 </r>
       <r>    -3.9485     2.7037    23.0254 </r>
       <r>    -3.8458     3.1256    23.3466 </r>
       <r>    -3.7430     3.6206    23.7186 </r>
       <r>    -3.6403     3.7222    24.1011 </r>
       <r>    -3.5375     2.9368    24.4029 </r>
       <r>    -3.4347     1.9125    24.5995 </r>
       <r>    -3.3320     1.5649    24.7603 </r>
       <r>    -3.2292     1.8053    24.9458 </r>
       <r>    -3.1265     1.4824    25.0981 </r>
       <r>    -3.0237     1.6735    25.2701 </r>
       <r>    -2.9210     1.9728    25.4728 </r>
       <r>    -2.8182     1.5169    25.6287 </r>
       <r>    -2.7154     1.0789    25.7395 </r>
       <r>    -2.6127     1.1824    25.8610 </r>
       <r>    -2.5099     2.1729    26.0843 </r>
       <r>    -2.4072     2.2864    26.3193 </r>
       <r>    -2.3044     0.9266    26.4145 </r>
       <r>    -2.2016     0.8113    26.4978 </r>
       <r>    -2.0989     1.2083    26.6220 </r>
       <r>    -1.9961     1.2231    26.7477 </r>
       <r>    -1.8934     1.1911    26.8701 </r>
       <r>    -1.7906     1.1939    26.9928 </r>
       <r>    -1.6879     0.8591    27.0810 </r>
       <r>    -1.5851     0.7854    27.1617 </r>
       <r>    -1.4823     1.2850    27.2938 </r>
       <r>    -1.3796     1.0061    27.3972 </r>
       <r>    -1.2768     0.5724    27.4560 </r>
       <r>    -1.1741     0.9675    27.5554 </r>
       <r>    -1.0713     0.8442    27.6422 </r>
       <r>    -0.9685     0.7614    27.7204 </r>
       <r>    -0.8658     0.7544    27.7979 </r>
       <r>    -0.7630     0.3628    27.8352 </r>
       <r>    -0.6603     0.1642    27.8521 </r>
       <r>    -0.5575     0.3888    27.8920 </r>
       <r>    -0.4548     0.5633    27.9499 </r>
       <r>    -0.3520     0.3878    27.9898 </r>
       <r>    -0.2492     0.2773    28.0182 </r>
       <r>    -0.1465     0.2887    28.0479 </r>
       <r>    -0.0437     0.4312    28.0922 </r>
       <r>     0.0590     0.4426    28.1377 </r>
       <r>     0.1618     0.7567    28.2155 </r>
       <r>     0.2645     0.9093    28.3089 </r>
       <r>     0.3673     1.2449    28.4368 </r>
       <r>     0.4701     1.2973    28.5701 </r>
       <r>     0.5728     1.0798    28.6811 </r>
       <r>     0.6756     0.8637    28.7699 </r>
       <r>     0.7783     1.2627    28.8996 </r>
       <r>     0.8811     1.3018    29.0334 </r>
       <r>     0.9839     0.9316    29.1291 </r>
       <r>     1.0866     1.1819    29.2506 </r>
       <r>     1.1894     1.9864    29.4547 </r>
       <r>     1.2921     2.3725    29.6985 </r>
       <r>     1.3949     1.8615    29.8898 </r>
       <r>     1.4976     1.1823    30.0113 </r>
       <r>     1.6004     0.7662    30.0900 </r>
       <r>     1.7032     0.9392    30.1865 </r>
       <r>     1.8059     1.2836    30.3184 </r>
       <r>     1.9087     1.3923    30.4615 </r>
       <r>     2.0114     1.6609    30.6321 </r>
       <r>     2.1142     1.6660    30.8033 </r>
       <r>     2.2169     1.4919    30.9566 </r>
       <r>     2.3197     0.9755    31.0569 </r>
       <r>     2.4225     0.6127    31.1198 </r>
       <r>     2.5252     1.3236    31.2558 </r>
       <r>     2.6280     1.8899    31.4500 </r>
       <r>     2.7307     1.7709    31.6320 </r>
       <r>     2.8335     1.6903    31.8057 </r>
       <r>     2.9363     1.1384    31.9227 </r>
       <r>     3.0390     1.3338    32.0597 </r>
       <r>     3.1418     1.9397    32.2591 </r>
       <r>     3.2445     2.3674    32.5023 </r>
       <r>     3.3473     2.4028    32.7492 </r>
       <r>     3.4500     1.9546    32.9501 </r>
       <r>     3.5528     2.5470    33.2118 </r>
       <r>     3.6556     2.8027    33.4998 </r>
       <r>     3.7583     2.4539    33.7520 </r>
       <r>     3.8611     2.4320    34.0019 </r>
       <r>     3.9638     2.3838    34.2468 </r>
       <r>     4.0666     2.2838    34.4815 </r>
       <r>     4.1693     3.0005    34.7898 </r>
       <r>     4.2721     3.2982    35.1287 </r>
       <r>     4.3749     2.9308    35.4299 </r>
       <r>     4.4776     2.1399    35.6498 </r>
       <r>     4.5804     2.9050    35.9483 </r>
       <r>     4.6831     3.6922    36.3277 </r>
       <r>     4.7859     2.5733    36.5921 </r>
       <r>     4.8887     2.6994    36.8695 </r>
       <r>     4.9914     3.5190    37.2311 </r>
       <r>     5.0942     3.9333    37.6353 </r>
       <r>     5.1969     3.9195    38.0381 </r>
       <r>     5.2997     3.4916    38.3969 </r>
       <r>     5.4024     2.6301    38.6671 </r>
       <r>     5.5052     3.1448    38.9903 </r>
       <r>     5.6080     3.8034    39.3811 </r>
       <r>     5.7107     3.3963    39.7301 </r>
       <r>     5.8135     2.9096    40.0291 </r>
       <r>     5.9162     2.4390    40.2797 </r>
       <r>     6.0190     2.8825    40.5759 </r>
       <r>     6.1218     3.1318    40.8977 </r>
       <r>     6.2245     2.3259    41.1367 </r>
       <r>     6.3273     2.5729    41.4011 </r>
       <r>     6.4300     2.7369    41.6824 </r>
       <r>     6.5328     3.3195    42.0235 </r>
       <r>     6.6355     3.7756    42.4115 </r>
       <r>     6.7383     4.0031    42.8228 </r>
       <r>     6.8411     3.8140    43.2147 </r>
       <r>     6.9438     3.3474    43.5587 </r>
       <r>     7.0466     2.9902    43.8660 </r>
       <r>     7.1493     3.6287    44.2388 </r>
       <r>     7.2521     4.4032    44.6913 </r>
       <r>     7.3548     5.8151    45.2889 </r>
       <r>     7.4576     5.1238    45.8154 </r>
       <r>     7.5604     3.4167    46.1665 </r>
       <r>     7.6631     3.9772    46.5752 </r>
       <r>     7.7659     4.5860    47.0464 </r>
       <r>     7.8686     3.5148    47.4076 </r>
       <r>     7.9714     2.5761    47.6723 </r>
       <r>     8.0742     2.1025    47.8883 </r>
       <r>     8.1769     0.9141    47.9823 </r>
       <r>     8.2797     0.1231    47.9949 </r>
       <r>     8.3824     0.0376    47.9988 </r>
       <r>     8.4852     0.0114    47.9999 </r>
       <r>     8.5879     0.0006    48.0000 </r>
       <r>     8.6907     0.0000    48.0000 </r>
       <r>     8.7935     0.0000    48.0000 </r>
       <r>     8.8962     0.0000    48.0000 </r>
       <r>     8.9990     0.0000    48.0000 </r>
       <r>     9.1017     0.0000    48.0000 </r>
       <r>     9.2045     0.0000    48.0000 </r>
       <r>     9.3072     0.0000    48.0000 </r>
       <r>     9.4100     0.0000    48.0000 </r>
       <r>     9.5128     0.0000    48.0000 </r>
       <r>     9.6155     0.0000    48.0000 </r>
       <r>     9.7183     0.0000    48.0000 </r>
      </set>
     </set>
    </array>
   </total>
  </dos>
 </calculation>
 <structure name="finalpos" >
  <crystal>
   <varray name="basis" >
    <v>       4.31973471       2.49400000       0.00000000 </v>
    <v>      -4.31973471       2.49400000       0.00000000 </v>
    <v>       0.00000000       0.00000000      15.00000000 </v>
   </varray>
   <i name="volume">    323.20255131 </i>
   <varray name="rec_basis" >
    <v>       0.11574785       0.20048115       0.00000000 </v>
    <v>      -0.11574785       0.20048115       0.00000000 </v>
    <v>       0.00000000       0.00000000       0.06666667 </v>
   </varray>
  </crystal>
  <varray name="positions" >
   <v>       0.66844736       0.00001044       0.16744946 </v>
   <v>       0.33156208       0.00001044       0.16744946 </v>
   <v>      -0.00001044       0.33155164       0.16744946 </v>
   <v>      -0.00001044       0.66843692       0.16744946 </v>
   <v>       0.33156208       0.33155164       0.16744946 </v>
   <v>       0.66844736       0.66843692       0.16744946 </v>
   <v>       0.66666600       0.33333300       0.15487877 </v>
   <v>       0.33333300       0.66666600       0.18007714 </v>
   <v>       0.16664748       0.33329597       0.40030228 </v>
   <v>       0.33333528       0.16666714       0.40022979 </v>
   <v>       0.16664748       0.83335152       0.40030228 </v>
   <v>       0.33333300       0.66666600       0.40037501 </v>
   <v>       0.66666600       0.33333300       0.40024274 </v>
   <v>       0.83333186       0.16666714       0.40022979 </v>
   <v>       0.66670303       0.83335152       0.40030228 </v>
   <v>       0.83333186       0.66666372       0.40022979 </v>
  </varray>
 </structure>
</modeling>
