Lattice                                 
           1
     4.319735    2.494000    0.000000
    -4.319735    2.494000    0.000000
     0.000000    0.000000   15.000000
   B    C 
     8     8
Direct configuration=     1
   0.66888689  0.00000000  0.10000000
   0.33111211  0.00000000  0.10000000
   0.00000000  0.33111211  0.10000000
   0.00000000  0.66888689  0.10000000
   0.33111211  0.33111211  0.10000000
   0.66888689  0.66888689  0.10000000
   0.66666600  0.33333300  0.09922189
   0.33333300  0.66666600  0.10077811
   0.16666600  0.33333300  0.46773333
   0.33333300  0.16666600  0.46773333
   0.16666600  0.83333300  0.46773333
   0.33333300  0.66666600  0.46773333
   0.66666600  0.33333300  0.46773333
   0.83333300  0.16666600  0.46773333
   0.66666600  0.83333300  0.46773333
   0.83333300  0.66666600  0.46773333
Direct configuration=     2
   0.67035392  0.00000002  0.10002689
   0.32964510  0.00000002  0.10002689
  -0.00000002  0.32964508  0.10002689
  -0.00000002  0.67035390  0.10002689
   0.32964510  0.32964508  0.10002689
   0.67035392  0.67035390  0.10002689
   0.66666600  0.33333300  0.09924760
   0.33333300  0.66666600  0.10081258
   0.16666369  0.33332838  0.46770563
   0.33332850  0.16666375  0.46770565
   0.16666369  0.83333531  0.46770563
   0.33333300  0.66666600  0.46770562
   0.66666600  0.33333300  0.46770570
   0.83333525  0.16666375  0.46770565
   0.66667062  0.83333531  0.46770563
   0.83333525  0.66667050  0.46770565
Direct configuration=     3
   0.66965536  0.00000001  0.10001408
   0.33034365  0.00000001  0.10001408
  -0.00000001  0.33034364  0.10001408
  -0.00000001  0.66965535  0.10001408
   0.33034365  0.33034364  0.10001408
   0.66965536  0.66965535  0.10001408
   0.66666600  0.33333300  0.09923536
   0.33333300  0.66666600  0.10079617
   0.16666479  0.33333058  0.46771882
   0.33333064  0.16666482  0.46771883
   0.16666479  0.83333421  0.46771882
   0.33333300  0.66666600  0.46771882
   0.66666600  0.33333300  0.46771886
   0.83333418  0.16666482  0.46771883
   0.66666842  0.83333421  0.46771882
   0.83333418  0.66666836  0.46771883
Direct configuration=     4
   0.66965855  0.00000001  0.10001414
   0.33034045  0.00000001  0.10001414
  -0.00000001  0.33034045  0.10001414
  -0.00000001  0.66965855  0.10001414
   0.33034045  0.33034045  0.10001414
   0.66965855  0.66965855  0.10001414
   0.66666600  0.33333300  0.09923541
   0.33333300  0.66666600  0.10079624
   0.16666478  0.33333057  0.46771876
   0.33333063  0.16666482  0.46771877
   0.16666478  0.83333422  0.46771876
   0.33333300  0.66666600  0.46771876
   0.66666600  0.33333300  0.46771880
   0.83333418  0.16666482  0.46771877
   0.66666843  0.83333422  0.46771876
   0.83333418  0.66666837  0.46771877
Direct configuration=     5
   0.66965726  0.00000001  0.10001412
   0.33034175  0.00000001  0.10001412
  -0.00000001  0.33034174  0.10001412
  -0.00000001  0.66965725  0.10001412
   0.33034175  0.33034174  0.10001412
   0.66965726  0.66965725  0.10001412
   0.66666600  0.33333300  0.09923539
   0.33333300  0.66666600  0.10079621
   0.16666479  0.33333057  0.46771879
   0.33333064  0.16666482  0.46771880
   0.16666479  0.83333421  0.46771879
   0.33333300  0.66666600  0.46771878
   0.66666600  0.33333300  0.46771883
   0.83333418  0.16666482  0.46771880
   0.66666843  0.83333421  0.46771879
   0.83333418  0.66666836  0.46771880
Direct configuration=     6
   0.66965631  0.00000001  0.10001410
   0.33034270  0.00000001  0.10001410
  -0.00000001  0.33034269  0.10001410
  -0.00000001  0.66965630  0.10001410
   0.33034270  0.33034269  0.10001410
   0.66965631  0.66965630  0.10001410
   0.66666600  0.33333300  0.09923537
   0.33333300  0.66666600  0.10079619
   0.16666479  0.33333058  0.46771880
   0.33333064  0.16666482  0.46771881
   0.16666479  0.83333421  0.46771880
   0.33333300  0.66666600  0.46771880
   0.66666600  0.33333300  0.46771884
   0.83333418  0.16666482  0.46771881
   0.66666842  0.83333421  0.46771880
   0.83333418  0.66666836  0.46771881
Direct configuration=     7
   0.66965632 -0.00000002  0.10003877
   0.33034266 -0.00000002  0.10003877
   0.00000002  0.33034268  0.10003877
   0.00000002  0.66965634  0.10003877
   0.33034266  0.33034268  0.10003877
   0.66965632  0.66965634  0.10003877
   0.66666600  0.33333300  0.09926133
   0.33333300  0.66666600  0.10082458
   0.16666653  0.33333405  0.46769349
   0.33333402  0.16666651  0.46769352
   0.16666653  0.83333247  0.46769349
   0.33333300  0.66666600  0.46769349
   0.66666600  0.33333300  0.46769359
   0.83333249  0.16666651  0.46769352
   0.66666495  0.83333247  0.46769349
   0.83333249  0.66666498  0.46769352
Direct configuration=     8
   0.66965633 -0.00000011  0.10011278
   0.33034256 -0.00000011  0.10011278
   0.00000011  0.33034267  0.10011278
   0.00000011  0.66965644  0.10011278
   0.33034256  0.33034267  0.10011278
   0.66965633  0.66965644  0.10011278
   0.66666600  0.33333300  0.09933920
   0.33333300  0.66666600  0.10090974
   0.16667174  0.33334448  0.46761756
   0.33334414  0.16667157  0.46761764
   0.16667174  0.83332726  0.46761756
   0.33333300  0.66666600  0.46761756
   0.66666600  0.33333300  0.46761783
   0.83332743  0.16667157  0.46761764
   0.66665452  0.83332726  0.46761756
   0.83332743  0.66665486  0.46761764
Direct configuration=     9
   0.66965636 -0.00000029  0.10026081
   0.33034235 -0.00000029  0.10026081
   0.00000029  0.33034264  0.10026081
   0.00000029  0.66965665  0.10026081
   0.33034235  0.33034264  0.10026081
   0.66965636  0.66965665  0.10026081
   0.66666600  0.33333300  0.09949494
   0.33333300  0.66666600  0.10108006
   0.16668217  0.33336533  0.46746570
   0.33336438  0.16668169  0.46746589
   0.16668217  0.83331683  0.46746570
   0.33333300  0.66666600  0.46746571
   0.66666600  0.33333300  0.46746632
   0.83331731  0.16668169  0.46746589
   0.66663367  0.83331683  0.46746570
   0.83331731  0.66663462  0.46746589
Direct configuration=    10
   0.66965642 -0.00000065  0.10055686
   0.33034193 -0.00000065  0.10055686
   0.00000065  0.33034258  0.10055686
   0.00000065  0.66965707  0.10055686
   0.33034193  0.33034258  0.10055686
   0.66965642  0.66965707  0.10055686
   0.66666600  0.33333300  0.09980643
   0.33333300  0.66666600  0.10142070
   0.16670302  0.33340704  0.46716198
   0.33340488  0.16670194  0.46716238
   0.16670302  0.83329598  0.46716198
   0.33333300  0.66666600  0.46716201
   0.66666600  0.33333300  0.46716329
   0.83329706  0.16670194  0.46716238
   0.66659196  0.83329598  0.46716198
   0.83329706  0.66659412  0.46716238
Direct configuration=    11
   0.66965654 -0.00000138  0.10114896
   0.33034109 -0.00000138  0.10114896
   0.00000138  0.33034246  0.10114896
   0.00000138  0.66965791  0.10114896
   0.33034109  0.33034246  0.10114896
   0.66965654  0.66965791  0.10114896
   0.66666600  0.33333300  0.10042939
   0.33333300  0.66666600  0.10210197
   0.16674473  0.33349046  0.46655453
   0.33348586  0.16674243  0.46655536
   0.16674473  0.83325427  0.46655453
   0.33333300  0.66666600  0.46655461
   0.66666600  0.33333300  0.46655723
   0.83325657  0.16674243  0.46655536
   0.66650854  0.83325427  0.46655453
   0.83325657  0.66651314  0.46655536
Direct configuration=    12
   0.66965678 -0.00000282  0.10233316
   0.33033940 -0.00000282  0.10233316
   0.00000282  0.33034222  0.10233316
   0.00000282  0.66965960  0.10233316
   0.33033940  0.33034222  0.10233316
   0.66965678  0.66965960  0.10233316
   0.66666600  0.33333300  0.10167532
   0.33333300  0.66666600  0.10346453
   0.16682815  0.33365730  0.46533965
   0.33364783  0.16682342  0.46534132
   0.16682815  0.83317085  0.46533965
   0.33333300  0.66666600  0.46533981
   0.66666600  0.33333300  0.46534512
   0.83317558  0.16682342  0.46534132
   0.66634170  0.83317085  0.46533965
   0.83317558  0.66635117  0.46534132
Direct configuration=    13
   0.66965725 -0.00000571  0.10470157
   0.33033604 -0.00000571  0.10470157
   0.00000571  0.33034175  0.10470157
   0.00000571  0.66966296  0.10470157
   0.33033604  0.33034175  0.10470157
   0.66965725  0.66966296  0.10470157
   0.66666600  0.33333300  0.10416718
   0.33333300  0.66666600  0.10618964
   0.16699499  0.33399098  0.46290987
   0.33397177  0.16698539  0.46291324
   0.16699499  0.83300401  0.46290987
   0.33333300  0.66666600  0.46291021
   0.66666600  0.33333300  0.46292089
   0.83301361  0.16698539  0.46291324
   0.66600802  0.83300401  0.46290987
   0.83301361  0.66602723  0.46291324
Direct configuration=    14
   0.66965820 -0.00001148  0.10943838
   0.33032932 -0.00001148  0.10943838
   0.00001148  0.33034080  0.10943838
   0.00001148  0.66966968  0.10943838
   0.33032932  0.33034080  0.10943838
   0.66965820  0.66966968  0.10943838
   0.66666600  0.33333300  0.10915091
   0.33333300  0.66666600  0.11163986
   0.16732867  0.33465834  0.45805031
   0.33461965  0.16730933  0.45805708
   0.16732867  0.83267033  0.45805031
   0.33333300  0.66666600  0.45805100
   0.66666600  0.33333300  0.45807243
   0.83268967  0.16730933  0.45805708
   0.66534066  0.83267033  0.45805031
   0.83268967  0.66537935  0.45805708
Direct configuration=    15
   0.66966010 -0.00002303  0.11891201
   0.33031587 -0.00002303  0.11891201
   0.00002303  0.33033890  0.11891201
   0.00002303  0.66968313  0.11891201
   0.33031587  0.33033890  0.11891201
   0.66966010  0.66968313  0.11891201
   0.66666600  0.33333300  0.11911836
   0.33333300  0.66666600  0.12254030
   0.16799603  0.33599305  0.44833119
   0.33591541  0.16795721  0.44834476
   0.16799603  0.83200297  0.44833119
   0.33333300  0.66666600  0.44833259
   0.66666600  0.33333300  0.44837551
   0.83204179  0.16795721  0.44834476
   0.66400595  0.83200297  0.44833119
   0.83204179  0.66408359  0.44834476
Direct configuration=    16
   0.66966391 -0.00004613  0.13785925
   0.33028897 -0.00004613  0.13785925
   0.00004613  0.33033509  0.13785925
   0.00004613  0.66971003  0.13785925
   0.33028897  0.33033509  0.13785925
   0.66966391  0.66971003  0.13785925
   0.66666600  0.33333300  0.13905326
   0.33333300  0.66666600  0.14434117
   0.16933074  0.33866248  0.42889296
   0.33850693  0.16925296  0.42892013
   0.16933074  0.83066826  0.42889296
   0.33333300  0.66666600  0.42889576
   0.66666600  0.33333300  0.42898168
   0.83074604  0.16925296  0.42892013
   0.66133652  0.83066826  0.42889296
   0.83074604  0.66149207  0.42892013
Direct configuration=    17
   0.66966185 -0.00003362  0.12759709
   0.33030354 -0.00003362  0.12759709
   0.00003362  0.33033715  0.12759709
   0.00003362  0.66969546  0.12759709
   0.33030354  0.33033715  0.12759709
   0.66966185  0.66969546  0.12759709
   0.66666600  0.33333300  0.12825617
   0.33333300  0.66666600  0.13253343
   0.16860784  0.33721667  0.43942105
   0.33710332  0.16855116  0.43944085
   0.16860784  0.83139116  0.43942105
   0.33333300  0.66666600  0.43942309
   0.66666600  0.33333300  0.43948572
   0.83144784  0.16855116  0.43944085
   0.66278233  0.83139116  0.43942105
   0.83144784  0.66289568  0.43944085
Direct configuration=    18
   0.66966185 -0.00003362  0.12759784
   0.33030354 -0.00003362  0.12759784
   0.00003362  0.33033715  0.12759784
   0.00003362  0.66969546  0.12759784
   0.33030354  0.33033715  0.12759784
   0.66966185  0.66969546  0.12759784
   0.66666600  0.33333300  0.12825695
   0.33333300  0.66666600  0.13253429
   0.16860786  0.33721672  0.43942029
   0.33710337  0.16855119  0.43944009
   0.16860786  0.83139114  0.43942029
   0.33333300  0.66666600  0.43942233
   0.66666600  0.33333300  0.43948496
   0.83144781  0.16855119  0.43944009
   0.66278228  0.83139114  0.43942029
   0.83144781  0.66289563  0.43944009
Direct configuration=    19
   0.66966185 -0.00003362  0.12760007
   0.33030353 -0.00003362  0.12760007
   0.00003362  0.33033715  0.12760007
   0.00003362  0.66969547  0.12760007
   0.33030353  0.33033715  0.12760007
   0.66966185  0.66969547  0.12760007
   0.66666600  0.33333300  0.12825930
   0.33333300  0.66666600  0.13253686
   0.16860794  0.33721689  0.43941799
   0.33710353  0.16855126  0.43943779
   0.16860794  0.83139106  0.43941799
   0.33333300  0.66666600  0.43942003
   0.66666600  0.33333300  0.43948267
   0.83144774  0.16855126  0.43943779
   0.66278211  0.83139106  0.43941799
   0.83144774  0.66289547  0.43943779
Direct configuration=    20
   0.66966184 -0.00003363  0.12760455
   0.33030353 -0.00003363  0.12760455
   0.00003363  0.33033716  0.12760455
   0.00003363  0.66969547  0.12760455
   0.33030353  0.33033716  0.12760455
   0.66966184  0.66969547  0.12760455
   0.66666600  0.33333300  0.12826401
   0.33333300  0.66666600  0.13254201
   0.16860811  0.33721721  0.43941340
   0.33710384  0.16855142  0.43943321
   0.16860811  0.83139089  0.43941340
   0.33333300  0.66666600  0.43941544
   0.66666600  0.33333300  0.43947809
   0.83144758  0.16855142  0.43943321
   0.66278179  0.83139089  0.43941340
   0.83144758  0.66289516  0.43943321
Direct configuration=    21
   0.66966183 -0.00003364  0.12761350
   0.33030352 -0.00003364  0.12761350
   0.00003364  0.33033717  0.12761350
   0.00003364  0.66969548  0.12761350
   0.33030352  0.33033717  0.12761350
   0.66966183  0.66969548  0.12761350
   0.66666600  0.33333300  0.12827342
   0.33333300  0.66666600  0.13255230
   0.16860843  0.33721786  0.43940422
   0.33710448  0.16855174  0.43942403
   0.16860843  0.83139057  0.43940422
   0.33333300  0.66666600  0.43940626
   0.66666600  0.33333300  0.43946893
   0.83144726  0.16855174  0.43942403
   0.66278114  0.83139057  0.43940422
   0.83144726  0.66289452  0.43942403
Direct configuration=    22
   0.66966182 -0.00003367  0.12763141
   0.33030351 -0.00003367  0.12763141
   0.00003367  0.33033718  0.12763141
   0.00003367  0.66969549  0.12763141
   0.33030351  0.33033718  0.12763141
   0.66966182  0.66969549  0.12763141
   0.66666600  0.33333300  0.12829223
   0.33333300  0.66666600  0.13257287
   0.16860908  0.33721916  0.43938586
   0.33710574  0.16855237  0.43940568
   0.16860908  0.83138992  0.43938586
   0.33333300  0.66666600  0.43938790
   0.66666600  0.33333300  0.43945060
   0.83144663  0.16855237  0.43940568
   0.66277984  0.83138992  0.43938586
   0.83144663  0.66289326  0.43940568
Direct configuration=    23
   0.66966179 -0.00003373  0.12766722
   0.33030348 -0.00003373  0.12766722
   0.00003373  0.33033721  0.12766722
   0.00003373  0.66969552  0.12766722
   0.33030348  0.33033721  0.12766722
   0.66966179  0.66969552  0.12766722
   0.66666600  0.33333300  0.12832986
   0.33333300  0.66666600  0.13261403
   0.16861038  0.33722176  0.43934913
   0.33710827  0.16855363  0.43936898
   0.16861038  0.83138862  0.43934913
   0.33333300  0.66666600  0.43935117
   0.66666600  0.33333300  0.43941395
   0.83144537  0.16855363  0.43936898
   0.66277724  0.83138862  0.43934913
   0.83144537  0.66289073  0.43936898
Direct configuration=    24
   0.66966172 -0.00003386  0.12773884
   0.33030342 -0.00003386  0.12773884
   0.00003386  0.33033728  0.12773884
   0.00003386  0.66969558  0.12773884
   0.33030342  0.33033728  0.12773884
   0.66966172  0.66969558  0.12773884
   0.66666600  0.33333300  0.12840512
   0.33333300  0.66666600  0.13269634
   0.16861298  0.33722696  0.43927568
   0.33711333  0.16855616  0.43929558
   0.16861298  0.83138602  0.43927568
   0.33333300  0.66666600  0.43927772
   0.66666600  0.33333300  0.43934066
   0.83144284  0.16855616  0.43929558
   0.66277204  0.83138602  0.43927568
   0.83144284  0.66288567  0.43929558
Direct configuration=    25
   0.66966160 -0.00003410  0.12788209
   0.33030330 -0.00003410  0.12788209
   0.00003410  0.33033740  0.12788209
   0.00003410  0.66969570  0.12788209
   0.33030330  0.33033740  0.12788209
   0.66966160  0.66969570  0.12788209
   0.66666600  0.33333300  0.12855565
   0.33333300  0.66666600  0.13286096
   0.16861818  0.33723736  0.43912878
   0.33712344  0.16856122  0.43914877
   0.16861818  0.83138082  0.43912878
   0.33333300  0.66666600  0.43913083
   0.66666600  0.33333300  0.43919406
   0.83143778  0.16856122  0.43914877
   0.66276164  0.83138082  0.43912878
   0.83143778  0.66287556  0.43914877
Direct configuration=    26
   0.66966135 -0.00003458  0.12816858
   0.33030307 -0.00003458  0.12816858
   0.00003458  0.33033765  0.12816858
   0.00003458  0.66969593  0.12816858
   0.33030307  0.33033765  0.12816858
   0.66966135  0.66969593  0.12816858
   0.66666600  0.33333300  0.12885670
   0.33333300  0.66666600  0.13319020
   0.16862858  0.33725816  0.43883497
   0.33714367  0.16857133  0.43885516
   0.16862858  0.83137042  0.43883497
   0.33333300  0.66666600  0.43883703
   0.66666600  0.33333300  0.43890088
   0.83142767  0.16857133  0.43885516
   0.66274084  0.83137042  0.43883497
   0.83142767  0.66285533  0.43885516
Direct configuration=    27
   0.66966085 -0.00003554  0.12874156
   0.33030260 -0.00003554  0.12874156
   0.00003554  0.33033815  0.12874156
   0.00003554  0.66969640  0.12874156
   0.33030260  0.33033815  0.12874156
   0.66966085  0.66969640  0.12874156
   0.66666600  0.33333300  0.12945879
   0.33333300  0.66666600  0.13384869
   0.16864938  0.33729976  0.43824737
   0.33718412  0.16859156  0.43826794
   0.16864938  0.83134962  0.43824737
   0.33333300  0.66666600  0.43824944
   0.66666600  0.33333300  0.43831450
   0.83140744  0.16859156  0.43826794
   0.66269924  0.83134962  0.43824737
   0.83140744  0.66281488  0.43826794
Direct configuration=    28
   0.66965985 -0.00003748  0.12988751
   0.33030167 -0.00003748  0.12988751
   0.00003748  0.33033915  0.12988751
   0.00003748  0.66969733  0.12988751
   0.33030167  0.33033915  0.12988751
   0.66965985  0.66969733  0.12988751
   0.66666600  0.33333300  0.13066299
   0.33333300  0.66666600  0.13516566
   0.16869098  0.33738297  0.43707215
   0.33726503  0.16863202  0.43709349
   0.16869098  0.83130802  0.43707215
   0.33333300  0.66666600  0.43707426
   0.66666600  0.33333300  0.43714175
   0.83136698  0.16863202  0.43709349
   0.66261603  0.83130802  0.43707215
   0.83136698  0.66273397  0.43709349
Direct configuration=    29
   0.66965786 -0.00004134  0.13217943
   0.33029981 -0.00004134  0.13217943
   0.00004134  0.33034114  0.13217943
   0.00004134  0.66969919  0.13217943
   0.33029981  0.33034114  0.13217943
   0.66965786  0.66969919  0.13217943
   0.66666600  0.33333300  0.13307137
   0.33333300  0.66666600  0.13779960
   0.16877418  0.33754937  0.43472173
   0.33742685  0.16871293  0.43474460
   0.16877418  0.83122482  0.43472173
   0.33333300  0.66666600  0.43472391
   0.66666600  0.33333300  0.43479625
   0.83128607  0.16871293  0.43474460
   0.66244963  0.83122482  0.43472173
   0.83128607  0.66257215  0.43474460
Direct configuration=    30
   0.66965386 -0.00004906  0.13676325
   0.33029608 -0.00004906  0.13676325
   0.00004906  0.33034514  0.13676325
   0.00004906  0.66970292  0.13676325
   0.33029608  0.33034514  0.13676325
   0.66965386  0.66970292  0.13676325
   0.66666600  0.33333300  0.13788815
   0.33333300  0.66666600  0.14306749
   0.16894059  0.33788218  0.43002087
   0.33775050  0.16887475  0.43004682
   0.16894059  0.83105841  0.43002087
   0.33333300  0.66666600  0.43002319
   0.66666600  0.33333300  0.43010526
   0.83112425  0.16887475  0.43004682
   0.66211682  0.83105841  0.43002087
   0.83112425  0.66224850  0.43004682
Direct configuration=    31
   0.66964588 -0.00006450  0.14593091
   0.33028862 -0.00006450  0.14593091
   0.00006450  0.33035312  0.14593091
   0.00006450  0.66971038  0.14593091
   0.33028862  0.33035312  0.14593091
   0.66964588  0.66971038  0.14593091
   0.66666600  0.33333300  0.14752169
   0.33333300  0.66666600  0.15360326
   0.16927340  0.33854779  0.42061917
   0.33839778  0.16919839  0.42065125
   0.16927340  0.83072560  0.42061917
   0.33333300  0.66666600  0.42062176
   0.66666600  0.33333300  0.42072327
   0.83080061  0.16919839  0.42065125
   0.66145121  0.83072560  0.42061917
   0.83080061  0.66160122  0.42065125
Direct configuration=    32
   0.66962991 -0.00009540  0.16426622
   0.33027369 -0.00009540  0.16426622
   0.00009540  0.33036909  0.16426622
   0.00009540  0.66972531  0.16426622
   0.33027369  0.33036909  0.16426622
   0.66962991  0.66972531  0.16426622
   0.66666600  0.33333300  0.16678878
   0.33333300  0.66666600  0.17467481
   0.16993901  0.33987902  0.40181575
   0.33969235  0.16984568  0.40186012
   0.16993901  0.83005999  0.40181575
   0.33333300  0.66666600  0.40181890
   0.66666600  0.33333300  0.40195928
   0.83015332  0.16984568  0.40186012
   0.66011998  0.83005999  0.40181575
   0.83015332  0.66030665  0.40186012
Direct configuration=    33
   0.66963902 -0.00007778  0.15380784
   0.33028221 -0.00007778  0.15380784
   0.00007778  0.33035998  0.15380784
   0.00007778  0.66971679  0.15380784
   0.33028221  0.33035998  0.15380784
   0.66963902  0.66971679  0.15380784
   0.66666600  0.33333300  0.15579893
   0.33333300  0.66666600  0.16265570
   0.16955935  0.33911969  0.41254113
   0.33895393  0.16947647  0.41257849
   0.16955935  0.83043965  0.41254113
   0.33333300  0.66666600  0.41254396
   0.66666600  0.33333300  0.41266217
   0.83052253  0.16947647  0.41257849
   0.66087931  0.83043965  0.41254113
   0.83052253  0.66104507  0.41257849
Direct configuration=    34
   0.66963446 -0.00008659  0.15903703
   0.33027795 -0.00008659  0.15903703
   0.00008659  0.33036454  0.15903703
   0.00008659  0.66972105  0.15903703
   0.33027795  0.33036454  0.15903703
   0.66963446  0.66972105  0.15903703
   0.66666600  0.33333300  0.16129385
   0.33333300  0.66666600  0.16866525
   0.16974918  0.33949936  0.40717844
   0.33932314  0.16966107  0.40721930
   0.16974918  0.83024982  0.40717844
   0.33333300  0.66666600  0.40718143
   0.66666600  0.33333300  0.40731072
   0.83033793  0.16966107  0.40721930
   0.66049964  0.83024982  0.40717844
   0.83033793  0.66067586  0.40721930
Direct configuration=    35
   0.66960149 -0.00011044  0.16505019
   0.33028707 -0.00011044  0.16505019
   0.00011044  0.33039751  0.16505019
   0.00011044  0.66971193  0.16505019
   0.33028707  0.33039751  0.16505019
   0.66960149  0.66971193  0.16505019
   0.66666600  0.33333300  0.16759421
   0.33333300  0.66666600  0.17555526
   0.16962490  0.33925080  0.40101726
   0.33908452  0.16954176  0.40106115
   0.16962490  0.83037410  0.40101726
   0.33333300  0.66666600  0.40102045
   0.66666600  0.33333300  0.40116033
   0.83045724  0.16954176  0.40106115
   0.66074820  0.83037410  0.40101726
   0.83045724  0.66091448  0.40106115
Direct configuration=    36
   0.66959593 -0.00011446  0.16606445
   0.33028861 -0.00011446  0.16606445
   0.00011446  0.33040307  0.16606445
   0.00011446  0.66971039  0.16606445
   0.33028861  0.33040307  0.16606445
   0.66959593  0.66971039  0.16606445
   0.66666600  0.33333300  0.16865691
   0.33333300  0.66666600  0.17671742
   0.16960394  0.33920888  0.39997804
   0.33904427  0.16952163  0.40002244
   0.16960394  0.83039506  0.39997804
   0.33333300  0.66666600  0.39998126
   0.66666600  0.33333300  0.40012292
   0.83047737  0.16952163  0.40002244
   0.66079012  0.83039506  0.39997804
   0.83047737  0.66095473  0.40002244
Direct configuration=    37
   0.66955843 -0.00013014  0.16580188
   0.33031042 -0.00013014  0.16580188
   0.00013014  0.33044057  0.16580188
   0.00013014  0.66968858  0.16580188
   0.33031042  0.33044057  0.16580188
   0.66955843  0.66968858  0.16580188
   0.66666600  0.33333300  0.16835936
   0.33333300  0.66666600  0.17639261
   0.16927207  0.33854514  0.40025363
   0.33840208  0.16920054  0.40029632
   0.16927207  0.83072693  0.40025363
   0.33333300  0.66666600  0.40025759
   0.66666600  0.33333300  0.40039599
   0.83079846  0.16920054  0.40029632
   0.66145386  0.83072693  0.40025363
   0.83079846  0.66159692  0.40029632
Direct configuration=    38
   0.66944595 -0.00017719  0.16501414
   0.33037587 -0.00017719  0.16501414
   0.00017719  0.33055305  0.16501414
   0.00017719  0.66962313  0.16501414
   0.33037587  0.33055305  0.16501414
   0.66944595  0.66962313  0.16501414
   0.66666600  0.33333300  0.16746669
   0.33333300  0.66666600  0.17541819
   0.16827647  0.33655393  0.40108039
   0.33647551  0.16823726  0.40111798
   0.16827647  0.83172253  0.40108039
   0.33333300  0.66666600  0.40108657
   0.66666600  0.33333300  0.40121521
   0.83176174  0.16823726  0.40111798
   0.66344507  0.83172253  0.40108039
   0.83176174  0.66352349  0.40111798
Direct configuration=    39
   0.66922098 -0.00027128  0.16343868
   0.33050675 -0.00027128  0.16343868
   0.00027128  0.33077802  0.16343868
   0.00027128  0.66949225  0.16343868
   0.33050675  0.33077802  0.16343868
   0.66922098  0.66949225  0.16343868
   0.66666600  0.33333300  0.16568137
   0.33333300  0.66666600  0.17346934
   0.16628525  0.33257151  0.40273393
   0.33262238  0.16631069  0.40276131
   0.16628525  0.83371375  0.40273393
   0.33333300  0.66666600  0.40274453
   0.66666600  0.33333300  0.40285364
   0.83368831  0.16631069  0.40276131
   0.66742749  0.83371375  0.40273393
   0.83368831  0.66737662  0.40276131
Direct configuration=    40
   0.66926246 -0.00025393  0.16372918
   0.33048261 -0.00025393  0.16372918
   0.00025393  0.33073654  0.16372918
   0.00025393  0.66951639  0.16372918
   0.33048261  0.33073654  0.16372918
   0.66926246  0.66951639  0.16372918
   0.66666600  0.33333300  0.16601056
   0.33333300  0.66666600  0.17382869
   0.16665241  0.33330582  0.40242904
   0.33333285  0.16666593  0.40245830
   0.16665241  0.83334659  0.40242904
   0.33333300  0.66666600  0.40243882
   0.66666600  0.33333300  0.40255153
   0.83333307  0.16666593  0.40245830
   0.66669318  0.83334659  0.40242904
   0.83333307  0.66666615  0.40245830
Direct configuration=    41
   0.66923672 -0.00025881  0.16374469
   0.33050347 -0.00025881  0.16374469
   0.00025881  0.33076228  0.16374469
   0.00025881  0.66949553  0.16374469
   0.33050347  0.33076228  0.16374469
   0.66923672  0.66949553  0.16374469
   0.66666600  0.33333300  0.16597545
   0.33333300  0.66666600  0.17379364
   0.16665438  0.33330976  0.40242784
   0.33333214  0.16666557  0.40245479
   0.16665438  0.83334462  0.40242784
   0.33333300  0.66666600  0.40243740
   0.66666600  0.33333300  0.40254415
   0.83333343  0.16666557  0.40245479
   0.66668924  0.83334462  0.40242784
   0.83333343  0.66666686  0.40245479
Direct configuration=    42
   0.66915949 -0.00027348  0.16379122
   0.33056603 -0.00027348  0.16379122
   0.00027348  0.33083951  0.16379122
   0.00027348  0.66943297  0.16379122
   0.33056603  0.33083951  0.16379122
   0.66915949  0.66943297  0.16379122
   0.66666600  0.33333300  0.16587014
   0.33333300  0.66666600  0.17368851
   0.16666028  0.33332156  0.40242425
   0.33333000  0.16666450  0.40244428
   0.16666028  0.83333872  0.40242425
   0.33333300  0.66666600  0.40243315
   0.66666600  0.33333300  0.40252198
   0.83333450  0.16666450  0.40244428
   0.66667744  0.83333872  0.40242425
   0.83333450  0.66666900  0.40244428
Direct configuration=    43
   0.66900505 -0.00030280  0.16388428
   0.33069116 -0.00030280  0.16388428
   0.00030280  0.33099395  0.16388428
   0.00030280  0.66930784  0.16388428
   0.33069116  0.33099395  0.16388428
   0.66900505  0.66930784  0.16388428
   0.66666600  0.33333300  0.16565950
   0.33333300  0.66666600  0.17347825
   0.16667208  0.33334517  0.40241707
   0.33332573  0.16666236  0.40242326
   0.16667208  0.83332692  0.40241707
   0.33333300  0.66666600  0.40242463
   0.66666600  0.33333300  0.40247765
   0.83333664  0.16666236  0.40242326
   0.66665383  0.83332692  0.40241707
   0.83333664  0.66667327  0.40242326
Direct configuration=    44
   0.66869615 -0.00036144  0.16407040
   0.33094141 -0.00036144  0.16407040
   0.00036144  0.33130285  0.16407040
   0.00036144  0.66905759  0.16407040
   0.33094141  0.33130285  0.16407040
   0.66869615  0.66905759  0.16407040
   0.66666600  0.33333300  0.16523823
   0.33333300  0.66666600  0.17305773
   0.16669569  0.33339238  0.40240270
   0.33331717  0.16665809  0.40238121
   0.16669569  0.83330331  0.40240270
   0.33333300  0.66666600  0.40240760
   0.66666600  0.33333300  0.40238899
   0.83334091  0.16665809  0.40238121
   0.66660662  0.83330331  0.40240270
   0.83334091  0.66668183  0.40238121
Direct configuration=    45
   0.66807837 -0.00047873  0.16444263
   0.33144191 -0.00047873  0.16444263
   0.00047873  0.33192063  0.16444263
   0.00047873  0.66855709  0.16444263
   0.33144191  0.33192063  0.16444263
   0.66807837  0.66855709  0.16444263
   0.66666600  0.33333300  0.16439570
   0.33333300  0.66666600  0.17221669
   0.16674291  0.33348681  0.40237398
   0.33330007  0.16664953  0.40229712
   0.16674291  0.83325609  0.40237398
   0.33333300  0.66666600  0.40237354
   0.66666600  0.33333300  0.40221167
   0.83334947  0.16664953  0.40229712
   0.66651219  0.83325609  0.40237398
   0.83334947  0.66669893  0.40229712
Direct configuration=    46
   0.66810476 -0.00046101  0.16447450
   0.33143323 -0.00046101  0.16447450
   0.00046101  0.33189424  0.16447450
   0.00046101  0.66856577  0.16447450
   0.33143323  0.33189424  0.16447450
   0.66810476  0.66856577  0.16447450
   0.66666600  0.33333300  0.16432106
   0.33333300  0.66666600  0.17214618
   0.16673646  0.33347393  0.40237020
   0.33330174  0.16665037  0.40229026
   0.16673646  0.83326254  0.40237020
   0.33333300  0.66666600  0.40237118
   0.66666600  0.33333300  0.40219983
   0.83334863  0.16665037  0.40229026
   0.66652507  0.83326254  0.40237020
   0.83334863  0.66669726  0.40229026
Direct configuration=    47
   0.66818393 -0.00040787  0.16457011
   0.33140720 -0.00040787  0.16457011
   0.00040787  0.33181507  0.16457011
   0.00040787  0.66859180  0.16457011
   0.33140720  0.33181507  0.16457011
   0.66818393  0.66859180  0.16457011
   0.66666600  0.33333300  0.16409717
   0.33333300  0.66666600  0.17193466
   0.16671713  0.33343527  0.40235888
   0.33330677  0.16665289  0.40226971
   0.16671713  0.83328187  0.40235888
   0.33333300  0.66666600  0.40236411
   0.66666600  0.33333300  0.40216429