   15   15  128    2
  0.1832510E+02  0.4600000E-09  0.4600000E-09  0.1500000E-08  0.5000000E-15
  1.000000000000000E-004
  CAR 
 Lattice                                 
     56     74     48
 
  0.0000000E+00  0.0000000E+00  0.0000000E+00  0.6944444E-02
      1        -16.435156      -16.435156   1.000000   1.000000
      2        -13.496368      -13.496368   1.000000   1.000000
      3        -10.928330      -10.928330   1.000000   1.000000
      4        -10.918857      -10.918857   1.000000   1.000000
      5        -10.909126      -10.909126   1.000000   1.000000
      6        -10.058513      -10.058513   1.000000   1.000000
      7        -10.053129      -10.053129   1.000000   1.000000
      8        -10.047870      -10.047870   1.000000   1.000000
      9         -9.546981       -9.546981   1.000000   1.000000
     10         -9.540396       -9.540396   1.000000   1.000000
     11         -6.497538       -6.497538   1.000000   1.000000
     12         -5.483424       -5.483424   1.000000   1.000000
     13         -5.477158       -5.477158   1.000000   1.000000
     14         -4.650131       -4.650131   1.000000   1.000000
     15         -3.723027       -3.723027   1.000000   1.000000
     16         -3.015335       -3.015335   1.000000   1.000000
     17         -3.008048       -3.008048   1.000000   1.000000
     18         -3.003655       -3.003655   1.000000   1.000000
     19         -2.714729       -2.714729   1.000000   1.000000
     20          0.557509        0.557509   1.000000   1.000000
     21          0.560515        0.560515   1.000000   1.000000
     22          1.004539        1.004539   1.000000   1.000000
     23          1.018861        1.018861   1.000000   1.000000
     24          1.025332        1.025332   1.000000   1.000000
     25          1.067029        1.067029   1.000000   1.000000
     26          1.079634        1.079634   1.000000   1.000000
     27          2.947452        2.947452   1.000000   1.000000
     28          2.968466        2.968466   1.000000   1.000000
     29          4.787166        4.787166   0.000000   0.000000
     30          4.790215        4.790215   0.000000   0.000000
     31          5.062357        5.062357   0.000000   0.000000
     32          5.532492        5.532492   0.000000   0.000000
     33          5.539254        5.539254   0.000000   0.000000
     34          5.758185        5.758185   0.000000   0.000000
     35          7.218628        7.218628   0.000000   0.000000
     36          7.615078        7.615078   0.000000   0.000000
     37          7.627107        7.627107   0.000000   0.000000
     38         11.409133       11.409133   0.000000   0.000000
     39         11.503106       11.503106   0.000000   0.000000
     40         11.516939       11.516939   0.000000   0.000000
     41         11.522597       11.522597   0.000000   0.000000
     42         11.936289       11.936289   0.000000   0.000000
     43         12.287237       12.287237   0.000000   0.000000
     44         12.299291       12.299291   0.000000   0.000000
     45         12.687979       12.687979   0.000000   0.000000
     46         12.923905       12.923906   0.000000   0.000000
     47         13.164469       13.164469   0.000000   0.000000
     48         13.183904       13.183904   0.000000   0.000000
 
  0.8333333E-01 -0.5345205E-17  0.0000000E+00  0.1388889E-01
      1        -16.392661      -16.392661   1.000000   1.000000
      2        -13.467635      -13.467635   1.000000   1.000000
      3        -11.495921      -11.495921   1.000000   1.000000
      4        -11.098388      -11.098388   1.000000   1.000000
      5        -11.089046      -11.089046   1.000000   1.000000
      6         -9.813299       -9.813299   1.000000   1.000000
      7         -9.805836       -9.805836   1.000000   1.000000
      8         -9.654444       -9.654444   1.000000   1.000000
      9         -9.571101       -9.571101   1.000000   1.000000
     10         -9.408956       -9.408956   1.000000   1.000000
     11         -6.393763       -6.393763   1.000000   1.000000
     12         -5.600532       -5.600532   1.000000   1.000000
     13         -5.397380       -5.397380   1.000000   1.000000
     14         -4.598433       -4.598433   1.000000   1.000000
     15         -3.483000       -3.483000   1.000000   1.000000
     16         -3.140707       -3.140707   1.000000   1.000000
     17         -3.136629       -3.136629   1.000000   1.000000
     18         -2.967631       -2.967631   1.000000   1.000000
     19         -2.668620       -2.668620   1.000000   1.000000
     20          0.385187        0.385187   1.000000   1.000000
     21          0.464451        0.464451   1.000000   1.000000
     22          0.739703        0.739703   1.000000   1.000000
     23          0.849371        0.849371   1.000000   1.000000
     24          0.923063        0.923063   1.000000   1.000000
     25          0.991662        0.991662   1.000000   1.000000
     26          0.995611        0.995611   1.000000   1.000000
     27          2.729217        2.729217   1.000000   1.000000
     28          2.850825        2.850825   1.000000   1.000000
     29          4.798385        4.798385   0.000000   0.000000
     30          4.931969        4.931969   0.000000   0.000000
     31          5.262676        5.262676   0.000000   0.000000
     32          5.600426        5.600426   0.000000   0.000000
     33          5.679326        5.679326   0.000000   0.000000
     34          6.096716        6.096716   0.000000   0.000000
     35          7.314914        7.314914   0.000000   0.000000
     36          7.744030        7.744030   0.000000   0.000000
     37          7.815758        7.815758   0.000000   0.000000
     38         11.407380       11.407381   0.000000   0.000000
     39         11.526722       11.526722   0.000000   0.000000
     40         11.701954       11.701954   0.000000   0.000000
     41         11.713142       11.713142   0.000000   0.000000
     42         11.838299       11.838299   0.000000   0.000000
     43         12.311125       12.311125   0.000000   0.000000
     44         12.476557       12.476557   0.000000   0.000000
     45         12.720658       12.720658   0.000000   0.000000
     46         12.888080       12.888080   0.000000   0.000000
     47         12.935792       12.935793   0.000000   0.000000
     48         13.069999       13.069999   0.000000   0.000000
 
  0.8532583E-17  0.8333333E-01  0.0000000E+00  0.1388889E-01
      1        -16.392665      -16.392665   1.000000   1.000000
      2        -13.467633      -13.467633   1.000000   1.000000
      3        -11.496532      -11.496532   1.000000   1.000000
      4        -11.099323      -11.099323   1.000000   1.000000
      5        -11.087164      -11.087164   1.000000   1.000000
      6         -9.813666       -9.813666   1.000000   1.000000
      7         -9.805680       -9.805680   1.000000   1.000000
      8         -9.655197       -9.655197   1.000000   1.000000
      9         -9.570363       -9.570363   1.000000   1.000000
     10         -9.409074       -9.409074   1.000000   1.000000
     11         -6.393856       -6.393856   1.000000   1.000000
     12         -5.602429       -5.602429   1.000000   1.000000
     13         -5.395117       -5.395117   1.000000   1.000000
     14         -4.598439       -4.598439   1.000000   1.000000
     15         -3.483277       -3.483277   1.000000   1.000000
     16         -3.143036       -3.143036   1.000000   1.000000
     17         -3.135160       -3.135160   1.000000   1.000000
     18         -2.966728       -2.966728   1.000000   1.000000
     19         -2.668618       -2.668618   1.000000   1.000000
     20          0.384593        0.384593   1.000000   1.000000
     21          0.464741        0.464741   1.000000   1.000000
     22          0.739621        0.739621   1.000000   1.000000
     23          0.841083        0.841083   1.000000   1.000000
     24          0.933475        0.933475   1.000000   1.000000
     25          0.989834        0.989834   1.000000   1.000000
     26          0.995843        0.995843   1.000000   1.000000
     27          2.732678        2.732678   1.000000   1.000000
     28          2.847052        2.847052   1.000000   1.000000
     29          4.800912        4.800912   0.000000   0.000000
     30          4.931816        4.931816   0.000000   0.000000
     31          5.267470        5.267470   0.000000   0.000000
     32          5.595155        5.595155   0.000000   0.000000
     33          5.675169        5.675169   0.000000   0.000000
     34          6.098465        6.098465   0.000000   0.000000
     35          7.313146        7.313146   0.000000   0.000000
     36          7.745300        7.745300   0.000000   0.000000
     37          7.816795        7.816795   0.000000   0.000000
     38         11.406085       11.406085   0.000000   0.000000
     39         11.529516       11.529516   0.000000   0.000000
     40         11.700249       11.700249   0.000000   0.000000
     41         11.712434       11.712434   0.000000   0.000000
     42         11.841125       11.841125   0.000000   0.000000
     43         12.309622       12.309622   0.000000   0.000000
     44         12.478196       12.478196   0.000000   0.000000
     45         12.721021       12.721021   0.000000   0.000000
     46         12.890526       12.890526   0.000000   0.000000
     47         12.925170       12.925171   0.000000   0.000000
     48         13.074212       13.074212   0.000000   0.000000
 
 -0.8333333E-01  0.8333333E-01  0.0000000E+00  0.1388889E-01
      1        -16.392680      -16.392680   1.000000   1.000000
      2        -13.467631      -13.467631   1.000000   1.000000
      3        -11.499012      -11.499012   1.000000   1.000000
      4        -11.098165      -11.098165   1.000000   1.000000
      5        -11.084474      -11.084474   1.000000   1.000000
      6         -9.814833       -9.814833   1.000000   1.000000
      7         -9.805886       -9.805886   1.000000   1.000000
      8         -9.659417       -9.659417   1.000000   1.000000
      9         -9.566018       -9.566018   1.000000   1.000000
     10         -9.409143       -9.409143   1.000000   1.000000
     11         -6.393811       -6.393811   1.000000   1.000000
     12         -5.605655       -5.605655   1.000000   1.000000
     13         -5.391653       -5.391653   1.000000   1.000000
     14         -4.598477       -4.598477   1.000000   1.000000
     15         -3.483614       -3.483614   1.000000   1.000000
     16         -3.145116       -3.145116   1.000000   1.000000
     17         -3.135808       -3.135808   1.000000   1.000000
     18         -2.963868       -2.963868   1.000000   1.000000
     19         -2.668665       -2.668665   1.000000   1.000000
     20          0.386986        0.386986   1.000000   1.000000
     21          0.462581        0.462581   1.000000   1.000000
     22          0.731761        0.731761   1.000000   1.000000
     23          0.836738        0.836738   1.000000   1.000000
     24          0.940787        0.940787   1.000000   1.000000
     25          0.993838        0.993838   1.000000   1.000000
     26          0.997103        0.997103   1.000000   1.000000
     27          2.743004        2.743004   1.000000   1.000000
     28          2.836334        2.836334   1.000000   1.000000
     29          4.800362        4.800362   0.000000   0.000000
     30          4.932963        4.932963   0.000000   0.000000
     31          5.258129        5.258129   0.000000   0.000000
     32          5.596698        5.596698   0.000000   0.000000
     33          5.684653        5.684653   0.000000   0.000000
     34          6.097374        6.097374   0.000000   0.000000
     35          7.310722        7.310722   0.000000   0.000000
     36          7.732006        7.732006   0.000000   0.000000
     37          7.831754        7.831754   0.000000   0.000000
     38         11.403205       11.403206   0.000000   0.000000
     39         11.538419       11.538419   0.000000   0.000000
     40         11.698387       11.698387   0.000000   0.000000
     41         11.705606       11.705606   0.000000   0.000000
     42         11.842566       11.842566   0.000000   0.000000
     43         12.302633       12.302633   0.000000   0.000000
     44         12.485862       12.485862   0.000000   0.000000
     45         12.723550       12.723551   0.000000   0.000000
     46         12.889608       12.889608   0.000000   0.000000
     47         12.936980       12.936980   0.000000   0.000000
     48         13.050373       13.050374   0.000000   0.000000
 
  0.1666667E+00 -0.1133145E-16  0.0000000E+00  0.1388889E-01
      1        -16.265266      -16.265266   1.000000   1.000000
      2        -13.384057      -13.384057   1.000000   1.000000
      3        -12.300170      -12.300170   1.000000   1.000000
      4        -11.390128      -11.390128   1.000000   1.000000
      5        -11.379389      -11.379389   1.000000   1.000000
      6         -9.940231       -9.940231   1.000000   1.000000
      7         -9.644229       -9.644229   1.000000   1.000000
      8         -9.311438       -9.311438   1.000000   1.000000
      9         -9.299454       -9.299454   1.000000   1.000000
     10         -8.418869       -8.418869   1.000000   1.000000
     11         -6.236932       -6.236932   1.000000   1.000000
     12         -5.706466       -5.706466   1.000000   1.000000
     13         -5.157745       -5.157745   1.000000   1.000000
     14         -4.443518       -4.443518   1.000000   1.000000
     15         -3.509958       -3.509958   1.000000   1.000000
     16         -3.504050       -3.504050   1.000000   1.000000
     17         -2.931328       -2.931328   1.000000   1.000000
     18         -2.840120       -2.840120   1.000000   1.000000
     19         -2.532559       -2.532559   1.000000   1.000000
     20         -0.108643       -0.108643   1.000000   1.000000
     21          0.091826        0.091826   1.000000   1.000000
     22          0.199225        0.199225   1.000000   1.000000
     23          0.297041        0.297041   1.000000   1.000000
     24          0.594994        0.594994   1.000000   1.000000
     25          0.882062        0.882062   1.000000   1.000000
     26          0.904794        0.904794   1.000000   1.000000
     27          2.166502        2.166502   1.000000   1.000000
     28          2.612098        2.612098   1.000000   1.000000
     29          4.801437        4.801437   0.000000   0.000000
     30          5.276873        5.276873   0.000000   0.000000
     31          5.557721        5.557721   0.000000   0.000000
     32          5.966472        5.966472   0.000000   0.000000
     33          6.283996        6.283996   0.000000   0.000000
     34          6.686393        6.686394   0.000000   0.000000
     35          7.610410        7.610411   0.000000   0.000000
     36          8.082630        8.082630   0.000000   0.000000
     37          8.322467        8.322467   0.000000   0.000000
     38         11.236656       11.236657   0.000000   0.000000
     39         11.483820       11.483820   0.000000   0.000000
     40         11.569336       11.569336   0.000000   0.000000
     41         12.071285       12.071285   0.000000   0.000000
     42         12.260980       12.260980   0.000000   0.000000
     43         12.274399       12.274399   0.000000   0.000000
     44         12.354853       12.354853   0.000000   0.000000
     45         12.503060       12.503060   0.000000   0.000000
     46         12.971740       12.971740   0.000000   0.000000
     47         13.023547       13.023547   0.000000   0.000000
     48         13.234562       13.234562   0.000000   0.000000
 
 -0.2520924E-16  0.1666667E+00  0.0000000E+00  0.1388889E-01
      1        -16.265283      -16.265283   1.000000   1.000000
      2        -13.384050      -13.384050   1.000000   1.000000
      3        -12.300601      -12.300601   1.000000   1.000000
      4        -11.390222      -11.390222   1.000000   1.000000
      5        -11.378410      -11.378410   1.000000   1.000000
      6         -9.940883       -9.940883   1.000000   1.000000
      7         -9.643535       -9.643535   1.000000   1.000000
      8         -9.311210       -9.311210   1.000000   1.000000
      9         -9.299927       -9.299927   1.000000   1.000000
     10         -8.419180       -8.419180   1.000000   1.000000
     11         -6.237489       -6.237489   1.000000   1.000000
     12         -5.707799       -5.707799   1.000000   1.000000
     13         -5.155132       -5.155132   1.000000   1.000000
     14         -4.443548       -4.443548   1.000000   1.000000
     15         -3.511673       -3.511673   1.000000   1.000000
     16         -3.503094       -3.503094   1.000000   1.000000
     17         -2.932068       -2.932068   1.000000   1.000000
     18         -2.839194       -2.839194   1.000000   1.000000
     19         -2.532502       -2.532502   1.000000   1.000000
     20         -0.109999       -0.109999   1.000000   1.000000
     21          0.092295        0.092295   1.000000   1.000000
     22          0.199500        0.199500   1.000000   1.000000
     23          0.291429        0.291429   1.000000   1.000000
     24          0.601238        0.601238   1.000000   1.000000
     25          0.884289        0.884289   1.000000   1.000000
     26          0.902933        0.902933   1.000000   1.000000
     27          2.168306        2.168306   1.000000   1.000000
     28          2.609836        2.609836   1.000000   1.000000
     29          4.806716        4.806716   0.000000   0.000000
     30          5.277048        5.277048   0.000000   0.000000
     31          5.563119        5.563119   0.000000   0.000000
     32          5.958639        5.958639   0.000000   0.000000
     33          6.275002        6.275002   0.000000   0.000000
     34          6.690392        6.690392   0.000000   0.000000
     35          7.607248        7.607249   0.000000   0.000000
     36          8.082944        8.082944   0.000000   0.000000
     37          8.326655        8.326655   0.000000   0.000000
     38         11.233282       11.233282   0.000000   0.000000
     39         11.491656       11.491656   0.000000   0.000000
     40         11.571379       11.571379   0.000000   0.000000
     41         12.073862       12.073862   0.000000   0.000000
     42         12.259578       12.259578   0.000000   0.000000
     43         12.273587       12.273587   0.000000   0.000000
     44         12.353875       12.353875   0.000000   0.000000
     45         12.491222       12.491222   0.000000   0.000000
     46         12.969807       12.969807   0.000000   0.000000
     47         13.025028       13.025028   0.000000   0.000000
     48         13.234141       13.234141   0.000000   0.000000
 
 -0.1666667E+00  0.1666667E+00  0.0000000E+00  0.1388889E-01
      1        -16.265343      -16.265343   1.000000   1.000000
      2        -13.384039      -13.384039   1.000000   1.000000
      3        -12.302276      -12.302276   1.000000   1.000000
      4        -11.389153      -11.389153   1.000000   1.000000
      5        -11.376024      -11.376024   1.000000   1.000000
      6         -9.944834       -9.944834   1.000000   1.000000
      7         -9.639194       -9.639194   1.000000   1.000000
      8         -9.312291       -9.312291   1.000000   1.000000
      9         -9.300174       -9.300174   1.000000   1.000000
     10         -8.419998       -8.419998   1.000000   1.000000
     11         -6.236696       -6.236696   1.000000   1.000000
     12         -5.711990       -5.711990   1.000000   1.000000
     13         -5.151055       -5.151055   1.000000   1.000000
     14         -4.443692       -4.443692   1.000000   1.000000
     15         -3.513434       -3.513434   1.000000   1.000000
     16         -3.503593       -3.503593   1.000000   1.000000
     17         -2.932700       -2.932700   1.000000   1.000000
     18         -2.836418       -2.836418   1.000000   1.000000
     19         -2.532728       -2.532728   1.000000   1.000000
     20         -0.107648       -0.107648   1.000000   1.000000
     21          0.085575        0.085575   1.000000   1.000000
     22          0.197989        0.197989   1.000000   1.000000
     23          0.284432        0.284432   1.000000   1.000000
     24          0.611128        0.611128   1.000000   1.000000
     25          0.887318        0.887318   1.000000   1.000000
     26          0.904304        0.904304   1.000000   1.000000
     27          2.174747        2.174747   1.000000   1.000000
     28          2.601818        2.601818   1.000000   1.000000
     29          4.808655        4.808655   0.000000   0.000000
     30          5.274270        5.274270   0.000000   0.000000
     31          5.556493        5.556493   0.000000   0.000000
     32          5.955033        5.955033   0.000000   0.000000
     33          6.291017        6.291017   0.000000   0.000000
     34          6.689158        6.689158   0.000000   0.000000
     35          7.605984        7.605984   0.000000   0.000000
     36          8.061474        8.061474   0.000000   0.000000
     37          8.348349        8.348349   0.000000   0.000000
     38         11.218429       11.218429   0.000000   0.000000
     39         11.496534       11.496534   0.000000   0.000000
     40         11.580693       11.580693   0.000000   0.000000
     41         12.084473       12.084474   0.000000   0.000000
     42         12.253800       12.253800   0.000000   0.000000
     43         12.269894       12.269894   0.000000   0.000000
     44         12.349006       12.349006   0.000000   0.000000
     45         12.482422       12.482422   0.000000   0.000000
     46         12.968515       12.968515   0.000000   0.000000
     47         13.032056       13.032056   0.000000   0.000000
     48         13.226031       13.226031   0.000000   0.000000
 
  0.2500000E+00 -0.1667666E-16  0.0000000E+00  0.1388889E-01
      1        -16.053311      -16.053311   1.000000   1.000000
      2        -13.255907      -13.255907   1.000000   1.000000
      3        -13.060387      -13.060387   1.000000   1.000000
      4        -11.647717      -11.647717   1.000000   1.000000
      5        -11.636668      -11.636668   1.000000   1.000000
      6        -10.302962      -10.302962   1.000000   1.000000
      7         -9.729911       -9.729911   1.000000   1.000000
      8         -8.713861       -8.713861   1.000000   1.000000
      9         -8.701444       -8.701444   1.000000   1.000000
     10         -7.350293       -7.350293   1.000000   1.000000
     11         -6.359834       -6.359834   1.000000   1.000000
     12         -5.382130       -5.382130   1.000000   1.000000
     13         -4.804679       -4.804679   1.000000   1.000000
     14         -4.186557       -4.186557   1.000000   1.000000
     15         -4.056036       -4.056036   1.000000   1.000000
     16         -4.048714       -4.048714   1.000000   1.000000
     17         -2.630321       -2.630321   1.000000   1.000000
     18         -2.318891       -2.318891   1.000000   1.000000
     19         -2.280689       -2.280689   1.000000   1.000000
     20         -0.859121       -0.859121   1.000000   1.000000
     21         -0.665846       -0.665846   1.000000   1.000000
     22         -0.438951       -0.438951   1.000000   1.000000
     23         -0.187532       -0.187532   1.000000   1.000000
     24          0.150117        0.150117   1.000000   1.000000
     25          0.752410        0.752410   1.000000   1.000000
     26          0.791225        0.791225   1.000000   1.000000
     27          1.481743        1.481743   1.000000   1.000000
     28          2.371086        2.371086   1.000000   1.000000
     29          4.766276        4.766276   0.000000   0.000000
     30          5.703868        5.703868   0.000000   0.000000
     31          5.852163        5.852163   0.000000   0.000000
     32          6.530346        6.530346   0.000000   0.000000
     33          6.984813        6.984813   0.000000   0.000000
     34          7.505053        7.505053   0.000000   0.000000
     35          8.047482        8.047482   0.000000   0.000000
     36          8.588851        8.588851   0.000000   0.000000
     37          8.946044        8.946044   0.000000   0.000000
     38         10.434179       10.434179   0.000000   0.000000
     39         11.087624       11.087625   0.000000   0.000000
     40         11.286014       11.286014   0.000000   0.000000
     41         11.721863       11.721863   0.000000   0.000000
     42         12.080652       12.080652   0.000000   0.000000
     43         12.379236       12.379236   0.000000   0.000000
     44         12.879246       12.879246   0.000000   0.000000
     45         12.968177       12.968177   0.000000   0.000000
     46         13.082612       13.082612   0.000000   0.000000
     47         13.091674       13.091674   0.000000   0.000000
     48         13.203341       13.203341   0.000000   0.000000
 
  0.3872151E-16  0.2500000E+00  0.0000000E+00  0.1388889E-01
      1        -16.053349      -16.053349   1.000000   1.000000
      2        -13.255883      -13.255883   1.000000   1.000000
      3        -13.060717      -13.060717   1.000000   1.000000
      4        -11.647520      -11.647520   1.000000   1.000000
      5        -11.635983      -11.635983   1.000000   1.000000
      6        -10.303595      -10.303595   1.000000   1.000000
      7         -9.729221       -9.729221   1.000000   1.000000
      8         -8.713756       -8.713756   1.000000   1.000000
      9         -8.701948       -8.701948   1.000000   1.000000
     10         -7.350704       -7.350704   1.000000   1.000000
     11         -6.360819       -6.360819   1.000000   1.000000
     12         -5.383094       -5.383094   1.000000   1.000000
     13         -4.801559       -4.801559   1.000000   1.000000
     14         -4.186627       -4.186627   1.000000   1.000000
     15         -4.057245       -4.057245   1.000000   1.000000
     16         -4.048040       -4.048040   1.000000   1.000000
     17         -2.629425       -2.629425   1.000000   1.000000
     18         -2.320639       -2.320639   1.000000   1.000000
     19         -2.279903       -2.279903   1.000000   1.000000
     20         -0.860573       -0.860573   1.000000   1.000000
     21         -0.665331       -0.665331   1.000000   1.000000
     22         -0.443408       -0.443408   1.000000   1.000000
     23         -0.187215       -0.187215   1.000000   1.000000
     24          0.154990        0.154990   1.000000   1.000000
     25          0.754610        0.754610   1.000000   1.000000
     26          0.789786        0.789786   1.000000   1.000000
     27          1.482534        1.482534   1.000000   1.000000
     28          2.369766        2.369766   1.000000   1.000000
     29          4.772504        4.772504   0.000000   0.000000
     30          5.703477        5.703477   0.000000   0.000000
     31          5.855247        5.855247   0.000000   0.000000
     32          6.522905        6.522905   0.000000   0.000000
     33          6.976010        6.976011   0.000000   0.000000
     34          7.509158        7.509158   0.000000   0.000000
     35          8.044969        8.044970   0.000000   0.000000
     36          8.587136        8.587136   0.000000   0.000000
     37          8.951118        8.951118   0.000000   0.000000
     38         10.437003       10.437003   0.000000   0.000000
     39         11.076380       11.076380   0.000000   0.000000
     40         11.301028       11.301028   0.000000   0.000000
     41         11.724074       11.724074   0.000000   0.000000
     42         12.071164       12.071164   0.000000   0.000000
     43         12.379206       12.379206   0.000000   0.000000
     44         12.880074       12.880074   0.000000   0.000000
     45         12.953083       12.953083   0.000000   0.000000
     46         13.089871       13.089871   0.000000   0.000000
     47         13.097283       13.097283   0.000000   0.000000
     48         13.208957       13.208957   0.000000   0.000000
 
 -0.2500000E+00  0.2500000E+00  0.0000000E+00  0.1388889E-01
      1        -16.053483      -16.053483   1.000000   1.000000
      2        -13.255837      -13.255837   1.000000   1.000000
      3        -13.061981      -13.061981   1.000000   1.000000
      4        -11.646444      -11.646444   1.000000   1.000000
      5        -11.633661      -11.633661   1.000000   1.000000
      6        -10.307194      -10.307194   1.000000   1.000000
      7         -9.725046       -9.725046   1.000000   1.000000
      8         -8.715139       -8.715139   1.000000   1.000000
      9         -8.702475       -8.702475   1.000000   1.000000
     10         -7.351827       -7.351827   1.000000   1.000000
     11         -6.360248       -6.360248   1.000000   1.000000
     12         -5.387498       -5.387498   1.000000   1.000000
     13         -4.796762       -4.796762   1.000000   1.000000
     14         -4.186927       -4.186927   1.000000   1.000000
     15         -4.058494       -4.058494   1.000000   1.000000
     16         -4.048206       -4.048206   1.000000   1.000000
     17         -2.626857       -2.626857   1.000000   1.000000
     18         -2.318572       -2.318572   1.000000   1.000000
     19         -2.282678       -2.282678   1.000000   1.000000
     20         -0.859000       -0.859000   1.000000   1.000000
     21         -0.671122       -0.671122   1.000000   1.000000
     22         -0.449539       -0.449539   1.000000   1.000000
     23         -0.187932       -0.187932   1.000000   1.000000