  15  15   0   4
  0.2062388E+02  0.4880000E-09  0.4880000E-09  0.1500000E-08  0.5000000E-15
  1.000000000000000E-004
  CAR 
 Lattice                                 
     10.15949263    -21.56902083  301     -0.37095451      1.00000000
    -21.569  0.0000E+00  0.0000E+00  0.0000E+00  0.0000E+00
    -21.463  0.0000E+00  0.0000E+00  0.0000E+00  0.0000E+00
    -21.357  0.0000E+00  0.0000E+00  0.0000E+00  0.0000E+00
    -21.252  0.0000E+00  0.0000E+00  0.0000E+00  0.0000E+00
    -21.146  0.0000E+00  0.0000E+00  0.0000E+00  0.0000E+00
    -21.040  0.0000E+00  0.0000E+00  0.0000E+00  0.0000E+00
    -20.934  0.0000E+00  0.0000E+00  0.0000E+00  0.0000E+00
    -20.829  0.0000E+00  0.0000E+00  0.0000E+00  0.0000E+00
    -20.723  0.0000E+00  0.0000E+00  0.0000E+00  0.0000E+00
    -20.617  0.1125E-14  0.1125E-14  0.1190E-15  0.1190E-15
    -20.511  0.1627E-10  0.1627E-10  0.1721E-11  0.1721E-11
    -20.406  0.2950E-07  0.2950E-07  0.3122E-08  0.3122E-08
    -20.300  0.7353E-05  0.7353E-05  0.7808E-06  0.7808E-06
    -20.194  0.2803E-03  0.2803E-03  0.3043E-04  0.3043E-04
    -20.088  0.1999E-02  0.1999E-02  0.2418E-03  0.2418E-03
    -19.983  0.4187E-02  0.4187E-02  0.6847E-03  0.6847E-03
    -19.877  0.4579E-02  0.4579E-02  0.1169E-02  0.1169E-02
    -19.771  0.4977E-02  0.4977E-02  0.1695E-02  0.1695E-02
    -19.665  0.4225E-02  0.4225E-02  0.2142E-02  0.2142E-02
    -19.560  0.5430E-02  0.5430E-02  0.2716E-02  0.2716E-02
    -19.454  0.4249E-02  0.4249E-02  0.3166E-02  0.3166E-02
    -19.348  0.4353E-02  0.4353E-02  0.3626E-02  0.3626E-02
    -19.242  0.6042E-02  0.6042E-02  0.4265E-02  0.4265E-02
    -19.137  0.3821E-02  0.3821E-02  0.4669E-02  0.4669E-02
    -19.031  0.4003E-02  0.4003E-02  0.5093E-02  0.5093E-02
    -18.925  0.6179E-02  0.6179E-02  0.5746E-02  0.5746E-02
    -18.819  0.5204E-02  0.5204E-02  0.6297E-02  0.6297E-02
    -18.713  0.2966E-02  0.2966E-02  0.6610E-02  0.6610E-02
    -18.608  0.4582E-02  0.4582E-02  0.7095E-02  0.7095E-02
    -18.502  0.6930E-02  0.6930E-02  0.7828E-02  0.7828E-02
    -18.396  0.4554E-02  0.4554E-02  0.8309E-02  0.8309E-02
    -18.290  0.3790E-02  0.3790E-02  0.8710E-02  0.8710E-02
    -18.185  0.3118E-02  0.3118E-02  0.9040E-02  0.9040E-02
    -18.079  0.6846E-02  0.6846E-02  0.9764E-02  0.9764E-02
    -17.973  0.6519E-02  0.6519E-02  0.1045E-01  0.1045E-01
    -17.867  0.3462E-02  0.3462E-02  0.1082E-01  0.1082E-01
    -17.762  0.3416E-02  0.3416E-02  0.1118E-01  0.1118E-01
    -17.656  0.4210E-02  0.4210E-02  0.1163E-01  0.1163E-01
    -17.550  0.6459E-02  0.6459E-02  0.1231E-01  0.1231E-01
    -17.444  0.6845E-02  0.6845E-02  0.1303E-01  0.1303E-01
    -17.339  0.6648E-02  0.6648E-02  0.1374E-01  0.1374E-01
    -17.233  0.8055E-02  0.8055E-02  0.1459E-01  0.1459E-01
    -17.127  0.1121E-01  0.1121E-01  0.1577E-01  0.1577E-01
    -17.021  0.1535E-01  0.1535E-01  0.1740E-01  0.1740E-01
    -16.916  0.1662E-01  0.1662E-01  0.1915E-01  0.1915E-01
    -16.810  0.1951E-01  0.1951E-01  0.2122E-01  0.2122E-01
    -16.704  0.2107E-01  0.2107E-01  0.2345E-01  0.2345E-01
    -16.598  0.1118E-01  0.1118E-01  0.2463E-01  0.2463E-01
    -16.492  0.3267E-02  0.3267E-02  0.2497E-01  0.2497E-01
    -16.387  0.7818E-02  0.7818E-02  0.2580E-01  0.2580E-01
    -16.281  0.7727E-02  0.7727E-02  0.2662E-01  0.2662E-01
    -16.175  0.4549E-02  0.4549E-02  0.2710E-01  0.2710E-01
    -16.069  0.4123E-02  0.4123E-02  0.2754E-01  0.2754E-01
    -15.964  0.4020E-02  0.4020E-02  0.2796E-01  0.2796E-01
    -15.858  0.3633E-02  0.3633E-02  0.2835E-01  0.2835E-01
    -15.752  0.4215E-02  0.4215E-02  0.2879E-01  0.2879E-01
    -15.646  0.8715E-02  0.8715E-02  0.2971E-01  0.2971E-01
    -15.541  0.7456E-02  0.7456E-02  0.3050E-01  0.3050E-01
    -15.435  0.3851E-02  0.3851E-02  0.3091E-01  0.3091E-01
    -15.329  0.3887E-02  0.3887E-02  0.3132E-01  0.3132E-01
    -15.223  0.3631E-02  0.3631E-02  0.3170E-01  0.3170E-01
    -15.118  0.4886E-02  0.4886E-02  0.3222E-01  0.3222E-01
    -15.012  0.7182E-02  0.7182E-02  0.3298E-01  0.3298E-01
    -14.906  0.1391E-01  0.1391E-01  0.3445E-01  0.3445E-01
    -14.800  0.1873E-01  0.1873E-01  0.3643E-01  0.3643E-01
    -14.695  0.1909E-01  0.1909E-01  0.3845E-01  0.3845E-01
    -14.589  0.1553E-01  0.1553E-01  0.4009E-01  0.4009E-01
    -14.483  0.8690E-02  0.8690E-02  0.4101E-01  0.4101E-01
    -14.377  0.9625E-02  0.9625E-02  0.4203E-01  0.4203E-01
    -14.271  0.1640E-01  0.1640E-01  0.4376E-01  0.4376E-01
    -14.166  0.1419E-01  0.1419E-01  0.4527E-01  0.4527E-01
    -14.060  0.1149E-01  0.1149E-01  0.4648E-01  0.4648E-01
    -13.954  0.1074E-01  0.1074E-01  0.4762E-01  0.4762E-01
    -13.848  0.1547E-01  0.1547E-01  0.4925E-01  0.4925E-01
    -13.743  0.1969E-01  0.1969E-01  0.5134E-01  0.5134E-01
    -13.637  0.1823E-01  0.1823E-01  0.5326E-01  0.5326E-01
    -13.531  0.1630E-01  0.1630E-01  0.5499E-01  0.5499E-01
    -13.425  0.7841E-02  0.7841E-02  0.5582E-01  0.5582E-01
    -13.320  0.5665E-02  0.5665E-02  0.5642E-01  0.5642E-01
    -13.214  0.3661E-02  0.3661E-02  0.5680E-01  0.5680E-01
    -13.108  0.4301E-02  0.4301E-02  0.5726E-01  0.5726E-01
    -13.002  0.7202E-02  0.7202E-02  0.5802E-01  0.5802E-01
    -12.897  0.6706E-02  0.6706E-02  0.5873E-01  0.5873E-01
    -12.791  0.4975E-02  0.4975E-02  0.5925E-01  0.5925E-01
    -12.685  0.7557E-02  0.7557E-02  0.6005E-01  0.6005E-01
    -12.579  0.6939E-02  0.6939E-02  0.6079E-01  0.6079E-01
    -12.474  0.5442E-02  0.5442E-02  0.6136E-01  0.6136E-01
    -12.368  0.5439E-02  0.5439E-02  0.6194E-01  0.6194E-01
    -12.262  0.3149E-02  0.3149E-02  0.6227E-01  0.6227E-01
    -12.156  0.7069E-02  0.7069E-02  0.6302E-01  0.6302E-01
    -12.050  0.7910E-02  0.7910E-02  0.6386E-01  0.6386E-01
    -11.945  0.2899E-02  0.2899E-02  0.6416E-01  0.6416E-01
    -11.839  0.3425E-02  0.3425E-02  0.6452E-01  0.6452E-01
    -11.733  0.3631E-02  0.3631E-02  0.6491E-01  0.6491E-01
    -11.627  0.6770E-02  0.6770E-02  0.6562E-01  0.6562E-01
    -11.522  0.6198E-02  0.6198E-02  0.6628E-01  0.6628E-01
    -11.416  0.3350E-02  0.3350E-02  0.6663E-01  0.6663E-01
    -11.310  0.2224E-02  0.2224E-02  0.6687E-01  0.6687E-01
    -11.204  0.4638E-02  0.4638E-02  0.6736E-01  0.6736E-01
    -11.099  0.5737E-02  0.5737E-02  0.6797E-01  0.6797E-01
    -10.993  0.5125E-02  0.5125E-02  0.6851E-01  0.6851E-01
    -10.887  0.6777E-02  0.6777E-02  0.6923E-01  0.6923E-01
    -10.781  0.6421E-02  0.6421E-02  0.6990E-01  0.6990E-01
    -10.676  0.3303E-02  0.3303E-02  0.7025E-01  0.7025E-01
    -10.570  0.8582E-02  0.8582E-02  0.7116E-01  0.7116E-01
    -10.464  0.1480E-01  0.1480E-01  0.7273E-01  0.7273E-01
    -10.358  0.1536E-01  0.1536E-01  0.7435E-01  0.7435E-01
    -10.253  0.1321E-01  0.1321E-01  0.7575E-01  0.7575E-01
    -10.147  0.1571E-01  0.1571E-01  0.7741E-01  0.7741E-01
    -10.041  0.1919E-01  0.1919E-01  0.7944E-01  0.7944E-01
     -9.935  0.1678E-01  0.1678E-01  0.8121E-01  0.8121E-01
     -9.829  0.9904E-02  0.9904E-02  0.8226E-01  0.8226E-01
     -9.724  0.9253E-02  0.9253E-02  0.8324E-01  0.8324E-01
     -9.618  0.1445E-01  0.1445E-01  0.8477E-01  0.8477E-01
     -9.512  0.1303E-01  0.1303E-01  0.8615E-01  0.8615E-01
     -9.406  0.1684E-01  0.1684E-01  0.8793E-01  0.8793E-01
     -9.301  0.1748E-01  0.1748E-01  0.8978E-01  0.8978E-01
     -9.195  0.1344E-01  0.1344E-01  0.9120E-01  0.9120E-01
     -9.089  0.9342E-02  0.9342E-02  0.9219E-01  0.9219E-01
     -8.983  0.9190E-02  0.9190E-02  0.9316E-01  0.9316E-01
     -8.878  0.1738E-01  0.1738E-01  0.9499E-01  0.9499E-01
     -8.772  0.1864E-01  0.1864E-01  0.9697E-01  0.9697E-01
     -8.666  0.1276E-01  0.1276E-01  0.9832E-01  0.9832E-01
     -8.560  0.8352E-02  0.8352E-02  0.9920E-01  0.9920E-01
     -8.455  0.1395E-01  0.1395E-01  0.1007E+00  0.1007E+00
     -8.349  0.1941E-01  0.1941E-01  0.1027E+00  0.1027E+00
     -8.243  0.1443E-01  0.1443E-01  0.1043E+00  0.1043E+00
     -8.137  0.1354E-01  0.1354E-01  0.1057E+00  0.1057E+00
     -8.032  0.1866E-01  0.1866E-01  0.1077E+00  0.1077E+00
     -7.926  0.2374E-01  0.2374E-01  0.1102E+00  0.1102E+00
     -7.820  0.2651E-01  0.2651E-01  0.1130E+00  0.1130E+00
     -7.714  0.1586E-01  0.1586E-01  0.1147E+00  0.1147E+00
     -7.608  0.9995E-02  0.9994E-02  0.1157E+00  0.1157E+00
     -7.503  0.8818E-02  0.8818E-02  0.1166E+00  0.1166E+00
     -7.397  0.1716E-01  0.1716E-01  0.1185E+00  0.1185E+00
     -7.291  0.1839E-01  0.1839E-01  0.1204E+00  0.1204E+00
     -7.185  0.1386E-01  0.1386E-01  0.1219E+00  0.1219E+00
     -7.080  0.1008E-01  0.1008E-01  0.1229E+00  0.1229E+00
     -6.974  0.1491E-01  0.1491E-01  0.1245E+00  0.1245E+00
     -6.868  0.1932E-01  0.1932E-01  0.1266E+00  0.1266E+00
     -6.762  0.2140E-01  0.2140E-01  0.1288E+00  0.1288E+00
     -6.657  0.2159E-01  0.2159E-01  0.1311E+00  0.1311E+00
     -6.551  0.1644E-01  0.1644E-01  0.1328E+00  0.1328E+00
     -6.445  0.2011E-01  0.2011E-01  0.1350E+00  0.1350E+00
     -6.339  0.1979E-01  0.1979E-01  0.1371E+00  0.1371E+00
     -6.234  0.2028E-01  0.2028E-01  0.1392E+00  0.1392E+00
     -6.128  0.2703E-01  0.2703E-01  0.1421E+00  0.1421E+00
     -6.022  0.2323E-01  0.2323E-01  0.1445E+00  0.1445E+00
     -5.916  0.2904E-01  0.2904E-01  0.1476E+00  0.1476E+00
     -5.811  0.3040E-01  0.3040E-01  0.1508E+00  0.1508E+00
     -5.705  0.1922E-01  0.1922E-01  0.1528E+00  0.1528E+00
     -5.599  0.1836E-01  0.1836E-01  0.1548E+00  0.1548E+00
     -5.493  0.3273E-01  0.3273E-01  0.1582E+00  0.1582E+00
     -5.387  0.3830E-01  0.3830E-01  0.1623E+00  0.1623E+00
     -5.282  0.2077E-01  0.2077E-01  0.1645E+00  0.1645E+00
     -5.176  0.1384E-01  0.1384E-01  0.1660E+00  0.1660E+00
     -5.070  0.1181E-01  0.1181E-01  0.1672E+00  0.1672E+00
     -4.964  0.1353E-01  0.1353E-01  0.1686E+00  0.1686E+00
     -4.859  0.1369E-01  0.1369E-01  0.1701E+00  0.1701E+00
     -4.753  0.8860E-02  0.8860E-02  0.1710E+00  0.1710E+00
     -4.647  0.6682E-02  0.6682E-02  0.1717E+00  0.1717E+00
     -4.541  0.1013E-01  0.1013E-01  0.1728E+00  0.1728E+00
     -4.436  0.2008E-01  0.2008E-01  0.1749E+00  0.1749E+00
     -4.330  0.2334E-01  0.2334E-01  0.1774E+00  0.1774E+00
     -4.224  0.2127E-01  0.2127E-01  0.1796E+00  0.1796E+00
     -4.118  0.1694E-01  0.1694E-01  0.1814E+00  0.1814E+00
     -4.013  0.1929E-01  0.1929E-01  0.1835E+00  0.1835E+00
     -3.907  0.2234E-01  0.2234E-01  0.1858E+00  0.1858E+00
     -3.801  0.1906E-01  0.1906E-01  0.1878E+00  0.1878E+00
     -3.695  0.1948E-01  0.1948E-01  0.1899E+00  0.1899E+00
     -3.590  0.2090E-01  0.2090E-01  0.1921E+00  0.1921E+00
     -3.484  0.1615E-01  0.1615E-01  0.1938E+00  0.1938E+00
     -3.378  0.1327E-01  0.1327E-01  0.1952E+00  0.1952E+00
     -3.272  0.1153E-01  0.1153E-01  0.1964E+00  0.1964E+00
     -3.166  0.1667E-01  0.1667E-01  0.1982E+00  0.1982E+00
     -3.061  0.1864E-01  0.1864E-01  0.2002E+00  0.2002E+00
     -2.955  0.1246E-01  0.1246E-01  0.2015E+00  0.2015E+00
     -2.849  0.1204E-01  0.1204E-01  0.2028E+00  0.2028E+00
     -2.743  0.8882E-02  0.8882E-02  0.2037E+00  0.2037E+00
     -2.638  0.8895E-02  0.8895E-02  0.2047E+00  0.2047E+00
     -2.532  0.1731E-01  0.1731E-01  0.2065E+00  0.2065E+00
     -2.426  0.1784E-01  0.1784E-01  0.2084E+00  0.2084E+00
     -2.320  0.5844E-02  0.5844E-02  0.2090E+00  0.2090E+00
     -2.215  0.4671E-02  0.4671E-02  0.2095E+00  0.2095E+00
     -2.109  0.9200E-02  0.9200E-02  0.2105E+00  0.2105E+00
     -2.003  0.9795E-02  0.9795E-02  0.2115E+00  0.2115E+00
     -1.897  0.1099E-01  0.1099E-01  0.2127E+00  0.2127E+00
     -1.792  0.1150E-01  0.1150E-01  0.2139E+00  0.2139E+00
     -1.686  0.1037E-01  0.1037E-01  0.2150E+00  0.2150E+00
     -1.580  0.8305E-02  0.8305E-02  0.2158E+00  0.2158E+00
     -1.474  0.4271E-02  0.4271E-02  0.2163E+00  0.2163E+00
     -1.369  0.4037E-02  0.4037E-02  0.2167E+00  0.2167E+00
     -1.263  0.4388E-02  0.4388E-02  0.2172E+00  0.2172E+00
     -1.157  0.3425E-02  0.3425E-02  0.2176E+00  0.2176E+00
     -1.051  0.5508E-02  0.5508E-02  0.2181E+00  0.2181E+00
     -0.945  0.3854E-02  0.3854E-02  0.2185E+00  0.2185E+00
     -0.840  0.8567E-03  0.8567E-03  0.2186E+00  0.2186E+00
     -0.734  0.9020E-04  0.9020E-04  0.2186E+00  0.2186E+00
     -0.628  0.2374E-05  0.2374E-05  0.2186E+00  0.2186E+00
     -0.522  0.3273E-04  0.3273E-04  0.2186E+00  0.2186E+00
     -0.417  0.4983E-03  0.4983E-03  0.2187E+00  0.2187E+00
     -0.311  0.1114E-02  0.1114E-02  0.2188E+00  0.2188E+00
     -0.205  0.3866E-03  0.3866E-03  0.2189E+00  0.2189E+00
     -0.099  0.1941E-04  0.1941E-04  0.2189E+00  0.2189E+00
      0.006  0.2076E-06  0.2076E-06  0.2189E+00  0.2189E+00
      0.112  0.2091E-04  0.2091E-04  0.2189E+00  0.2189E+00
      0.218  0.6757E-03  0.6757E-03  0.2189E+00  0.2189E+00
      0.324  0.3074E-02  0.3074E-02  0.2193E+00  0.2193E+00
      0.429  0.2208E-02  0.2208E-02  0.2195E+00  0.2195E+00
      0.535  0.1216E-02  0.1216E-02  0.2196E+00  0.2196E+00
      0.641  0.4127E-02  0.4127E-02  0.2201E+00  0.2201E+00
      0.747  0.7195E-02  0.7195E-02  0.2208E+00  0.2208E+00
      0.852  0.1447E-01  0.1447E-01  0.2223E+00  0.2223E+00
      0.958  0.2638E-01  0.2638E-01  0.2251E+00  0.2251E+00
      1.064  0.1468E-01  0.1468E-01  0.2267E+00  0.2267E+00
      1.170  0.2519E-02  0.2519E-02  0.2270E+00  0.2270E+00
      1.276  0.1204E-02  0.1203E-02  0.2271E+00  0.2271E+00
      1.381  0.6349E-02  0.6349E-02  0.2278E+00  0.2278E+00
      1.487  0.1651E-01  0.1651E-01  0.2295E+00  0.2295E+00
      1.593  0.2075E-01  0.2075E-01  0.2317E+00  0.2317E+00
      1.699  0.1427E-01  0.1427E-01  0.2332E+00  0.2332E+00
      1.804  0.8441E-02  0.8441E-02  0.2341E+00  0.2341E+00
      1.910  0.9020E-02  0.9020E-02  0.2351E+00  0.2351E+00
      2.016  0.9066E-02  0.9066E-02  0.2360E+00  0.2360E+00
      2.122  0.7359E-02  0.7359E-02  0.2368E+00  0.2368E+00
      2.227  0.9481E-02  0.9481E-02  0.2378E+00  0.2378E+00
      2.333  0.5165E-02  0.5165E-02  0.2383E+00  0.2383E+00
      2.439  0.9831E-02  0.9831E-02  0.2394E+00  0.2394E+00
      2.545  0.1360E-01  0.1360E-01  0.2408E+00  0.2408E+00
      2.650  0.6740E-02  0.6740E-02  0.2415E+00  0.2415E+00
      2.756  0.4102E-02  0.4102E-02  0.2420E+00  0.2420E+00
      2.862  0.6588E-02  0.6587E-02  0.2427E+00  0.2427E+00
      2.968  0.1122E-01  0.1122E-01  0.2438E+00  0.2438E+00
      3.073  0.1119E-01  0.1119E-01  0.2450E+00  0.2450E+00
      3.179  0.9855E-02  0.9855E-02  0.2461E+00  0.2461E+00
      3.285  0.1054E-01  0.1054E-01  0.2472E+00  0.2472E+00
      3.391  0.1272E-01  0.1272E-01  0.2485E+00  0.2485E+00
      3.497  0.2228E-01  0.2228E-01  0.2509E+00  0.2509E+00
      3.602  0.2749E-01  0.2749E-01  0.2538E+00  0.2538E+00
      3.708  0.2411E-01  0.2411E-01  0.2563E+00  0.2563E+00
      3.814  0.2274E-01  0.2274E-01  0.2588E+00  0.2588E+00
      3.920  0.2456E-01  0.2456E-01  0.2613E+00  0.2613E+00
      4.025  0.2649E-01  0.2649E-01  0.2641E+00  0.2641E+00
      4.131  0.2227E-01  0.2227E-01  0.2665E+00  0.2665E+00
      4.237  0.2104E-01  0.2104E-01  0.2687E+00  0.2687E+00
      4.343  0.2342E-01  0.2342E-01  0.2712E+00  0.2712E+00
      4.448  0.2052E-01  0.2052E-01  0.2734E+00  0.2734E+00
      4.554  0.2047E-01  0.2047E-01  0.2755E+00  0.2755E+00
      4.660  0.2850E-01  0.2849E-01  0.2786E+00  0.2786E+00
      4.766  0.2624E-01  0.2624E-01  0.2813E+00  0.2813E+00
      4.871  0.1898E-01  0.1898E-01  0.2833E+00  0.2833E+00
      4.977  0.2357E-01  0.2357E-01  0.2858E+00  0.2858E+00
      5.083  0.3092E-01  0.3092E-01  0.2891E+00  0.2891E+00
      5.189  0.2439E-01  0.2439E-01  0.2917E+00  0.2917E+00
      5.294  0.2013E-01  0.2013E-01  0.2938E+00  0.2938E+00
      5.400  0.2347E-01  0.2347E-01  0.2963E+00  0.2963E+00
      5.506  0.2381E-01  0.2381E-01  0.2988E+00  0.2988E+00
      5.612  0.1957E-01  0.1956E-01  0.3009E+00  0.3009E+00
      5.718  0.2418E-01  0.2418E-01  0.3034E+00  0.3034E+00
      5.823  0.2210E-01  0.2211E-01  0.3058E+00  0.3058E+00
      5.929  0.1987E-01  0.1987E-01  0.3079E+00  0.3079E+00
      6.035  0.1728E-01  0.1727E-01  0.3097E+00  0.3097E+00
      6.141  0.2034E-01  0.2034E-01  0.3119E+00  0.3119E+00
      6.246  0.2026E-01  0.2026E-01  0.3140E+00  0.3140E+00
      6.352  0.2246E-01  0.2246E-01  0.3164E+00  0.3164E+00
      6.458  0.2977E-01  0.2977E-01  0.3195E+00  0.3195E+00
      6.564  0.3019E-01  0.3019E-01  0.3227E+00  0.3227E+00
      6.669  0.2950E-01  0.2950E-01  0.3258E+00  0.3258E+00
      6.775  0.2343E-01  0.2343E-01  0.3283E+00  0.3283E+00
      6.881  0.2614E-01  0.2614E-01  0.3311E+00  0.3311E+00
      6.987  0.2590E-01  0.2591E-01  0.3338E+00  0.3338E+00
      7.092  0.2184E-01  0.2184E-01  0.3361E+00  0.3361E+00
      7.198  0.2093E-01  0.2093E-01  0.3383E+00  0.3383E+00
      7.304  0.1952E-01  0.1951E-01  0.3404E+00  0.3404E+00
      7.410  0.2638E-01  0.2638E-01  0.3432E+00  0.3432E+00
      7.515  0.2752E-01  0.2752E-01  0.3461E+00  0.3461E+00
      7.621  0.3306E-01  0.3305E-01  0.3496E+00  0.3496E+00
      7.727  0.2880E-01  0.2880E-01  0.3526E+00  0.3526E+00
      7.833  0.2386E-01  0.2386E-01  0.3552E+00  0.3552E+00
      7.938  0.3299E-01  0.3298E-01  0.3587E+00  0.3587E+00
      8.044  0.4091E-01  0.4092E-01  0.3630E+00  0.3630E+00
      8.150  0.3780E-01  0.3780E-01  0.3670E+00  0.3670E+00
      8.256  0.3282E-01  0.3282E-01  0.3705E+00  0.3705E+00
      8.362  0.2214E-01  0.2215E-01  0.3728E+00  0.3728E+00
      8.467  0.1060E-01  0.1060E-01  0.3739E+00  0.3739E+00
      8.573  0.4661E-02  0.4663E-02  0.3744E+00  0.3744E+00
      8.679  0.2926E-02  0.2926E-02  0.3747E+00  0.3747E+00
      8.785  0.2121E-02  0.2121E-02  0.3749E+00  0.3749E+00
      8.890  0.5234E-03  0.5236E-03  0.3750E+00  0.3750E+00
      8.996  0.2209E-04  0.2210E-04  0.3750E+00  0.3750E+00
      9.102  0.1231E-06  0.1232E-06  0.3750E+00  0.3750E+00
      9.208  0.8183E-10  0.8194E-10  0.3750E+00  0.3750E+00
      9.313  0.6203E-14  0.6214E-14  0.3750E+00  0.3750E+00
      9.419  0.0000E+00  0.0000E+00  0.3750E+00  0.3750E+00
      9.525  0.0000E+00  0.0000E+00  0.3750E+00  0.3750E+00
      9.631  0.0000E+00  0.0000E+00  0.3750E+00  0.3750E+00
      9.736  0.0000E+00  0.0000E+00  0.3750E+00  0.3750E+00
      9.842  0.0000E+00  0.0000E+00  0.3750E+00  0.3750E+00
      9.948  0.0000E+00  0.0000E+00  0.3750E+00  0.3750E+00
     10.054  0.0000E+00  0.0000E+00  0.3750E+00  0.3750E+00
     10.159  0.0000E+00  0.0000E+00  0.3750E+00  0.3750E+00
