Lattice                                 
           1
     4.306744    2.486500    0.000000
    -4.306744    2.486500    0.000000
     0.000000    0.000000   15.000000
   B    C 
     8     8
Direct configuration=     1
   0.66888689  0.00000000  0.10000000
   0.33111211  0.00000000  0.10000000
   0.00000000  0.33111211  0.10000000
   0.00000000  0.66888689  0.10000000
   0.33111211  0.33111211  0.10000000
   0.66888689  0.66888689  0.10000000
   0.66666600  0.33333300  0.09922189
   0.33333300  0.66666600  0.10077811
   0.33333267  0.16666633  0.47060000
   0.49999967  0.99999933  0.47060000
   0.33333267  0.66666633  0.47060000
   0.49999967  0.49999933  0.47060000
   0.83333267  0.16666633  0.47060000
   0.99999967  0.99999933  0.47060000
   0.83333267  0.66666633  0.47060000
   0.99999967  0.49999933  0.47060000
Direct configuration=     2
   0.67073701  0.00000001  0.10002574
   0.32926200  0.00000001  0.10002574
  -0.00000001  0.32926199  0.10002574
  -0.00000001  0.67073700  0.10002574
   0.32926200  0.32926199  0.10002574
   0.67073701  0.67073700  0.10002574
   0.66666600  0.33333300  0.09924201
   0.33333300  0.66666600  0.10081514
   0.33332658  0.16666329  0.47057382
   0.50000087  0.00000173  0.47057329
   0.33333267  0.66666633  0.47057264
   0.50000087  0.49999813  0.47057329
   0.83333571  0.16666329  0.47057382
   0.99999967  0.99999933  0.47057442
   0.83333571  0.66667242  0.47057382
   0.99999727  0.49999813  0.47057329
Direct configuration=     3
   0.66982617  0.00000001  0.10001307
   0.33017284  0.00000001  0.10001307
  -0.00000001  0.33017283  0.10001307
  -0.00000001  0.66982616  0.10001307
   0.33017284  0.33017283  0.10001307
   0.66982617  0.66982616  0.10001307
   0.66666600  0.33333300  0.09923211
   0.33333300  0.66666600  0.10079691
   0.33332958  0.16666479  0.47058671
   0.50000028  0.00000055  0.47058644
   0.33333267  0.66666633  0.47058611
   0.50000028  0.49999872  0.47058644
   0.83333421  0.16666479  0.47058671
   0.99999967  0.99999933  0.47058701
   0.83333421  0.66666942  0.47058671
   0.99999845  0.49999872  0.47058644
Direct configuration=     4
   0.66983176  0.00000001  0.10001315
   0.33016725  0.00000001  0.10001315
  -0.00000001  0.33016724  0.10001315
  -0.00000001  0.66983175  0.10001315
   0.33016725  0.33016724  0.10001315
   0.66983176  0.66983175  0.10001315
   0.66666600  0.33333300  0.09923217
   0.33333300  0.66666600  0.10079702
   0.33332956  0.16666478  0.47058663
   0.50000028  0.00000056  0.47058636
   0.33333267  0.66666633  0.47058603
   0.50000028  0.49999872  0.47058636
   0.83333422  0.16666478  0.47058663
   0.99999967  0.99999933  0.47058694
   0.83333422  0.66666944  0.47058663
   0.99999844  0.49999872  0.47058636
Direct configuration=     5
   0.66982949  0.00000001  0.10001312
   0.33016952  0.00000001  0.10001312
  -0.00000001  0.33016951  0.10001312
  -0.00000001  0.66982948  0.10001312
   0.33016952  0.33016951  0.10001312
   0.66982949  0.66982948  0.10001312
   0.66666600  0.33333300  0.09923214
   0.33333300  0.66666600  0.10079698
   0.33332957  0.16666478  0.47058666
   0.50000028  0.00000056  0.47058639
   0.33333267  0.66666633  0.47058606
   0.50000028  0.49999872  0.47058639
   0.83333422  0.16666478  0.47058666
   0.99999967  0.99999933  0.47058697
   0.83333422  0.66666943  0.47058666
   0.99999844  0.49999872  0.47058639
Direct configuration=     6
   0.66982783  0.00000001  0.10001309
   0.33017118  0.00000001  0.10001309
  -0.00000001  0.33017117  0.10001309
  -0.00000001  0.66982782  0.10001309
   0.33017118  0.33017117  0.10001309
   0.66982783  0.66982782  0.10001309
   0.66666600  0.33333300  0.09923212
   0.33333300  0.66666600  0.10079694
   0.33332957  0.16666479  0.47058668
   0.50000028  0.00000055  0.47058642
   0.33333267  0.66666633  0.47058608
   0.50000028  0.49999872  0.47058642
   0.83333421  0.16666479  0.47058668
   0.99999967  0.99999933  0.47058699
   0.83333421  0.66666943  0.47058668
   0.99999845  0.49999872  0.47058642
Direct configuration=     7
   0.66982700  0.00000001  0.10001308
   0.33017201  0.00000001  0.10001308
  -0.00000001  0.33017200  0.10001308
  -0.00000001  0.66982699  0.10001308
   0.33017201  0.33017200  0.10001308
   0.66982700  0.66982699  0.10001308
   0.66666600  0.33333300  0.09923211
   0.33333300  0.66666600  0.10079693
   0.33332958  0.16666479  0.47058670
   0.50000028  0.00000055  0.47058643
   0.33333267  0.66666633  0.47058610
   0.50000028  0.49999872  0.47058643
   0.83333421  0.16666479  0.47058670
   0.99999967  0.99999933  0.47058700
   0.83333421  0.66666942  0.47058670
   0.99999845  0.49999872  0.47058643
Direct configuration=     8
   0.66982697 -0.00000001  0.10003652
   0.33017201 -0.00000001  0.10003652
   0.00000001  0.33017203  0.10003652
   0.00000001  0.66982699  0.10003652
   0.33017201  0.33017203  0.10003652
   0.66982697  0.66982699  0.10003652
   0.66666600  0.33333300  0.09925341
   0.33333300  0.66666600  0.10082671
   0.33333410  0.16666705  0.47056293
   0.49999936 -0.00000127  0.47056228
   0.33333267  0.66666633  0.47056152
   0.49999936  0.49999964  0.47056228
   0.83333195  0.16666705  0.47056293
   0.99999967  0.99999933  0.47056363
   0.83333195  0.66666490  0.47056293
   0.00000027  0.49999964  0.47056228
Direct configuration=     9
   0.66982689 -0.00000007  0.10010682
   0.33017204 -0.00000007  0.10010682
   0.00000007  0.33017211  0.10010682
   0.00000007  0.66982696  0.10010682
   0.33017204  0.33017211  0.10010682
   0.66982689  0.66982696  0.10010682
   0.66666600  0.33333300  0.09931731
   0.33333300  0.66666600  0.10091606
   0.33334769  0.16667385  0.47049163
   0.49999663 -0.00000674  0.47048983
   0.33333267  0.66666633  0.47048780
   0.49999663  0.50000237  0.47048983
   0.83332515  0.16667385  0.47049163
   0.99999967  0.99999933  0.47049350
   0.83332515  0.66665131  0.47049163
   0.00000574  0.50000237  0.47048983
Direct configuration=    10
   0.66982672 -0.00000019  0.10024744
   0.33017209 -0.00000019  0.10024744
   0.00000019  0.33017228  0.10024744
   0.00000019  0.66982691  0.10024744
   0.33017209  0.33017228  0.10024744
   0.66982672  0.66982691  0.10024744
   0.66666600  0.33333300  0.09944511
   0.33333300  0.66666600  0.10109476
   0.33337487  0.16668743  0.47034904
   0.49999116 -0.00001768  0.47034493
   0.33333267  0.66666633  0.47034036
   0.49999116  0.50000784  0.47034493
   0.83331157  0.16668743  0.47034904
   0.99999967  0.99999933  0.47035325
   0.83331157  0.66662413  0.47034904
   0.00001668  0.50000784  0.47034493
Direct configuration=    11
   0.66982639 -0.00000042  0.10052866
   0.33017219 -0.00000042  0.10052866
   0.00000042  0.33017261  0.10052866
   0.00000042  0.66982681  0.10052866
   0.33017219  0.33017261  0.10052866
   0.66982639  0.66982681  0.10052866
   0.66666600  0.33333300  0.09970070
   0.33333300  0.66666600  0.10145215
   0.33342922  0.16671461  0.47006386
   0.49998022 -0.00003957  0.47005512
   0.33333267  0.66666633  0.47004548
   0.49998022  0.50001878  0.47005512
   0.83328439  0.16671461  0.47006386
   0.99999967  0.99999933  0.47007274
   0.83328439  0.66656978  0.47006386
   0.00003857  0.50001878  0.47005512
Direct configuration=    12
   0.66982573 -0.00000087  0.10109112
   0.33017240 -0.00000087  0.10109112
   0.00000087  0.33017327  0.10109112
   0.00000087  0.66982660  0.10109112
   0.33017240  0.33017327  0.10109112
   0.66982573  0.66982660  0.10109112
   0.66666600  0.33333300  0.10021188
   0.33333300  0.66666600  0.10216694
   0.33353793  0.16676897  0.46949350
   0.49995833 -0.00008334  0.46947552
   0.33333267  0.66666633  0.46945571
   0.49995833  0.50004067  0.46947552
   0.83323003  0.16676897  0.46949350
   0.99999967  0.99999933  0.46951172
   0.83323003  0.66646107  0.46949350
   0.00008234  0.50004067  0.46947552
Direct configuration=    13
   0.66982440 -0.00000179  0.10221602
   0.33017281 -0.00000179  0.10221602
   0.00000179  0.33017460  0.10221602
   0.00000179  0.66982619  0.10221602
   0.33017281  0.33017460  0.10221602
   0.66982440  0.66982619  0.10221602
   0.66666600  0.33333300  0.10123425
   0.33333300  0.66666600  0.10359652
   0.33375534  0.16687767  0.46835277
   0.49991456 -0.00017088  0.46831631
   0.33333267  0.66666633  0.46827617
   0.49991456  0.50008444  0.46831631
   0.83312133  0.16687767  0.46835277
   0.99999967  0.99999933  0.46838969
   0.83312133  0.66624366  0.46835277
   0.00016988  0.50008444  0.46831631
Direct configuration=    14
   0.66982175 -0.00000363  0.10446583
   0.33017362 -0.00000363  0.10446583
   0.00000363  0.33017725  0.10446583
   0.00000363  0.66982538  0.10446583
   0.33017362  0.33017725  0.10446583
   0.66982175  0.66982538  0.10446583
   0.66666600  0.33333300  0.10327898
   0.33333300  0.66666600  0.10645568
   0.33419017  0.16709509  0.46607131
   0.49982702 -0.00034596  0.46599789
   0.33333267  0.66666633  0.46591710
   0.49982702  0.50017198  0.46599789
   0.83290391  0.16709509  0.46607131
   0.99999967  0.99999933  0.46614563
   0.83290391  0.66580883  0.46607131
   0.00034496  0.50017198  0.46599789
Direct configuration=    15
   0.66981644 -0.00000730  0.10896545
   0.33017526 -0.00000730  0.10896545
   0.00000730  0.33018256  0.10896545
   0.00000730  0.66982374  0.10896545
   0.33017526  0.33018256  0.10896545
   0.66981644  0.66982374  0.10896545
   0.66666600  0.33333300  0.10736845
   0.33333300  0.66666600  0.11217400
   0.33505983  0.16752991  0.46150840
   0.49965194 -0.00069613  0.46136106
   0.33333267  0.66666633  0.46119896
   0.49965194  0.50034706  0.46136106
   0.83246909  0.16752991  0.46150840
   0.99999967  0.99999933  0.46165751
   0.83246909  0.66493917  0.46150840
   0.00069513  0.50034706  0.46136106
Direct configuration=    16
   0.66980583 -0.00001464  0.11796469
   0.33017852 -0.00001464  0.11796469
   0.00001464  0.33019317  0.11796469
   0.00001464  0.66982048  0.11796469
   0.33017852  0.33019317  0.11796469
   0.66980583  0.66982048  0.11796469
   0.66666600  0.33333300  0.11554739
   0.33333300  0.66666600  0.12361064
   0.33679914  0.16839957  0.45238257
   0.49930177 -0.00139645  0.45208739
   0.33333267  0.66666633  0.45176268
   0.49930177  0.50069723  0.45208739
   0.83159943  0.16839957  0.45238257
   0.99999967  0.99999933  0.45268126
   0.83159943  0.66319986  0.45238257
   0.00139545  0.50069723  0.45208739
Direct configuration=    17
   0.66980583 -0.00001465  0.11796561
   0.33017852 -0.00001465  0.11796561
   0.00001465  0.33019317  0.11796561
   0.00001465  0.66982048  0.11796561
   0.33017852  0.33019317  0.11796561
   0.66980583  0.66982048  0.11796561
   0.66666600  0.33333300  0.11554822
   0.33333300  0.66666600  0.12361180
   0.33679921  0.16839960  0.45238164
   0.49930176 -0.00139648  0.45208645
   0.33333267  0.66666633  0.45176172
   0.49930176  0.50069724  0.45208645
   0.83159940  0.16839960  0.45238164
   0.99999967  0.99999933  0.45268035
   0.83159940  0.66319979  0.45238164
   0.00139548  0.50069724  0.45208645
Direct configuration=    18
   0.66980582 -0.00001465  0.11796835
   0.33017853 -0.00001465  0.11796835
   0.00001465  0.33019318  0.11796835
   0.00001465  0.66982047  0.11796835
   0.33017853  0.33019318  0.11796835
   0.66980582  0.66982047  0.11796835
   0.66666600  0.33333300  0.11555071
   0.33333300  0.66666600  0.12361528
   0.33679941  0.16839970  0.45237886
   0.49930172 -0.00139656  0.45208362
   0.33333267  0.66666633  0.45175885
   0.49930172  0.50069728  0.45208362
   0.83159930  0.16839970  0.45237886
   0.99999967  0.99999933  0.45267761
   0.83159930  0.66319959  0.45237886
   0.00139556  0.50069728  0.45208362
Direct configuration=    19
   0.66980580 -0.00001467  0.11797384
   0.33017853 -0.00001467  0.11797384
   0.00001467  0.33019320  0.11797384
   0.00001467  0.66982047  0.11797384
   0.33017853  0.33019320  0.11797384
   0.66980580  0.66982047  0.11797384
   0.66666600  0.33333300  0.11555569
   0.33333300  0.66666600  0.12362225
   0.33679981  0.16839990  0.45237329
   0.49930165 -0.00139671  0.45207798
   0.33333267  0.66666633  0.45175311
   0.49930165  0.50069735  0.45207798
   0.83159910  0.16839990  0.45237329
   0.99999967  0.99999933  0.45267213
   0.83159910  0.66319919  0.45237329
   0.00139571  0.50069735  0.45207798
Direct configuration=    20
   0.66980577 -0.00001469  0.11798481
   0.33017854 -0.00001469  0.11798481
   0.00001469  0.33019323  0.11798481
   0.00001469  0.66982046  0.11798481
   0.33017854  0.33019323  0.11798481
   0.66980577  0.66982046  0.11798481
   0.66666600  0.33333300  0.11556564
   0.33333300  0.66666600  0.12363618
   0.33680060  0.16840030  0.45236216
   0.49930149 -0.00139701  0.45206668
   0.33333267  0.66666633  0.45174163
   0.49930149  0.50069751  0.45206668
   0.83159870  0.16840030  0.45236216
   0.99999967  0.99999933  0.45266116
   0.83159870  0.66319840  0.45236216
   0.00139601  0.50069751  0.45206668
Direct configuration=    21
   0.66980570 -0.00001475  0.11800676
   0.33017856 -0.00001475  0.11800676
   0.00001475  0.33019330  0.11800676
   0.00001475  0.66982044  0.11800676
   0.33017856  0.33019330  0.11800676
   0.66980570  0.66982044  0.11800676
   0.66666600  0.33333300  0.11558556
   0.33333300  0.66666600  0.12366404
   0.33680219  0.16840110  0.45233989
   0.49930119 -0.00139762  0.45204408
   0.33333267  0.66666633  0.45171867
   0.49930119  0.50069781  0.45204408
   0.83159790  0.16840110  0.45233989
   0.99999967  0.99999933  0.45263923
   0.83159790  0.66319681  0.45233989
   0.00139662  0.50069781  0.45204408
Direct configuration=    22
   0.66980555 -0.00001485  0.11805066
   0.33017860 -0.00001485  0.11805066
   0.00001485  0.33019345  0.11805066
   0.00001485  0.66982040  0.11805066
   0.33017860  0.33019345  0.11805066
   0.66980555  0.66982040  0.11805066
   0.66666600  0.33333300  0.11562539
   0.33333300  0.66666600  0.12371976
   0.33680538  0.16840269  0.45229537
   0.49930058 -0.00139885  0.45199889
   0.33333267  0.66666633  0.45167276
   0.49930058  0.50069842  0.45199889
   0.83159631  0.16840269  0.45229537
   0.99999967  0.99999933  0.45259536
   0.83159631  0.66319362  0.45229537
   0.00139785  0.50069842  0.45199889
Direct configuration=    23
   0.66980526 -0.00001507  0.11813846
   0.33017867 -0.00001507  0.11813846
   0.00001507  0.33019374  0.11813846
   0.00001507  0.66982033  0.11813846
   0.33017867  0.33019374  0.11813846
   0.66980526  0.66982033  0.11813846
   0.66666600  0.33333300  0.11570506
   0.33333300  0.66666600  0.12383120
   0.33681175  0.16840588  0.45220631
   0.49929935 -0.00140129  0.45190850
   0.33333267  0.66666633  0.45158093
   0.49929935  0.50069965  0.45190850
   0.83159312  0.16840588  0.45220631
   0.99999967  0.99999933  0.45250763
   0.83159312  0.66318725  0.45220631
   0.00140029  0.50069965  0.45190850
Direct configuration=    24
   0.66980468 -0.00001550  0.11831405
   0.33017882 -0.00001550  0.11831405
   0.00001550  0.33019432  0.11831405
   0.00001550  0.66982018  0.11831405
   0.33017882  0.33019432  0.11831405
   0.66980468  0.66982018  0.11831405
   0.66666600  0.33333300  0.11586439
   0.33333300  0.66666600  0.12405409
   0.33682449  0.16841225  0.45202820
   0.49929691 -0.00140618  0.45172773
   0.33333267  0.66666633  0.45139726
   0.49929691  0.50070209  0.45172773
   0.83158675  0.16841225  0.45202820
   0.99999967  0.99999933  0.45233217
   0.83158675  0.66317451  0.45202820
   0.00140518  0.50070209  0.45172773
Direct configuration=    25
   0.66980353 -0.00001636  0.11866524
   0.33017912 -0.00001636  0.11866524
   0.00001636  0.33019547  0.11866524
   0.00001636  0.66981988  0.11866524
   0.33017912  0.33019547  0.11866524
   0.66980353  0.66981988  0.11866524
   0.66666600  0.33333300  0.11618306
   0.33333300  0.66666600  0.12449985
   0.33684997  0.16842499  0.45167198
   0.49929202 -0.00141596  0.45136618
   0.33333267  0.66666633  0.45102993
   0.49929202  0.50070698  0.45136618
   0.83157401  0.16842499  0.45167198
   0.99999967  0.99999933  0.45198125
   0.83157401  0.66314903  0.45167198
   0.00141496  0.50070698  0.45136618
Direct configuration=    26
   0.66980122 -0.00001807  0.11936761
   0.33017971 -0.00001807  0.11936761
   0.00001807  0.33019778  0.11936761
   0.00001807  0.66981929  0.11936761
   0.33017971  0.33019778  0.11936761
   0.66980122  0.66981929  0.11936761
   0.66666600  0.33333300  0.11682039
   0.33333300  0.66666600  0.12539139
   0.33690093  0.16845047  0.45095954
   0.49928225 -0.00143551  0.45064308
   0.33333267  0.66666633  0.45029528
   0.49928225  0.50071675  0.45064308
   0.83154853  0.16845047  0.45095954
   0.99999967  0.99999933  0.45127940
   0.83154853  0.66309807  0.45095954
   0.00143451  0.50071675  0.45064308
Direct configuration=    27
   0.66979659 -0.00002151  0.12077236
   0.33018090 -0.00002151  0.12077236
   0.00002151  0.33020241  0.12077236
   0.00002151  0.66981810  0.12077236
   0.33018090  0.33020241  0.12077236
   0.66979659  0.66981810  0.12077236
   0.66666600  0.33333300  0.11809505
   0.33333300  0.66666600  0.12717447
   0.33700285  0.16850143  0.44953465
   0.49926269 -0.00147461  0.44919689
   0.33333267  0.66666633  0.44882597
   0.49926269  0.50073631  0.44919689
   0.83149757  0.16850143  0.44953465
   0.99999967  0.99999933  0.44987572
   0.83149757  0.66299615  0.44953465
   0.00147361  0.50073631  0.44919689
Direct configuration=    28
   0.66978735 -0.00002838  0.12358186
   0.33018327 -0.00002838  0.12358186
   0.00002838  0.33021165  0.12358186
   0.00002838  0.66981573  0.12358186
   0.33018327  0.33021165  0.12358186
   0.66978735  0.66981573  0.12358186
   0.66666600  0.33333300  0.12064437
   0.33333300  0.66666600  0.13074063
   0.33720670  0.16860335  0.44668488
   0.49922359 -0.00155282  0.44630450
   0.33333267  0.66666633  0.44588735
   0.49922359  0.50077541  0.44630450
   0.83139565  0.16860335  0.44668488
   0.99999967  0.99999933  0.44706834
   0.83139565  0.66279230  0.44668488
   0.00155182  0.50077541  0.44630450
Direct configuration=    29
   0.66976886 -0.00004212  0.12920086
   0.33018803 -0.00004212  0.12920086
   0.00004212  0.33023014  0.12920086
   0.00004212  0.66981097  0.12920086
   0.33018803  0.33023014  0.12920086
   0.66976886  0.66981097  0.12920086
   0.66666600  0.33333300  0.12574301
   0.33333300  0.66666600  0.13787294
   0.33761438  0.16880719  0.44098534
   0.49914538 -0.00170924  0.44051972
   0.33333267  0.66666633  0.44001011
   0.49914538  0.50085362  0.44051972
   0.83119181  0.16880719  0.44098534
   0.99999967  0.99999933  0.44145359
   0.83119181  0.66238462  0.44098534
   0.00170824  0.50085362  0.44051972
Direct configuration=    30
   0.66973187 -0.00006959  0.14043886
   0.33019753 -0.00006959  0.14043886
   0.00006959  0.33026713  0.14043886
   0.00006959  0.66980147  0.14043886
   0.33019753  0.33026713  0.14043886
   0.66973187  0.66980147  0.14043886
   0.66666600  0.33333300  0.13594029
   0.33333300  0.66666600  0.15213756
   0.33842976  0.16921488  0.42958626
   0.49898896 -0.00202208  0.42895017
   0.33333267  0.66666633  0.42825562
   0.49898896  0.50101004  0.42895017
   0.83078412  0.16921488  0.42958626
   0.99999967  0.99999933  0.43022408
   0.83078412  0.66156924  0.42958626
   0.00202108  0.50101004  0.42895017
Direct configuration=    31
   0.66965790 -0.00012455  0.16291485
   0.33021655 -0.00012455  0.16291485
   0.00012455  0.33034110  0.16291485
   0.00012455  0.66978245  0.16291485
   0.33021655  0.33034110  0.16291485
   0.66965790  0.66978245  0.16291485
   0.66666600  0.33333300  0.15633486
   0.33333300  0.66666600  0.18066680
   0.34006050  0.17003025  0.40678811
   0.49867612 -0.00264776  0.40581106
   0.33333267  0.66666633  0.40474665
   0.49867612  0.50132288  0.40581106
   0.82996875  0.17003025  0.40678811
   0.99999967  0.99999933  0.40776507
   0.82996875  0.65993850  0.40678811
   0.00264676  0.50132288  0.40581106
Direct configuration=    32
   0.66967272 -0.00011354  0.15841125
   0.33021274 -0.00011354  0.15841125
   0.00011354  0.33032628  0.15841125
   0.00011354  0.66978626  0.15841125
   0.33021274  0.33032628  0.15841125
   0.66967272  0.66978626  0.15841125
   0.66666600  0.33333300  0.15224832
   0.33333300  0.66666600  0.17495028
   0.33973374  0.16986687  0.41135626
   0.49873880 -0.00252239  0.41044753
   0.33333267  0.66666633  0.40945724
   0.49873880  0.50126020  0.41044753
   0.83013213  0.16986687  0.41135626
   0.99999967  0.99999933  0.41226527
   0.83013213  0.66026526  0.41135626
   0.00252139  0.50126020  0.41044753
Direct configuration=    33
   0.66966299 -0.00012077  0.16136768
   0.33021524 -0.00012077  0.16136768
   0.00012077  0.33033601  0.16136768
   0.00012077  0.66978376  0.16136768
   0.33021524  0.33033601  0.16136768
   0.66966299  0.66978376  0.16136768
   0.66666600  0.33333300  0.15493097
   0.33333300  0.66666600  0.17870294
   0.33994825  0.16997412  0.40835745
   0.49869765 -0.00260469  0.40740388
   0.33333267  0.66666633  0.40636493
   0.49869765  0.50130135  0.40740388
   0.83002488  0.16997412  0.40835745
   0.99999967  0.99999933  0.40931107
   0.83002488  0.66005075  0.40835745
   0.00260369  0.50130135  0.40740388
Direct configuration=    34
   0.66957561 -0.00018253  0.16636933
   0.33024086 -0.00018253  0.16636933
   0.00018253  0.33042339  0.16636933
   0.00018253  0.66975814  0.16636933
   0.33024086  0.33042339  0.16636933
   0.66957561  0.66975814  0.16636933
   0.66666600  0.33333300  0.15945488
   0.33333300  0.66666600  0.18502652
   0.33966328  0.16983164  0.40328292
   0.49876580 -0.00246841  0.40226696
   0.33333267  0.66666633  0.40115736
   0.49876580  0.50123320  0.40226696
   0.83016736  0.16983164  0.40328292
   0.99999967  0.99999933  0.40429563
   0.83016736  0.66033572  0.40328292
   0.00246741  0.50123320  0.40226696
Direct configuration=    35
   0.66957498 -0.00018297  0.16640529
   0.33024105 -0.00018297  0.16640529
   0.00018297  0.33042402  0.16640529
   0.00018297  0.66975795  0.16640529
   0.33024105  0.33042402  0.16640529
   0.66957498  0.66975795  0.16640529
   0.66666600  0.33333300  0.15948740
   0.33333300  0.66666600  0.18507198
   0.33966124  0.16983062  0.40324643
   0.49876629 -0.00246743  0.40223003
   0.33333267  0.66666633  0.40111992
   0.49876629  0.50123271  0.40223003
   0.83016838  0.16983062  0.40324643
   0.99999967  0.99999933  0.40425957
   0.83016838  0.66033776  0.40324643
   0.00246643  0.50123271  0.40223003
Direct configuration=    36
   0.66950057 -0.00023563  0.16622603
   0.33026280 -0.00023563  0.16622603
   0.00023563  0.33049843  0.16622603
   0.00023563  0.66973620  0.16622603
   0.33026280  0.33049843  0.16622603
   0.66950057  0.66973620  0.16622603
   0.66666600  0.33333300  0.15931029
   0.33333300  0.66666600  0.18481678
   0.33905280  0.16952640  0.40342681
   0.49889646 -0.00220707  0.40242834
   0.33333267  0.66666633  0.40133177
   0.49889646  0.50110254  0.40242834
   0.83047260  0.16952640  0.40342681
   0.99999967  0.99999933  0.40441954
   0.83047260  0.66094620  0.40342681
   0.00220607  0.50110254  0.40242834
Direct configuration=    37
   0.66927732 -0.00039362  0.16568824
   0.33032806 -0.00039362  0.16568824
   0.00039362  0.33072168  0.16568824
   0.00039362  0.66967094  0.16568824
   0.33032806  0.33072168  0.16568824
   0.66927732  0.66967094  0.16568824
   0.66666600  0.33333300  0.15877896
   0.33333300  0.66666600  0.18405119
   0.33722748  0.16861374  0.40396792
   0.49928700 -0.00142600  0.40302329
   0.33333267  0.66666633  0.40196732
   0.49928700  0.50071200  0.40302329
   0.83138526  0.16861374  0.40396792
   0.99999967  0.99999933  0.40489944
   0.83138526  0.66277152  0.40396792
   0.00142500  0.50071200  0.40302329
Direct configuration=    38
   0.66883081 -0.00070960  0.16461267
   0.33045859 -0.00070960  0.16461267
   0.00070960  0.33116819  0.16461267
   0.00070960  0.66954041  0.16461267
   0.33045859  0.33116819  0.16461267
   0.66883081  0.66954041  0.16461267
   0.66666600  0.33333300  0.15771630
   0.33333300  0.66666600  0.18252002
   0.33357686  0.16678843  0.40505015
   0.50006807  0.00013613  0.40421318
   0.33333267  0.66666633  0.40323842
   0.50006807  0.49993093  0.40421318
   0.83321057  0.16678843  0.40505015
   0.99999967  0.99999933  0.40585923
   0.83321057  0.66642214  0.40505015
  -0.00013713  0.49993093  0.40421318
Direct configuration=    39
   0.66879689 -0.00073360  0.16453096
   0.33046851 -0.00073360  0.16453096
   0.00073360  0.33120211  0.16453096
   0.00073360  0.66953049  0.16453096
   0.33046851  0.33120211  0.16453096
   0.66879689  0.66953049  0.16453096
   0.66666600  0.33333300  0.15763557
   0.33333300  0.66666600  0.18240369
   0.33329951  0.16664975  0.40513237
   0.50012741  0.00025481  0.40430358
   0.33333267  0.66666633  0.40333499
   0.50012741  0.49987159  0.40430358
   0.83334925  0.16664975  0.40513237
   0.99999967  0.99999933  0.40593215
   0.83334925  0.66669949  0.40513237
  -0.00025581  0.49987159  0.40430358
Direct configuration=    40
   0.66872365 -0.00075433  0.16453802
   0.33052102 -0.00075433  0.16453802
   0.00075433  0.33127535  0.16453802
   0.00075433  0.66947798  0.16453802
   0.33052102  0.33127535  0.16453802
   0.66872365  0.66947798  0.16453802
   0.66666600  0.33333300  0.15760219
   0.33333300  0.66666600  0.18235033
   0.33329825  0.16664913  0.40511997
   0.50010642  0.00021283  0.40432839
   0.33333267  0.66666633  0.40339318
   0.50010642  0.49989258  0.40432839
   0.83334987  0.16664913  0.40511997
   0.99999967  0.99999933  0.40588113
   0.83334987  0.66670075  0.40511997
  -0.00021383  0.49989258  0.40432839
Direct configuration=    41
   0.66850392 -0.00081651  0.16455919
   0.33067857 -0.00081651  0.16455919
   0.00081651  0.33149508  0.16455919
   0.00081651  0.66932043  0.16455919
   0.33067857  0.33149508  0.16455919
   0.66850392  0.66932043  0.16455919
   0.66666600  0.33333300  0.15750206
   0.33333300  0.66666600  0.18219026
   0.33329449  0.16664724  0.40508278
   0.50004345  0.00008689  0.40440280
   0.33333267  0.66666633  0.40356774
   0.50004345  0.49995555  0.40440280
   0.83335176  0.16664724  0.40508278
   0.99999967  0.99999933  0.40572808
   0.83335176  0.66670451  0.40508278
  -0.00008789  0.49995555  0.40440280
Direct configuration=    42
   0.66806447 -0.00094086  0.16460154
   0.33099368 -0.00094086  0.16460154
   0.00094086  0.33193453  0.16460154
   0.00094086  0.66900532  0.16460154
   0.33099368  0.33193453  0.16460154
   0.66806447  0.66900532  0.16460154
   0.66666600  0.33333300  0.15730180
   0.33333300  0.66666600  0.18187011
   0.33328696  0.16664348  0.40500839
   0.49991751 -0.00016499  0.40455162
   0.33333267  0.66666633  0.40391687
   0.49991751  0.50008149  0.40455162
   0.83335552  0.16664348  0.40500839
   0.99999967  0.99999933  0.40542196
   0.83335552  0.66671204  0.40500839
   0.00016399  0.50008149  0.40455162
Direct configuration=    43
   0.66718556 -0.00118956  0.16468624
   0.33162388 -0.00118956  0.16468624
   0.00118956  0.33281344  0.16468624
   0.00118956  0.66837512  0.16468624
   0.33162388  0.33281344  0.16468624
   0.66718556  0.66837512  0.16468624
   0.66666600  0.33333300  0.15690128
   0.33333300  0.66666600  0.18122981
   0.33327191  0.16663595  0.40485961
   0.49966563 -0.00066874  0.40484926
   0.33333267  0.66666633  0.40461513
   0.49966563  0.50033337  0.40484926
   0.83336305  0.16663595  0.40485961
   0.99999967  0.99999933  0.40480974
   0.83336305  0.66672709  0.40485961
   0.00066774  0.50033337  0.40484926
Direct configuration=    44
   0.66770808 -0.00104171  0.16463588
   0.33124922 -0.00104171  0.16463588
   0.00104171  0.33229092  0.16463588
   0.00104171  0.66874978  0.16463588
   0.33124922  0.33229092  0.16463588
   0.66770808  0.66874978  0.16463588
   0.66666600  0.33333300  0.15713939
   0.33333300  0.66666600  0.18161047
   0.33328086  0.16664043  0.40494806
   0.49981537 -0.00036925  0.40467231
   0.33333267  0.66666633  0.40420001
   0.49981537  0.50018363  0.40467231
   0.83335857  0.16664043  0.40494806
   0.99999967  0.99999933  0.40517371
   0.83335857  0.66671814  0.40494806
   0.00036825  0.50018363  0.40467231
Direct configuration=    45
   0.66780181 -0.00094925  0.16466858
   0.33124794 -0.00094925  0.16466858
   0.00094925  0.33219719  0.16466858
   0.00094925  0.66875106  0.16466858
   0.33124794  0.33219719  0.16466858
   0.66780181  0.66875106  0.16466858
   0.66666600  0.33333300  0.15702692
   0.33333300  0.66666600  0.18146019
   0.33332688  0.16666344  0.40490838
   0.49990026 -0.00019949  0.40473063
   0.33333267  0.66666633  0.40435337
   0.49990026  0.50009874  0.40473063
   0.83333556  0.16666344  0.40490838
   0.99999967  0.99999933  0.40503103
   0.83333556  0.66667212  0.40490838
   0.00019849  0.50009874  0.40473063
Direct configuration=    46
   0.66808300 -0.00067190  0.16476667
   0.33124410 -0.00067190  0.16476667
   0.00067190  0.33191600  0.16476667
   0.00067190  0.66875490  0.16476667
   0.33124410  0.33191600  0.16476667
   0.66808300  0.66875490  0.16476667
   0.66666600  0.33333300  0.15668951
   0.33333300  0.66666600  0.18100935
   0.33346494  0.16673247  0.40478932
   0.50015490  0.00030981  0.40490556
   0.33333267  0.66666633  0.40481347
   0.50015490  0.49984410  0.40490556
   0.83326653  0.16673247  0.40478932
   0.99999967  0.99999933  0.40460297
   0.83326653  0.66653406  0.40478932
  -0.00031081  0.49984410  0.40490556
Direct configuration=    47
   0.66818988 -0.00056648  0.16480396
   0.33124265 -0.00056648  0.16480396
   0.00056648  0.33180912  0.16480396
   0.00056648  0.66875635  0.16480396
   0.33124265  0.33180912  0.16480396
   0.66818988  0.66875635  0.16480396
   0.66666600  0.33333300  0.15656126
   0.33333300  0.66666600  0.18083799
   0.33351742  0.16675871  0.40474407
   0.50025169  0.00050339  0.40497206
   0.33333267  0.66666633  0.40498836
   0.50025169  0.49974731  0.40497206
   0.83324029  0.16675871  0.40474407