Lattice                                 
           1
     4.295486    2.480000    0.000000
    -4.295486    2.480000    0.000000
     0.000000    0.000000   15.000000
   B    C 
     8     8
Direct configuration=     1
   0.66888689  0.00000000  0.10000000
   0.33111211  0.00000000  0.10000000
   0.00000000  0.33111211  0.10000000
   0.00000000  0.66888689  0.10000000
   0.33111211  0.33111211  0.10000000
   0.66888689  0.66888689  0.10000000
   0.66666600  0.33333300  0.09922189
   0.33333300  0.66666600  0.10077811
   0.16666600  0.33333300  0.46773333
   0.33333300  0.16666600  0.46773333
   0.16666600  0.83333300  0.46773333
   0.33333300  0.66666600  0.46773333
   0.66666600  0.33333300  0.46773333
   0.83333300  0.16666600  0.46773333
   0.66666600  0.83333300  0.46773333
   0.83333300  0.66666600  0.46773333
Direct configuration=     2
   0.67107673  0.00000005  0.10002712
   0.32892231  0.00000005  0.10002712
  -0.00000005  0.32892227  0.10002712
  -0.00000005  0.67107669  0.10002712
   0.32892231  0.32892227  0.10002712
   0.67107673  0.67107669  0.10002712
   0.66666600  0.33333300  0.09923973
   0.33333300  0.66666600  0.10082000
   0.16666365  0.33332829  0.46770551
   0.33332842  0.16666371  0.46770553
   0.16666365  0.83333535  0.46770551
   0.33333300  0.66666600  0.46770549
   0.66666600  0.33333300  0.46770558
   0.83333529  0.16666371  0.46770553
   0.66667071  0.83333535  0.46770551
   0.83333529  0.66667058  0.46770553
Direct configuration=     3
   0.66997233  0.00000002  0.10001344
   0.33002669  0.00000002  0.10001344
  -0.00000002  0.33002667  0.10001344
  -0.00000002  0.66997231  0.10001344
   0.33002669  0.33002667  0.10001344
   0.66997233  0.66997231  0.10001344
   0.66666600  0.33333300  0.09923073
   0.33333300  0.66666600  0.10079888
   0.16666483  0.33333067  0.46771954
   0.33333073  0.16666486  0.46771955
   0.16666483  0.83333417  0.46771954
   0.33333300  0.66666600  0.46771953
   0.66666600  0.33333300  0.46771957
   0.83333414  0.16666486  0.46771955
   0.66666833  0.83333417  0.46771954
   0.83333414  0.66666827  0.46771955
Direct configuration=     4
   0.66997890  0.00000002  0.10001353
   0.33002012  0.00000002  0.10001353
  -0.00000002  0.33002010  0.10001353
  -0.00000002  0.66997888  0.10001353
   0.33002012  0.33002010  0.10001353
   0.66997890  0.66997888  0.10001353
   0.66666600  0.33333300  0.09923079
   0.33333300  0.66666600  0.10079900
   0.16666483  0.33333065  0.46771946
   0.33333071  0.16666486  0.46771947
   0.16666483  0.83333417  0.46771946
   0.33333300  0.66666600  0.46771945
   0.66666600  0.33333300  0.46771949
   0.83333414  0.16666486  0.46771947
   0.66666835  0.83333417  0.46771946
   0.83333414  0.66666829  0.46771947
Direct configuration=     5
   0.66997618  0.00000002  0.10001349
   0.33002284  0.00000002  0.10001349
  -0.00000002  0.33002282  0.10001349
  -0.00000002  0.66997616  0.10001349
   0.33002284  0.33002282  0.10001349
   0.66997618  0.66997616  0.10001349
   0.66666600  0.33333300  0.09923076
   0.33333300  0.66666600  0.10079895
   0.16666483  0.33333066  0.46771949
   0.33333072  0.16666486  0.46771950
   0.16666483  0.83333417  0.46771949
   0.33333300  0.66666600  0.46771948
   0.66666600  0.33333300  0.46771953
   0.83333414  0.16666486  0.46771950
   0.66666834  0.83333417  0.46771949
   0.83333414  0.66666828  0.46771950
Direct configuration=     6
   0.66997426  0.00000002  0.10001347
   0.33002477  0.00000002  0.10001347
  -0.00000002  0.33002474  0.10001347
  -0.00000002  0.66997423  0.10001347
   0.33002477  0.33002474  0.10001347
   0.66997426  0.66997423  0.10001347
   0.66666600  0.33333300  0.09923075
   0.33333300  0.66666600  0.10079891
   0.16666483  0.33333066  0.46771952
   0.33333072  0.16666486  0.46771953
   0.16666483  0.83333417  0.46771952
   0.33333300  0.66666600  0.46771951
   0.66666600  0.33333300  0.46771955
   0.83333414  0.16666486  0.46771953
   0.66666834  0.83333417  0.46771952
   0.83333414  0.66666828  0.46771953
Direct configuration=     7
   0.66997329  0.00000002  0.10001346
   0.33002573  0.00000002  0.10001346
  -0.00000002  0.33002571  0.10001346
  -0.00000002  0.66997327  0.10001346
   0.33002573  0.33002571  0.10001346
   0.66997329  0.66997327  0.10001346
   0.66666600  0.33333300  0.09923074
   0.33333300  0.66666600  0.10079890
   0.16666483  0.33333067  0.46771953
   0.33333073  0.16666486  0.46771954
   0.16666483  0.83333417  0.46771953
   0.33333300  0.66666600  0.46771952
   0.66666600  0.33333300  0.46771956
   0.83333414  0.16666486  0.46771954
   0.66666833  0.83333417  0.46771953
   0.83333414  0.66666827  0.46771954
Direct configuration=     8
   0.66997324 -0.00000001  0.10003806
   0.33002575 -0.00000001  0.10003806
   0.00000001  0.33002576  0.10003806
   0.00000001  0.66997325  0.10003806
   0.33002575  0.33002576  0.10003806
   0.66997324  0.66997325  0.10003806
   0.66666600  0.33333300  0.09925042
   0.33333300  0.66666600  0.10083236
   0.16666656  0.33333413  0.46769442
   0.33333409  0.16666655  0.46769444
   0.16666656  0.83333244  0.46769442
   0.33333300  0.66666600  0.46769441
   0.66666600  0.33333300  0.46769451
   0.83333245  0.16666655  0.46769444
   0.66666487  0.83333244  0.46769442
   0.83333245  0.66666491  0.46769444
Direct configuration=     9
   0.66997309 -0.00000010  0.10011188
   0.33002581 -0.00000010  0.10011188
   0.00000010  0.33002591  0.10011188
   0.00000010  0.66997319  0.10011188
   0.33002581  0.33002591  0.10011188
   0.66997309  0.66997319  0.10011188
   0.66666600  0.33333300  0.09930946
   0.33333300  0.66666600  0.10093277
   0.16667176  0.33334451  0.46761908
   0.33334419  0.16667160  0.46761916
   0.16667176  0.83332724  0.46761908
   0.33333300  0.66666600  0.46761908
   0.66666600  0.33333300  0.46761935
   0.83332740  0.16667160  0.46761916
   0.66665449  0.83332724  0.46761908
   0.83332740  0.66665481  0.46761916
Direct configuration=    10
   0.66997278 -0.00000028  0.10025952
   0.33002594 -0.00000028  0.10025952
   0.00000028  0.33002622  0.10025952
   0.00000028  0.66997306  0.10025952
   0.33002594  0.33002622  0.10025952
   0.66997278  0.66997306  0.10025952
   0.66666600  0.33333300  0.09942754
   0.33333300  0.66666600  0.10113358
   0.16668214  0.33336529  0.46746840
   0.33336440  0.16668170  0.46746859
   0.16668214  0.83331686  0.46746840
   0.33333300  0.66666600  0.46746842
   0.66666600  0.33333300  0.46746904
   0.83331730  0.16668170  0.46746859
   0.66663371  0.83331686  0.46746840
   0.83331730  0.66663460  0.46746859
Direct configuration=    11
   0.66997217 -0.00000065  0.10055480
   0.33002618 -0.00000065  0.10055480
   0.00000065  0.33002683  0.10055480
   0.00000065  0.66997282  0.10055480
   0.33002618  0.33002683  0.10055480
   0.66997217  0.66997282  0.10055480
   0.66666600  0.33333300  0.09966369
   0.33333300  0.66666600  0.10153521
   0.16670292  0.33340684  0.46716704
   0.33340480  0.16670190  0.46716745
   0.16670292  0.83329608  0.46716704
   0.33333300  0.66666600  0.46716711
   0.66666600  0.33333300  0.46716841
   0.83329710  0.16670190  0.46716745
   0.66659216  0.83329608  0.46716704
   0.83329710  0.66659420  0.46716745
Direct configuration=    12
   0.66997095 -0.00000138  0.10114535
   0.33002668 -0.00000138  0.10114535
   0.00000138  0.33002805  0.10114535
   0.00000138  0.66997232  0.10114535
   0.33002668  0.33002805  0.10114535
   0.66997095  0.66997232  0.10114535
   0.66666600  0.33333300  0.10013601
   0.33333300  0.66666600  0.10233847
   0.16674447  0.33348994  0.46656433
   0.33348562  0.16674231  0.46656516
   0.16674447  0.83325453  0.46656433
   0.33333300  0.66666600  0.46656448
   0.66666600  0.33333300  0.46656715
   0.83325669  0.16674231  0.46656516
   0.66650906  0.83325453  0.46656433
   0.83325669  0.66651338  0.46656516
Direct configuration=    13
   0.66996850 -0.00000284  0.10232645
   0.33002766 -0.00000284  0.10232645
   0.00000284  0.33003050  0.10232645
   0.00000284  0.66997134  0.10232645
   0.33002766  0.33003050  0.10232645
   0.66996850  0.66997134  0.10232645
   0.66666600  0.33333300  0.10108064
   0.33333300  0.66666600  0.10394497
   0.16682757  0.33365613  0.46535891
   0.33364724  0.16682312  0.46536059
   0.16682757  0.83317143  0.46535891
   0.33333300  0.66666600  0.46535921
   0.66666600  0.33333300  0.46536463
   0.83317588  0.16682312  0.46536059
   0.66634287  0.83317143  0.46535891
   0.83317588  0.66635176  0.46536059
Direct configuration=    14
   0.66996360 -0.00000576  0.10468866
   0.33002964 -0.00000576  0.10468866
   0.00000576  0.33003540  0.10468866
   0.00000576  0.66996936  0.10468866
   0.33002964  0.33003540  0.10468866
   0.66996360  0.66996936  0.10468866
   0.66666600  0.33333300  0.10296989
   0.33333300  0.66666600  0.10715799
   0.16699376  0.33398852  0.46294806
   0.33397050  0.16698475  0.46295146
   0.16699376  0.83300524  0.46294806
   0.33333300  0.66666600  0.46294868
   0.66666600  0.33333300  0.46295959
   0.83301425  0.16698475  0.46295146
   0.66601048  0.83300524  0.46294806
   0.83301425  0.66602850  0.46295146
Direct configuration=    15
   0.66995381 -0.00001159  0.10941308
   0.33003359 -0.00001159  0.10941308
   0.00001159  0.33004519  0.10941308
   0.00001159  0.66996541  0.10941308
   0.33003359  0.33004519  0.10941308
   0.66995381  0.66996541  0.10941308
   0.66666600  0.33333300  0.10674840
   0.33333300  0.66666600  0.11358402
   0.16732615  0.33465330  0.45812636
   0.33461700  0.16730800  0.45813318
   0.16732615  0.83267285  0.45812636
   0.33333300  0.66666600  0.45812762
   0.66666600  0.33333300  0.45814951
   0.83269100  0.16730800  0.45813318
   0.66534570  0.83267285  0.45812636
   0.83269100  0.66538200  0.45813318
Direct configuration=    16
   0.66993424 -0.00002327  0.11886192
   0.33004149 -0.00002327  0.11886192
   0.00002327  0.33006476  0.11886192
   0.00002327  0.66995751  0.11886192
   0.33004149  0.33006476  0.11886192
   0.66993424  0.66995751  0.11886192
   0.66666600  0.33333300  0.11430541
   0.33333300  0.66666600  0.12643609
   0.16799093  0.33598287  0.44848297
   0.33591001  0.16795450  0.44849664
   0.16799093  0.83200807  0.44848297
   0.33333300  0.66666600  0.44848550
   0.66666600  0.33333300  0.44852935
   0.83204450  0.16795450  0.44849664
   0.66401613  0.83200807  0.44848297
   0.83204450  0.66408899  0.44849664
Direct configuration=    17
   0.66989508 -0.00004663  0.13775959
   0.33005729 -0.00004663  0.13775959
   0.00004663  0.33010392  0.13775959
   0.00004663  0.66994171  0.13775959
   0.33005729  0.33010392  0.13775959
   0.66989508  0.66994171  0.13775959
   0.66666600  0.33333300  0.12941944
   0.33333300  0.66666600  0.15214022
   0.16932050  0.33864200  0.42919618
   0.33849603  0.16924751  0.42922354
   0.16932050  0.83067850  0.42919618
   0.33333300  0.66666600  0.42920127
   0.66666600  0.33333300  0.42928904
   0.83075149  0.16924751  0.42922354
   0.66135700  0.83067850  0.42919618
   0.83075149  0.66150297  0.42922354
Direct configuration=    18
   0.66991937 -0.00003214  0.12603387
   0.33004749 -0.00003214  0.12603387
   0.00003214  0.33007963  0.12603387
   0.00003214  0.66995151  0.12603387
   0.33004749  0.33007963  0.12603387
   0.66991937  0.66995151  0.12603387
   0.66666600  0.33333300  0.12004141
   0.33333300  0.66666600  0.13619119
   0.16849552  0.33699205  0.44116334
   0.33689144  0.16844522  0.44118221
   0.16849552  0.83150348  0.44116334
   0.33333300  0.66666600  0.44116685
   0.66666600  0.33333300  0.44122736
   0.83155378  0.16844522  0.44118221
   0.66300695  0.83150348  0.44116334
   0.83155378  0.66310756  0.44118221
Direct configuration=    19
   0.66991937 -0.00003214  0.12603460
   0.33004749 -0.00003214  0.12603460
   0.00003214  0.33007963  0.12603460
   0.00003214  0.66995151  0.12603460
   0.33004749  0.33007963  0.12603460
   0.66991937  0.66995151  0.12603460
   0.66666600  0.33333300  0.12004200
   0.33333300  0.66666600  0.13619219
   0.16849555  0.33699210  0.44116259
   0.33689149  0.16844525  0.44118146
   0.16849555  0.83150345  0.44116259
   0.33333300  0.66666600  0.44116610
   0.66666600  0.33333300  0.44122662
   0.83155375  0.16844525  0.44118146
   0.66300690  0.83150345  0.44116259
   0.83155375  0.66310751  0.44118146
Direct configuration=    20
   0.66991936 -0.00003215  0.12603680
   0.33004750 -0.00003215  0.12603680
   0.00003215  0.33007964  0.12603680
   0.00003215  0.66995150  0.12603680
   0.33004750  0.33007964  0.12603680
   0.66991936  0.66995150  0.12603680
   0.66666600  0.33333300  0.12004376
   0.33333300  0.66666600  0.13619518
   0.16849563  0.33699226  0.44116035
   0.33689164  0.16844532  0.44117921
   0.16849563  0.83150337  0.44116035
   0.33333300  0.66666600  0.44116385
   0.66666600  0.33333300  0.44122438
   0.83155368  0.16844532  0.44117921
   0.66300674  0.83150337  0.44116035
   0.83155368  0.66310736  0.44117921
Direct configuration=    21
   0.66991933 -0.00003216  0.12604120
   0.33004751 -0.00003216  0.12604120
   0.00003216  0.33007967  0.12604120
   0.00003216  0.66995149  0.12604120
   0.33004751  0.33007967  0.12604120
   0.66991933  0.66995149  0.12604120
   0.66666600  0.33333300  0.12004727
   0.33333300  0.66666600  0.13620116
   0.16849578  0.33699257  0.44115586
   0.33689195  0.16844547  0.44117473
   0.16849578  0.83150322  0.44115586
   0.33333300  0.66666600  0.44115936
   0.66666600  0.33333300  0.44121990
   0.83155353  0.16844547  0.44117473
   0.66300643  0.83150322  0.44115586
   0.83155353  0.66310705  0.44117473
Direct configuration=    22
   0.66991927 -0.00003219  0.12605001
   0.33004753 -0.00003219  0.12605001
   0.00003219  0.33007973  0.12605001
   0.00003219  0.66995147  0.12605001
   0.33004753  0.33007973  0.12605001
   0.66991927  0.66995147  0.12605001
   0.66666600  0.33333300  0.12005430
   0.33333300  0.66666600  0.13621313
   0.16849609  0.33699319  0.44114688
   0.33689255  0.16844578  0.44116575
   0.16849609  0.83150291  0.44114688
   0.33333300  0.66666600  0.44115038
   0.66666600  0.33333300  0.44121093
   0.83155322  0.16844578  0.44116575
   0.66300581  0.83150291  0.44114688
   0.83155322  0.66310645  0.44116575
Direct configuration=    23
   0.66991916 -0.00003226  0.12606761
   0.33004758 -0.00003226  0.12606761
   0.00003226  0.33007984  0.12606761
   0.00003226  0.66995142  0.12606761
   0.33004758  0.33007984  0.12606761
   0.66991916  0.66995142  0.12606761
   0.66666600  0.33333300  0.12006837
   0.33333300  0.66666600  0.13623705
   0.16849672  0.33699443  0.44112891
   0.33689376  0.16844638  0.44114780
   0.16849672  0.83150228  0.44112891
   0.33333300  0.66666600  0.44113242
   0.66666600  0.33333300  0.44119301
   0.83155262  0.16844638  0.44114780
   0.66300457  0.83150228  0.44112891
   0.83155262  0.66310524  0.44114780
Direct configuration=    24
   0.66991895 -0.00003238  0.12610282
   0.33004767 -0.00003238  0.12610282
   0.00003238  0.33008005  0.12610282
   0.00003238  0.66995133  0.12610282
   0.33004767  0.33008005  0.12610282
   0.66991895  0.66995133  0.12610282
   0.66666600  0.33333300  0.12009650
   0.33333300  0.66666600  0.13628490
   0.16849796  0.33699692  0.44109299
   0.33689619  0.16844759  0.44111190
   0.16849796  0.83150104  0.44109299
   0.33333300  0.66666600  0.44109650
   0.66666600  0.33333300  0.44115717
   0.83155141  0.16844759  0.44111190
   0.66300208  0.83150104  0.44109299
   0.83155141  0.66310281  0.44111190
Direct configuration=    25
   0.66991851 -0.00003263  0.12617325
   0.33004786 -0.00003263  0.12617325
   0.00003263  0.33008049  0.12617325
   0.00003263  0.66995114  0.12617325
   0.33004786  0.33008049  0.12617325
   0.66991851  0.66995114  0.12617325
   0.66666600  0.33333300  0.12015275
   0.33333300  0.66666600  0.13638060
   0.16850045  0.33700190  0.44102114
   0.33690104  0.16845002  0.44104010
   0.16850045  0.83149855  0.44102114
   0.33333300  0.66666600  0.44102466
   0.66666600  0.33333300  0.44108547
   0.83154898  0.16845002  0.44104010
   0.66299710  0.83149855  0.44102114
   0.83154898  0.66309796  0.44104010
Direct configuration=    26
   0.66991764 -0.00003313  0.12631410
   0.33004824 -0.00003313  0.12631410
   0.00003313  0.33008136  0.12631410
   0.00003313  0.66995076  0.12631410
   0.33004824  0.33008136  0.12631410
   0.66991764  0.66995076  0.12631410
   0.66666600  0.33333300  0.12026526
   0.33333300  0.66666600  0.13657199
   0.16850543  0.33701186  0.44087744
   0.33691073  0.16845487  0.44089649
   0.16850543  0.83149357  0.44087744
   0.33333300  0.66666600  0.44088097
   0.66666600  0.33333300  0.44094209
   0.83154413  0.16845487  0.44089649
   0.66298714  0.83149357  0.44087744
   0.83154413  0.66308827  0.44089649
Direct configuration=    27
   0.66991589 -0.00003413  0.12659579
   0.33004899 -0.00003413  0.12659579
   0.00003413  0.33008311  0.12659579
   0.00003413  0.66995001  0.12659579
   0.33004899  0.33008311  0.12659579
   0.66991589  0.66995001  0.12659579
   0.66666600  0.33333300  0.12049028
   0.33333300  0.66666600  0.13695478
   0.16851539  0.33703178  0.44059003
   0.33693013  0.16846456  0.44060928
   0.16851539  0.83148361  0.44059003
   0.33333300  0.66666600  0.44059359
   0.66666600  0.33333300  0.44065533
   0.83153444  0.16846456  0.44060928
   0.66296722  0.83148361  0.44059003
   0.83153444  0.66306887  0.44060928
Direct configuration=    28
   0.66991239 -0.00003612  0.12715918
   0.33005049 -0.00003612  0.12715918
   0.00003612  0.33008661  0.12715918
   0.00003612  0.66994851  0.12715918
   0.33005049  0.33008661  0.12715918
   0.66991239  0.66994851  0.12715918
   0.66666600  0.33333300  0.12094032
   0.33333300  0.66666600  0.13772037
   0.16853531  0.33707161  0.44001523
   0.33696892  0.16848396  0.44003486
   0.16853531  0.83146369  0.44001523
   0.33333300  0.66666600  0.44001883
   0.66666600  0.33333300  0.44008180
   0.83151504  0.16848396  0.44003486
   0.66292739  0.83146369  0.44001523
   0.83151504  0.66303008  0.44003486
Direct configuration=    29
   0.66990540 -0.00004011  0.12828597
   0.33005349 -0.00004011  0.12828597
   0.00004011  0.33009360  0.12828597
   0.00004011  0.66994551  0.12828597
   0.33005349  0.33009360  0.12828597
   0.66990540  0.66994551  0.12828597
   0.66666600  0.33333300  0.12184039
   0.33333300  0.66666600  0.13925153
   0.16857514  0.33715128  0.43886562
   0.33704649  0.16852275  0.43888601
   0.16857514  0.83142386  0.43886562
   0.33333300  0.66666600  0.43886931
   0.66666600  0.33333300  0.43893474
   0.83147625  0.16852275  0.43888601
   0.66284772  0.83142386  0.43886562
   0.83147625  0.66295251  0.43888601
Direct configuration=    30
   0.66989141 -0.00004809  0.13053954
   0.33005950 -0.00004809  0.13053954
   0.00004809  0.33010759  0.13053954
   0.00004809  0.66993950  0.13053954
   0.33005950  0.33010759  0.13053954
   0.66989141  0.66993950  0.13053954
   0.66666600  0.33333300  0.12364055
   0.33333300  0.66666600  0.14231387
   0.16865481  0.33731061  0.43656640
   0.33720164  0.16860032  0.43658832
   0.16865481  0.83134419  0.43656640
   0.33333300  0.66666600  0.43657027
   0.66666600  0.33333300  0.43664061
   0.83139868  0.16860032  0.43658832
   0.66268839  0.83134419  0.43656640
   0.83139868  0.66279736  0.43658832
Direct configuration=    31
   0.66986344 -0.00006405  0.13504667
   0.33007151 -0.00006405  0.13504667
   0.00006405  0.33013556  0.13504667
   0.00006405  0.66992749  0.13504667
   0.33007151  0.33013556  0.13504667
   0.66986344  0.66992749  0.13504667
   0.66666600  0.33333300  0.12724085
   0.33333300  0.66666600  0.14843853
   0.16881414  0.33762928  0.43196795
   0.33751195  0.16875547  0.43199294
   0.16881414  0.83118486  0.43196795
   0.33333300  0.66666600  0.43197220
   0.66666600  0.33333300  0.43205237
   0.83124353  0.16875547  0.43199294
   0.66236972  0.83118486  0.43196795
   0.83124353  0.66248705  0.43199294
Direct configuration=    32
   0.66980750 -0.00009597  0.14406095
   0.33009553 -0.00009597  0.14406095
   0.00009597  0.33019150  0.14406095
   0.00009597  0.66990347  0.14406095
   0.33009553  0.33019150  0.14406095
   0.66980750  0.66990347  0.14406095
   0.66666600  0.33333300  0.13444147
   0.33333300  0.66666600  0.16068786
   0.16913281  0.33826662  0.42277107
   0.33813255  0.16906578  0.42280217
   0.16913281  0.83086619  0.42277107
   0.33333300  0.66666600  0.42277605
   0.66666600  0.33333300  0.42287588
   0.83093322  0.16906578  0.42280217
   0.66173238  0.83086619  0.42277107
   0.83093322  0.66186645  0.42280217
Direct configuration=    33
   0.66969563 -0.00015980  0.16208950
   0.33014357 -0.00015980  0.16208950
   0.00015980  0.33030337  0.16208950
   0.00015980  0.66985543  0.16208950
   0.33014357  0.33030337  0.16208950
   0.66969563  0.66985543  0.16208950
   0.66666600  0.33333300  0.14884270
   0.33333300  0.66666600  0.18518652
   0.16977015  0.33954131  0.40437730
   0.33937376  0.16968638  0.40442064
   0.16977015  0.83022885  0.40437730
   0.33333300  0.66666600  0.40438375
   0.66666600  0.33333300  0.40452290
   0.83031262  0.16968638  0.40442064
   0.66045769  0.83022885  0.40437730
   0.83031262  0.66062524  0.40442064
Direct configuration=    34
   0.66975242 -0.00012740  0.15293769
   0.33011918 -0.00012740  0.15293769
   0.00012740  0.33024658  0.15293769
   0.00012740  0.66987982  0.15293769
   0.33011918  0.33024658  0.15293769
   0.66975242  0.66987982  0.15293769
   0.66666600  0.33333300  0.14153222
   0.33333300  0.66666600  0.17275029
   0.16944662  0.33889424  0.41371450
   0.33874369  0.16937134  0.41375164
   0.16944662  0.83055238  0.41371450
   0.33333300  0.66666600  0.41372021
   0.66666600  0.33333300  0.41383940
   0.83062766  0.16937134  0.41375164
   0.66110476  0.83055238  0.41371450
   0.83062766  0.66125531  0.41375164
Direct configuration=    35
   0.66972402 -0.00014360  0.15751359
   0.33013138 -0.00014360  0.15751359
   0.00014360  0.33027498  0.15751359
   0.00014360  0.66986762  0.15751359
   0.33013138  0.33027498  0.15751359
   0.66972402  0.66986762  0.15751359
   0.66666600  0.33333300  0.14518746
   0.33333300  0.66666600  0.17896841
   0.16960839  0.33921777  0.40904590
   0.33905873  0.16952886  0.40908614
   0.16960839  0.83039061  0.40904590
   0.33333300  0.66666600  0.40905198
   0.66666600  0.33333300  0.40918115
   0.83047014  0.16952886  0.40908614
   0.66078123  0.83039061  0.40904590
   0.83047014  0.66094027  0.40908614
Direct configuration=    36
   0.66958049 -0.00021812  0.16338267
   0.33020038 -0.00021812  0.16338267
   0.00021812  0.33041851  0.16338267
   0.00021812  0.66979862  0.16338267
   0.33020038  0.33041851  0.16338267
   0.66958049  0.66979862  0.16338267
   0.66666600  0.33333300  0.14986875
   0.33333300  0.66666600  0.18690467
   0.16950578  0.33901256  0.40306478
   0.33886406  0.16943153  0.40310735
   0.16950578  0.83049322  0.40306478
   0.33333300  0.66666600  0.40307056
   0.66666600  0.33333300  0.40321029
   0.83056747  0.16943153  0.40310735
   0.66098644  0.83049322  0.40306478
   0.83056747  0.66113494  0.40310735
Direct configuration=    37
   0.66954378 -0.00023719  0.16488394
   0.33021803 -0.00023719  0.16488394
   0.00023719  0.33045522  0.16488394
   0.00023719  0.66978097  0.16488394
   0.33021803  0.33045522  0.16488394
   0.66954378  0.66978097  0.16488394
   0.66666600  0.33333300  0.15106620
   0.33333300  0.66666600  0.18893472
   0.16947953  0.33896006  0.40153485
   0.33881427  0.16940664  0.40157801
   0.16947953  0.83051947  0.40153485
   0.33333300  0.66666600  0.40154054
   0.66666600  0.33333300  0.40168297
   0.83059236  0.16940664  0.40157801
   0.66103894  0.83051947  0.40153485
   0.83059236  0.66118473  0.40157801
Direct configuration=    38
   0.66942805 -0.00029635  0.16470155
   0.33027460 -0.00029635  0.16470155
   0.00029635  0.33057095  0.16470155
   0.00029635  0.66972440  0.16470155
   0.33027460  0.33057095  0.16470155
   0.66942805  0.66972440  0.16470155
   0.66666600  0.33333300  0.15091856
   0.33333300  0.66666600  0.18863007
   0.16916923  0.33833946  0.40173029
   0.33821895  0.16910897  0.40176991
   0.16916923  0.83082977  0.40173029
   0.33333300  0.66666600  0.40173458
   0.66666600  0.33333300  0.40187354
   0.83089003  0.16910897  0.40176991
   0.66165954  0.83082977  0.40173029
   0.83089003  0.66178005  0.40176991
Direct configuration=    39
   0.66908085 -0.00047383  0.16415437
   0.33044432 -0.00047383  0.16415437
   0.00047383  0.33091815  0.16415437
   0.00047383  0.66955468  0.16415437
   0.33044432  0.33091815  0.16415437
   0.66908085  0.66955468  0.16415437
   0.66666600  0.33333300  0.15047566
   0.33333300  0.66666600  0.18771613
   0.16823834  0.33647767  0.40231662
   0.33643297  0.16821599  0.40234562
   0.16823834  0.83176066  0.40231662
   0.33333300  0.66666600  0.40231668
   0.66666600  0.33333300  0.40244524
   0.83178301  0.16821599  0.40234562
   0.66352133  0.83176066  0.40231662
   0.83178301  0.66356603  0.40234562
Direct configuration=    40
   0.66838646 -0.00082879  0.16306002
   0.33078375 -0.00082879  0.16306002
   0.00082879  0.33161254  0.16306002
   0.00082879  0.66921525  0.16306002
   0.33078375  0.33161254  0.16306002
   0.66838646  0.66921525  0.16306002
   0.66666600  0.33333300  0.14958985
   0.33333300  0.66666600  0.18588824
   0.16637654  0.33275409  0.40348928
   0.33286103  0.16643001  0.40349704
   0.16637654  0.83362246  0.40348928
   0.33333300  0.66666600  0.40348088
   0.66666600  0.33333300  0.40358864
   0.83356899  0.16643001  0.40349704
   0.66724491  0.83362246  0.40348928
   0.83356899  0.66713797  0.40349704
Direct configuration=    41
   0.66845681 -0.00079283  0.16317089
   0.33074936 -0.00079283  0.16317089
   0.00079283  0.33154219  0.16317089
   0.00079283  0.66924964  0.16317089
   0.33074936  0.33154219  0.16317089
   0.66845681  0.66924964  0.16317089
   0.66666600  0.33333300  0.14967959
   0.33333300  0.66666600  0.18607342
   0.16656516  0.33313131  0.40337048
   0.33322289  0.16661095  0.40338039
   0.16656516  0.83343384  0.40337048
   0.33333300  0.66666600  0.40336293
   0.66666600  0.33333300  0.40347281
   0.83338805  0.16661095  0.40338039
   0.66686769  0.83343384  0.40337048
   0.83338805  0.66677611  0.40338039
Direct configuration=    42
   0.66834509 -0.00081771  0.16318331
   0.33083620 -0.00081771  0.16318331
   0.00081771  0.33165391  0.16318331
   0.00081771  0.66916280  0.16318331
   0.33083620  0.33165391  0.16318331
   0.66834509  0.66916280  0.16318331
   0.66666600  0.33333300  0.14968494
   0.33333300  0.66666600  0.18597262
   0.16657578  0.33315256  0.40337660
   0.33323749  0.16661825  0.40338155
   0.16657578  0.83342322  0.40337660
   0.33333300  0.66666600  0.40336600
   0.66666600  0.33333300  0.40346880
   0.83338075  0.16661825  0.40338155
   0.66684644  0.83342322  0.40337660
   0.83338075  0.66676151  0.40338155
Direct configuration=    43
   0.66800993 -0.00089234  0.16322058
   0.33109673 -0.00089234  0.16322058
   0.00089234  0.33198907  0.16322058
   0.00089234  0.66890227  0.16322058
   0.33109673  0.33198907  0.16322058
   0.66800993  0.66890227  0.16322058
   0.66666600  0.33333300  0.14970100
   0.33333300  0.66666600  0.18567021
   0.16660764  0.33321628  0.40339497
   0.33328128  0.16664014  0.40338504
   0.16660764  0.83339136  0.40339497
   0.33333300  0.66666600  0.40337519
   0.66666600  0.33333300  0.40345676
   0.83335886  0.16664014  0.40338504
   0.66678272  0.83339136  0.40339497
   0.83335886  0.66671772  0.40338504
Direct configuration=    44
   0.66733961 -0.00104160  0.16329511
   0.33161779 -0.00104160  0.16329511
   0.00104160  0.33265939  0.16329511
   0.00104160  0.66838121  0.16329511
   0.33161779  0.33265939  0.16329511
   0.66733961  0.66838121  0.16329511
   0.66666600  0.33333300  0.14973311
   0.33333300  0.66666600  0.18506541
   0.16667136  0.33334372  0.40343171
   0.33336887  0.16668393  0.40339203
   0.16667136  0.83332764  0.40343171
   0.33333300  0.66666600  0.40339358
   0.66666600  0.33333300  0.40343270
   0.83331507  0.16668393  0.40339203
   0.66665528  0.83332764  0.40343171
   0.83331507  0.66663013  0.40339203
Direct configuration=    45
   0.66746669 -0.00092190  0.16335066
   0.33161041 -0.00092190  0.16335066
   0.00092190  0.33253231  0.16335066
   0.00092190  0.66838859  0.16335066
   0.33161041  0.33253231  0.16335066
   0.66746669  0.66838859  0.16335066
   0.66666600  0.33333300  0.14976110
   0.33333300  0.66666600  0.18473370
   0.16665534  0.33331167  0.40343504
   0.33335544  0.16667722  0.40338539
   0.16665534  0.83334366  0.40343504
   0.33333300  0.66666600  0.40339794
   0.66666600  0.33333300  0.40340871
   0.83332178  0.16667722  0.40338539
   0.66668733  0.83334366  0.40343504
   0.83332178  0.66664356  0.40338539
Direct configuration=    46
   0.66784793 -0.00056279  0.16351730
   0.33158828 -0.00056279  0.16351730
   0.00056279  0.33215107  0.16351730
   0.00056279  0.66841072  0.16351730
   0.33158828  0.33215107  0.16351730
   0.66784793  0.66841072  0.16351730
   0.66666600  0.33333300  0.14984505
   0.33333300  0.66666600  0.18373859
   0.16660726  0.33321551  0.40344502
   0.33331518  0.16665709  0.40336547
   0.16660726  0.83339174  0.40344502
   0.33333300  0.66666600  0.40341102
   0.66666600  0.33333300  0.40333672
   0.83334191  0.16665709  0.40336547
   0.66678349  0.83339174  0.40344502
   0.83334191  0.66668382  0.40336547
Direct configuration=    47
   0.66861042  0.00015543  0.16385059
   0.33154401  0.00015543  0.16385059
  -0.00015543  0.33138858  0.16385059
  -0.00015543  0.66845499  0.16385059
   0.33154401  0.33138858  0.16385059
   0.66861042  0.66845499  0.16385059
   0.66666600  0.33333300  0.15001295
   0.33333300  0.66666600  0.18174836
   0.16651110  0.33302319  0.40346499
   0.33323465  0.16661682  0.40332564
   0.16651110  0.83348790  0.40346499
   0.33333300  0.66666600  0.40343719
   0.66666600  0.33333300  0.40319274