  16  16   0  16
  0.2037874E+02  0.5010000E-09  0.5010000E-09  0.1500000E-08  0.5000000E-15
  1.000000000000000E-004
  CAR 
 Lattice                                 
      9.86856382    -21.40475195  301     -0.91505800      1.00000000
    -21.405  0.0000E+00  0.0000E+00  0.0000E+00  0.0000E+00
    -21.301  0.0000E+00  0.0000E+00  0.0000E+00  0.0000E+00
    -21.196  0.0000E+00  0.0000E+00  0.0000E+00  0.0000E+00
    -21.092  0.0000E+00  0.0000E+00  0.0000E+00  0.0000E+00
    -20.988  0.0000E+00  0.0000E+00  0.0000E+00  0.0000E+00
    -20.884  0.0000E+00  0.0000E+00  0.0000E+00  0.0000E+00
    -20.779  0.0000E+00  0.0000E+00  0.0000E+00  0.0000E+00
    -20.675  0.0000E+00  0.0000E+00  0.0000E+00  0.0000E+00
    -20.571  0.2889E-19  0.2889E-19  0.3012E-20  0.3012E-20
    -20.467  0.2345E-14  0.2345E-14  0.2445E-15  0.2445E-15
    -20.362  0.2641E-10  0.2641E-10  0.2753E-11  0.2753E-11
    -20.258  0.3978E-07  0.3978E-07  0.4150E-08  0.4150E-08
    -20.154  0.8694E-05  0.8694E-05  0.9105E-06  0.9105E-06
    -20.050  0.3048E-03  0.3048E-03  0.3268E-04  0.3268E-04
    -19.945  0.2099E-02  0.2099E-02  0.2515E-03  0.2515E-03
    -19.841  0.4362E-02  0.4362E-02  0.7062E-03  0.7062E-03
    -19.737  0.4838E-02  0.4838E-02  0.1211E-02  0.1211E-02
    -19.633  0.5124E-02  0.5124E-02  0.1745E-02  0.1745E-02
    -19.528  0.4559E-02  0.4559E-02  0.2220E-02  0.2220E-02
    -19.424  0.5636E-02  0.5636E-02  0.2807E-02  0.2807E-02
    -19.320  0.4232E-02  0.4232E-02  0.3249E-02  0.3249E-02
    -19.216  0.5115E-02  0.5115E-02  0.3782E-02  0.3782E-02
    -19.111  0.5933E-02  0.5933E-02  0.4400E-02  0.4400E-02
    -19.007  0.3618E-02  0.3618E-02  0.4777E-02  0.4777E-02
    -18.903  0.5126E-02  0.5126E-02  0.5312E-02  0.5312E-02
    -18.799  0.6344E-02  0.6344E-02  0.5973E-02  0.5973E-02
    -18.694  0.4534E-02  0.4534E-02  0.6446E-02  0.6446E-02
    -18.590  0.3203E-02  0.3203E-02  0.6780E-02  0.6780E-02
    -18.486  0.6511E-02  0.6511E-02  0.7458E-02  0.7458E-02
    -18.382  0.6149E-02  0.6149E-02  0.8099E-02  0.8099E-02
    -18.277  0.4234E-02  0.4234E-02  0.8541E-02  0.8541E-02
    -18.173  0.3367E-02  0.3367E-02  0.8892E-02  0.8892E-02
    -18.069  0.6237E-02  0.6237E-02  0.9542E-02  0.9542E-02
    -17.965  0.1135E-01  0.1135E-01  0.1073E-01  0.1073E-01
    -17.860  0.1112E-01  0.1112E-01  0.1188E-01  0.1188E-01
    -17.756  0.1070E-01  0.1070E-01  0.1300E-01  0.1300E-01
    -17.652  0.1252E-01  0.1252E-01  0.1431E-01  0.1431E-01
    -17.548  0.1552E-01  0.1552E-01  0.1592E-01  0.1592E-01
    -17.443  0.1943E-01  0.1943E-01  0.1795E-01  0.1795E-01
    -17.339  0.2045E-01  0.2045E-01  0.2008E-01  0.2008E-01
    -17.235  0.1220E-01  0.1220E-01  0.2135E-01  0.2135E-01
    -17.131  0.5363E-02  0.5363E-02  0.2191E-01  0.2191E-01
    -17.026  0.7013E-02  0.7013E-02  0.2264E-01  0.2264E-01
    -16.922  0.6875E-02  0.6875E-02  0.2336E-01  0.2336E-01
    -16.818  0.5678E-02  0.5678E-02  0.2395E-01  0.2395E-01
    -16.714  0.4670E-02  0.4670E-02  0.2444E-01  0.2444E-01
    -16.610  0.3090E-02  0.3090E-02  0.2476E-01  0.2476E-01
    -16.505  0.3252E-02  0.3252E-02  0.2510E-01  0.2510E-01
    -16.401  0.8830E-02  0.8830E-02  0.2602E-01  0.2602E-01
    -16.297  0.7033E-02  0.7033E-02  0.2675E-01  0.2675E-01
    -16.193  0.4787E-02  0.4787E-02  0.2725E-01  0.2725E-01
    -16.088  0.4263E-02  0.4263E-02  0.2770E-01  0.2770E-01
    -15.984  0.4317E-02  0.4317E-02  0.2815E-01  0.2815E-01
    -15.880  0.3425E-02  0.3425E-02  0.2850E-01  0.2850E-01
    -15.776  0.7243E-02  0.7243E-02  0.2926E-01  0.2926E-01
    -15.671  0.1206E-01  0.1206E-01  0.3052E-01  0.3052E-01
    -15.567  0.1295E-01  0.1295E-01  0.3187E-01  0.3187E-01
    -15.463  0.1522E-01  0.1522E-01  0.3345E-01  0.3345E-01
    -15.359  0.1525E-01  0.1525E-01  0.3504E-01  0.3504E-01
    -15.254  0.1236E-01  0.1236E-01  0.3633E-01  0.3633E-01
    -15.150  0.1274E-01  0.1274E-01  0.3766E-01  0.3766E-01
    -15.046  0.1706E-01  0.1706E-01  0.3944E-01  0.3944E-01
    -14.942  0.1634E-01  0.1634E-01  0.4114E-01  0.4114E-01
    -14.837  0.1350E-01  0.1350E-01  0.4255E-01  0.4255E-01
    -14.733  0.1132E-01  0.1132E-01  0.4373E-01  0.4373E-01
    -14.629  0.8894E-02  0.8894E-02  0.4466E-01  0.4466E-01
    -14.525  0.1285E-01  0.1285E-01  0.4600E-01  0.4600E-01
    -14.420  0.1911E-01  0.1911E-01  0.4799E-01  0.4799E-01
    -14.316  0.1711E-01  0.1711E-01  0.4977E-01  0.4977E-01
    -14.212  0.1109E-01  0.1109E-01  0.5093E-01  0.5093E-01
    -14.108  0.8478E-02  0.8478E-02  0.5181E-01  0.5181E-01
    -14.003  0.7386E-02  0.7386E-02  0.5258E-01  0.5258E-01
    -13.899  0.8424E-02  0.8424E-02  0.5346E-01  0.5346E-01
    -13.795  0.8152E-02  0.8152E-02  0.5431E-01  0.5431E-01
    -13.691  0.5270E-02  0.5270E-02  0.5486E-01  0.5486E-01
    -13.586  0.4841E-02  0.4841E-02  0.5536E-01  0.5536E-01
    -13.482  0.4261E-02  0.4261E-02  0.5581E-01  0.5581E-01
    -13.378  0.5607E-02  0.5607E-02  0.5639E-01  0.5639E-01
    -13.274  0.5661E-02  0.5661E-02  0.5698E-01  0.5698E-01
    -13.169  0.6124E-02  0.6124E-02  0.5762E-01  0.5762E-01
    -13.065  0.7730E-02  0.7730E-02  0.5843E-01  0.5843E-01
    -12.961  0.6610E-02  0.6610E-02  0.5912E-01  0.5912E-01
    -12.857  0.8617E-02  0.8617E-02  0.6001E-01  0.6001E-01
    -12.752  0.6737E-02  0.6737E-02  0.6072E-01  0.6072E-01
    -12.648  0.5863E-02  0.5863E-02  0.6133E-01  0.6133E-01
    -12.544  0.6236E-02  0.6236E-02  0.6198E-01  0.6198E-01
    -12.440  0.3185E-02  0.3185E-02  0.6231E-01  0.6231E-01
    -12.335  0.7843E-02  0.7843E-02  0.6313E-01  0.6313E-01
    -12.231  0.7896E-02  0.7896E-02  0.6395E-01  0.6395E-01
    -12.127  0.5720E-02  0.5720E-02  0.6455E-01  0.6455E-01
    -12.023  0.9629E-02  0.9629E-02  0.6555E-01  0.6555E-01
    -11.919  0.1500E-01  0.1500E-01  0.6711E-01  0.6711E-01
    -11.814  0.1639E-01  0.1639E-01  0.6882E-01  0.6882E-01
    -11.710  0.1446E-01  0.1446E-01  0.7033E-01  0.7033E-01
    -11.606  0.1398E-01  0.1398E-01  0.7179E-01  0.7179E-01
    -11.502  0.1658E-01  0.1658E-01  0.7351E-01  0.7351E-01
    -11.397  0.1152E-01  0.1152E-01  0.7472E-01  0.7472E-01
    -11.293  0.8236E-02  0.8236E-02  0.7557E-01  0.7557E-01
    -11.189  0.1002E-01  0.1002E-01  0.7662E-01  0.7662E-01
    -11.085  0.1248E-01  0.1248E-01  0.7792E-01  0.7792E-01
    -10.980  0.9229E-02  0.9229E-02  0.7888E-01  0.7888E-01
    -10.876  0.5616E-02  0.5616E-02  0.7947E-01  0.7947E-01
    -10.772  0.1173E-01  0.1173E-01  0.8069E-01  0.8069E-01
    -10.668  0.1650E-01  0.1650E-01  0.8241E-01  0.8241E-01
    -10.563  0.1307E-01  0.1307E-01  0.8377E-01  0.8377E-01
    -10.459  0.6368E-02  0.6368E-02  0.8444E-01  0.8444E-01
    -10.355  0.7527E-02  0.7527E-02  0.8522E-01  0.8522E-01
    -10.251  0.1766E-01  0.1766E-01  0.8706E-01  0.8706E-01
    -10.146  0.1848E-01  0.1848E-01  0.8899E-01  0.8899E-01
    -10.042  0.1063E-01  0.1063E-01  0.9010E-01  0.9010E-01
     -9.938  0.8697E-02  0.8697E-02  0.9100E-01  0.9100E-01
     -9.834  0.6932E-02  0.6932E-02  0.9173E-01  0.9173E-01
     -9.729  0.1144E-01  0.1144E-01  0.9292E-01  0.9292E-01
     -9.625  0.1194E-01  0.1194E-01  0.9416E-01  0.9416E-01
     -9.521  0.1174E-01  0.1174E-01  0.9539E-01  0.9539E-01
     -9.417  0.8698E-02  0.8698E-02  0.9629E-01  0.9629E-01
     -9.312  0.8679E-02  0.8679E-02  0.9720E-01  0.9720E-01
     -9.208  0.1064E-01  0.1064E-01  0.9831E-01  0.9831E-01
     -9.104  0.4078E-02  0.4078E-02  0.9873E-01  0.9873E-01
     -9.000  0.3265E-02  0.3265E-02  0.9907E-01  0.9907E-01
     -8.895  0.1186E-01  0.1186E-01  0.1003E+00  0.1003E+00
     -8.791  0.1770E-01  0.1770E-01  0.1022E+00  0.1022E+00
     -8.687  0.1778E-01  0.1778E-01  0.1040E+00  0.1040E+00
     -8.583  0.9070E-02  0.9070E-02  0.1050E+00  0.1050E+00
     -8.478  0.8600E-02  0.8600E-02  0.1059E+00  0.1059E+00
     -8.374  0.9253E-02  0.9253E-02  0.1068E+00  0.1068E+00
     -8.270  0.1543E-01  0.1543E-01  0.1084E+00  0.1084E+00
     -8.166  0.2611E-01  0.2611E-01  0.1111E+00  0.1111E+00
     -8.061  0.2330E-01  0.2330E-01  0.1136E+00  0.1136E+00
     -7.957  0.1727E-01  0.1727E-01  0.1154E+00  0.1154E+00
     -7.853  0.1332E-01  0.1332E-01  0.1168E+00  0.1168E+00
     -7.749  0.1316E-01  0.1316E-01  0.1181E+00  0.1181E+00
     -7.644  0.2397E-01  0.2397E-01  0.1206E+00  0.1206E+00
     -7.540  0.2535E-01  0.2535E-01  0.1233E+00  0.1233E+00
     -7.436  0.2140E-01  0.2140E-01  0.1255E+00  0.1255E+00
     -7.332  0.2274E-01  0.2274E-01  0.1279E+00  0.1279E+00
     -7.228  0.2352E-01  0.2352E-01  0.1303E+00  0.1303E+00
     -7.123  0.2223E-01  0.2223E-01  0.1326E+00  0.1326E+00
     -7.019  0.2723E-01  0.2723E-01  0.1355E+00  0.1355E+00
     -6.915  0.2523E-01  0.2523E-01  0.1381E+00  0.1381E+00
     -6.811  0.1654E-01  0.1654E-01  0.1398E+00  0.1398E+00
     -6.706  0.2205E-01  0.2205E-01  0.1421E+00  0.1421E+00
     -6.602  0.2807E-01  0.2807E-01  0.1451E+00  0.1451E+00
     -6.498  0.2541E-01  0.2541E-01  0.1477E+00  0.1477E+00
     -6.394  0.2310E-01  0.2310E-01  0.1501E+00  0.1501E+00
     -6.289  0.2221E-01  0.2221E-01  0.1524E+00  0.1524E+00
     -6.185  0.2415E-01  0.2415E-01  0.1550E+00  0.1550E+00
     -6.081  0.2071E-01  0.2071E-01  0.1571E+00  0.1571E+00
     -5.977  0.1754E-01  0.1754E-01  0.1589E+00  0.1589E+00
     -5.872  0.1915E-01  0.1915E-01  0.1609E+00  0.1609E+00
     -5.768  0.2348E-01  0.2348E-01  0.1634E+00  0.1634E+00
     -5.664  0.2075E-01  0.2075E-01  0.1655E+00  0.1655E+00
     -5.560  0.2042E-01  0.2042E-01  0.1677E+00  0.1677E+00
     -5.455  0.2204E-01  0.2204E-01  0.1700E+00  0.1700E+00
     -5.351  0.2628E-01  0.2628E-01  0.1727E+00  0.1727E+00
     -5.247  0.2725E-01  0.2725E-01  0.1756E+00  0.1756E+00
     -5.143  0.1906E-01  0.1906E-01  0.1775E+00  0.1775E+00
     -5.038  0.9953E-02  0.9953E-02  0.1786E+00  0.1786E+00
     -4.934  0.1469E-01  0.1469E-01  0.1801E+00  0.1801E+00
     -4.830  0.1975E-01  0.1975E-01  0.1822E+00  0.1822E+00
     -4.726  0.1868E-01  0.1868E-01  0.1841E+00  0.1841E+00
     -4.621  0.1482E-01  0.1482E-01  0.1857E+00  0.1857E+00
     -4.517  0.1611E-01  0.1611E-01  0.1873E+00  0.1873E+00
     -4.413  0.1787E-01  0.1787E-01  0.1892E+00  0.1892E+00
     -4.309  0.2173E-01  0.2173E-01  0.1915E+00  0.1915E+00
     -4.204  0.2409E-01  0.2409E-01  0.1940E+00  0.1940E+00
     -4.100  0.3447E-01  0.3447E-01  0.1976E+00  0.1976E+00
     -3.996  0.3845E-01  0.3845E-01  0.2016E+00  0.2016E+00
     -3.892  0.3047E-01  0.3047E-01  0.2048E+00  0.2048E+00
     -3.787  0.1917E-01  0.1917E-01  0.2068E+00  0.2068E+00
     -3.683  0.1500E-01  0.1500E-01  0.2083E+00  0.2083E+00
     -3.579  0.1701E-01  0.1701E-01  0.2101E+00  0.2101E+00
     -3.475  0.1617E-01  0.1617E-01  0.2118E+00  0.2118E+00
     -3.370  0.2042E-01  0.2042E-01  0.2139E+00  0.2139E+00
     -3.266  0.1750E-01  0.1750E-01  0.2157E+00  0.2157E+00
     -3.162  0.1463E-01  0.1463E-01  0.2173E+00  0.2173E+00
     -3.058  0.1487E-01  0.1487E-01  0.2188E+00  0.2188E+00
     -2.953  0.1782E-01  0.1782E-01  0.2207E+00  0.2207E+00
     -2.849  0.2605E-01  0.2605E-01  0.2234E+00  0.2234E+00
     -2.745  0.1666E-01  0.1666E-01  0.2251E+00  0.2251E+00
     -2.641  0.1161E-01  0.1161E-01  0.2263E+00  0.2263E+00
     -2.537  0.1813E-01  0.1813E-01  0.2282E+00  0.2282E+00
     -2.432  0.2243E-01  0.2243E-01  0.2306E+00  0.2306E+00
     -2.328  0.2034E-01  0.2034E-01  0.2327E+00  0.2327E+00
     -2.224  0.1911E-01  0.1911E-01  0.2347E+00  0.2347E+00
     -2.120  0.1972E-01  0.1972E-01  0.2367E+00  0.2367E+00
     -2.015  0.1115E-01  0.1115E-01  0.2379E+00  0.2379E+00
     -1.911  0.2777E-02  0.2777E-02  0.2382E+00  0.2382E+00
     -1.807  0.5368E-02  0.5368E-02  0.2387E+00  0.2387E+00
     -1.703  0.7377E-02  0.7377E-02  0.2395E+00  0.2395E+00
     -1.598  0.5201E-02  0.5201E-02  0.2400E+00  0.2400E+00
     -1.494  0.6542E-02  0.6542E-02  0.2407E+00  0.2407E+00
     -1.390  0.6152E-02  0.6152E-02  0.2414E+00  0.2414E+00
     -1.286  0.4082E-02  0.4082E-02  0.2418E+00  0.2418E+00
     -1.181  0.2213E-02  0.2213E-02  0.2420E+00  0.2420E+00
     -1.077  0.4897E-03  0.4897E-03  0.2421E+00  0.2421E+00
     -0.973  0.2931E-03  0.2931E-03  0.2421E+00  0.2421E+00
     -0.869  0.2001E-02  0.2001E-02  0.2423E+00  0.2423E+00
     -0.764  0.3842E-02  0.3842E-02  0.2427E+00  0.2427E+00
     -0.660  0.4065E-02  0.4065E-02  0.2431E+00  0.2431E+00
     -0.556  0.8493E-02  0.8493E-02  0.2440E+00  0.2440E+00
     -0.452  0.1101E-01  0.1101E-01  0.2452E+00  0.2452E+00
     -0.347  0.8992E-02  0.8992E-02  0.2461E+00  0.2461E+00
     -0.243  0.1153E-01  0.1153E-01  0.2473E+00  0.2473E+00
     -0.139  0.1185E-01  0.1185E-01  0.2485E+00  0.2485E+00
     -0.035  0.8389E-02  0.8389E-02  0.2494E+00  0.2494E+00
      0.070  0.3949E-02  0.3949E-02  0.2498E+00  0.2498E+00
      0.174  0.1328E-02  0.1328E-02  0.2500E+00  0.2500E+00
      0.278  0.7431E-03  0.7432E-03  0.2500E+00  0.2500E+00
      0.382  0.3831E-02  0.3831E-02  0.2504E+00  0.2504E+00
      0.487  0.9006E-02  0.9006E-02  0.2514E+00  0.2514E+00
      0.591  0.9371E-02  0.9371E-02  0.2524E+00  0.2524E+00
      0.695  0.4711E-02  0.4711E-02  0.2529E+00  0.2529E+00
      0.799  0.5105E-02  0.5106E-02  0.2534E+00  0.2534E+00
      0.904  0.1043E-01  0.1043E-01  0.2545E+00  0.2545E+00
      1.008  0.1212E-01  0.1212E-01  0.2557E+00  0.2557E+00
      1.112  0.1251E-01  0.1251E-01  0.2570E+00  0.2570E+00
      1.216  0.7193E-02  0.7193E-02  0.2578E+00  0.2578E+00
      1.321  0.4290E-02  0.4290E-02  0.2582E+00  0.2582E+00
      1.425  0.5449E-02  0.5449E-02  0.2588E+00  0.2588E+00
      1.529  0.4710E-02  0.4710E-02  0.2593E+00  0.2593E+00
      1.633  0.5070E-02  0.5070E-02  0.2598E+00  0.2598E+00
      1.738  0.8398E-02  0.8398E-02  0.2607E+00  0.2607E+00
      1.842  0.1151E-01  0.1151E-01  0.2619E+00  0.2619E+00
      1.946  0.6115E-02  0.6115E-02  0.2625E+00  0.2625E+00
      2.050  0.2423E-02  0.2423E-02  0.2628E+00  0.2628E+00
      2.154  0.4226E-02  0.4226E-02  0.2632E+00  0.2632E+00
      2.259  0.1147E-01  0.1147E-01  0.2644E+00  0.2644E+00
      2.363  0.1665E-01  0.1665E-01  0.2662E+00  0.2662E+00
      2.467  0.1249E-01  0.1249E-01  0.2675E+00  0.2675E+00
      2.571  0.1076E-01  0.1076E-01  0.2686E+00  0.2686E+00
      2.676  0.1202E-01  0.1202E-01  0.2698E+00  0.2698E+00
      2.780  0.1158E-01  0.1158E-01  0.2710E+00  0.2710E+00
      2.884  0.1037E-01  0.1038E-01  0.2721E+00  0.2721E+00
      2.988  0.8374E-02  0.8379E-02  0.2730E+00  0.2730E+00
      3.093  0.1064E-01  0.1064E-01  0.2741E+00  0.2741E+00
      3.197  0.1332E-01  0.1332E-01  0.2755E+00  0.2755E+00
      3.301  0.1331E-01  0.1331E-01  0.2769E+00  0.2769E+00
      3.405  0.1316E-01  0.1316E-01  0.2783E+00  0.2783E+00
      3.510  0.9886E-02  0.9890E-02  0.2793E+00  0.2793E+00
      3.614  0.1048E-01  0.1049E-01  0.2804E+00  0.2804E+00
      3.718  0.1085E-01  0.1085E-01  0.2815E+00  0.2815E+00
      3.822  0.1114E-01  0.1114E-01  0.2827E+00  0.2827E+00
      3.927  0.1236E-01  0.1237E-01  0.2840E+00  0.2840E+00
      4.031  0.1578E-01  0.1578E-01  0.2856E+00  0.2856E+00
      4.135  0.1593E-01  0.1592E-01  0.2873E+00  0.2873E+00
      4.239  0.1131E-01  0.1130E-01  0.2884E+00  0.2884E+00
      4.344  0.1364E-01  0.1365E-01  0.2899E+00  0.2899E+00
      4.448  0.2129E-01  0.2130E-01  0.2921E+00  0.2921E+00
      4.552  0.1627E-01  0.1627E-01  0.2938E+00  0.2938E+00
      4.656  0.9142E-02  0.9125E-02  0.2947E+00  0.2947E+00
      4.761  0.1115E-01  0.1117E-01  0.2959E+00  0.2959E+00
      4.865  0.2051E-01  0.2054E-01  0.2980E+00  0.2980E+00
      4.969  0.2079E-01  0.2079E-01  0.3002E+00  0.3002E+00
      5.073  0.1681E-01  0.1680E-01  0.3020E+00  0.3020E+00
      5.178  0.1547E-01  0.1546E-01  0.3036E+00  0.3036E+00
      5.282  0.1629E-01  0.1628E-01  0.3053E+00  0.3053E+00
      5.386  0.1495E-01  0.1496E-01  0.3068E+00  0.3068E+00
      5.490  0.2010E-01  0.2011E-01  0.3089E+00  0.3089E+00
      5.595  0.2160E-01  0.2158E-01  0.3112E+00  0.3112E+00
      5.699  0.1316E-01  0.1316E-01  0.3125E+00  0.3126E+00
      5.803  0.1176E-01  0.1176E-01  0.3138E+00  0.3138E+00
      5.907  0.1634E-01  0.1634E-01  0.3155E+00  0.3155E+00
      6.012  0.1648E-01  0.1647E-01  0.3172E+00  0.3172E+00
      6.116  0.2032E-01  0.2033E-01  0.3193E+00  0.3193E+00
      6.220  0.2816E-01  0.2817E-01  0.3222E+00  0.3223E+00
      6.324  0.2880E-01  0.2879E-01  0.3252E+00  0.3253E+00
      6.428  0.2465E-01  0.2464E-01  0.3278E+00  0.3278E+00
      6.533  0.2051E-01  0.2050E-01  0.3300E+00  0.3300E+00
      6.637  0.1684E-01  0.1685E-01  0.3317E+00  0.3317E+00
      6.741  0.1904E-01  0.1907E-01  0.3337E+00  0.3337E+00
      6.845  0.3198E-01  0.3197E-01  0.3370E+00  0.3370E+00
      6.950  0.3215E-01  0.3214E-01  0.3404E+00  0.3404E+00
      7.054  0.2885E-01  0.2885E-01  0.3434E+00  0.3434E+00
      7.158  0.2954E-01  0.2953E-01  0.3465E+00  0.3465E+00
      7.262  0.3555E-01  0.3557E-01  0.3502E+00  0.3502E+00
      7.367  0.3337E-01  0.3337E-01  0.3537E+00  0.3537E+00
      7.471  0.2638E-01  0.2638E-01  0.3564E+00  0.3564E+00
      7.575  0.3531E-01  0.3531E-01  0.3601E+00  0.3601E+00
      7.679  0.3653E-01  0.3654E-01  0.3639E+00  0.3639E+00
      7.784  0.3334E-01  0.3336E-01  0.3674E+00  0.3674E+00
      7.888  0.2880E-01  0.2880E-01  0.3704E+00  0.3704E+00
      7.992  0.2071E-01  0.2067E-01  0.3725E+00  0.3725E+00
      8.096  0.1193E-01  0.1190E-01  0.3738E+00  0.3738E+00
      8.201  0.6138E-02  0.6120E-02  0.3744E+00  0.3744E+00
      8.305  0.1214E-02  0.1208E-02  0.3745E+00  0.3745E+00
      8.409  0.1686E-02  0.1687E-02  0.3747E+00  0.3747E+00
      8.513  0.2147E-02  0.2146E-02  0.3749E+00  0.3749E+00
      8.618  0.5635E-03  0.5622E-03  0.3750E+00  0.3750E+00
      8.722  0.2498E-04  0.2486E-04  0.3750E+00  0.3750E+00
      8.826  0.1572E-06  0.1562E-06  0.3750E+00  0.3750E+00
      8.930  0.1268E-09  0.1257E-09  0.3750E+00  0.3750E+00
      9.035  0.1247E-13  0.1232E-13  0.3750E+00  0.3750E+00
      9.139  0.0000E+00  0.0000E+00  0.3750E+00  0.3750E+00
      9.243  0.0000E+00  0.0000E+00  0.3750E+00  0.3750E+00
      9.347  0.0000E+00  0.0000E+00  0.3750E+00  0.3750E+00
      9.452  0.0000E+00  0.0000E+00  0.3750E+00  0.3750E+00
      9.556  0.0000E+00  0.0000E+00  0.3750E+00  0.3750E+00
      9.660  0.0000E+00  0.0000E+00  0.3750E+00  0.3750E+00
      9.764  0.0000E+00  0.0000E+00  0.3750E+00  0.3750E+00
      9.869  0.0000E+00  0.0000E+00  0.3750E+00  0.3750E+00
