       N       E                     dE             d eps       ncg     rms          rms(c)
DAV:   1     0.262941450054E+03    0.26294E+03   -0.28922E+04 14208   0.968E+02
DAV:   2    -0.131252556462E+03   -0.39419E+03   -0.39364E+03 21840   0.183E+02
DAV:   3    -0.146709132613E+03   -0.15457E+02   -0.15437E+02 25200   0.498E+01
DAV:   4    -0.146759400656E+03   -0.50268E-01   -0.50243E-01 21984   0.258E+00
DAV:   5    -0.146759472634E+03   -0.71978E-04   -0.71977E-04 23808   0.106E-01    0.257E+01
DAV:   6    -0.107536085221E+03    0.39223E+02   -0.65854E+01 24288   0.265E+01    0.150E+01
DAV:   7    -0.114467564246E+03   -0.69315E+01   -0.10864E+01 23184   0.114E+01    0.870E+00
DAV:   8    -0.123423152104E+03   -0.89556E+01   -0.82989E+00 25056   0.908E+00    0.466E+00
DAV:   9    -0.131524079713E+03   -0.81009E+01   -0.45584E+00 19248   0.741E+00    0.305E+00
DAV:  10    -0.138458779898E+03   -0.69347E+01   -0.96504E+00 20688   0.771E+00    0.178E+00
DAV:  11    -0.139810213258E+03   -0.13514E+01   -0.14804E+00 20208   0.314E+00    0.123E+00
DAV:  12    -0.140068377508E+03   -0.25816E+00   -0.38024E-01 19776   0.168E+00    0.487E-01
DAV:  13    -0.140131731602E+03   -0.63354E-01   -0.50001E-02 17712   0.841E-01    0.217E-01
DAV:  14    -0.140157280336E+03   -0.25549E-01   -0.90524E-03 17616   0.338E-01    0.110E-01
DAV:  15    -0.140167733484E+03   -0.10453E-01   -0.54742E-03 18480   0.201E-01    0.533E-02
DAV:  16    -0.140169823940E+03   -0.20905E-02   -0.10982E-03 16368   0.109E-01    0.307E-02
DAV:  17    -0.140171789601E+03   -0.19657E-02   -0.29219E-04 14928   0.681E-02    0.192E-02
DAV:  18    -0.140172990750E+03   -0.12011E-02   -0.13614E-04 15360   0.482E-02    0.146E-02
DAV:  19    -0.140173573597E+03   -0.58285E-03   -0.67334E-05 18240   0.382E-02    0.873E-03
DAV:  20    -0.140173771850E+03   -0.19825E-03   -0.28423E-05 16272   0.253E-02    0.507E-03
DAV:  21    -0.140173802029E+03   -0.30179E-04   -0.10823E-05 19296   0.158E-02    0.316E-03
DAV:  22    -0.140173844598E+03   -0.42569E-04   -0.54910E-06 20352   0.944E-03    0.223E-03
DAV:  23    -0.140173861929E+03   -0.17331E-04   -0.22574E-06 21936   0.505E-03    0.111E-03
DAV:  24    -0.140173866336E+03   -0.44069E-05   -0.56894E-07 21744   0.253E-03    0.561E-04
DAV:  25    -0.140173868556E+03   -0.22207E-05   -0.13758E-07 18192   0.127E-03    0.316E-04
DAV:  26    -0.140173869655E+03   -0.10985E-05   -0.84692E-08 18192   0.961E-04    0.141E-04
DAV:  27    -0.140173870144E+03   -0.48907E-06   -0.32714E-08 18384   0.569E-04
   1 F= -.14208976E+03 E0= -.14208835E+03  d E =-.142090E+03  mag=     0.0000
       N       E                     dE             d eps       ncg     rms          rms(c)
DAV:   1    -0.140038558234E+03    0.13531E+00   -0.40038E+01 14208   0.208E+01    0.189E+00
DAV:   2    -0.139925895686E+03    0.11266E+00   -0.69976E-01 21888   0.279E+00    0.875E-01
DAV:   3    -0.139917814398E+03    0.80813E-02   -0.88878E-02 24528   0.923E-01    0.398E-01
DAV:   4    -0.139917555712E+03    0.25869E-03   -0.78297E-03 22080   0.275E-01    0.144E-01
DAV:   5    -0.139917542641E+03    0.13072E-04   -0.55950E-04 16800   0.903E-02    0.278E-02
DAV:   6    -0.139917534056E+03    0.85845E-05   -0.88512E-05 24240   0.349E-02    0.158E-02
DAV:   7    -0.139917540552E+03   -0.64958E-05   -0.22090E-05 18288   0.172E-02    0.478E-03
DAV:   8    -0.139917550497E+03   -0.99448E-05   -0.61910E-06 18960   0.885E-03    0.381E-03
DAV:   9    -0.139917570713E+03   -0.20216E-04   -0.56613E-06 18336   0.720E-03    0.186E-03
