<?xml version="1.0" encoding="ISO-8859-1"?>
<modeling>
 <generator>
  <i name="program" type="string">vasp </i>
  <i name="version" type="string">6.3.2  </i>
  <i name="subversion" type="string">27Jun22 (build Dec 22 2022 13:13:19) complex                          parallel </i>
  <i name="platform" type="string">LinuxIFC </i>
  <i name="date" type="string">2023 08 22 </i>
  <i name="time" type="string">19:58:05 </i>
 </generator>
 <incar>
  <i type="string" name="SYSTEM">Lattice</i>
  <i type="int" name="ISTART">     0</i>
  <i type="string" name="PREC">Accurate</i>
  <i type="string" name="ALGO">Normal</i>
  <i type="int" name="ISPIN">     2</i>
  <i type="int" name="ICHARG">     2</i>
  <i type="int" name="NELM">    64</i>
  <i type="int" name="IBRION">     2</i>
  <i name="EDIFF">      0.00000100</i>
  <i name="EDIFFG">     -0.00100000</i>
  <i type="int" name="NSW">   128</i>
  <i type="int" name="ISIF">     2</i>
  <i name="ENCUT">    450.00000000</i>
  <i name="POTIM">      0.50000000</i>
  <i type="int" name="ISMEAR">     0</i>
  <i name="SIGMA">      0.10000000</i>
  <i type="logical" name="LWAVE"> F  </i>
  <i type="logical" name="LCHARG"> F  </i>
  <i type="string" name="GGA">PE</i>
  <i type="int" name="IVDW">    12</i>
 </incar>
 <primitive_cell>
  <structure name="primitive_cell" >
   <crystal>
    <varray name="basis" >
     <v>       4.31280738       2.49000050       0.00000000 </v>
     <v>      -4.31280738       2.49000050       0.00000000 </v>
     <v>       0.00000000       0.00000000      15.00000000 </v>
    </varray>
    <i name="volume">    322.16677574 </i>
    <varray name="rec_basis" >
     <v>       0.11593377       0.20080317       0.00000000 </v>
     <v>      -0.11593377       0.20080317       0.00000000 </v>
     <v>       0.00000000       0.00000000       0.06666667 </v>
    </varray>
   </crystal>
   <varray name="positions" >
    <v>       0.33833034       0.66916432       0.10000000 </v>
    <v>       0.67165522       0.33584146       0.10000000 </v>
    <v>       0.16373946       0.31999962       0.10000000 </v>
    <v>       0.32250218       0.16126397       0.10000000 </v>
    <v>       0.16376430       0.84376384       0.10000000 </v>
    <v>       0.84623863       0.16123684       0.10000000 </v>
    <v>       0.68749850       0.84373000       0.10000000 </v>
    <v>       0.84626736       0.68499594       0.10000000 </v>
    <v>       0.33333267       0.16666633       0.32553333 </v>
    <v>       0.49999967       0.99999933       0.32553333 </v>
    <v>       0.33333267       0.66666633       0.32553333 </v>
    <v>       0.49999967       0.49999933       0.32553333 </v>
    <v>       0.83333267       0.16666633       0.32553333 </v>
    <v>       0.99999967       0.99999933       0.32553333 </v>
    <v>       0.83333267       0.66666633       0.32553333 </v>
    <v>       0.99999967       0.49999933       0.32553333 </v>
   </varray>
  </structure>
  <varray name="primitive_index" >
   <v type="int" >        1 </v>
   <v type="int" >        2 </v>
   <v type="int" >        3 </v>
   <v type="int" >        4 </v>
   <v type="int" >        5 </v>
   <v type="int" >        6 </v>
   <v type="int" >        7 </v>
   <v type="int" >        8 </v>
   <v type="int" >        9 </v>
   <v type="int" >       10 </v>
   <v type="int" >       11 </v>
   <v type="int" >       12 </v>
   <v type="int" >       13 </v>
   <v type="int" >       14 </v>
   <v type="int" >       15 </v>
   <v type="int" >       16 </v>
  </varray>
 </primitive_cell>
 <kpoints>
  <generation param="Gamma">
   <v type="int" name="divisions">      12       12        1 </v>
   <v name="usershift">      0.00000000       0.00000000       0.00000000 </v>
   <v name="genvec1">      0.08333333       0.00000000       0.00000000 </v>
   <v name="genvec2">      0.00000000       0.08333333       0.00000000 </v>
   <v name="genvec3">      0.00000000       0.00000000       1.00000000 </v>
   <v name="shift">      0.00000000       0.00000000       0.00000000 </v>
  </generation>
  <varray name="kpointlist" >
   <v>       0.00000000       0.00000000       0.00000000 </v>
   <v>       0.08333333       0.00000000       0.00000000 </v>
   <v>       0.00000000       0.08333333       0.00000000 </v>
   <v>      -0.08333333       0.08333333       0.00000000 </v>
   <v>       0.16666667       0.00000000       0.00000000 </v>
   <v>       0.00000000       0.16666667       0.00000000 </v>
   <v>      -0.16666667       0.16666667       0.00000000 </v>
   <v>       0.25000000       0.00000000       0.00000000 </v>
   <v>       0.00000000       0.25000000       0.00000000 </v>
   <v>      -0.25000000       0.25000000       0.00000000 </v>
   <v>       0.33333333       0.00000000       0.00000000 </v>
   <v>       0.00000000       0.33333333       0.00000000 </v>
   <v>      -0.33333333       0.33333333       0.00000000 </v>
   <v>       0.41666667       0.00000000       0.00000000 </v>
   <v>       0.00000000       0.41666667       0.00000000 </v>
   <v>      -0.41666667       0.41666667       0.00000000 </v>
   <v>       0.50000000       0.00000000       0.00000000 </v>
   <v>       0.00000000       0.50000000       0.00000000 </v>
   <v>       0.50000000       0.50000000       0.00000000 </v>
   <v>       0.08333333       0.08333333       0.00000000 </v>
   <v>      -0.08333333       0.16666667       0.00000000 </v>
   <v>      -0.16666667       0.08333333       0.00000000 </v>
   <v>       0.16666667       0.08333333       0.00000000 </v>
   <v>      -0.08333333       0.25000000       0.00000000 </v>
   <v>      -0.25000000       0.16666667       0.00000000 </v>
   <v>      -0.16666667       0.25000000       0.00000000 </v>
   <v>       0.08333333       0.16666667       0.00000000 </v>
   <v>       0.25000000      -0.08333333       0.00000000 </v>
   <v>       0.25000000       0.08333333       0.00000000 </v>
   <v>      -0.08333333       0.33333333       0.00000000 </v>
   <v>      -0.33333333       0.25000000       0.00000000 </v>
   <v>      -0.25000000       0.33333333       0.00000000 </v>
   <v>       0.08333333       0.25000000       0.00000000 </v>
   <v>       0.33333333      -0.08333333       0.00000000 </v>
   <v>       0.33333333       0.08333333       0.00000000 </v>
   <v>      -0.08333333       0.41666667       0.00000000 </v>
   <v>      -0.41666667       0.33333333       0.00000000 </v>
   <v>      -0.33333333       0.41666667       0.00000000 </v>
   <v>       0.08333333       0.33333333       0.00000000 </v>
   <v>       0.41666667      -0.08333333       0.00000000 </v>
   <v>       0.41666667       0.08333333       0.00000000 </v>
   <v>      -0.08333333       0.50000000       0.00000000 </v>
   <v>       0.50000000       0.41666667       0.00000000 </v>
   <v>      -0.41666667       0.50000000       0.00000000 </v>
   <v>       0.08333333       0.41666667       0.00000000 </v>
   <v>       0.50000000      -0.08333333       0.00000000 </v>
   <v>       0.16666667       0.16666667       0.00000000 </v>
   <v>      -0.16666667       0.33333333       0.00000000 </v>
   <v>      -0.33333333       0.16666667       0.00000000 </v>
   <v>       0.25000000       0.16666667       0.00000000 </v>
   <v>      -0.16666667       0.41666667       0.00000000 </v>
   <v>      -0.41666667       0.25000000       0.00000000 </v>
   <v>      -0.25000000       0.41666667       0.00000000 </v>
   <v>       0.16666667       0.25000000       0.00000000 </v>
   <v>       0.41666667      -0.16666667       0.00000000 </v>
   <v>       0.33333333       0.16666667       0.00000000 </v>
   <v>      -0.16666667       0.50000000       0.00000000 </v>
   <v>       0.50000000       0.33333333       0.00000000 </v>
   <v>      -0.33333333       0.50000000       0.00000000 </v>
   <v>       0.16666667       0.33333333       0.00000000 </v>
   <v>       0.50000000      -0.16666667       0.00000000 </v>
   <v>       0.41666667       0.16666667       0.00000000 </v>
   <v>      -0.16666667      -0.41666667       0.00000000 </v>
   <v>       0.41666667       0.41666667       0.00000000 </v>
   <v>       0.25000000       0.25000000       0.00000000 </v>
   <v>      -0.25000000       0.50000000       0.00000000 </v>
   <v>       0.50000000       0.25000000       0.00000000 </v>
   <v>       0.33333333       0.25000000       0.00000000 </v>
   <v>      -0.25000000      -0.41666667       0.00000000 </v>
   <v>       0.41666667       0.33333333       0.00000000 </v>
   <v>      -0.33333333      -0.41666667       0.00000000 </v>
   <v>       0.25000000       0.33333333       0.00000000 </v>
   <v>      -0.41666667      -0.25000000       0.00000000 </v>
   <v>       0.33333333       0.33333333       0.00000000 </v>
  </varray>
  <varray name="weights" >
   <v>       0.00694444 </v>
   <v>       0.01388889 </v>
   <v>       0.01388889 </v>
   <v>       0.01388889 </v>
   <v>       0.01388889 </v>
   <v>       0.01388889 </v>
   <v>       0.01388889 </v>
   <v>       0.01388889 </v>
   <v>       0.01388889 </v>
   <v>       0.01388889 </v>
   <v>       0.01388889 </v>
   <v>       0.01388889 </v>
   <v>       0.01388889 </v>
   <v>       0.01388889 </v>
   <v>       0.01388889 </v>
   <v>       0.01388889 </v>
   <v>       0.00694444 </v>
   <v>       0.00694444 </v>
   <v>       0.00694444 </v>
   <v>       0.01388889 </v>
   <v>       0.01388889 </v>
   <v>       0.01388889 </v>
   <v>       0.01388889 </v>
   <v>       0.01388889 </v>
   <v>       0.01388889 </v>
   <v>       0.01388889 </v>
   <v>       0.01388889 </v>
   <v>       0.01388889 </v>
   <v>       0.01388889 </v>
   <v>       0.01388889 </v>
   <v>       0.01388889 </v>
   <v>       0.01388889 </v>
   <v>       0.01388889 </v>
   <v>       0.01388889 </v>
   <v>       0.01388889 </v>
   <v>       0.01388889 </v>
   <v>       0.01388889 </v>
   <v>       0.01388889 </v>
   <v>       0.01388889 </v>
   <v>       0.01388889 </v>
   <v>       0.01388889 </v>
   <v>       0.01388889 </v>
   <v>       0.01388889 </v>
   <v>       0.01388889 </v>
   <v>       0.01388889 </v>
   <v>       0.01388889 </v>
   <v>       0.01388889 </v>
   <v>       0.01388889 </v>
   <v>       0.01388889 </v>
   <v>       0.01388889 </v>
   <v>       0.01388889 </v>
   <v>       0.01388889 </v>
   <v>       0.01388889 </v>
   <v>       0.01388889 </v>
   <v>       0.01388889 </v>
   <v>       0.01388889 </v>
   <v>       0.01388889 </v>
   <v>       0.01388889 </v>
   <v>       0.01388889 </v>
   <v>       0.01388889 </v>
   <v>       0.01388889 </v>
   <v>       0.01388889 </v>
   <v>       0.01388889 </v>
   <v>       0.01388889 </v>
   <v>       0.01388889 </v>
   <v>       0.01388889 </v>
   <v>       0.01388889 </v>
   <v>       0.01388889 </v>
   <v>       0.01388889 </v>
   <v>       0.01388889 </v>
   <v>       0.01388889 </v>
   <v>       0.01388889 </v>
   <v>       0.01388889 </v>
   <v>       0.01388889 </v>
  </varray>
 </kpoints>
 <parameters>
  <separator name="general" >
   <i type="string" name="SYSTEM">Lattice</i>
   <i type="logical" name="LCOMPAT"> F  </i>
  </separator>
  <separator name="electronic" >
   <i type="string" name="PREC">accura</i>
   <i name="ENMAX">    450.00000000</i>
   <i name="ENAUG">    644.87300000</i>
   <i name="EDIFF">      0.00000100</i>
   <i type="int" name="IALGO">    38</i>
   <i type="int" name="IWAVPR">    11</i>
   <i type="int" name="NBANDS">    48</i>
   <i type="int" name="NBANDSLOW">    -1</i>
   <i type="int" name="NBANDSHIGH">    -1</i>
   <i name="NELECT">     62.00000000</i>
   <i type="int" name="TURBO">     0</i>
   <i type="int" name="IRESTART">     0</i>
   <i type="int" name="NREBOOT">     0</i>
   <i type="int" name="NMIN">     0</i>
   <i name="EREF">      0.00000000</i>
   <separator name="electronic smearing" >
    <i type="int" name="ISMEAR">     0</i>
    <i name="SIGMA">      0.10000000</i>
    <i name="KSPACING">      0.50000000</i>
    <i type="logical" name="KGAMMA"> T  </i>
    <i type="logical" name="KBLOWUP"> T  </i>
   </separator>
   <separator name="electronic projectors" >
    <i type="logical" name="LREAL"> F  </i>
    <v name="ROPT">      0.00000000      0.00000000</v>
    <i type="int" name="LMAXPAW">  -100</i>
    <i type="int" name="LMAXMIX">     2</i>
    <i type="logical" name="NLSPLINE"> F  </i>
   </separator>
   <separator name="electronic startup" >
    <i type="int" name="ISTART">     0</i>
    <i type="int" name="ICHARG">     2</i>
    <i type="int" name="INIWAV">     1</i>
   </separator>
   <separator name="electronic spin" >
    <i type="int" name="ISPIN">     2</i>
    <i type="logical" name="LNONCOLLINEAR"> F  </i>
    <v name="MAGMOM">      1.00000000      1.00000000      1.00000000      1.00000000      1.00000000      1.00000000      1.00000000      1.00000000      1.00000000      1.00000000      1.00000000      1.00000000      1.00000000      1.00000000      1.00000000      1.00000000</v>
    <i name="NUPDOWN">     -1.00000000</i>
    <i type="logical" name="LSORBIT"> F  </i>
    <v name="SAXIS">      0.00000000      0.00000000      1.00000000</v>
    <i type="logical" name="LSPIRAL"> F  </i>
    <v name="QSPIRAL">      0.00000000      0.00000000      0.00000000</v>
    <i type="logical" name="LZEROZ"> F  </i>
   </separator>
   <separator name="electronic exchange-correlation" >
    <i type="logical" name="LASPH"> F  </i>
    <i type="logical" name="LMETAGGA"> F  </i>
   </separator>
   <separator name="electronic convergence" >
    <i type="int" name="NELM">    64</i>
    <i type="int" name="NELMDL">    -5</i>
    <i type="int" name="NELMIN">     2</i>
    <i name="ENINI">    450.00000000</i>
    <separator name="electronic convergence detail" >
     <i type="logical" name="LDIAG"> T  </i>
     <i type="logical" name="LSUBROT"> F  </i>
     <i name="WEIMIN">      0.00100000</i>
     <i name="EBREAK">      0.00000001</i>
     <i name="DEPER">      0.30000000</i>
     <i type="int" name="NRMM">     4</i>
     <i name="TIME">      0.40000000</i>
    </separator>
   </separator>
   <separator name="electronic mixer" >
    <i name="AMIX">      0.40000000</i>
    <i name="BMIX">      1.00000000</i>
    <i name="AMIN">      0.10000000</i>
    <i name="AMIX_MAG">      1.60000000</i>
    <i name="BMIX_MAG">      1.00000000</i>
    <separator name="electronic mixer details" >
     <i type="int" name="IMIX">     4</i>
     <i type="logical" name="MIXFIRST"> F  </i>
     <i type="int" name="MAXMIX">   -45</i>
     <i name="WC">    100.00000000</i>
     <i type="int" name="INIMIX">     1</i>
     <i type="int" name="MIXPRE">     1</i>
     <i type="int" name="MREMOVE">     5</i>
    </separator>
   </separator>
   <separator name="electronic dipolcorrection" >
    <i type="logical" name="LDIPOL"> F  </i>
    <i type="logical" name="LMONO"> F  </i>
    <i type="int" name="IDIPOL">     0</i>
    <i name="EPSILON">      1.00000000</i>
    <v name="DIPOL">   -100.00000000   -100.00000000   -100.00000000</v>
    <i name="EFIELD">      0.00000000</i>
   </separator>
  </separator>
  <separator name="grids" >
   <i type="int" name="NGX">    36</i>
   <i type="int" name="NGY">    36</i>
   <i type="int" name="NGZ">   108</i>
   <i type="int" name="NGXF">    72</i>
   <i type="int" name="NGYF">    72</i>
   <i type="int" name="NGZF">   216</i>
   <i type="logical" name="ADDGRID"> F  </i>
  </separator>
  <separator name="ionic" >
   <i type="int" name="NSW">   128</i>
   <i type="int" name="IBRION">     2</i>
   <i type="int" name="MDALGO">     0</i>
   <i type="int" name="ISIF">     2</i>
   <i name="PSTRESS">      0.00000000</i>
   <i name="EDIFFG">     -0.00100000</i>
   <i type="int" name="NFREE">     1</i>
   <i name="POTIM">      0.50000000</i>
   <i name="SMASS">     -3.00000000</i>
   <i name="SCALEE">      1.00000000</i>
  </separator>
  <separator name="ionic md" >
   <i name="TEBEG">      0.00010000</i>
   <i name="TEEND">      0.00010000</i>
   <i type="int" name="NBLOCK">     1</i>
   <i type="int" name="KBLOCK">   128</i>
   <i type="int" name="NPACO">   256</i>
   <i name="APACO">     10.00000000</i>
  </separator>
  <separator name="symmetry" >
   <i type="int" name="ISYM">     2</i>
   <i name="SYMPREC">      0.00001000</i>
  </separator>
  <separator name="dos" >
   <i type="int" name="LORBIT">     0</i>
   <v name="RWIGS">     -1.00000000     -1.00000000</v>
   <i type="int" name="NEDOS">   301</i>
   <i name="EMIN">     10.00000000</i>
   <i name="EMAX">    -10.00000000</i>
   <i name="EFERMI">      0.00000000</i>
  </separator>
  <separator name="writing" >
   <i type="int" name="NWRITE">     2</i>
   <i type="logical" name="LWAVE"> F  </i>
   <i type="logical" name="LDOWNSAMPLE"> F  </i>
   <i type="logical" name="LCHARG"> F  </i>
   <i type="logical" name="LPARD"> F  </i>
   <i type="logical" name="LVTOT"> F  </i>
   <i type="logical" name="LVHAR"> F  </i>
   <i type="logical" name="LELF"> F  </i>
   <i type="logical" name="LOPTICS"> F  </i>
   <v name="STM">      0.00000000      0.00000000      0.00000000      0.00000000      0.00000000      0.00000000      0.00000000</v>
  </separator>
  <separator name="performance" >
   <i type="int" name="NPAR">    48</i>
   <i type="int" name="NSIM">     4</i>
   <i type="int" name="NBLK">    -1</i>
   <i type="logical" name="LPLANE"> T  </i>
   <i type="logical" name="LSCALAPACK"> T  </i>
   <i type="logical" name="LSCAAWARE"> F  </i>
   <i type="logical" name="LSCALU"> F  </i>
   <i type="logical" name="LASYNC"> F  </i>
   <i type="logical" name="LORBITALREAL"> F  </i>
  </separator>
  <separator name="miscellaneous" >
   <i type="int" name="IDIOT">     3</i>
   <i type="int" name="PHON_NSTRUCT">    -1</i>
   <i type="logical" name="LMUSIC"> F  </i>
   <v name="POMASS">     10.81100000     12.01100000</v>
   <v name="DARWINR">      0.00000000      0.00000000</v>
   <v name="DARWINV">      1.00000000      1.00000000</v>
   <i type="logical" name="LCORR"> T  </i>
  </separator>
  <i type="logical" name="GGA_COMPAT"> T  </i>
  <i type="logical" name="LBERRY"> F  </i>
  <i type="int" name="ICORELEVEL">     0</i>
  <i type="logical" name="LDAU"> F  </i>
  <i type="int" name="I_CONSTRAINED_M">     0</i>
  <separator name="electronic exchange-correlation" >
   <i type="string" name="GGA">PE</i>
   <i type="int" name="VOSKOWN">     0</i>
   <i type="logical" name="LHFCALC"> F  </i>
   <i type="string" name="PRECFOCK"></i>
   <i type="logical" name="LSYMGRAD"> F  </i>
   <i type="logical" name="LHFONE"> F  </i>
   <i type="logical" name="LRHFCALC"> F  </i>
   <i type="logical" name="LTHOMAS"> F  </i>
   <i type="logical" name="LMODELHF"> F  </i>
   <i type="logical" name="LFOCKACE"> F  </i>
   <i name="ENCUT4O">     -1.00000000</i>
   <i type="int" name="EXXOEP">     0</i>
   <i type="int" name="FOURORBIT">     0</i>
   <i name="AEXX">      0.00000000</i>
   <i name="HFALPHA">      0.00000000</i>
   <i name="MCALPHA">      0.00000000</i>
   <i name="ALDAX">      1.00000000</i>
   <i name="AGGAX">      1.00000000</i>
   <i name="ALDAC">      1.00000000</i>
   <i name="AGGAC">      1.00000000</i>
   <i type="int" name="NKREDX">     1</i>
   <i type="int" name="NKREDY">     1</i>
   <i type="int" name="NKREDZ">     1</i>
   <i type="logical" name="SHIFTRED"> F  </i>
   <i type="logical" name="ODDONLY"> F  </i>
   <i type="logical" name="EVENONLY"> F  </i>
   <i type="int" name="LMAXFOCK">     0</i>
   <i type="int" name="NMAXFOCKAE">     0</i>
   <i type="logical" name="LFOCKAEDFT"> F  </i>
   <i name="HFSCREEN">      0.00000000</i>
   <i name="HFSCREENC">      0.00000000</i>
   <i type="int" name="NBANDSGWLOW">     0</i>
  </separator>
  <separator name="vdW DFT" >
   <i type="logical" name="LUSE_VDW"> F  </i>
   <i name="Zab_VDW">     -0.84910000</i>
   <i name="PARAM1">      0.12340000</i>
   <i name="PARAM2">      1.00000000</i>
   <i name="PARAM3">      0.00000000</i>
  </separator>
  <separator name="model GW" >
   <i type="int" name="MODEL_GW">     0</i>
   <i name="MODEL_EPS0">     12.08125409</i>
   <i name="MODEL_ALPHA">      1.00000000</i>
  </separator>
  <separator name="linear response parameters" >
   <i type="logical" name="LEPSILON"> F  </i>
   <i type="logical" name="LRPA"> F  </i>
   <i type="logical" name="LNABLA"> F  </i>
   <i type="logical" name="LVEL"> F  </i>
   <i name="CSHIFT">      0.10000000</i>
   <i name="OMEGAMAX">     -1.00000000</i>
   <i name="DEG_THRESHOLD">      0.00200000</i>
   <i name="RTIME">     -0.10000000</i>
   <i name="WPLASMAI">      0.00000000</i>
   <v name="DFIELD">      0.00000000      0.00000000      0.00000000</v>
   <v name="WPLASMA">      0.00000000      0.00000000      0.00000000      0.00000000      0.00000000      0.00000000      0.00000000      0.00000000      0.00000000</v>
  </separator>
  <separator name="orbital magnetization" >
   <i type="logical" name="NUCIND"> F  </i>
   <v name="MAGPOS">      0.00000000      0.00000000      0.00000000</v>
   <i type="logical" name="LNICSALL"> T  </i>
   <i type="logical" name="ORBITALMAG"> F  </i>
   <i type="logical" name="LMAGBLOCH"> F  </i>
   <i type="logical" name="LCHIMAG"> F  </i>
   <i type="logical" name="LGAUGE"> T  </i>
   <i type="int" name="MAGATOM">     0</i>
   <v name="MAGDIPOL">      0.00000000      0.00000000      0.00000000</v>
   <v name="AVECCONST">      0.00000000      0.00000000      0.00000000</v>
  </separator>
  <separator name="response functions" >
   <i type="logical" name="LFINITE_TEMPERATURE"> F  </i>
   <i type="logical" name="LADDER"> F  </i>
   <i type="logical" name="LRPAFORCE"> F  </i>
   <i type="logical" name="LFXC"> F  </i>
   <i type="logical" name="LHARTREE"> T  </i>
   <i type="int" name="IBSE">     0</i>
   <v type="int" name="KPOINT">    -1     0     0     0</v>
   <i type="logical" name="LTCTC"> F  </i>
   <i type="logical" name="LTCTE"> F  </i>
   <i type="logical" name="LTETE"> F  </i>
   <i type="logical" name="LTRIPLET"> F  </i>
   <i type="logical" name="LFXCEPS"> F  </i>
   <i type="logical" name="LFXHEG"> F  </i>
   <i type="int" name="NATURALO">     2</i>
   <i type="logical" name="LHOLEGF"> F  </i>
   <i type="logical" name="L2ORDER"> F  </i>
   <i type="logical" name="LDMP1"> F  </i>
   <i type="logical" name="LMP2LT"> F  </i>
   <i type="logical" name="LSMP2LT"> F  </i>
   <i type="logical" name="LGWLF"> F  </i>
   <i name="ENCUTGW">     -2.00000000</i>
   <i name="ENCUTGWSOFT">     -2.00000000</i>
   <i name="ENCUTLF">     -1.00000000</i>
   <i type="logical" name="LESF_SPLINES"> F  </i>
   <i type="int" name="LMAXMP2">    -1</i>
   <i name="SCISSOR">      0.00000000</i>
   <i type="int" name="NOMEGA">     0</i>
   <i type="int" name="NOMEGAR">     0</i>
   <i type="int" name="NBANDSGW">    -1</i>
   <i type="int" name="NBANDSO">    -1</i>
   <i type="int" name="NBANDSV">    -1</i>
   <i type="int" name="NELMGW">     1</i>
   <i type="int" name="NELMHF">     1</i>
   <i type="int" name="DIM">     3</i>
   <i type="int" name="IESPILON">     4</i>
   <i type="int" name="ANTIRES">     0</i>
   <i name="OMEGAMAX">    -30.00000000</i>
   <i name="OMEGAMIN">    -30.00000000</i>
   <i name="OMEGATL">   -200.00000000</i>
   <i type="int" name="OMEGAGRID">     0</i>
   <i name="CSHIFT">     -0.10000000</i>
   <i type="logical" name="LSELFENERGY"> F  </i>
   <i type="logical" name="LSPECTRAL"> F  </i>
   <i type="logical" name="LSPECTRALGW"> F  </i>
   <i type="logical" name="LSINGLES"> F  </i>
   <i type="logical" name="LFERMIGW"> F  </i>
   <i type="logical" name="ODDONLYGW"> F  </i>
   <i type="logical" name="EVENONLYGW"> F  </i>
   <i type="int" name="NKREDLFX">     1</i>
   <i type="int" name="NKREDLFY">     1</i>
   <i type="int" name="NKREDLFZ">     1</i>
   <i type="int" name="MAXMEM">  2800</i>
   <i type="int" name="TELESCOPE">     0</i>
   <i type="int" name="NTAUPAR">    -1</i>
   <i type="int" name="NOMEGAPAR">    -1</i>
   <i name="DAMP_NEWTON">      0.80000001</i>
   <i name="LAMBDA">      1.00000000</i>
  </separator>
  <separator name="External order field" >
   <i name="OFIELD_KAPPA">      0.00000000</i>
   <v name="OFIELD_K">      0.00000000      0.00000000      0.00000000</v>
   <i name="OFIELD_Q6_NEAR">      0.00000000</i>
   <i name="OFIELD_Q6_FAR">      0.00000000</i>
   <i name="OFIELD_A">      0.00000000</i>
  </separator>
  <separator name="optional k-points parameters" >
   <i type="int" name="KPOINTS_OPT_MODE">     1</i>
   <i type="logical" name="LKPOINTS_OPT"> F  </i>
  </separator>
  <separator name="solvation model" >
   <i type="logical" name="LSOL"> F  </i>
  </separator>
 </parameters>
 <atominfo>
  <atoms>      16 </atoms>
  <types>       2 </types>
  <array name="atoms" >
   <dimension dim="1">ion</dimension>
   <field type="string">element</field>
   <field type="int">atomtype</field>
   <set>
    <rc><c>B </c><c>   1</c></rc>
    <rc><c>B </c><c>   1</c></rc>
    <rc><c>C </c><c>   2</c></rc>
    <rc><c>C </c><c>   2</c></rc>
    <rc><c>C </c><c>   2</c></rc>
    <rc><c>C </c><c>   2</c></rc>
    <rc><c>C </c><c>   2</c></rc>
    <rc><c>C </c><c>   2</c></rc>
    <rc><c>C </c><c>   2</c></rc>
    <rc><c>C </c><c>   2</c></rc>
    <rc><c>C </c><c>   2</c></rc>
    <rc><c>C </c><c>   2</c></rc>
    <rc><c>C </c><c>   2</c></rc>
    <rc><c>C </c><c>   2</c></rc>
    <rc><c>C </c><c>   2</c></rc>
    <rc><c>C </c><c>   2</c></rc>
   </set>
  </array>
  <array name="atomtypes" >
   <dimension dim="1">type</dimension>
   <field type="int">atomspertype</field>
   <field type="string">element</field>
   <field>mass</field>
   <field>valence</field>
   <field type="string">pseudopotential</field>
   <set>
    <rc><c>   2</c><c>B </c><c>     10.81100000</c><c>      3.00000000</c><c>  PAW_PBE B 06Sep2000                   </c></rc>
    <rc><c>  14</c><c>C </c><c>     12.01100000</c><c>      4.00000000</c><c>  PAW_PBE C 08Apr2002                   </c></rc>
   </set>
  </array>
 </atominfo>
 <structure name="initialpos" >
  <crystal>
   <varray name="basis" >
    <v>       4.31280738       2.49000050       0.00000000 </v>
    <v>      -4.31280738       2.49000050       0.00000000 </v>
    <v>       0.00000000       0.00000000      15.00000000 </v>
   </varray>
   <i name="volume">    322.16677574 </i>
   <varray name="rec_basis" >
    <v>       0.11593377       0.20080317       0.00000000 </v>
    <v>      -0.11593377       0.20080317       0.00000000 </v>
    <v>       0.00000000       0.00000000       0.06666667 </v>
   </varray>
  </crystal>
  <varray name="positions" >
   <v>       0.33833034       0.66916432       0.10000000 </v>
   <v>       0.67165522       0.33584146       0.10000000 </v>
   <v>       0.16373946       0.31999962       0.10000000 </v>
   <v>       0.32250218       0.16126397       0.10000000 </v>
   <v>       0.16376430       0.84376384       0.10000000 </v>
   <v>       0.84623863       0.16123684       0.10000000 </v>
   <v>       0.68749850       0.84373000       0.10000000 </v>
   <v>       0.84626736       0.68499594       0.10000000 </v>
   <v>       0.33333267       0.16666633       0.32553333 </v>
   <v>       0.49999967       0.99999933       0.32553333 </v>
   <v>       0.33333267       0.66666633       0.32553333 </v>
   <v>       0.49999967       0.49999933       0.32553333 </v>
   <v>       0.83333267       0.16666633       0.32553333 </v>
   <v>       0.99999967       0.99999933       0.32553333 </v>
   <v>       0.83333267       0.66666633       0.32553333 </v>
   <v>       0.99999967       0.49999933       0.32553333 </v>
  </varray>
 </structure>
 <calculation>
  <scstep>
   <time name="dav">    5.65    5.70</time>
   <time name="total">    5.71    5.75</time>
   <energy>
    <i name="alphaZ">     64.15735453 </i>
    <i name="ewald">   5651.96935455 </i>
    <i name="hartreedc">  -7459.75610977 </i>
    <i name="XCdc">    201.11888784 </i>
    <i name="pawpsdc">   1604.28699987 </i>
    <i name="pawaedc">  -1610.37247880 </i>
    <i name="eentropy">     -0.01720164 </i>
    <i name="bandstr">   -390.80428394 </i>
    <i name="atom">   2202.35892741 </i>
    <i name="e_fr_energy">    262.94145005 </i>
    <i name="e_wo_entrp">    262.95865169 </i>
    <i name="e_0_energy">    262.95005087 </i>
   </energy>
  </scstep>
  <scstep>
   <time name="dav">    8.80    8.87</time>
   <time name="total">    8.80    8.88</time>
   <energy>
    <i name="e_fr_energy">   -131.25255646 </i>
    <i name="e_wo_entrp">   -131.24230420 </i>
    <i name="e_0_energy">   -131.24743033 </i>
   </energy>
  </scstep>
  <scstep>
   <time name="dav">   10.76   10.84</time>
   <time name="total">   10.77   10.84</time>
   <energy>
    <i name="e_fr_energy">   -146.70913261 </i>
    <i name="e_wo_entrp">   -146.70286322 </i>
    <i name="e_0_energy">   -146.70599791 </i>
   </energy>
  </scstep>
  <scstep>
   <time name="dav">    9.24    9.32</time>
   <time name="total">    9.24    9.32</time>
   <energy>
    <i name="e_fr_energy">   -146.75940066 </i>
    <i name="e_wo_entrp">   -146.75308822 </i>
    <i name="e_0_energy">   -146.75624444 </i>
   </energy>
  </scstep>
  <scstep>
   <time name="dav">   10.12   10.18</time>
   <time name="total">   10.38   10.45</time>
   <energy>
    <i name="e_fr_energy">   -146.75947263 </i>
    <i name="e_wo_entrp">   -146.75316017 </i>
    <i name="e_0_energy">   -146.75631640 </i>
   </energy>
  </scstep>
  <scstep>
   <time name="dav">   10.24   10.32</time>
   <time name="total">   10.54   10.63</time>
   <energy>
    <i name="e_fr_energy">   -107.53608522 </i>
    <i name="e_wo_entrp">   -107.51493007 </i>
    <i name="e_0_energy">   -107.52550764 </i>
   </energy>
  </scstep>
  <scstep>
   <time name="dav">    9.81    9.88</time>
   <time name="total">   10.11   10.18</time>
   <energy>
    <i name="e_fr_energy">   -114.46756425 </i>
    <i name="e_wo_entrp">   -114.44992271 </i>
    <i name="e_0_energy">   -114.45874348 </i>
   </energy>
  </scstep>
  <scstep>
   <time name="dav">   10.71   10.78</time>
   <time name="total">   11.00   11.08</time>
   <energy>
    <i name="e_fr_energy">   -123.42315210 </i>
    <i name="e_wo_entrp">   -123.41237485 </i>
    <i name="e_0_energy">   -123.41776348 </i>
   </energy>
  </scstep>
  <scstep>
   <time name="dav">    7.94    8.01</time>
   <time name="total">    8.24    8.31</time>
   <energy>
    <i name="e_fr_energy">   -131.52407971 </i>
    <i name="e_wo_entrp">   -131.51830855 </i>
    <i name="e_0_energy">   -131.52119413 </i>
   </energy>
  </scstep>
  <scstep>
   <time name="dav">    8.64    8.70</time>
   <time name="total">    8.93    9.00</time>
   <energy>
    <i name="e_fr_energy">   -138.45877990 </i>
    <i name="e_wo_entrp">   -138.45593716 </i>
    <i name="e_0_energy">   -138.45735853 </i>
   </energy>
  </scstep>
  <scstep>
   <time name="dav">    8.33    8.38</time>
   <time name="total">    8.63    8.70</time>
   <energy>
    <i name="e_fr_energy">   -139.81021326 </i>
    <i name="e_wo_entrp">   -139.80780668 </i>
    <i name="e_0_energy">   -139.80900997 </i>
   </energy>
  </scstep>
  <scstep>
   <time name="dav">    8.17    8.23</time>
   <time name="total">    8.46    8.53</time>
   <energy>
    <i name="e_fr_energy">   -140.06837751 </i>
    <i name="e_wo_entrp">   -140.06617828 </i>
    <i name="e_0_energy">   -140.06727789 </i>
   </energy>
  </scstep>
  <scstep>
   <time name="dav">    7.17    7.24</time>
   <time name="total">    7.47    7.54</time>
   <energy>
    <i name="e_fr_energy">   -140.13173160 </i>
    <i name="e_wo_entrp">   -140.12918289 </i>
    <i name="e_0_energy">   -140.13045725 </i>
   </energy>
  </scstep>
  <scstep>
   <time name="dav">    7.15    7.22</time>
   <time name="total">    7.44    7.52</time>
   <energy>
    <i name="e_fr_energy">   -140.15728034 </i>
    <i name="e_wo_entrp">   -140.15453415 </i>
    <i name="e_0_energy">   -140.15590724 </i>
   </energy>
  </scstep>
  <scstep>
   <time name="dav">    7.58    7.65</time>
   <time name="total">    7.86    7.95</time>
   <energy>
    <i name="e_fr_energy">   -140.16773348 </i>
    <i name="e_wo_entrp">   -140.16492363 </i>
    <i name="e_0_energy">   -140.16632856 </i>
   </energy>
  </scstep>
  <scstep>
   <time name="dav">    6.60    6.67</time>
   <time name="total">    6.89    6.97</time>
   <energy>
    <i name="e_fr_energy">   -140.16982394 </i>
    <i name="e_wo_entrp">   -140.16700286 </i>
    <i name="e_0_energy">   -140.16841340 </i>
   </energy>
  </scstep>
  <scstep>
   <time name="dav">    5.96    6.02</time>
   <time name="total">    6.26    6.33</time>
   <energy>
    <i name="e_fr_energy">   -140.17178960 </i>
    <i name="e_wo_entrp">   -140.16897616 </i>
    <i name="e_0_energy">   -140.17038288 </i>
   </energy>
  </scstep>
  <scstep>
   <time name="dav">    6.10    6.16</time>
   <time name="total">    6.39    6.46</time>
   <energy>
    <i name="e_fr_energy">   -140.17299075 </i>
    <i name="e_wo_entrp">   -140.17018616 </i>
    <i name="e_0_energy">   -140.17158845 </i>
   </energy>
  </scstep>
  <scstep>
   <time name="dav">    7.39    7.46</time>
   <time name="total">    7.68    7.76</time>
   <energy>
    <i name="e_fr_energy">   -140.17357360 </i>
    <i name="e_wo_entrp">   -140.17076915 </i>
    <i name="e_0_energy">   -140.17217137 </i>
   </energy>
  </scstep>
  <scstep>
   <time name="dav">    6.59    6.65</time>
   <time name="total">    6.89    6.96</time>
   <energy>
    <i name="e_fr_energy">   -140.17377185 </i>
    <i name="e_wo_entrp">   -140.17096174 </i>
    <i name="e_0_energy">   -140.17236679 </i>
   </energy>
  </scstep>
  <scstep>
   <time name="dav">    7.94    8.07</time>
   <time name="total">    8.23    8.37</time>
   <energy>
    <i name="e_fr_energy">   -140.17380203 </i>
    <i name="e_wo_entrp">   -140.17098978 </i>
    <i name="e_0_energy">   -140.17239590 </i>
   </energy>
  </scstep>
  <scstep>
   <time name="dav">    8.45    8.53</time>
   <time name="total">    8.74    8.83</time>
   <energy>
    <i name="e_fr_energy">   -140.17384460 </i>
    <i name="e_wo_entrp">   -140.17103260 </i>
    <i name="e_0_energy">   -140.17243860 </i>
   </energy>
  </scstep>
  <scstep>
   <time name="dav">    9.08    9.20</time>
   <time name="total">    9.38    9.50</time>
   <energy>
    <i name="e_fr_energy">   -140.17386193 </i>
    <i name="e_wo_entrp">   -140.17104959 </i>
    <i name="e_0_energy">   -140.17245576 </i>
   </energy>
  </scstep>
  <scstep>
   <time name="dav">    9.03    9.11</time>
   <time name="total">    9.32    9.41</time>
   <energy>
    <i name="e_fr_energy">   -140.17386634 </i>
    <i name="e_wo_entrp">   -140.17105405 </i>
    <i name="e_0_energy">   -140.17246019 </i>
   </energy>
  </scstep>
  <scstep>
   <time name="dav">    7.44    7.49</time>
   <time name="total">    7.73    7.79</time>
   <energy>
    <i name="e_fr_energy">   -140.17386856 </i>
    <i name="e_wo_entrp">   -140.17105658 </i>
    <i name="e_0_energy">   -140.17246257 </i>
   </energy>
  </scstep>
  <scstep>
   <time name="dav">    7.48    7.53</time>
   <time name="total">    7.77    7.83</time>
   <energy>
    <i name="e_fr_energy">   -140.17386965 </i>
    <i name="e_wo_entrp">   -140.17105777 </i>
    <i name="e_0_energy">   -140.17246371 </i>
   </energy>
  </scstep>
  <scstep>
   <time name="dav">    7.50    7.55</time>
   <time name="total">    7.54    7.58</time>
   <energy>
    <i name="alphaZ">     64.15735453 </i>
    <i name="ewald">   5651.96935455 </i>
    <i name="hartreedc">  -7706.07589260 </i>
    <i name="XCdc">    208.15114506 </i>
    <i name="pawpsdc">   6694.31340534 </i>
    <i name="pawaedc">  -6702.48211173 </i>
    <i name="eentropy">     -0.00281191 </i>
    <i name="bandstr">   -552.56324079 </i>
    <i name="atom">   2202.35892741 </i>
    <i name="e_fr_energy">   -140.17387014 </i>
    <i name="e_wo_entrp">   -140.17105824 </i>
    <i name="e_0_energy">   -140.17246419 </i>
   </energy>
  </scstep>
  <structure>
   <crystal>
    <varray name="basis" >
     <v>       4.31280738       2.49000050       0.00000000 </v>
     <v>      -4.31280738       2.49000050       0.00000000 </v>
     <v>       0.00000000       0.00000000      15.00000000 </v>
    </varray>
    <i name="volume">    322.16677574 </i>
    <varray name="rec_basis" >
     <v>       0.11593377       0.20080317       0.00000000 </v>
     <v>      -0.11593377       0.20080317       0.00000000 </v>
     <v>       0.00000000       0.00000000       0.06666667 </v>
    </varray>
   </crystal>
   <varray name="positions" >
    <v>       0.33833034       0.66916432       0.10000000 </v>
    <v>       0.67165522       0.33584146       0.10000000 </v>
    <v>       0.16373946       0.31999962       0.10000000 </v>
    <v>       0.32250218       0.16126397       0.10000000 </v>
    <v>       0.16376430       0.84376384       0.10000000 </v>
    <v>       0.84623863       0.16123684       0.10000000 </v>
    <v>       0.68749850       0.84373000       0.10000000 </v>
    <v>       0.84626736       0.68499594       0.10000000 </v>
    <v>       0.33333267       0.16666633       0.32553333 </v>
    <v>       0.49999967       0.99999933       0.32553333 </v>
    <v>       0.33333267       0.66666633       0.32553333 </v>
    <v>       0.49999967       0.49999933       0.32553333 </v>
    <v>       0.83333267       0.16666633       0.32553333 </v>
    <v>       0.99999967       0.99999933       0.32553333 </v>
    <v>       0.83333267       0.66666633       0.32553333 </v>
    <v>       0.99999967       0.49999933       0.32553333 </v>
   </varray>
  </structure>
  <varray name="forces" >
   <v>       0.00067059       0.00110664       0.04974891 </v>
   <v>       0.00561628       0.00089349      -0.00673719 </v>
   <v>      -0.46428063       0.80318871      -0.01484814 </v>
   <v>       0.45252263       0.78298542       0.00628228 </v>
   <v>       0.92879725      -0.00033018      -0.01484776 </v>
   <v>      -0.90764654      -0.00108412       0.00609307 </v>
   <v>      -0.46575426      -0.80253137      -0.01490004 </v>
   <v>       0.44968185      -0.78492392       0.00608930 </v>
   <v>       0.00219479       0.00355315       0.00225059 </v>
   <v>      -0.01268525       0.02025465       0.01423820 </v>
   <v>      -0.00008007      -0.00037551      -0.06257204 </v>
   <v>       0.02367013      -0.00073500       0.01423507 </v>
   <v>      -0.00359811       0.00058676       0.00120229 </v>
   <v>       0.00013347       0.00047708      -0.00209300 </v>
   <v>       0.00251903      -0.00294104       0.00120918 </v>
   <v>      -0.01176113      -0.02012476       0.01464929 </v>
  </varray>
  <varray name="stress" >
   <v>      70.04173120      -0.00545283       0.00377497 </v>
   <v>      -0.00545283      70.04281138       0.00646602 </v>
   <v>       0.00377500       0.00646603      -2.68537006 </v>
  </varray>
  <energy>
   <i name="e_fr_energy">   -142.08975727 </i>
   <i name="e_wo_entrp">   -142.08694536 </i>
   <i name="e_0_energy">   -142.08835132 </i>
  </energy>
  <time name="totalsc">  231.62  233.75</time>
 </calculation>
 <calculation>
  <scstep>
   <time name="dav">    5.64    5.68</time>
   <time name="total">    5.93    5.98</time>
   <energy>
    <i name="alphaZ">     64.15735453 </i>
    <i name="ewald">   5639.59124772 </i>
    <i name="hartreedc">  -7697.14324902 </i>
    <i name="XCdc">    207.93464821 </i>
    <i name="pawpsdc">   6694.31446739 </i>
    <i name="pawaedc">  -6702.48317819 </i>
    <i name="eentropy">     -0.00554850 </i>
    <i name="bandstr">   -548.76322777 </i>
    <i name="atom">   2202.35892741 </i>
    <i name="e_fr_energy">   -140.03855823 </i>
    <i name="e_wo_entrp">   -140.03300973 </i>
    <i name="e_0_energy">   -140.03578398 </i>
   </energy>
  </scstep>
  <scstep>
   <time name="dav">    9.04    9.09</time>
   <time name="total">    9.32    9.39</time>
   <energy>
    <i name="e_fr_energy">   -139.92589569 </i>
    <i name="e_wo_entrp">   -139.92264656 </i>
    <i name="e_0_energy">   -139.92427112 </i>
   </energy>
  </scstep>
  <scstep>
   <time name="dav">   10.38   10.45</time>
   <time name="total">   10.67   10.75</time>
   <energy>
    <i name="e_fr_energy">   -139.91781440 </i>
    <i name="e_wo_entrp">   -139.91483074 </i>
    <i name="e_0_energy">   -139.91632257 </i>
   </energy>
  </scstep>
  <scstep>
   <time name="dav">    9.11    9.17</time>
   <time name="total">    9.40    9.47</time>
   <energy>
    <i name="e_fr_energy">   -139.91755571 </i>
    <i name="e_wo_entrp">   -139.91445197 </i>
    <i name="e_0_energy">   -139.91600384 </i>
   </energy>
  </scstep>
  <scstep>
   <time name="dav">    6.78    6.83</time>
   <time name="total">    7.07    7.13</time>
   <energy>
    <i name="e_fr_energy">   -139.91754264 </i>
    <i name="e_wo_entrp">   -139.91441910 </i>
    <i name="e_0_energy">   -139.91598087 </i>
   </energy>
  </scstep>
  <scstep>
   <time name="dav">   10.28   10.35</time>
   <time name="total">   10.56   10.65</time>
   <energy>
    <i name="e_fr_energy">   -139.91753406 </i>
    <i name="e_wo_entrp">   -139.91440321 </i>
    <i name="e_0_energy">   -139.91596863 </i>
   </energy>
  </scstep>
  <scstep>
   <time name="dav">    7.47    7.52</time>
   <time name="total">    7.76    7.82</time>
   <energy>
    <i name="e_fr_energy">   -139.91754055 </i>
    <i name="e_wo_entrp">   -139.91440169 </i>
    <i name="e_0_energy">   -139.91597112 </i>
   </energy>
  </scstep>
  <scstep>
   <time name="dav">    7.73    7.77</time>
   <time name="total">    8.02    8.08</time>
   <energy>
    <i name="e_fr_energy">   -139.91755050 </i>
    <i name="e_wo_entrp">   -139.91440556 </i>
    <i name="e_0_energy">   -139.91597803 </i>
   </energy>
  </scstep>
  <scstep>
