   16   16    1    1
  0.2012733E+02  0.4979000E-09  0.4979000E-09  0.1500000E-08  0.5000000E-15
  1.000000000000000E-004
  CAR 
 SC                                      
     56     81     48
 
  0.0000000E+00  0.0000000E+00  0.0000000E+00  0.3460208E-02
      1        -19.768210   1.000000
      2        -15.896741   1.000000
      3        -14.656030   1.000000
      4        -14.651422   1.000000
      5        -14.651410   1.000000
      6        -13.528276   1.000000
      7        -13.528251   1.000000
      8        -13.525775   1.000000
      9        -11.706305   1.000000
     10        -11.520981   1.000000
     11        -11.520975   1.000000
     12         -9.320328   1.000000
     13         -9.320319   1.000000
     14         -8.083724   1.000000
     15         -7.323194   1.000000
     16         -6.805864   1.000000
     17         -6.805844   1.000000
     18         -6.805361   1.000000
     19         -6.547921   1.000000
     20         -3.516957   1.000000
     21         -3.516872   1.000000
     22         -2.854976   1.000000
     23         -2.821340   1.000000
     24         -2.821320   1.000000
     25         -1.529604   1.000000
     26         -1.529601   1.000000
     27         -0.368283   0.926061
     28         -0.368278   0.926051
     29         -0.235906   0.335407
     30          0.949735   0.000000
     31          0.949738   0.000000
     32          1.127775   0.000000
     33          1.127797   0.000000
     34          1.130604   0.000000
     35          1.763133   0.000000
     36          1.763136   0.000000
     37          2.991868   0.000000
     38          3.597589   0.000000
     39          4.495778   0.000000
     40          4.814547   0.000000
     41          6.614824   0.000000
     42          6.617695   0.000000
     43          6.617704   0.000000
     44          7.072348   0.000000
     45          7.662159   0.000000
     46          7.662269   0.000000
     47          7.679199   0.000000
     48          8.405516   0.000000
 
  0.5882353E-01 -0.2524552E-17  0.0000000E+00  0.1384083E-01
      1        -19.748108   1.000000
      2        -15.880611   1.000000
      3        -14.926307   1.000000
      4        -14.721740   1.000000
      5        -14.718990   1.000000
      6        -13.427657   1.000000
      7        -13.426300   1.000000
      8        -13.224135   1.000000
      9        -12.007535   1.000000
     10        -11.537519   1.000000
     11        -11.231828   1.000000
     12         -9.353327   1.000000
     13         -9.278014   1.000000
     14         -8.057992   1.000000
     15         -7.242677   1.000000
     16         -6.869076   1.000000
     17         -6.868744   1.000000
     18         -6.785861   1.000000
     19         -6.523350   1.000000
     20         -3.601276   1.000000
     21         -3.560529   1.000000
     22         -2.967879   1.000000
     23         -2.856330   1.000000
     24         -2.838356   1.000000
     25         -1.755346   1.000000
     26         -1.728594   1.000000
     27         -0.716910   1.000000
     28         -0.317032   0.764936
     29          0.120430   0.000000
     30          0.888464   0.000000
     31          0.971487   0.000000
     32          1.176029   0.000000
     33          1.200353   0.000000
     34          1.291671   0.000000
     35          1.946371   0.000000
     36          1.988759   0.000000
     37          3.024597   0.000000
     38          3.630418   0.000000
     39          4.569559   0.000000
     40          4.846569   0.000000
     41          6.627658   0.000000
     42          6.710666   0.000000
     43          6.712534   0.000000
     44          7.094438   0.000000
     45          7.660223   0.000000
     46          7.714033   0.000000
     47          7.748914   0.000000
     48          8.247922   0.000000
 
 -0.5882353E-01  0.5882353E-01  0.0000000E+00  0.6920415E-02
      1        -19.748108   1.000000
      2        -15.880611   1.000000
      3        -14.926316   1.000000
      4        -14.721733   1.000000
      5        -14.718983   1.000000
      6        -13.427674   1.000000
      7        -13.426318   1.000000
      8        -13.224106   1.000000
      9        -12.007537   1.000000
     10        -11.537515   1.000000
     11        -11.231829   1.000000
     12         -9.353321   1.000000
     13         -9.278021   1.000000
     14         -8.057992   1.000000
     15         -7.242677   1.000000
     16         -6.869062   1.000000
     17         -6.868730   1.000000
     18         -6.785891   1.000000
     19         -6.523350   1.000000
     20         -3.601214   1.000000
     21         -3.560592   1.000000
     22         -2.967904   1.000000
     23         -2.856317   1.000000
     24         -2.838341   1.000000
     25         -1.755346   1.000000
     26         -1.728593   1.000000
     27         -0.716913   1.000000
     28         -0.317029   0.764923
     29          0.120431   0.000000
     30          0.888465   0.000000
     31          0.971484   0.000000
     32          1.176008   0.000000
     33          1.200336   0.000000
     34          1.291708   0.000000
     35          1.946371   0.000000
     36          1.988759   0.000000
     37          3.024597   0.000000
     38          3.630418   0.000000
     39          4.569559   0.000000
     40          4.846569   0.000000
     41          6.627645   0.000000
     42          6.710673   0.000000
     43          6.712541   0.000000
     44          7.094438   0.000000
     45          7.660163   0.000000
     46          7.714013   0.000000
     47          7.748996   0.000000
     48          8.247923   0.000000
 
  0.1176471E+00 -0.5292330E-17  0.0000000E+00  0.1384083E-01
      1        -19.687757   1.000000
      2        -15.832489   1.000000
      3        -15.424052   1.000000
      4        -14.874285   1.000000
      5        -14.872003   1.000000
      6        -13.176181   1.000000
      7        -13.175273   1.000000
      8        -12.636897   1.000000
      9        -12.385104   1.000000
     10        -11.582498   1.000000
     11        -10.902290   1.000000
     12         -9.414341   1.000000
     13         -9.156542   1.000000
     14         -7.982391   1.000000
     15         -7.052744   1.000000
     16         -7.052105   1.000000
     17         -7.030975   1.000000
     18         -6.726522   1.000000
     19         -6.449802   1.000000
     20         -3.846651   1.000000
     21         -3.686486   1.000000
     22         -3.308785   1.000000
     23         -2.902133   1.000000
     24         -2.887607   1.000000
     25         -2.234151   1.000000
     26         -2.159420   1.000000
     27         -1.194946   1.000000
     28         -0.358071   0.903653
     29          0.374580   0.000000
     30          0.998171   0.000000
     31          1.144868   0.000000
     32          1.326909   0.000000
     33          1.418304   0.000000
     34          1.713505   0.000000
     35          2.378749   0.000000
     36          2.448682   0.000000
     37          3.130286   0.000000
     38          3.726884   0.000000
     39          4.768571   0.000000
     40          4.953150   0.000000
     41          6.660112   0.000000
     42          6.988170   0.000000
     43          6.990201   0.000000
     44          7.156177   0.000000
     45          7.664941   0.000000
     46          7.712090   0.000000
     47          7.874633   0.000000
     48          8.005089   0.000000
 
 -0.1176471E+00  0.1176471E+00  0.0000000E+00  0.6920415E-02
      1        -19.687757   1.000000
      2        -15.832489   1.000000
      3        -15.424055   1.000000
      4        -14.874281   1.000000
      5        -14.871998   1.000000
      6        -13.176195   1.000000
      7        -13.175288   1.000000
      8        -12.636874   1.000000
      9        -12.385108   1.000000
     10        -11.582494   1.000000
     11        -10.902288   1.000000
     12         -9.414337   1.000000
     13         -9.156548   1.000000
     14         -7.982391   1.000000
     15         -7.052729   1.000000
     16         -7.052091   1.000000
     17         -7.030974   1.000000
     18         -6.726551   1.000000
     19         -6.449802   1.000000
     20         -3.846591   1.000000
     21         -3.686547   1.000000
     22         -3.308806   1.000000
     23         -2.902119   1.000000
     24         -2.887593   1.000000
     25         -2.234150   1.000000
     26         -2.159420   1.000000
     27         -1.194949   1.000000
     28         -0.358069   0.903648
     29          0.374587   0.000000
     30          0.998164   0.000000
     31          1.144858   0.000000
     32          1.326891   0.000000
     33          1.418292   0.000000
     34          1.713539   0.000000
     35          2.378750   0.000000
     36          2.448680   0.000000
     37          3.130286   0.000000
     38          3.726885   0.000000
     39          4.768571   0.000000
     40          4.953151   0.000000
     41          6.660098   0.000000
     42          6.988177   0.000000
     43          6.990209   0.000000
     44          7.156176   0.000000
     45          7.664915   0.000000
     46          7.712050   0.000000
     47          7.874631   0.000000
     48          8.005168   0.000000
 
  0.1764706E+00 -0.7275752E-17  0.0000000E+00  0.1384083E-01
      1        -19.587274   1.000000
      2        -15.945838   1.000000
      3        -15.752416   1.000000
      4        -15.046733   1.000000
      5        -15.044817   1.000000
      6        -12.841407   1.000000
      7        -12.840997   1.000000
      8        -12.759770   1.000000
      9        -11.967365   1.000000
     10        -11.644953   1.000000
     11        -10.652685   1.000000
     12         -9.414619   1.000000
     13         -8.969638   1.000000
     14         -7.859244   1.000000
     15         -7.338879   1.000000
     16         -7.338467   1.000000
     17         -6.754570   1.000000
     18         -6.628331   1.000000
     19         -6.328134   1.000000
     20         -4.235645   1.000000
     21         -3.882149   1.000000
     22         -3.763412   1.000000
     23         -2.979633   1.000000
     24         -2.969373   1.000000
     25         -2.761421   1.000000
     26         -2.634490   1.000000
     27         -1.737608   1.000000
     28         -0.524100   0.999869
     29          0.323447   0.000000
     30          1.326353   0.000000
     31          1.365596   0.000000
     32          1.678156   0.000000
     33          1.847641   0.000000
     34          2.300171   0.000000
     35          2.919588   0.000000
     36          2.928687   0.000000
     37          3.344900   0.000000
     38          3.885703   0.000000
     39          4.997520   0.000000
     40          5.191101   0.000000
     41          6.712339   0.000000
     42          7.008295   0.000000
     43          7.316808   0.000000
     44          7.431693   0.000000
     45          7.432612   0.000000
     46          7.706885   0.000000
     47          7.908895   0.000000
     48          8.054175   0.000000
 
 -0.1764706E+00  0.1764706E+00  0.0000000E+00  0.6920415E-02
      1        -19.587274   1.000000
      2        -15.945838   1.000000
      3        -15.752416   1.000000
      4        -15.046730   1.000000
      5        -15.044814   1.000000
      6        -12.841420   1.000000
      7        -12.841011   1.000000
      8        -12.759774   1.000000
      9        -11.967343   1.000000
     10        -11.644950   1.000000
     11        -10.652680   1.000000
     12         -9.414618   1.000000
     13         -8.969644   1.000000
     14         -7.859244   1.000000
     15         -7.338865   1.000000
     16         -7.338452   1.000000
     17         -6.754570   1.000000
     18         -6.628361   1.000000
     19         -6.328134   1.000000
     20         -4.235589   1.000000
     21         -3.882206   1.000000
     22         -3.763428   1.000000
     23         -2.979622   1.000000
     24         -2.969360   1.000000
     25         -2.761417   1.000000
     26         -2.634491   1.000000
     27         -1.737611   1.000000
     28         -0.524098   0.999869
     29          0.323455   0.000000
     30          1.326333   0.000000
     31          1.365577   0.000000
     32          1.678148   0.000000
     33          1.847638   0.000000
     34          2.300200   0.000000
     35          2.919586   0.000000
     36          2.928689   0.000000
     37          3.344899   0.000000
     38          3.885704   0.000000
     39          4.997519   0.000000
     40          5.191103   0.000000
     41          6.712325   0.000000
     42          7.008301   0.000000
     43          7.316808   0.000000
     44          7.431702   0.000000
     45          7.432621   0.000000
     46          7.706825   0.000000
     47          7.908892   0.000000
     48          8.054175   0.000000
 
  0.2352941E+00 -0.1058466E-16  0.0000000E+00  0.1384083E-01
      1        -19.446802   1.000000
      2        -16.450238   1.000000
      3        -15.643378   1.000000
      4        -15.207396   1.000000
      5        -15.205778   1.000000
      6        -13.122747   1.000000
      7        -12.458902   1.000000
      8        -12.458320   1.000000
      9        -11.712889   1.000000
     10        -11.257877   1.000000
     11        -10.538668   1.000000
     12         -9.271484   1.000000
     13         -8.734838   1.000000
     14         -7.703973   1.000000
     15         -7.703522   1.000000
     16         -7.689358   1.000000
     17         -6.492289   1.000000
     18         -6.485932   1.000000
     19         -6.160470   1.000000
     20         -4.742961   1.000000
     21         -4.259561   1.000000
     22         -4.130937   1.000000
     23         -3.375115   1.000000
     24         -3.102473   1.000000
     25         -3.013924   1.000000
     26         -2.997461   1.000000
     27         -2.292982   1.000000
     28         -0.717172   1.000000
     29          0.204626   0.000000
     30          1.573085   0.000000
     31          1.583548   0.000000
     32          2.231775   0.000000
     33          2.409938   0.000000
     34          2.980317   0.000000
     35          3.283602   0.000000
     36          3.533117   0.000000
     37          3.713528   0.000000
     38          4.115186   0.000000
     39          5.212842   0.000000
     40          5.526036   0.000000
     41          6.300737   0.000000
     42          6.780887   0.000000
     43          7.379215   0.000000
     44          7.543193   0.000000
     45          7.709863   0.000000
     46          7.950805   0.000000
     47          8.003094   0.000000
     48          8.013740   0.000000
 
 -0.2352941E+00  0.2352941E+00  0.0000000E+00  0.6920415E-02
      1        -19.446802   1.000000
      2        -16.450238   1.000000
      3        -15.643377   1.000000
      4        -15.207395   1.000000
      5        -15.205776   1.000000
      6        -13.122752   1.000000
      7        -12.458915   1.000000
      8        -12.458334   1.000000
      9        -11.712886   1.000000
     10        -11.257855   1.000000
     11        -10.538661   1.000000
     12         -9.271485   1.000000
     13         -8.734845   1.000000
     14         -7.703958   1.000000
     15         -7.703507   1.000000
     16         -7.689359   1.000000
     17         -6.492320   1.000000
     18         -6.485933   1.000000
     19         -6.160470   1.000000
     20         -4.742910   1.000000
     21         -4.259572   1.000000
     22         -4.130991   1.000000
     23         -3.375113   1.000000
     24         -3.102470   1.000000
     25         -3.013916   1.000000
     26         -2.997449   1.000000
     27         -2.292985   1.000000
     28         -0.717170   1.000000
     29          0.204634   0.000000
     30          1.573061   0.000000
     31          1.583526   0.000000
     32          2.231771   0.000000
     33          2.409937   0.000000
     34          2.980342   0.000000
     35          3.283602   0.000000
     36          3.533120   0.000000
     37          3.713525   0.000000
     38          4.115187   0.000000
     39          5.212840   0.000000
     40          5.526039   0.000000
     41          6.300744   0.000000
     42          6.780871   0.000000
     43          7.379209   0.000000
     44          7.543188   0.000000
     45          7.709813   0.000000
     46          7.950801   0.000000
     47          8.003106   0.000000
     48          8.013720   0.000000
 
  0.2941176E+00 -0.4546927E-17  0.0000000E+00  0.1384083E-01
      1        -19.266532   1.000000
      2        -16.927051   1.000000
      3        -15.507509   1.000000
      4        -15.342853   1.000000
      5        -15.341757   1.000000
      6        -13.466450   1.000000
      7        -12.049418   1.000000
      8        -12.048478   1.000000
      9        -11.776265   1.000000
     10        -10.540332   1.000000
     11        -10.520773   1.000000
     12         -8.994895   1.000000
     13         -8.472208   1.000000
     14         -8.119832   1.000000
     15         -8.119325   1.000000
     16         -7.473405   1.000000
     17         -6.320194   1.000000
     18         -6.303337   1.000000
     19         -5.951163   1.000000
     20         -5.342484   1.000000
     21         -4.756497   1.000000
     22         -4.414960   1.000000
     23         -3.891014   1.000000
     24         -3.407336   1.000000
     25         -3.141758   1.000000
     26         -3.080101   1.000000
     27         -2.804206   1.000000
     28         -0.890605   1.000000
     29          0.088802   0.000000
     30          1.793262   0.000000
     31          1.799030   0.000000
     32          2.810772   0.000000
     33          3.033164   0.000000
     34          3.570248   0.000000
     35          3.746841   0.000000
     36          4.123204   0.000000
     37          4.152823   0.000000
     38          4.435003   0.000000
     39          5.441972   0.000000
     40          5.560526   0.000000
     41          5.849954   0.000000
     42          6.829616   0.000000
     43          7.008678   0.000000
     44          7.464734   0.000000
     45          7.558025   0.000000
     46          7.639327   0.000000
     47          7.776055   0.000000
     48          7.805282   0.000000
 
 -0.2941176E+00  0.2941176E+00  0.0000000E+00  0.6920415E-02
      1        -19.266531   1.000000
      2        -16.927050   1.000000
      3        -15.507508   1.000000
      4        -15.342853   1.000000
      5        -15.341756   1.000000
      6        -13.466455   1.000000
      7        -12.049432   1.000000
      8        -12.048493   1.000000
      9        -11.776262   1.000000
     10        -10.540322   1.000000
     11        -10.520750   1.000000
     12         -8.994897   1.000000
     13         -8.472214   1.000000
     14         -8.119815   1.000000
     15         -8.119308   1.000000
     16         -7.473405   1.000000
     17         -6.320226   1.000000
     18         -6.303339   1.000000
     19         -5.951162   1.000000
     20         -5.342438   1.000000
     21         -4.756506   1.000000
     22         -4.415011   1.000000
     23         -3.891012   1.000000
     24         -3.407336   1.000000
     25         -3.141749   1.000000
     26         -3.080089   1.000000
     27         -2.804207   1.000000
     28         -0.890604   1.000000
     29          0.088809   0.000000
     30          1.793238   0.000000
     31          1.799008   0.000000
     32          2.810769   0.000000
     33          3.033165   0.000000
     34          3.570248   0.000000
     35          3.746863   0.000000
     36          4.123201   0.000000
     37          4.152827   0.000000
     38          4.435003   0.000000
     39          5.441970   0.000000
     40          5.560535   0.000000
     41          5.849955   0.000000
     42          6.829604   0.000000
     43          7.008673   0.000000
     44          7.464734   0.000000
     45          7.558021   0.000000
     46          7.639298   0.000000
     47          7.776043   0.000000
     48          7.805279   0.000000
 
  0.3529412E+00 -0.3452915E-16  0.0000000E+00  0.1384083E-01
      1        -19.046731   1.000000
      2        -17.371454   1.000000
      3        -15.449514   1.000000
      4        -15.446820   1.000000
      5        -15.348916   1.000000
      6        -13.781720   1.000000
      7        -11.830869   1.000000
      8        -11.631759   1.000000
      9        -11.630862   1.000000
     10        -10.584259   1.000000
     11         -9.767891   1.000000
     12         -8.660042   1.000000
     13         -8.553835   1.000000
     14         -8.553377   1.000000
     15         -8.207416   1.000000
     16         -7.212973   1.000000
     17         -6.270967   1.000000
     18         -6.114118   1.000000
     19         -6.010271   1.000000
     20         -5.715843   1.000000
     21         -5.222109   1.000000
     22         -4.717640   1.000000
     23         -4.352770   1.000000
     24         -3.594469   1.000000
     25         -3.423350   1.000000
     26         -3.144338   1.000000
     27         -3.079382   1.000000
     28         -1.027337   1.000000
     29         -0.006439   0.000121
     30          1.987569   0.000000
     31          1.992805   0.000000
     32          3.345343   0.000000
     33          3.690117   0.000000
     34          3.939631   0.000000
     35          4.429829   0.000000
     36          4.530703   0.000000
     37          4.753012   0.000000
     38          4.815303   0.000000
     39          5.006774   0.000000
     40          5.615213   0.000000
     41          5.936522   0.000000
     42          6.581671   0.000000
     43          6.970737   0.000000
     44          7.054098   0.000000
     45          7.086752   0.000000
     46          7.317281   0.000000
     47          7.592994   0.000000
     48          7.958720   0.000000
 
 -0.3529412E+00  0.3529412E+00  0.0000000E+00  0.6920415E-02
      1        -19.046731   1.000000
      2        -17.371453   1.000000
      3        -15.449514   1.000000
      4        -15.446819   1.000000
      5        -15.348914   1.000000
      6        -13.781726   1.000000
      7        -11.830867   1.000000
      8        -11.631776   1.000000
      9        -11.630879   1.000000
     10        -10.584250   1.000000
     11         -9.767866   1.000000
     12         -8.660044   1.000000
     13         -8.553816   1.000000
     14         -8.553358   1.000000
     15         -8.207422   1.000000
     16         -7.212974   1.000000
     17         -6.270972   1.000000
     18         -6.114152   1.000000
     19         -6.010230   1.000000
     20         -5.715841   1.000000
     21         -5.222116   1.000000
     22         -4.717687   1.000000
     23         -4.352768   1.000000
     24         -3.594470   1.000000
     25         -3.423350   1.000000
     26         -3.144326   1.000000
     27         -3.079373   1.000000
     28         -1.027336   1.000000
     29         -0.006431   0.000121
     30          1.987545   0.000000
     31          1.992781   0.000000
     32          3.345339   0.000000
     33          3.690119   0.000000
     34          3.939629   0.000000
     35          4.429836   0.000000
     36          4.530712   0.000000
     37          4.753018   0.000000
     38          4.815303   0.000000
     39          5.006782   0.000000
     40          5.615214   0.000000
     41          5.936519   0.000000
     42          6.581673   0.000000
     43          6.970728   0.000000
     44          7.054093   0.000000
     45          7.086751   0.000000
     46          7.317276   0.000000
     47          7.592956   0.000000
     48          7.958715   0.000000
 
  0.4117647E+00  0.8812903E-17  0.0000000E+00  0.1384083E-01
      1        -18.787763   1.000000
      2        -17.781013   1.000000
      3        -15.519978   1.000000
      4        -15.518055   1.000000
      5        -15.187737   1.000000
      6        -14.050551   1.000000
      7        -11.867494   1.000000
      8        -11.245232   1.000000
      9        -11.245082   1.000000
     10        -10.629427   1.000000
     11         -9.002889   1.000000
     12         -8.958345   1.000000
     13         -8.957707   1.000000
     14         -8.339828   1.000000
     15         -7.978506   1.000000
     16         -6.913205   1.000000
     17         -6.725644   1.000000
     18         -6.372536   1.000000
     19         -5.876996   1.000000
     20         -5.749060   1.000000
     21         -5.366676   1.000000
     22         -5.025123   1.000000
     23         -4.714469   1.000000
     24         -3.892749   1.000000
     25         -3.583636   1.000000
     26         -3.189825   1.000000
     27         -3.152750   1.000000
     28         -1.120705   1.000000
     29         -0.073213   0.003207
     30          2.134843   0.000000
     31          2.140418   0.000000
     32          3.804273   0.000000
     33          4.310450   0.000000
     34          4.358147   0.000000
     35          4.512716   0.000000
     36          4.830558   0.000000
     37          5.085693   0.000000
     38          5.284881   0.000000
     39          5.322887   0.000000
     40          5.514018   0.000000
     41          6.076892   0.000000
     42          6.292123   0.000000
     43          6.689669   0.000000
     44          6.728539   0.000000
     45          6.731967   0.000000
     46          7.112194   0.000000
     47          7.500835   0.000000
     48          7.622236   0.000000
 
 -0.4117647E+00  0.4117647E+00  0.0000000E+00  0.6920415E-02
      1        -18.787762   1.000000
      2        -17.781012   1.000000
      3        -15.519979   1.000000
      4        -15.518054   1.000000
      5        -15.187734   1.000000
      6        -14.050558   1.000000
      7        -11.867491   1.000000
      8        -11.245253   1.000000
      9        -11.245104   1.000000
     10        -10.629417   1.000000
     11         -9.002862   1.000000
     12         -8.958321   1.000000
     13         -8.957682   1.000000
     14         -8.339828   1.000000
     15         -7.978513   1.000000
     16         -6.913206   1.000000
     17         -6.725607   1.000000
     18         -6.372542   1.000000
     19         -5.877031   1.000000
     20         -5.749063   1.000000
     21         -5.366676   1.000000
     22         -5.025166   1.000000
     23         -4.714465   1.000000
     24         -3.892754   1.000000
     25         -3.583634   1.000000
     26         -3.189814   1.000000
     27         -3.152738   1.000000
     28         -1.120703   1.000000
     29         -0.073206   0.003206
     30          2.134818   0.000000
     31          2.140394   0.000000
     32          3.804270   0.000000
     33          4.310447   0.000000
     34          4.358151   0.000000
     35          4.512725   0.000000
     36          4.830554   0.000000
     37          5.085691   0.000000
     38          5.284888   0.000000
     39          5.322901   0.000000
     40          5.514024   0.000000
     41          6.076885   0.000000
     42          6.292126   0.000000
     43          6.689675   0.000000
     44          6.728540   0.000000
     45          6.731962   0.000000
     46          7.112174   0.000000
     47          7.500802   0.000000
     48          7.622240   0.000000
 
  0.4705882E+00 -0.2116932E-16  0.0000000E+00  0.1384083E-01
      1        -18.490075   1.000000
      2        -18.154218   1.000000
      3        -15.555791   1.000000
      4        -15.553984   1.000000
      5        -15.065046   1.000000
      6        -14.227188   1.000000
      7        -11.886660   1.000000
      8        -10.977513   1.000000
      9        -10.977426   1.000000
     10        -10.655522   1.000000
     11         -9.236943   1.000000
     12         -9.236202   1.000000
     13         -8.235750   1.000000
     14         -8.123922   1.000000
     15         -7.839290   1.000000
     16         -7.471205   1.000000
     17         -6.625283   1.000000
     18         -6.449434   1.000000
     19         -6.136420   1.000000
     20         -5.612643   1.000000
     21         -5.326439   1.000000
     22         -5.156374   1.000000
     23         -4.920386   1.000000
     24         -4.204425   1.000000
     25         -3.573865   1.000000
     26         -3.213423   1.000000
     27         -3.181312   1.000000
     28         -1.167911   1.000000
     29         -0.107467   0.012499
     30          2.214884   0.000000
     31          2.220787   0.000000
     32          4.115705   0.000000
     33          4.291890   0.000000
     34          4.662536   0.000000
     35          4.923491   0.000000
     36          4.959292   0.000000
     37          5.226555   0.000000
     38          5.500450   0.000000
     39          5.605869   0.000000
     40          5.751916   0.000000
     41          6.160172   0.000000
     42          6.211316   0.000000
     43          6.259042   0.000000
     44          6.447590   0.000000
     45          6.765377   0.000000
     46          6.962761   0.000000
     47          7.157176   0.000000
     48          7.171163   0.000000
 
 -0.4705882E+00  0.4705882E+00  0.0000000E+00  0.6920415E-02
      1        -18.490075   1.000000
      2        -18.154217   1.000000
      3        -15.555791   1.000000
      4        -15.553984   1.000000
      5        -15.065041   1.000000
      6        -14.227198   1.000000
      7        -11.886658   1.000000
      8        -10.977540   1.000000