   8   8   0  16
  0.4131256E+02  0.5044000E-09  0.5044000E-09  0.1500000E-08  0.5000000E-15
  1.000000000000000E-004
  CAR 
 SC                                      
     76.34377747    -26.12072987  301     -2.48382384      1.00000000
    -26.121  0.0000E+00  0.0000E+00
    -25.779  0.0000E+00  0.0000E+00
    -25.438  0.0000E+00  0.0000E+00
    -25.096  0.0000E+00  0.0000E+00
    -24.755  0.0000E+00  0.0000E+00
    -24.413  0.0000E+00  0.0000E+00
    -24.071  0.0000E+00  0.0000E+00
    -23.730  0.0000E+00  0.0000E+00
    -23.388  0.0000E+00  0.0000E+00
    -23.047  0.0000E+00  0.0000E+00
    -22.705  0.0000E+00  0.0000E+00
    -22.364  0.0000E+00  0.0000E+00
    -22.022  0.4724E-16  0.1613E-16
    -21.681  0.7767E-04  0.2653E-04
    -21.339  0.4691E+00  0.1602E+00
    -20.998  0.1276E+01  0.5961E+00
    -20.656  0.1299E+01  0.1040E+01
    -20.314  0.1262E+01  0.1471E+01
    -19.973  0.1322E+01  0.1922E+01
    -19.631  0.1338E+01  0.2379E+01
    -19.290  0.1327E+01  0.2833E+01
    -18.948  0.1308E+01  0.3279E+01
    -18.607  0.1310E+01  0.3727E+01
    -18.265  0.1280E+01  0.4164E+01
    -17.924  0.1419E+01  0.4649E+01
    -17.582  0.1481E+01  0.5154E+01
    -17.240  0.1445E+01  0.5648E+01
    -16.899  0.1378E+01  0.6119E+01
    -16.557  0.1761E+01  0.6720E+01
    -16.216  0.1824E+01  0.7343E+01
    -15.874  0.9569E+00  0.7670E+01
    -15.533  0.4731E+00  0.7832E+01
    -15.191  0.6811E+00  0.8064E+01
    -14.850  0.1388E+01  0.8538E+01
    -14.508  0.1831E+01  0.9164E+01
    -14.167  0.1710E+01  0.9748E+01
    -13.825  0.1462E+01  0.1025E+02
    -13.483  0.1302E+01  0.1069E+02
    -13.142  0.1252E+01  0.1112E+02
    -12.800  0.1158E+01  0.1151E+02
    -12.459  0.1135E+01  0.1190E+02
    -12.117  0.1403E+01  0.1238E+02
    -11.776  0.1573E+01  0.1292E+02
    -11.434  0.1711E+01  0.1350E+02
    -11.093  0.1450E+01  0.1400E+02
    -10.751  0.1669E+01  0.1457E+02
    -10.410  0.1937E+01  0.1523E+02
    -10.068  0.1679E+01  0.1580E+02
     -9.726  0.1871E+01  0.1644E+02
     -9.385  0.3010E+01  0.1747E+02
     -9.043  0.3282E+01  0.1859E+02
     -8.702  0.4222E+01  0.2003E+02
     -8.360  0.4173E+01  0.2146E+02
     -8.019  0.3183E+01  0.2255E+02
     -7.677  0.2968E+01  0.2356E+02
     -7.336  0.2744E+01  0.2450E+02
     -6.994  0.2557E+01  0.2537E+02
     -6.652  0.2588E+01  0.2625E+02
     -6.311  0.2466E+01  0.2710E+02
     -5.969  0.2280E+01  0.2788E+02
     -5.628  0.2243E+01  0.2864E+02
     -5.286  0.1862E+01  0.2928E+02
     -4.945  0.1675E+01  0.2985E+02
     -4.603  0.1976E+01  0.3052E+02
     -4.262  0.1545E+01  0.3105E+02
     -3.920  0.1153E+01  0.3145E+02
     -3.579  0.7798E+00  0.3171E+02
     -3.237  0.4101E+00  0.3185E+02
     -2.895  0.2946E+00  0.3195E+02
     -2.554  0.1368E+00  0.3200E+02
     -2.212  0.6572E-01  0.3202E+02
     -1.871  0.1993E+00  0.3209E+02
     -1.529  0.4794E+00  0.3225E+02
     -1.188  0.8887E+00  0.3256E+02
     -0.846  0.1680E+01  0.3313E+02
     -0.505  0.2001E+01  0.3381E+02
     -0.163  0.1523E+01  0.3434E+02
      0.178  0.1317E+01  0.3478E+02
      0.520  0.9858E+00  0.3512E+02
      0.862  0.1166E+01  0.3552E+02
      1.203  0.1514E+01  0.3604E+02
      1.545  0.1865E+01  0.3667E+02
      1.886  0.1964E+01  0.3734E+02
      2.228  0.2539E+01  0.3821E+02
      2.569  0.3181E+01  0.3930E+02
      2.911  0.3465E+01  0.4048E+02
      3.252  0.3717E+01  0.4175E+02
      3.594  0.3523E+01  0.4295E+02
      3.936  0.3556E+01  0.4417E+02
      4.277  0.3345E+01  0.4531E+02
      4.619  0.6409E+01  0.4750E+02
      4.960  0.6569E+01  0.4974E+02
      5.302  0.7554E+01  0.5232E+02
      5.643  0.9713E+01  0.5564E+02
      5.985  0.7938E+01  0.5835E+02
      6.326  0.7319E+01  0.6085E+02
      6.668  0.6820E+01  0.6318E+02
      7.009  0.6924E+01  0.6555E+02
      7.351  0.7054E+01  0.6796E+02
      7.693  0.6549E+01  0.7019E+02
      8.034  0.7333E+01  0.7270E+02
      8.376  0.8758E+01  0.7569E+02
      8.717  0.8411E+01  0.7856E+02
      9.059  0.7880E+01  0.8125E+02
      9.400  0.7881E+01  0.8394E+02
      9.742  0.8844E+01  0.8697E+02
     10.083  0.9920E+01  0.9035E+02
     10.425  0.9694E+01  0.9366E+02
     10.766  0.8061E+01  0.9642E+02
     11.108  0.7682E+01  0.9904E+02
     11.450  0.1126E+02  0.1029E+03
     11.791  0.8355E+01  0.1057E+03
     12.133  0.6665E+01  0.1080E+03
     12.474  0.6047E+01  0.1101E+03
     12.816  0.7246E+01  0.1126E+03
     13.157  0.6724E+01  0.1149E+03
     13.499  0.9176E+01  0.1180E+03
     13.840  0.1018E+02  0.1215E+03
     14.182  0.1110E+02  0.1253E+03
     14.524  0.9729E+01  0.1286E+03
     14.865  0.1024E+02  0.1321E+03
     15.207  0.8111E+01  0.1348E+03
     15.548  0.8169E+01  0.1376E+03
     15.890  0.1008E+02  0.1411E+03
     16.231  0.9320E+01  0.1443E+03
     16.573  0.9458E+01  0.1475E+03
     16.914  0.9352E+01  0.1507E+03
     17.256  0.1013E+02  0.1541E+03
     17.597  0.9609E+01  0.1574E+03
     17.939  0.9324E+01  0.1606E+03
     18.281  0.1013E+02  0.1641E+03
     18.622  0.1044E+02  0.1676E+03
     18.964  0.1190E+02  0.1717E+03
     19.305  0.1237E+02  0.1759E+03
     19.647  0.1335E+02  0.1805E+03
     19.988  0.1120E+02  0.1843E+03
     20.330  0.1014E+02  0.1878E+03
     20.671  0.1057E+02  0.1914E+03
     21.013  0.1177E+02  0.1954E+03
     21.354  0.1092E+02  0.1991E+03
     21.696  0.1014E+02  0.2026E+03
     22.038  0.1038E+02  0.2062E+03
     22.379  0.1156E+02  0.2101E+03
     22.721  0.1095E+02  0.2138E+03
     23.062  0.1153E+02  0.2178E+03
     23.404  0.1487E+02  0.2229E+03
     23.745  0.1260E+02  0.2272E+03
     24.087  0.1136E+02  0.2310E+03
     24.428  0.1003E+02  0.2345E+03
     24.770  0.1141E+02  0.2384E+03
     25.112  0.1188E+02  0.2424E+03
     25.453  0.1108E+02  0.2462E+03
     25.795  0.1021E+02  0.2497E+03
     26.136  0.1066E+02  0.2533E+03
     26.478  0.1345E+02  0.2579E+03
     26.819  0.1062E+02  0.2615E+03
     27.161  0.1121E+02  0.2654E+03
     27.502  0.1082E+02  0.2691E+03
     27.844  0.1124E+02  0.2729E+03
     28.185  0.1049E+02  0.2765E+03
     28.527  0.1147E+02  0.2804E+03
     28.869  0.1390E+02  0.2852E+03
     29.210  0.1038E+02  0.2887E+03
     29.552  0.1156E+02  0.2927E+03
     29.893  0.1267E+02  0.2970E+03
     30.235  0.1341E+02  0.3016E+03
     30.576  0.1081E+02  0.3053E+03
     30.918  0.1119E+02  0.3091E+03
     31.259  0.1212E+02  0.3132E+03
     31.601  0.1393E+02  0.3180E+03
     31.942  0.1481E+02  0.3230E+03
     32.284  0.1508E+02  0.3282E+03
     32.626  0.1151E+02  0.3321E+03
     32.967  0.1339E+02  0.3367E+03
     33.309  0.1053E+02  0.3403E+03
     33.650  0.1203E+02  0.3444E+03
     33.992  0.1367E+02  0.3491E+03
     34.333  0.1370E+02  0.3537E+03
     34.675  0.1272E+02  0.3581E+03
     35.016  0.1531E+02  0.3633E+03
     35.358  0.1481E+02  0.3684E+03
     35.700  0.1540E+02  0.3736E+03
     36.041  0.1427E+02  0.3785E+03
     36.383  0.1125E+02  0.3823E+03
     36.724  0.1604E+02  0.3878E+03
     37.066  0.1186E+02  0.3919E+03
     37.407  0.1265E+02  0.3962E+03
     37.749  0.1450E+02  0.4011E+03
     38.090  0.1222E+02  0.4053E+03
     38.432  0.1530E+02  0.4105E+03
     38.773  0.1583E+02  0.4160E+03
     39.115  0.1659E+02  0.4216E+03
     39.457  0.1341E+02  0.4262E+03
     39.798  0.1550E+02  0.4315E+03
     40.140  0.1688E+02  0.4373E+03
     40.481  0.1559E+02  0.4426E+03
     40.823  0.1766E+02  0.4486E+03
     41.164  0.1450E+02  0.4536E+03
     41.506  0.1448E+02  0.4585E+03
     41.847  0.1487E+02  0.4636E+03
     42.189  0.1563E+02  0.4689E+03
     42.530  0.1645E+02  0.4746E+03
     42.872  0.1548E+02  0.4798E+03
     43.214  0.1580E+02  0.4852E+03
     43.555  0.1523E+02  0.4904E+03
     43.897  0.1630E+02  0.4960E+03
     44.238  0.1514E+02  0.5012E+03
     44.580  0.1417E+02  0.5060E+03
     44.921  0.1356E+02  0.5106E+03
     45.263  0.1571E+02  0.5160E+03
     45.604  0.1526E+02  0.5212E+03
     45.946  0.1642E+02  0.5268E+03
     46.288  0.1367E+02  0.5315E+03
     46.629  0.1547E+02  0.5368E+03
     46.971  0.1611E+02  0.5423E+03
     47.312  0.1805E+02  0.5485E+03
     47.654  0.1445E+02  0.5534E+03
     47.995  0.1445E+02  0.5583E+03
     48.337  0.1610E+02  0.5638E+03
     48.678  0.1483E+02  0.5689E+03
     49.020  0.1449E+02  0.5738E+03
     49.361  0.1438E+02  0.5787E+03
     49.703  0.1662E+02  0.5844E+03
     50.045  0.1635E+02  0.5900E+03
     50.386  0.1654E+02  0.5957E+03
     50.728  0.1615E+02  0.6012E+03
     51.069  0.1570E+02  0.6065E+03
     51.411  0.1350E+02  0.6111E+03
     51.752  0.1626E+02  0.6167E+03
     52.094  0.1806E+02  0.6229E+03
     52.435  0.1655E+02  0.6285E+03
     52.777  0.1718E+02  0.6344E+03
     53.118  0.1696E+02  0.6402E+03
     53.460  0.1835E+02  0.6464E+03
     53.802  0.1922E+02  0.6530E+03
     54.143  0.1884E+02  0.6594E+03
     54.485  0.1803E+02  0.6656E+03
     54.826  0.1500E+02  0.6707E+03
     55.168  0.1792E+02  0.6768E+03
     55.509  0.1769E+02  0.6829E+03
     55.851  0.1795E+02  0.6890E+03
     56.192  0.1512E+02  0.6942E+03
     56.534  0.1810E+02  0.7004E+03
     56.876  0.1851E+02  0.7067E+03
     57.217  0.1728E+02  0.7126E+03
     57.559  0.1673E+02  0.7183E+03
     57.900  0.2043E+02  0.7253E+03
     58.242  0.1665E+02  0.7310E+03
     58.583  0.1910E+02  0.7375E+03
     58.925  0.1680E+02  0.7432E+03
     59.266  0.1747E+02  0.7492E+03
     59.608  0.1485E+02  0.7543E+03
     59.949  0.1874E+02  0.7607E+03
     60.291  0.1807E+02  0.7668E+03
     60.633  0.1880E+02  0.7733E+03
     60.974  0.1679E+02  0.7790E+03
     61.316  0.1966E+02  0.7857E+03
     61.657  0.1695E+02  0.7915E+03
     61.999  0.1835E+02  0.7978E+03
     62.340  0.1610E+02  0.8033E+03
     62.682  0.1931E+02  0.8099E+03
     63.023  0.1861E+02  0.8162E+03
     63.365  0.1527E+02  0.8214E+03
     63.706  0.1876E+02  0.8278E+03
     64.048  0.1681E+02  0.8336E+03
     64.390  0.1716E+02  0.8394E+03
     64.731  0.1797E+02  0.8456E+03
     65.073  0.1945E+02  0.8522E+03
     65.414  0.1850E+02  0.8586E+03
     65.756  0.1931E+02  0.8651E+03
     66.097  0.1715E+02  0.8710E+03
     66.439  0.1998E+02  0.8778E+03
     66.780  0.2018E+02  0.8847E+03
     67.122  0.1958E+02  0.8914E+03
     67.464  0.1901E+02  0.8979E+03
     67.805  0.1801E+02  0.9041E+03
     68.147  0.1909E+02  0.9106E+03
     68.488  0.1836E+02  0.9168E+03
     68.830  0.1864E+02  0.9232E+03
     69.171  0.2100E+02  0.9304E+03
     69.513  0.1932E+02  0.9370E+03
     69.854  0.1708E+02  0.9428E+03
     70.196  0.1721E+02  0.9487E+03
     70.537  0.1196E+02  0.9528E+03
     70.879  0.1156E+02  0.9567E+03
     71.221  0.6450E+01  0.9589E+03
     71.562  0.2622E+01  0.9598E+03
     71.904  0.5060E+00  0.9600E+03
     72.245  0.2611E-03  0.9600E+03
     72.587  0.0000E+00  0.9600E+03
     72.928  0.0000E+00  0.9600E+03
     73.270  0.0000E+00  0.9600E+03
     73.611  0.0000E+00  0.9600E+03
     73.953  0.0000E+00  0.9600E+03
     74.294  0.0000E+00  0.9600E+03
     74.636  0.0000E+00  0.9600E+03
     74.978  0.0000E+00  0.9600E+03
     75.319  0.0000E+00  0.9600E+03
     75.661  0.0000E+00  0.9600E+03
     76.002  0.0000E+00  0.9600E+03
     76.344  0.0000E+00  0.9600E+03
