    8    8    1    1
  0.4131256E+02  0.5044000E-09  0.5044000E-09  0.1500000E-08  0.5000000E-15
  1.000000000000000E-004
  CAR 
 SC                                      
     32     33    480
 
  0.0000000E+00  0.0000000E+00  0.0000000E+00  0.3460208E-02
      1        -21.463252   1.000000
      2        -16.522152   1.000000
      3        -16.521370   1.000000
      4        -16.517082   1.000000
      5        -15.293186   1.000000
      6        -15.290716   1.000000
      7        -15.290243   1.000000
      8         -9.655631   1.000000
      9         -8.706529   1.000000
     10         -8.703055   1.000000
     11         -8.702724   1.000000
     12         -5.534018   1.000000
     13         -5.533830   1.000000
     14         -4.714699   1.000000
     15         -4.714082   1.000000
     16         -4.711274   1.000000
     17         -0.839473   0.000000
     18         -0.836271   0.000000
     19         -0.836230   0.000000
     20          0.974407   0.000000
     21          1.864835   0.000000
     22          2.420683   0.000000
     23          4.240057   0.000000
     24          4.246841   0.000000
     25          4.247047   0.000000
     26          4.287210   0.000000
     27          5.074675   0.000000
     28          5.409327   0.000000
     29          5.409539   0.000000
     30          8.146259   0.000000
     31          8.196014   0.000000
     32          8.474248   0.000000
     33          8.474376   0.000000
     34          8.475384   0.000000
     35          8.529031   0.000000
     36          8.630641   0.000000
     37          8.630717   0.000000
     38          8.630821   0.000000
     39          9.298927   0.000000
     40          9.299741   0.000000
     41          9.299755   0.000000
     42          9.321530   0.000000
     43          9.578293   0.000000
     44          9.578345   0.000000
     45          9.578461   0.000000
     46         10.201414   0.000000
     47         10.201533   0.000000
     48         10.201688   0.000000
     49         10.228505   0.000000
     50         10.228624   0.000000
     51         10.228726   0.000000
     52         11.473772   0.000000
     53         11.473927   0.000000
     54         11.474000   0.000000
     55         12.004616   0.000000
     56         12.004736   0.000000
     57         12.004909   0.000000
     58         12.584524   0.000000
     59         12.584599   0.000000
     60         12.585049   0.000000
     61         12.667140   0.000000
     62         12.667152   0.000000
     63         12.667214   0.000000
     64         13.498981   0.000000
     65         14.274435   0.000000
     66         14.274754   0.000000
     67         14.274812   0.000000
     68         15.052397   0.000000
     69         15.850958   0.000000
     70         15.851046   0.000000
     71         15.851218   0.000000
     72         16.139340   0.000000
     73         16.139365   0.000000
     74         16.140829   0.000000
     75         16.160264   0.000000
     76         16.160553   0.000000
     77         16.170682   0.000000
     78         16.550077   0.000000
     79         16.550105   0.000000
     80         16.550184   0.000000
     81         18.082729   0.000000
     82         18.083439   0.000000
     83         18.083526   0.000000
     84         18.499427   0.000000
     85         18.499489   0.000000
     86         18.500643   0.000000
     87         18.730482   0.000000
     88         18.730569   0.000000
     89         18.730781   0.000000
     90         19.172629   0.000000
     91         20.012118   0.000000
     92         21.030152   0.000000
     93         21.030316   0.000000
     94         21.030436   0.000000
     95         21.152515   0.000000
     96         21.152600   0.000000
     97         21.152695   0.000000
     98         22.196935   0.000000
     99         23.023406   0.000000
    100         23.024276   0.000000
    101         23.024337   0.000000
    102         23.193409   0.000000
    103         23.193473   0.000000
    104         23.193907   0.000000
    105         23.833293   0.000000
    106         23.834090   0.000000
    107         23.834136   0.000000
    108         24.437029   0.000000
    109         24.438010   0.000000
    110         24.438061   0.000000
    111         24.778233   0.000000
    112         24.778297   0.000000
    113         25.201004   0.000000
    114         25.201413   0.000000
    115         25.201509   0.000000
    116         25.440692   0.000000
    117         25.440709   0.000000
    118         25.440761   0.000000
    119         25.893605   0.000000
    120         25.893725   0.000000
    121         25.893863   0.000000
    122         25.909409   0.000000
    123         25.909475   0.000000
    124         25.909667   0.000000
    125         26.140921   0.000000
    126         26.140931   0.000000
    127         26.141089   0.000000
    128         26.681674   0.000000
    129         27.557581   0.000000
    130         27.557622   0.000000
    131         27.557706   0.000000
    132         27.816702   0.000000
    133         27.816807   0.000000
    134         27.816847   0.000000
    135         28.079862   0.000000
    136         28.080562   0.000000
    137         28.080651   0.000000
    138         28.092274   0.000000
    139         28.092293   0.000000
    140         28.472333   0.000000
    141         28.472467   0.000000
    142         28.472516   0.000000
    143         28.782888   0.000000
    144         28.782989   0.000000
    145         28.783010   0.000000
    146         29.949152   0.000000
    147         29.949867   0.000000
    148         29.949977   0.000000
    149         30.090816   0.000000
    150         30.090902   0.000000
    151         30.091292   0.000000
    152         30.689548   0.000000
    153         30.743179   0.000000
    154         30.973382   0.000000
    155         30.974258   0.000000
    156         30.974318   0.000000
    157         31.268026   0.000000
    158         31.272039   0.000000
    159         31.272241   0.000000
    160         31.534901   0.000000
    161         31.534913   0.000000
    162         31.977749   0.000000
    163         31.977755   0.000000
    164         31.978085   0.000000
    165         31.990367   0.000000
    166         31.990378   0.000000
    167         32.436814   0.000000
    168         32.707679   0.000000
    169         32.707791   0.000000
    170         32.707800   0.000000
    171         32.735174   0.000000
    172         33.026715   0.000000
    173         33.114419   0.000000
    174         33.114657   0.000000
    175         33.114729   0.000000
    176         33.467999   0.000000
    177         33.468857   0.000000
    178         33.468956   0.000000
    179         33.669599   0.000000
    180         33.669680   0.000000
    181         33.767167   0.000000
    182         33.767489   0.000000
    183         33.813660   0.000000
    184         33.814186   0.000000
    185         33.938192   0.000000
    186         33.957215   0.000000
    187         33.957427   0.000000
    188         33.973924   0.000000
    189         34.199753   0.000000
    190         35.265054   0.000000
    191         35.563208   0.000000
    192         35.563657   0.000000
    193         35.563703   0.000000
    194         36.021631   0.000000
    195         36.021663   0.000000
    196         36.092947   0.000000
    197         36.092972   0.000000
    198         36.192641   0.000000
    199         36.192674   0.000000
    200         36.193044   0.000000
    201         36.222417   0.000000
    202         36.222471   0.000000
    203         36.222647   0.000000
    204         36.589542   0.000000
    205         36.596103   0.000000
    206         36.596695   0.000000
    207         37.144073   0.000000
    208         38.334579   0.000000
    209         38.334620   0.000000
    210         38.335291   0.000000
    211         38.401444   0.000000
    212         38.401533   0.000000
    213         38.401549   0.000000
    214         38.465970   0.000000
    215         38.466060   0.000000
    216         38.466329   0.000000
    217         38.497321   0.000000
    218         38.497708   0.000000
    219         38.497718   0.000000
    220         38.668482   0.000000
    221         38.914543   0.000000
    222         39.121205   0.000000
    223         39.121936   0.000000
    224         39.122028   0.000000
    225         39.412888   0.000000
    226         39.413734   0.000000
    227         39.413820   0.000000
    228         39.822385   0.000000
    229         39.822608   0.000000
    230         40.065708   0.000000
    231         40.065828   0.000000
    232         40.372319   0.000000
    233         40.372509   0.000000
    234         40.467103   0.000000
    235         40.841714   0.000000
    236         40.918874   0.000000
    237         40.919127   0.000000
    238         41.524998   0.000000
    239         41.638832   0.000000
    240         42.847000   0.000000
    241         42.847056   0.000000
    242         42.848374   0.000000
    243         43.068109   0.000000
    244         43.069337   0.000000
    245         43.069374   0.000000
    246         44.129140   0.000000
    247         44.167655   0.000000
    248         44.167998   0.000000
    249         45.012692   0.000000
    250         45.013362   0.000000
    251         45.013643   0.000000
    252         45.223683   0.000000
    253         45.223703   0.000000
    254         45.224214   0.000000
    255         45.462667   0.000000
    256         45.463081   0.000000
    257         45.463086   0.000000
    258         45.477001   0.000000
    259         45.477587   0.000000
    260         45.477605   0.000000
    261         45.651482   0.000000
    262         45.651749   0.000000
    263         46.034764   0.000000
    264         46.034821   0.000000
    265         46.036858   0.000000
    266         46.568213   0.000000
    267         46.694933   0.000000
    268         46.695063   0.000000
    269         47.398174   0.000000
    270         48.142451   0.000000
    271         48.142533   0.000000
    272         48.143128   0.000000
    273         48.460042   0.000000
    274         48.460685   0.000000
    275         48.460761   0.000000
    276         48.494190   0.000000
    277         48.494285   0.000000
    278         48.495404   0.000000
    279         48.528199   0.000000
    280         48.528498   0.000000
    281         48.776982   0.000000
    282         48.777091   0.000000
    283         48.777368   0.000000
    284         48.906570   0.000000
    285         48.907337   0.000000
    286         48.907389   0.000000
    287         49.712898   0.000000
    288         49.713155   0.000000
    289         49.716351   0.000000
    290         49.926143   0.000000
    291         50.634936   0.000000
    292         50.636119   0.000000
    293         50.636212   0.000000
    294         50.823813   0.000000
    295         50.825952   0.000000
    296         50.826154   0.000000
    297         50.860030   0.000000
    298         51.604224   0.000000
    299         52.651315   0.000000
    300         52.651503   0.000000
    301         53.131836   0.000000
    302         53.131961   0.000000
    303         53.297730   0.000000
    304         53.298358   0.000000
    305         53.298434   0.000000
    306         53.436403   0.000000
    307         53.436437   0.000000
    308         53.436707   0.000000
    309         53.496877   0.000000
    310         53.499116   0.000000
    311         53.499164   0.000000
    312         53.674352   0.000000
    313         53.863645   0.000000
    314         53.863930   0.000000
    315         54.141092   0.000000
    316         54.209420   0.000000
    317         54.209431   0.000000
    318         54.209665   0.000000
    319         54.682096   0.000000
    320         54.682307   0.000000
    321         54.700696   0.000000
    322         55.209505   0.000000
    323         55.209868   0.000000
    324         55.209957   0.000000
    325         55.543987   0.000000
    326         55.544029   0.000000
    327         55.544075   0.000000
    328         56.080748   0.000000
    329         56.080974   0.000000
    330         56.081010   0.000000
    331         56.379919   0.000000
    332         56.379968   0.000000
    333         56.380043   0.000000
    334         56.505185   0.000000
    335         56.505235   0.000000
    336         56.505445   0.000000
    337         57.154016   0.000000
    338         57.154387   0.000000
    339         57.154418   0.000000
    340         57.236735   0.000000
    341         57.236789   0.000000
    342         57.237034   0.000000
    343         57.411004   0.000000
    344         57.411020   0.000000
    345         57.411276   0.000000
    346         57.417173   0.000000
    347         57.417218   0.000000
    348         57.417563   0.000000
    349         57.535290   0.000000
    350         57.535396   0.000000
    351         57.535498   0.000000
    352         57.566411   0.000000
    353         57.566581   0.000000
    354         57.566667   0.000000
    355         57.724680   0.000000
    356         57.724980   0.000000
    357         57.725173   0.000000
    358         57.962833   0.000000
    359         57.962988   0.000000
    360         57.963446   0.000000
    361         58.493123   0.000000
    362         58.494274   0.000000
    363         58.494292   0.000000
    364         58.682427   0.000000
    365         58.683269   0.000000
    366         58.683299   0.000000
    367         59.029261   0.000000
    368         59.419857   0.000000
    369         59.419969   0.000000
    370         59.420670   0.000000
    371         59.442114   0.000000
    372         59.442175   0.000000
    373         59.442200   0.000000
    374         59.712989   0.000000
    375         59.713113   0.000000
    376         59.713420   0.000000
    377         59.788585   0.000000
    378         59.788900   0.000000
    379         59.789154   0.000000
    380         59.943374   0.000000
    381         59.961015   0.000000
    382         59.961102   0.000000
    383         59.961464   0.000000
    384         60.108783   0.000000
    385         60.109183   0.000000
    386         60.109241   0.000000
    387         60.118252   0.000000
    388         60.118559   0.000000
    389         60.118598   0.000000
    390         60.415246   0.000000
    391         60.415694   0.000000
    392         60.415760   0.000000
    393         60.505302   0.000000
    394         60.505338   0.000000
    395         60.505625   0.000000
    396         60.950192   0.000000
    397         60.950325   0.000000
    398         61.336538   0.000000
    399         61.337681   0.000000
    400         61.337746   0.000000
    401         61.631752   0.000000
    402         61.631918   0.000000
    403         62.090156   0.000000
    404         62.171238   0.000000
    405         62.171359   0.000000
    406         62.172043   0.000000
    407         62.398405   0.000000
    408         62.398599   0.000000
    409         62.712662   0.000000
    410         62.850523   0.000000
    411         62.850825   0.000000
    412         62.900086   0.000000
    413         62.900214   0.000000
    414         62.901238   0.000000
    415         63.208877   0.000000
    416         63.209302   0.000000
    417         63.209479   0.000000
    418         63.642039   0.000000
    419         63.642094   0.000000
    420         63.642314   0.000000
    421         63.803562   0.000000
    422         63.804062   0.000000
    423         63.804263   0.000000
    424         64.178831   0.000000
    425         64.178884   0.000000
    426         64.179389   0.000000
    427         64.359719   0.000000
    428         64.416662   0.000000
    429         64.467617   0.000000
    430         64.467743   0.000000
    431         64.467796   0.000000
    432         64.536470   0.000000
    433         64.536553   0.000000
    434         64.536729   0.000000
    435         64.557187   0.000000
    436         64.557343   0.000000
    437         64.557485   0.000000
    438         64.652962   0.000000
    439         64.653084   0.000000
    440         64.653275   0.000000
    441         64.844952   0.000000
    442         64.845240   0.000000
    443         64.845337   0.000000
    444         65.211162   0.000000
    445         65.211370   0.000000
    446         65.211469   0.000000
    447         65.737250   0.000000
    448         65.737325   0.000000
    449         65.738117   0.000000
    450         65.831996   0.000000
    451         65.832666   0.000000
    452         65.832744   0.000000
    453         66.830392   0.000000
    454         66.830578   0.000000
    455         67.961576   0.000000
    456         67.961640   0.000000
    457         67.961664   0.000000
    458         68.599188   0.000000
    459         69.104734   0.000000
    460         69.104911   0.000000
    461         69.105571   0.000000
    462         69.240027   0.000000
    463         69.241842   0.000000
    464         69.242053   0.000000
    465         69.750633   0.000000
    466         69.750644   0.000000
    467         69.750779   0.000000
    468         69.860362   0.000000
    469         69.860429   0.000000
    470         69.861051   0.000000
    471         70.004485   0.000000
    472         70.004939   0.000000
    473         70.005039   0.000000
    474         70.166309   0.000000
    475         70.166773   0.000000
    476         70.166806   0.000000
    477         70.325842   0.000000
    478         70.498020   0.000000
    479         70.498123   0.000000
    480         70.498593   0.000000
 
  0.5882353E-01 -0.4717784E-17  0.0000000E+00  0.2076125E-01
      1        -21.443587   1.000000
      2        -16.767254   1.000000
      3        -16.579513   1.000000
      4        -16.577307   1.000000
      5        -15.201799   1.000000
      6        -15.200587   1.000000
      7        -15.014983   1.000000
      8         -9.632406   1.000000
      9         -8.767352   1.000000
     10         -8.765300   1.000000
     11         -8.684886   1.000000
     12         -5.617185   1.000000
     13         -5.575757   1.000000
     14         -4.833778   1.000000
     15         -4.727531   1.000000
     16         -4.726017   1.000000
     17         -0.805392   0.000000
     18         -0.803209   0.000000
     19         -0.687772   0.000000
     20          1.000978   0.000000
     21          1.891605   0.000000
     22          2.447710   0.000000
     23          4.255733   0.000000
     24          4.313784   0.000000
     25          4.336193   0.000000
     26          4.340345   0.000000
     27          5.099718   0.000000
     28          5.422446   0.000000
     29          5.493358   0.000000
     30          7.708401   0.000000
     31          8.082280   0.000000
     32          8.138486   0.000000
     33          8.140210   0.000000
     34          8.221822   0.000000
     35          8.568227   0.000000
     36          8.601380   0.000000
     37          9.006600   0.000000
     38          9.007649   0.000000
     39          9.009834   0.000000
     40          9.011020   0.000000
     41          9.321477   0.000000
     42          9.347481   0.000000
     43          9.439831   0.000000
     44          9.787142   0.000000
     45          9.787154   0.000000
     46          9.887696   0.000000
     47          9.887746   0.000000
     48         10.261563   0.000000
     49         10.694718   0.000000
     50         10.694726   0.000000
     51         10.958269   0.000000
     52         11.147035   0.000000
     53         11.275371   0.000000
     54         11.275429   0.000000
     55         11.800313   0.000000
     56         12.215813   0.000000
     57         12.216167   0.000000
     58         12.224001   0.000000
     59         12.224387   0.000000
     60         12.545025   0.000000
     61         13.059852   0.000000
     62         13.059987   0.000000
     63         13.466235   0.000000
     64         13.522658   0.000000
     65         14.153304   0.000000
     66         14.192534   0.000000
     67         14.192630   0.000000
     68         15.078451   0.000000
     69         15.695257   0.000000
     70         15.785548   0.000000
     71         15.787767   0.000000
     72         15.880882   0.000000
     73         15.880981   0.000000
     74         15.941273   0.000000
     75         16.024279   0.000000
     76         16.250143   0.000000
     77         16.253444   0.000000
     78         16.738463   0.000000
     79         16.738548   0.000000
     80         16.811720   0.000000
     81         17.810275   0.000000
     82         17.810303   0.000000
     83         18.218353   0.000000
     84         18.526530   0.000000
     85         18.805874   0.000000
     86         18.806199   0.000000
     87         18.894642   0.000000
     88         18.919785   0.000000
     89         18.924876   0.000000
     90         19.235797   0.000000
     91         20.023709   0.000000
     92         20.891696   0.000000
     93         20.955837   0.000000
     94         20.955892   0.000000
     95         20.988706   0.000000
     96         21.130999   0.000000
     97         21.131086   0.000000
     98         22.222862   0.000000
     99         22.874007   0.000000
    100         22.874065   0.000000
    101         23.131603   0.000000
    102         23.132202   0.000000
    103         23.212111   0.000000
    104         23.237758   0.000000
    105         23.237950   0.000000
    106         23.285158   0.000000
    107         23.869649   0.000000
    108         24.437758   0.000000
    109         24.437764   0.000000
    110         24.558979   0.000000
    111         24.559743   0.000000
    112         24.567301   0.000000
    113         24.570381   0.000000
    114         24.586792   0.000000
    115         24.957372   0.000000
    116         24.958124   0.000000
    117         25.330621   0.000000
    118         25.449225   0.000000
    119         25.746570   0.000000
    120         25.746894   0.000000
    121         25.922584   0.000000
    122         25.936600   0.000000
    123         26.171846   0.000000
    124         26.409032   0.000000
    125         26.469172   0.000000
    126         26.469240   0.000000
    127         27.091561   0.000000
    128         27.091773   0.000000
    129         27.250700   0.000000
    130         27.250744   0.000000
    131         27.354078   0.000000
    132         27.507774   0.000000
    133         27.507832   0.000000
    134         27.787797   0.000000
    135         27.787926   0.000000
    136         27.909773   0.000000
    137         28.117742   0.000000
    138         28.347635   0.000000
    139         28.394788   0.000000
    140         28.499406   0.000000
    141         28.780306   0.000000
    142         28.998234   0.000000
    143         28.998295   0.000000
    144         29.651682   0.000000
    145         29.655104   0.000000
    146         29.655766   0.000000
    147         29.925236   0.000000
    148         29.925282   0.000000
    149         30.132068   0.000000
    150         30.256559   0.000000
    151         30.283161   0.000000
    152         30.283438   0.000000
    153         30.713210   0.000000
    154         30.803811   0.000000
    155         30.804296   0.000000
    156         30.862751   0.000000
    157         31.028401   0.000000
    158         31.239912   0.000000
    159         31.239949   0.000000
    160         31.357894   0.000000
    161         31.499769   0.000000
    162         31.499791   0.000000
    163         31.505084   0.000000
    164         31.572096   0.000000
    165         31.764967   0.000000
    166         32.014983   0.000000
    167         32.017713   0.000000
    168         32.576091   0.000000
    169         32.577702   0.000000
    170         32.687094   0.000000
    171         32.731663   0.000000
    172         32.734544   0.000000
    173         32.916430   0.000000
    174         32.919092   0.000000
    175         32.986406   0.000000
    176         33.148105   0.000000
    177         33.280435   0.000000
    178         33.518444   0.000000
    179         33.518546   0.000000
    180         33.544327   0.000000
    181         33.980055   0.000000
    182         34.040614   0.000000
    183         34.494604   0.000000
    184         34.520291   0.000000
    185         34.520392   0.000000
    186         34.641267   0.000000
    187         34.735933   0.000000
    188         34.743754   0.000000
    189         34.991734   0.000000
    190         35.181004   0.000000
    191         35.183398   0.000000
    192         35.373785   0.000000
    193         35.511117   0.000000
    194         35.515972   0.000000
    195         35.516179   0.000000
    196         35.565762   0.000000
    197         35.672140   0.000000
    198         35.935811   0.000000
    199         35.935972   0.000000
    200         35.973801   0.000000
    201         36.323128   0.000000
    202         36.702811   0.000000
    203         36.979478   0.000000
    204         37.198723   0.000000
    205         37.199017   0.000000
    206         37.350569   0.000000
    207         37.391662   0.000000
    208         37.766268   0.000000
    209         37.785146   0.000000
    210         38.038943   0.000000
    211         38.267229   0.000000
    212         38.267670   0.000000
    213         38.280688   0.000000
    214         38.333729   0.000000
    215         38.333846   0.000000
    216         38.365308   0.000000
    217         38.427304   0.000000
    218         38.721251   0.000000
    219         38.754265   0.000000
    220         38.810450   0.000000
    221         39.099346   0.000000
    222         39.246261   0.000000
    223         39.314601   0.000000
    224         39.314713   0.000000
    225         39.639697   0.000000
    226         39.639884   0.000000
    227         39.725786   0.000000
    228         39.908845   0.000000
    229         39.936263   0.000000
    230         39.983969   0.000000
    231         40.052335   0.000000
    232         40.052808   0.000000
    233         40.520579   0.000000
    234         40.808962   0.000000
    235         41.169091   0.000000
    236         41.623623   0.000000
    237         41.671945   0.000000
    238         42.017222   0.000000
    239         42.504209   0.000000
    240         42.504870   0.000000
    241         42.607446   0.000000
    242         42.655944   0.000000
    243         42.959990   0.000000
    244         42.960777   0.000000
    245         43.074729   0.000000
    246         43.631711   0.000000
    247         43.926733   0.000000
    248         43.964975   0.000000
    249         44.058337   0.000000
    250         44.058421   0.000000
    251         44.469096   0.000000
    252         44.894702   0.000000
    253         44.896093   0.000000
    254         45.067895   0.000000
    255         45.144760   0.000000
    256         45.249647   0.000000
    257         45.422598   0.000000
    258         45.470614   0.000000
    259         45.654822   0.000000
    260         45.654954   0.000000
    261         45.744625   0.000000
    262         45.800688   0.000000
    263         46.393559   0.000000
    264         46.674992   0.000000
    265         46.675098   0.000000
    266         46.779925   0.000000
    267         47.363397   0.000000
    268         47.436616   0.000000
    269         47.730724   0.000000
    270         47.731400   0.000000
    271         47.774932   0.000000
    272         47.843899   0.000000
    273         47.867193   0.000000
    274         48.208828   0.000000
    275         48.209008   0.000000
    276         48.230377   0.000000
    277         48.230501   0.000000
    278         48.387805   0.000000
    279         48.441712   0.000000
    280         48.627615   0.000000
    281         48.863261   0.000000
    282         48.863970   0.000000
    283         49.176314   0.000000
    284         49.176628   0.000000
    285         49.339170   0.000000
    286         49.489053   0.000000
    287         49.563319   0.000000
    288         49.846931   0.000000
    289         49.847661   0.000000
    290         49.976833   0.000000
    291         50.425248   0.000000
    292         50.515115   0.000000
    293         50.515724   0.000000
    294         50.832598   0.000000
    295         51.564862   0.000000
    296         51.636592   0.000000
    297         51.637137   0.000000
    298         51.776029   0.000000
    299         52.129007   0.000000
    300         52.413714   0.000000
    301         52.539739   0.000000
    302         52.587200   0.000000
    303         52.614801   0.000000
    304         52.614961   0.000000
    305         52.819451   0.000000
    306         53.030285   0.000000
    307         53.030433   0.000000
    308         53.217275   0.000000
    309         53.217865   0.000000
    310         53.362107   0.000000
    311         53.502087   0.000000
    312         53.567127   0.000000
    313         53.822696   0.000000
    314         54.256830   0.000000
    315         54.336795   0.000000
    316         54.342180   0.000000
    317         54.342852   0.000000
    318         54.511312   0.000000
    319         54.512465   0.000000
    320         54.919643   0.000000
    321         54.919664   0.000000
    322         54.988996   0.000000