    2    2  100    1
  0.3851145E+02  0.2435000E-09  0.2435000E-09  0.1500000E-08  0.5000000E-15
  1.000000000000000E-004
  CAR 
 Graphene                                
      8     19     48
 
  0.0000000E+00  0.0000000E+00  0.0000000E+00  0.6944444E-02
      1        -21.931063   1.000000
      2         -9.985970   1.000000
      3         -5.121277   1.000000
      4         -5.121219   1.000000
      5          1.028530   0.000000
      6          1.940537   0.000000
      7          2.471703   0.000000
      8          4.365234   0.000000
      9          5.119862   0.000000
     10          6.466967   0.000000
     11          6.467033   0.000000
     12          8.263573   0.000000
     13          9.369438   0.000000
     14          9.789213   0.000000
     15         11.258884   0.000000
     16         13.597604   0.000000
     17         15.086341   0.000000
     18         20.188431   0.000000
     19         20.874472   0.000000
     20         22.240502   0.000000
     21         26.619621   0.000000
     22         26.619644   0.000000
     23         27.344894   0.000000
     24         30.094080   0.000000
     25         30.094094   0.000000
     26         30.738113   0.000000
     27         31.908701   0.000000
     28         33.811629   0.000000
     29         33.811638   0.000000
     30         34.347401   0.000000
     31         34.347403   0.000000
     32         34.862500   0.000000
     33         35.093281   0.000000
     34         35.371510   0.000000
     35         36.019902   0.000000
     36         36.019927   0.000000
     37         36.100098   0.000000
     38         36.114873   0.000000
     39         36.114915   0.000000
     40         36.171748   0.000000
     41         36.171828   0.000000
     42         36.306139   0.000000
     43         36.306407   0.000000
     44         36.306412   0.000000
     45         36.527136   0.000000
     46         37.638921   0.000000
     47         37.971519   0.000000
     48         38.341549   0.000000
 
  0.8333333E-01  0.3853126E-17  0.0000000E+00  0.4166667E-01
      1        -21.763297   1.000000
      2         -9.784215   1.000000
      3         -5.783330   1.000000
      4         -5.473947   1.000000
      5          1.256950   0.000000
      6          2.171126   0.000000
      7          2.704464   0.000000
      8          4.594424   0.000000
      9          5.343797   0.000000
     10          6.547320   0.000000
     11          7.189115   0.000000
     12          8.485998   0.000000
     13          9.191440   0.000000
     14          9.601614   0.000000
     15         11.547785   0.000000
     16         13.803839   0.000000
     17         15.314251   0.000000
     18         20.309577   0.000000
     19         21.412619   0.000000
     20         22.458451   0.000000
     21         24.812549   0.000000
     22         25.306935   0.000000
     23         27.437555   0.000000
     24         29.298427   0.000000
     25         29.948136   0.000000
     26         30.813495   0.000000
     27         30.836840   0.000000
     28         30.947686   0.000000
     29         31.541865   0.000000
     30         31.773375   0.000000
     31         32.411555   0.000000
     32         33.041966   0.000000
     33         33.342993   0.000000
     34         33.563267   0.000000
     35         33.662710   0.000000
     36         33.695969   0.000000
     37         33.779490   0.000000
     38         34.803713   0.000000
     39         35.796583   0.000000
     40         35.848937   0.000000
     41         36.158310   0.000000
     42         36.390110   0.000000
     43         36.397502   0.000000
     44         37.056074   0.000000
     45         37.093558   0.000000
     46         37.126060   0.000000
     47         38.186725   0.000000
     48         38.709700   0.000000
 
  0.1666667E+00  0.1070105E-16  0.0000000E+00  0.4166667E-01
      1        -21.261661   1.000000
      2         -9.183868   1.000000
      3         -7.451777   1.000000
      4         -6.297127   1.000000
      5          1.942299   0.000000
      6          2.861466   0.000000
      7          3.402875   0.000000
      8          5.279282   0.000000
      9          6.000282   0.000000
     10          6.561520   0.000000
     11          7.601407   0.000000
     12          9.103095   0.000000
     13          9.154086   0.000000
     14         10.287348   0.000000
     15         12.466752   0.000000
     16         14.401338   0.000000
     17         15.988156   0.000000
     18         20.186918   0.000000
     19         22.418642   0.000000
     20         22.451456   0.000000
     21         23.179743   0.000000
     22         23.441706   0.000000
     23         24.874250   0.000000
     24         25.905455   0.000000
     25         26.029816   0.000000
     26         27.750669   0.000000
     27         28.628739   0.000000
     28         29.124637   0.000000
     29         29.461100   0.000000
     30         30.016231   0.000000
     31         30.459848   0.000000
     32         31.399186   0.000000
     33         31.454811   0.000000
     34         31.565843   0.000000
     35         31.716662   0.000000
     36         32.072834   0.000000
     37         32.692651   0.000000
     38         32.798768   0.000000
     39         33.765094   0.000000
     40         33.820314   0.000000
     41         34.266680   0.000000
     42         34.490389   0.000000
     43         35.357449   0.000000
     44         37.255294   0.000000
     45         37.789068   0.000000
     46         37.848188   0.000000
     47         38.191954   0.000000
     48         38.305646   0.000000
 
  0.2500000E+00 -0.6262504E-17  0.0000000E+00  0.4166667E-01
      1        -20.431933   1.000000
      2         -9.593208   1.000000
      3         -8.204234   1.000000
      4         -7.208446   1.000000
      5          3.082570   0.000000
      6          3.994489   0.000000
      7          4.565893   0.000000
      8          5.395695   0.000000
      9          6.253730   0.000000
     10          6.445990   0.000000
     11          7.213891   0.000000
     12         10.248745   0.000000
     13         11.413661   0.000000
     14         11.750819   0.000000
     15         13.739302   0.000000
     16         15.267421   0.000000
     17         17.086739   0.000000
     18         18.515003   0.000000
     19         20.162891   0.000000
     20         21.318620   0.000000
     21         21.486825   0.000000
     22         21.889813   0.000000
     23         22.698464   0.000000
     24         23.527519   0.000000
     25         24.238202   0.000000
     26         24.420608   0.000000
     27         25.508552   0.000000
     28         27.472773   0.000000
     29         27.822742   0.000000
     30         28.466285   0.000000
     31         29.125392   0.000000
     32         29.196390   0.000000
     33         29.787807   0.000000
     34         29.811119   0.000000
     35         30.122595   0.000000
     36         30.536838   0.000000
     37         31.198719   0.000000
     38         32.120821   0.000000
     39         32.319986   0.000000
     40         32.582493   0.000000
     41         33.008198   0.000000
     42         33.594144   0.000000
     43         34.245997   0.000000
     44         34.604258   0.000000
     45         36.130411   0.000000
     46         36.448701   0.000000
     47         36.873314   0.000000
     48         37.187648   0.000000
 
  0.3333333E+00  0.3774759E-17  0.0000000E+00  0.4166667E-01
      1        -19.285813   1.000000
      2        -11.844865   1.000000
      3         -7.966381   1.000000
      4         -6.896010   1.000000
      5          2.948644   0.000000
      6          4.667939   0.000000
      7          5.641500   0.000000
      8          5.944016   0.000000
      9          6.225529   0.000000
     10          8.022092   0.000000
     11          8.791641   0.000000
     12         11.723987   0.000000
     13         12.971564   0.000000
     14         14.117569   0.000000
     15         14.703035   0.000000
     16         15.364105   0.000000
     17         16.977281   0.000000
     18         16.986688   0.000000
     19         17.984618   0.000000
     20         18.437688   0.000000
     21         18.592844   0.000000
     22         20.466828   0.000000
     23         20.566570   0.000000
     24         20.759488   0.000000
     25         23.383415   0.000000
     26         24.057489   0.000000
     27         25.229012   0.000000
     28         25.280872   0.000000
     29         26.624466   0.000000
     30         26.780507   0.000000
     31         27.749066   0.000000
     32         28.019188   0.000000
     33         28.621880   0.000000
     34         28.631978   0.000000
     35         28.934911   0.000000
     36         29.262446   0.000000
     37         30.582774   0.000000
     38         30.633963   0.000000
     39         30.920395   0.000000
     40         31.163585   0.000000
     41         31.712023   0.000000
     42         32.664762   0.000000
     43         33.713503   0.000000
     44         34.462258   0.000000
     45         34.859242   0.000000
     46         35.355691   0.000000
     47         35.971055   0.000000
     48         36.618203   0.000000
 
  0.4166667E+00  0.1831634E-16  0.0000000E+00  0.4166667E-01
      1        -17.851514   1.000000
      2        -13.997604   1.000000
      3         -8.454542   1.000000
      4         -5.424755   1.000000
      5          0.728358   0.000000
      6          5.711178   0.000000
      7          6.733546   0.000000
      8          7.678077   0.000000
      9          8.295028   0.000000
     10         10.026791   0.000000
     11         10.823241   0.000000
     12         11.914264   0.000000
     13         12.732000   0.000000
     14         13.677197   0.000000
     15         13.823592   0.000000
     16         14.938282   0.000000
     17         15.209453   0.000000
     18         15.917972   0.000000
     19         17.241428   0.000000
     20         17.363410   0.000000
     21         18.828325   0.000000
     22         19.387867   0.000000
     23         20.076011   0.000000
     24         20.297931   0.000000
     25         21.492689   0.000000
     26         21.859629   0.000000
     27         25.037403   0.000000
     28         25.252026   0.000000
     29         25.852345   0.000000
     30         26.705450   0.000000
     31         26.736710   0.000000
     32         27.298887   0.000000
     33         27.915326   0.000000
     34         27.920553   0.000000
     35         28.013536   0.000000
     36         28.080272   0.000000
     37         29.300144   0.000000
     38         29.807095   0.000000
     39         30.149651   0.000000
     40         30.465060   0.000000
     41         30.905444   0.000000
     42         32.151656   0.000000
     43         33.547365   0.000000
     44         33.850593   0.000000
     45         34.124880   0.000000
     46         34.666731   0.000000
     47         35.076622   0.000000
     48         35.597598   0.000000
 
  0.5000000E+00 -0.1252501E-16  0.0000000E+00  0.2083333E-01
      1        -16.513675   1.000000
      2        -15.582970   1.000000
      3         -8.622100   1.000000
      4         -4.546669   1.000000
      5         -0.415762   0.000000
      6          5.641156   0.000000
      7          9.094834   0.000000
      8          9.243755   0.000000
      9         10.013343   0.000000
     10         10.226235   0.000000
     11         10.832749   0.000000
     12         10.855526   0.000000
     13         12.203226   0.000000
     14         12.657886   0.000000
     15         13.234332   0.000000
     16         13.297947   0.000000
     17         15.032343   0.000000
     18         16.489278   0.000000
     19         17.088997   0.000000
     20         17.253403   0.000000
     21         18.569203   0.000000
     22         18.792064   0.000000
     23         19.847475   0.000000
     24         20.724105   0.000000
     25         21.810335   0.000000
     26         22.106239   0.000000
     27         23.779743   0.000000
     28         24.227760   0.000000
     29         25.555562   0.000000
     30         26.162237   0.000000
     31         26.701504   0.000000
     32         27.094232   0.000000
     33         27.670178   0.000000
     34         27.686593   0.000000
     35         27.882205   0.000000
     36         28.510435   0.000000
     37         29.185786   0.000000
     38         29.855512   0.000000
     39         30.231811   0.000000
     40         30.524886   0.000000
     41         30.821580   0.000000
     42         30.966826   0.000000
     43         31.891679   0.000000
     44         33.288263   0.000000
     45         33.507263   0.000000
     46         34.435519   0.000000
     47         34.848069   0.000000
     48         35.567885   0.000000
 
  0.8333333E-01  0.8333333E-01  0.0000000E+00  0.4166667E-01
      1        -21.428586   1.000000
      2         -9.383010   1.000000
      3         -6.832982   1.000000
      4         -6.179033   1.000000
      5          1.714086   0.000000
      6          2.631763   0.000000
      7          3.170189   0.000000
      8          5.052004   0.000000
      9          5.793050   0.000000
     10          6.863220   0.000000
     11          8.114295   0.000000
     12          8.144818   0.000000
     13          8.928651   0.000000
     14         10.061788   0.000000
     15         12.247021   0.000000
     16         14.201864   0.000000
     17         15.764698   0.000000
     18         20.241531   0.000000
     19         22.225476   0.000000
     20         22.525634   0.000000
     21         22.935339   0.000000
     22         24.665362   0.000000
     23         26.872794   0.000000
     24         27.359968   0.000000
     25         27.769511   0.000000
     26         28.332356   0.000000
     27         28.483409   0.000000
     28         28.503544   0.000000
     29         28.599182   0.000000
     30         30.169828   0.000000
     31         30.836338   0.000000
     32         30.982900   0.000000
     33         31.187410   0.000000
     34         31.377030   0.000000
     35         31.592438   0.000000
     36         33.689278   0.000000
     37         34.708077   0.000000
     38         34.857582   0.000000
     39         35.111382   0.000000
     40         35.272750   0.000000
     41         35.459982   0.000000
     42         35.908859   0.000000
     43         36.746813   0.000000
     44         36.913664   0.000000
     45         36.964453   0.000000
     46         37.065393   0.000000
     47         37.783099   0.000000
     48         39.122839   0.000000
 
  0.1666667E+00  0.8333333E-01  0.0000000E+00  0.8333333E-01
      1        -20.762941   1.000000
      2         -8.591837   1.000000
      3         -8.574618   1.000000
      4         -7.211967   1.000000
      5          2.627842   0.000000
      6          3.549012   0.000000
      7          4.101682   0.000000
      8          5.949832   0.000000
      9          6.294972   0.000000
     10          6.658967   0.000000
     11          7.102640   0.000000
     12          9.768808   0.000000
     13          9.801231   0.000000
     14         10.970701   0.000000
     15         13.752464   0.000000
     16         14.897143   0.000000
     17         16.650321   0.000000
     18         18.663955   0.000000
     19         22.000276   0.000000
     20         22.172952   0.000000
     21         22.787717   0.000000
     22         23.381163   0.000000
     23         23.815995   0.000000
     24         24.303432   0.000000
     25         24.391736   0.000000
     26         25.589077   0.000000
     27         26.499394   0.000000
     28         26.579328   0.000000
     29         26.655548   0.000000
     30         26.982116   0.000000
     31         28.507136   0.000000
     32         29.199246   0.000000
     33         29.279053   0.000000
     34         30.813033   0.000000
     35         30.861549   0.000000
     36         31.460502   0.000000
     37         32.237460   0.000000
     38         32.927006   0.000000
     39         33.681275   0.000000
     40         33.951436   0.000000
     41         34.656471   0.000000
     42         35.080508   0.000000
     43         35.739992   0.000000
     44         36.276812   0.000000
     45         36.993963   0.000000
     46         37.436138   0.000000
     47         38.271574   0.000000
     48         38.770757   0.000000
 
  0.2500000E+00  0.8333333E-01  0.0000000E+00  0.8333333E-01
      1        -19.774971   1.000000
      2        -10.693182   1.000000
      3         -8.124740   1.000000
      4         -7.441389   1.000000
      5          3.994063   0.000000
      6          4.003530   0.000000
      7          4.954619   0.000000
      8          5.496748   0.000000
      9          6.818428   0.000000
     10          7.329395   0.000000
     11          8.118451   0.000000
     12         11.061218   0.000000
     13         11.941650   0.000000
     14         12.335709   0.000000
     15         15.233709   0.000000
     16         15.399756   0.000000
     17         17.426829   0.000000
     18         17.931916   0.000000
     19         18.645226   0.000000
     20         19.453258   0.000000
     21         19.736333   0.000000
     22         21.313057   0.000000
     23         22.244183   0.000000
     24         22.737964   0.000000
     25         23.469122   0.000000
     26         23.992719   0.000000
     27         24.548189   0.000000
     28         25.155608   0.000000
     29         25.197168   0.000000
     30         26.007477   0.000000
     31         26.647674   0.000000
     32         27.275100   0.000000
     33         27.470382   0.000000
     34         28.146431   0.000000
     35         30.143640   0.000000
     36         31.220055   0.000000
     37         31.494464   0.000000
     38         32.226267   0.000000
     39         32.634589   0.000000
     40         32.708045   0.000000
     41         33.330491   0.000000
     42         33.564952   0.000000
     43         33.934732   0.000000
     44         34.487942   0.000000
     45         35.997841   0.000000
     46         36.154153   0.000000
     47         37.586388   0.000000
     48         37.703486   0.000000
 
  0.3333333E+00  0.8333333E-01  0.0000000E+00  0.8333333E-01
      1        -18.482506   1.000000
      2        -12.866318   1.000000
      3         -8.777554   1.000000
      4         -6.016872   1.000000
      5          1.718470   0.000000
      6          5.794204   0.000000
      7          6.571632   0.000000
      8          6.753746   0.000000
      9          7.369721   0.000000
     10          9.109709   0.000000
     11          9.921714   0.000000
     12         12.452509   0.000000
     13         12.988493   0.000000
     14         14.073891   0.000000
     15         14.228805   0.000000
     16         15.266627   0.000000
     17         15.982923   0.000000
     18         16.033422   0.000000
     19         17.704083   0.000000
     20         17.820266   0.000000
     21         19.149032   0.000000
     22         19.453498   0.000000
     23         19.831001   0.000000
     24         21.114387   0.000000
     25         22.556041   0.000000
     26         23.100761   0.000000
     27         23.184509   0.000000
     28         24.229855   0.000000
     29         24.238174   0.000000
     30         25.171898   0.000000
     31         25.654561   0.000000
     32         26.481561   0.000000
     33         26.786704   0.000000
     34         27.895146   0.000000
     35         28.189849   0.000000
     36         29.248353   0.000000
     37         30.382078   0.000000
     38         30.502045   0.000000
     39         31.506428   0.000000
     40         32.330383   0.000000
     41         32.695682   0.000000
     42         32.964627   0.000000
     43         34.112818   0.000000
     44         34.906209   0.000000
     45         35.530633   0.000000
     46         35.553854   0.000000
     47         35.857128   0.000000
     48         36.372551   0.000000
 
  0.4166667E+00  0.8333333E-01  0.0000000E+00  0.8333333E-01
      1        -16.952381   1.000000
      2        -14.868237   1.000000
      3         -9.115208   1.000000
      4         -4.659725   1.000000
      5         -0.122122   0.000000
      6          6.391297   0.000000
      7          8.061440   0.000000
      8          8.964332   0.000000
      9          9.684337   0.000000
     10         10.655666   0.000000
     11         11.056900   0.000000
     12         11.693298   0.000000
     13         12.157390   0.000000
     14         12.449760   0.000000
     15         13.446425   0.000000
     16         14.679212   0.000000
     17         14.754909   0.000000
     18         16.135829   0.000000
     19         16.434864   0.000000
     20         17.409155   0.000000
     21         18.675309   0.000000
     22         18.970208   0.000000
     23         20.616890   0.000000
     24         20.964393   0.000000
     25         21.846066   0.000000
     26         22.211207   0.000000
     27         22.248129   0.000000
     28         23.754555   0.000000
     29         23.766761   0.000000
     30         24.513393   0.000000
     31         24.859512   0.000000
     32         26.073249   0.000000
     33         26.104801   0.000000
     34         26.571495   0.000000
     35         28.191322   0.000000
     36         29.702420   0.000000
     37         29.873746   0.000000
     38         30.105418   0.000000
     39         30.971890   0.000000
     40         31.364935   0.000000
     41         32.149683   0.000000
     42         32.209439   0.000000
     43         32.708374   0.000000
     44         34.166516   0.000000
     45         34.305038   0.000000
     46         35.383966   0.000000
     47         35.827195   0.000000
     48         36.235571   0.000000
 
  0.1666667E+00  0.1666667E+00  0.0000000E+00  0.4166667E-01
      1        -19.939090   1.000000
      2         -9.918302   1.000000
      3         -8.623985   1.000000
      4         -7.625929   1.000000
      5          3.768591   0.000000
      6          4.492570   0.000000
      7          4.688506   0.000000
      8          5.266367   0.000000
      9          7.085149   0.000000
     10          7.798700   0.000000
     11          8.301751   0.000000
     12          9.978671   0.000000
     13         10.812076   0.000000
     14         12.094233   0.000000
     15         14.899315   0.000000
     16         15.880304   0.000000
     17         17.332620   0.000000
     18         17.726654   0.000000
     19         20.534776   0.000000
     20         20.968064   0.000000
     21         20.979340   0.000000
     22         22.007491   0.000000
     23         22.102292   0.000000
     24         22.250244   0.000000
     25         23.230161   0.000000
     26         23.342751   0.000000
     27         23.950884   0.000000
     28         24.858336   0.000000
     29         24.883807   0.000000
     30         24.891249   0.000000
     31         26.190192   0.000000
     32         26.626733   0.000000
     33         28.834611   0.000000
     34         29.019297   0.000000
     35         29.561328   0.000000
     36         29.573357   0.000000
     37         29.794457   0.000000
     38         32.664599   0.000000
     39         33.423170   0.000000
     40         33.982184   0.000000
     41         34.518715   0.000000
     42         34.803459   0.000000
     43         35.011391   0.000000
     44         37.173094   0.000000
     45         37.380038   0.000000
     46         38.115797   0.000000
     47         38.858589   0.000000
     48         38.966493   0.000000
 
  0.2500000E+00  0.1666667E+00  0.0000000E+00  0.8333333E-01
      1        -18.803860   1.000000
      2        -11.685365   1.000000
      3         -9.705892   1.000000
      4         -6.333071   1.000000
      5          2.467627   0.000000
      6          5.356665   0.000000
      7          6.260662   0.000000
      8          6.894116   0.000000
      9          8.495313   0.000000
     10          8.608231   0.000000
     11          9.484039   0.000000
     12         11.391955   0.000000
     13         11.826696   0.000000
     14         13.642652   0.000000
     15         14.046599   0.000000
     16         16.487384   0.000000
     17         17.576267   0.000000
     18         17.966665   0.000000
     19         18.450014   0.000000
     20         18.749227   0.000000
     21         19.176745   0.000000
     22         19.788112   0.000000
     23         19.858584   0.000000
     24         20.939167   0.000000
     25         20.951301   0.000000
     26         21.297698   0.000000
     27         22.623626   0.000000
     28         23.439572   0.000000
     29         23.946780   0.000000
     30         24.470359   0.000000
     31         24.868906   0.000000
     32         25.576195   0.000000
     33         26.671665   0.000000
     34         27.339031   0.000000
     35         28.226621   0.000000
     36         28.311183   0.000000
     37         30.355090   0.000000
     38         31.010072   0.000000
     39         32.299869   0.000000
     40         32.820723   0.000000
     41         33.426608   0.000000
     42         35.165280   0.000000
     43         35.388593   0.000000
     44         36.108120   0.000000
     45         37.052777   0.000000
     46         37.751787   0.000000
     47         37.820812   0.000000
     48         37.837798   0.000000
 
  0.3333333E+00  0.1666667E+00  0.0000000E+00  0.8333333E-01
      1        -17.389872   1.000000
      2        -13.651200   1.000000
      3        -10.289830   1.000000
      4         -4.857789   1.000000
      5          0.480473   0.000000
      6          7.369360   0.000000
      7          8.183716   0.000000
      8          8.334026   0.000000
      9          8.992233   0.000000
     10         10.276205   0.000000
     11         11.469519   0.000000
     12         11.961639   0.000000
     13         12.031742   0.000000
     14         14.204402   0.000000
     15         14.281099   0.000000
     16         15.189983   0.000000
     17         15.314842   0.000000
     18         15.626002   0.000000
     19         16.824420   0.000000
     20         17.494624   0.000000
     21         18.784580   0.000000
     22         19.500633   0.000000
     23         20.054960   0.000000
     24         20.242597   0.000000
     25         20.389747   0.000000
     26         20.878575   0.000000
     27         20.947870   0.000000
     28         22.423247   0.000000
     29         22.591528   0.000000
     30         22.915984   0.000000
     31         24.223409   0.000000
     32         24.788083   0.000000
     33         26.134688   0.000000
     34         27.115779   0.000000
     35         27.395715   0.000000
     36         27.647635   0.000000
     37         28.912253   0.000000
     38         29.378707   0.000000
     39         31.852541   0.000000
     40         32.632125   0.000000
     41         33.076855   0.000000
     42         34.515629   0.000000
     43         35.225253   0.000000
     44         35.695174   0.000000
     45         36.688019   0.000000
     46         37.060715   0.000000
     47         37.381075   0.000000
     48         37.711888   0.000000
 
  0.4166667E+00  0.1666667E+00  0.0000000E+00  0.4166667E-01
      1        -16.086834   1.000000
      2        -15.160800   1.000000
      3        -10.477249   1.000000
      4         -3.930539   1.000000
      5         -0.631742   0.000000
      6          8.237671   0.000000
      7          9.624157   0.000000
      8          9.678634   0.000000
      9          9.870097   0.000000
     10         10.920502   0.000000
     11         11.505341   0.000000
     12         11.538590   0.000000
     13         12.033084   0.000000
     14         13.350941   0.000000
     15         13.714353   0.000000
     16         13.892808   0.000000
     17         14.397741   0.000000
     18         16.400339   0.000000
     19         17.170500   0.000000
     20         17.579927   0.000000
     21         17.885791   0.000000
     22         18.615086   0.000000
     23         18.888325   0.000000
     24         19.778211   0.000000
     25         20.057968   0.000000
     26         21.352365   0.000000
     27         21.644439   0.000000
     28         22.245903   0.000000
     29         22.469791   0.000000
     30         22.703818   0.000000
     31         23.464792   0.000000
     32         24.685892   0.000000
     33         25.366802   0.000000
     34         25.959998   0.000000
     35         26.927779   0.000000
     36         27.443032   0.000000
     37         29.114601   0.000000
     38         31.254445   0.000000
     39         31.421131   0.000000
     40         31.676625   0.000000
     41         32.290665   0.000000
     42         32.533276   0.000000
     43         34.983292   0.000000
     44         36.367752   0.000000
     45         36.744905   0.000000
     46         36.810886   0.000000
     47         37.734569   0.000000
     48         38.089465   0.000000
 
  0.2500000E+00  0.2500000E+00  0.0000000E+00  0.4166667E-01
      1        -17.543371   1.000000
      2        -12.719722   1.000000
      3        -11.249175   1.000000
      4         -4.945970   1.000000
      5          0.799531   0.000000
      6          7.150952   0.000000
      7          7.882211   0.000000
      8          8.750460   0.000000