Lattice                                 
           1
     4.338441    2.504800    0.000000
    -4.338441    2.504800    0.000000
     0.000000    0.000000   15.000000
   B    C 
     8     8
Direct configuration=     1
   0.66888689  0.00000000  0.10000000
   0.33111211  0.00000000  0.10000000
   0.00000000  0.33111211  0.10000000
   0.00000000  0.66888689  0.10000000
   0.33111211  0.33111211  0.10000000
   0.66888689  0.66888689  0.10000000
   0.66666600  0.33333300  0.09922189
   0.33333300  0.66666600  0.10077811
   0.24999933  0.24999967  0.46906667
   0.41666633  0.08333267  0.46906667
   0.24999933  0.74999967  0.46906667
   0.41666633  0.58333267  0.46906667
   0.74999933  0.24999967  0.46906667
   0.91666633  0.08333267  0.46906667
   0.74999933  0.74999967  0.46906667
   0.91666633  0.58333267  0.46906667
Direct configuration=     2
   0.66982163 -0.00000015  0.10002619
   0.33017752 -0.00000017  0.10002628
   0.00000015  0.33017737  0.10002619
   0.00000017  0.66982148  0.10002628
   0.33017719  0.33017714  0.10002629
   0.66982186  0.66982181  0.10002629
   0.66666607  0.33333293  0.09925267
   0.33333255  0.66666645  0.10080682
   0.24999513  0.24999497  0.46903981
   0.41666304  0.08333419  0.46903926
   0.24999891  0.75000009  0.46903886
   0.41666707  0.58333193  0.46903950
   0.75000218  0.24999682  0.46903964
   0.91666735  0.08333165  0.46904017
   0.75000403  0.75000387  0.46903981
   0.91666481  0.58333596  0.46903926
Direct configuration=     3
   0.66940047 -0.00000008  0.10001439
   0.33059861 -0.00000009  0.10001444
   0.00000008  0.33059853  0.10001439
   0.00000009  0.66940039  0.10001444
   0.33059843  0.33059840  0.10001445
   0.66940060  0.66940057  0.10001445
   0.66666604  0.33333296  0.09923880
   0.33333275  0.66666625  0.10079389
   0.24999702  0.24999709  0.46905191
   0.41666452  0.08333350  0.46905161
   0.24999910  0.74999990  0.46905139
   0.41666674  0.58333226  0.46905174
   0.75000090  0.24999810  0.46905182
   0.91666689  0.08333211  0.46905211
   0.75000191  0.75000198  0.46905191
   0.91666550  0.58333448  0.46905161
Direct configuration=     4
   0.66940392 -0.00000009  0.10001449
   0.33059516 -0.00000009  0.10001454
   0.00000009  0.33059508  0.10001449
   0.00000009  0.66940384  0.10001454
   0.33059498  0.33059495  0.10001454
   0.66940405  0.66940402  0.10001454
   0.66666604  0.33333296  0.09923891
   0.33333275  0.66666625  0.10079399
   0.24999701  0.24999707  0.46905181
   0.41666451  0.08333351  0.46905151
   0.24999910  0.74999990  0.46905129
   0.41666674  0.58333226  0.46905164
   0.75000091  0.24999809  0.46905172
   0.91666690  0.08333210  0.46905201
   0.75000193  0.75000199  0.46905181
   0.91666549  0.58333449  0.46905151
Direct configuration=     5
   0.66940412 -0.00000011  0.10003898
   0.33059512 -0.00000007  0.10003911
   0.00000011  0.33059488  0.10003898
   0.00000007  0.66940388  0.10003911
   0.33059496  0.33059492  0.10003913
   0.66940408  0.66940404  0.10003913
   0.66666601  0.33333299  0.09926916
   0.33333273  0.66666627  0.10081859
   0.24999999  0.25000116  0.46902673
   0.41666739  0.08333181  0.46902604
   0.24999900  0.75000000  0.46902556
   0.41666642  0.58333258  0.46902634
   0.74999817  0.25000083  0.46902652
   0.91666646  0.08333254  0.46902717
   0.74999784  0.74999901  0.46902673
   0.91666719  0.58333161  0.46902604
Direct configuration=     6
   0.66940471 -0.00000020  0.10011247
   0.33059500  0.00000001  0.10011283
   0.00000020  0.33059429  0.10011247
  -0.00000001  0.66940400  0.10011283
   0.33059493  0.33059481  0.10011288
   0.66940419  0.66940407  0.10011288
   0.66666592  0.33333308  0.09935988
   0.33333266  0.66666634  0.10089238
   0.25000894  0.25001344  0.46895150
   0.41667602  0.08332671  0.46894965
   0.24999869  0.75000031  0.46894839
   0.41666547  0.58333353  0.46895044
   0.74998996  0.25000904  0.46895092
   0.91666514  0.08333386  0.46895266
   0.74998556  0.74999006  0.46895150
   0.91667229  0.58332298  0.46894965
Direct configuration=     7
   0.66940589 -0.00000037  0.10025945
   0.33059475  0.00000015  0.10026027
   0.00000037  0.33059311  0.10025945
  -0.00000015  0.66940425  0.10026027
   0.33059486  0.33059459  0.10026039
   0.66940441  0.66940414  0.10026039
   0.66666574  0.33333326  0.09954133
   0.33333251  0.66666649  0.10103997
   0.25002684  0.25003799  0.46880103
   0.41669328  0.08331650  0.46879686
   0.24999806  0.75000094  0.46879405
   0.41666356  0.58333544  0.46879863
   0.74997354  0.25002546  0.46879972
   0.91666250  0.08333650  0.46880362
   0.74996101  0.74997216  0.46880103
   0.91668250  0.58330572  0.46879686
Direct configuration=     8
   0.66940825 -0.00000072  0.10055341
   0.33059427  0.00000045  0.10055514
   0.00000072  0.33059075  0.10055341
  -0.00000045  0.66940473  0.10055514
   0.33059471  0.33059416  0.10055541
   0.66940484  0.66940429  0.10055541
   0.66666537  0.33333363  0.09990424
   0.33333222  0.66666678  0.10133514
   0.25006263  0.25008708  0.46850009
   0.41672781  0.08329610  0.46849129
   0.24999682  0.75000218  0.46848538
   0.41665975  0.58333925  0.46849502
   0.74994071  0.25005829  0.46849732
   0.91665722  0.08334178  0.46850555
   0.74991192  0.74993637  0.46850009
   0.91670290  0.58327119  0.46849129
Direct configuration=     9
   0.66941297 -0.00000141  0.10114133
   0.33059329  0.00000104  0.10114490
   0.00000141  0.33058603  0.10114133
  -0.00000104  0.66940571  0.10114490
   0.33059443  0.33059331  0.10114544
   0.66940569  0.66940457  0.10114544
   0.66666464  0.33333436  0.10063004
   0.33333164  0.66666736  0.10192548
   0.25013421  0.25018528  0.46789821
   0.41679686  0.08325528  0.46788013
   0.24999433  0.75000467  0.46786802
   0.41665211  0.58334689  0.46788780
   0.74987503  0.25012397  0.46789253
   0.91664666  0.08335234  0.46790942
   0.74981372  0.74986479  0.46789821
   0.91674372  0.58320214  0.46788013
Direct configuration=    10
   0.66942240 -0.00000278  0.10231716
   0.33059134  0.00000222  0.10232441
   0.00000278  0.33057660  0.10231716
  -0.00000222  0.66940766  0.10232441
   0.33059385  0.33059159  0.10232552
   0.66940741  0.66940515  0.10232552
   0.66666318  0.33333582  0.10208165
   0.33333048  0.66666852  0.10310616
   0.25027738  0.25038168  0.46669446
   0.41693496  0.08317365  0.46665783
   0.24998934  0.75000966  0.46663330
   0.41663685  0.58336215  0.46667336
   0.74974368  0.25025532  0.46668295
   0.91662555  0.08337345  0.46671715
   0.74961732  0.74972162  0.46669446
   0.91682535  0.58306404  0.46665783
Direct configuration=    11
   0.66944128 -0.00000554  0.10466883
   0.33058745  0.00000459  0.10468343
   0.00000554  0.33055772  0.10466883
  -0.00000459  0.66941155  0.10468343
   0.33059270  0.33058815  0.10468566
   0.66941085  0.66940630  0.10468566
   0.66666026  0.33333874  0.10498487
   0.33332816  0.66667084  0.10546753
   0.25056373  0.25077447  0.46428695
   0.41721117  0.08301039  0.46421323
   0.24997938  0.75001962  0.46416386
   0.41660632  0.58339268  0.46424448
   0.74948097  0.25051803  0.46426378
   0.91658333  0.08341567  0.46433260
   0.74922453  0.74943527  0.46428695
   0.91698861  0.58278783  0.46421323
Direct configuration=    12
   0.66947903 -0.00001105  0.10937217
   0.33057965  0.00000932  0.10940148
   0.00001105  0.33051997  0.10937217
  -0.00000932  0.66941935  0.10940148
   0.33059040  0.33058128  0.10940594
   0.66941772  0.66940860  0.10940594
   0.66665441  0.33334459  0.11079132
   0.33332351  0.66667549  0.11019026
   0.25113641  0.25156006  0.45947194
   0.41776358  0.08268387  0.45932402
   0.24995945  0.75003955  0.45922498
   0.41654526  0.58345374  0.45938671
   0.74895556  0.25104344  0.45942545
   0.91649888  0.08350012  0.45956352
   0.74843894  0.74886259  0.45947194
   0.91731513  0.58223542  0.45932402
Direct configuration=    13
   0.66947904 -0.00001105  0.10937338
   0.33057965  0.00000932  0.10940269
   0.00001105  0.33051996  0.10937338
  -0.00000932  0.66941935  0.10940269
   0.33059040  0.33058128  0.10940716
   0.66941772  0.66940860  0.10940716
   0.66665441  0.33334459  0.11079281
   0.33332351  0.66667549  0.11019147
   0.25113645  0.25156010  0.45947070
   0.41776360  0.08268386  0.45932277
   0.24995946  0.75003954  0.45922371
   0.41654525  0.58345375  0.45938546
   0.74895554  0.25104346  0.45942420
   0.91649886  0.08350014  0.45956229
   0.74843890  0.74886255  0.45947070
   0.91731514  0.58223540  0.45932277
Direct configuration=    14
   0.66947906 -0.00001105  0.10937702
   0.33057966  0.00000932  0.10940634
   0.00001105  0.33051994  0.10937702
  -0.00000932  0.66941934  0.10940634
   0.33059041  0.33058128  0.10941080
   0.66941772  0.66940859  0.10941080
   0.66665441  0.33334459  0.11079729
   0.33332351  0.66667549  0.11019511
   0.25113658  0.25156021  0.45946698
   0.41776366  0.08268383  0.45931900
   0.24995949  0.75003951  0.45921991
   0.41654521  0.58345379  0.45938171
   0.74895548  0.25104352  0.45942046
   0.91649881  0.08350019  0.45955860
   0.74843879  0.74886242  0.45946698
   0.91731517  0.58223534  0.45931900
Direct configuration=    15
   0.66947909 -0.00001106  0.10938428
   0.33057966  0.00000932  0.10941363
   0.00001106  0.33051991  0.10938428
  -0.00000932  0.66941934  0.10941363
   0.33059041  0.33058128  0.10941810
   0.66941772  0.66940859  0.10941810
   0.66665441  0.33334459  0.11080624
   0.33332350  0.66667550  0.11020239
   0.25113683  0.25156044  0.45945954
   0.41776380  0.08268379  0.45931145
   0.24995955  0.75003945  0.45921230
   0.41654512  0.58345388  0.45937421
   0.74895536  0.25104364  0.45941299
   0.91649871  0.08350029  0.45955122
   0.74843856  0.74886217  0.45945954
   0.91731521  0.58223520  0.45931145
Direct configuration=    16
   0.66947916 -0.00001107  0.10939882
   0.33057966  0.00000933  0.10942821
   0.00001107  0.33051984  0.10939882
  -0.00000933  0.66941934  0.10942821
   0.33059043  0.33058128  0.10943268
   0.66941772  0.66940857  0.10943268
   0.66665440  0.33334460  0.11082414
   0.33332349  0.66667551  0.11021695
   0.25113735  0.25156089  0.45944466
   0.41776407  0.08268369  0.45929637
   0.24995966  0.75003934  0.45919707
   0.41654495  0.58345405  0.45935921
   0.74895512  0.25104388  0.45939804
   0.91649851  0.08350049  0.45953647
   0.74843811  0.74886165  0.45944466
   0.91731531  0.58223493  0.45929637
Direct configuration=    17
   0.66947930 -0.00001109  0.10942789
   0.33057967  0.00000935  0.10945736
   0.00001109  0.33051970  0.10942789
  -0.00000935  0.66941933  0.10945736
   0.33059046  0.33058127  0.10946185
   0.66941773  0.66940854  0.10946185
   0.66665439  0.33334461  0.11085994
   0.33332346  0.66667554  0.11024607
   0.25113837  0.25156180  0.45941489
   0.41776460  0.08268350  0.45926619
   0.24995989  0.75003911  0.45916663
   0.41654460  0.58345440  0.45932920
   0.74895463  0.25104437  0.45936815
   0.91649811  0.08350089  0.45950696
   0.74843720  0.74886063  0.45941489
   0.91731550  0.58223440  0.45926619
Direct configuration=    18
   0.66947957 -0.00001114  0.10948603
   0.33057969  0.00000938  0.10951568
   0.00001114  0.33051943  0.10948603
  -0.00000938  0.66941931  0.10951568
   0.33059052  0.33058125  0.10952020
   0.66941775  0.66940848  0.10952020
   0.66665436  0.33334464  0.11093155
   0.33332341  0.66667559  0.11030430
   0.25114042  0.25156362  0.45935536
   0.41776567  0.08268311  0.45920585
   0.24996036  0.75003864  0.45910574
   0.41654391  0.58345509  0.45926920
   0.74895366  0.25104534  0.45930837
   0.91649731  0.08350169  0.45944793
   0.74843538  0.74885858  0.45935536
   0.91731589  0.58223333  0.45920585
Direct configuration=    19
   0.66948012 -0.00001124  0.10960231
   0.33057972  0.00000945  0.10963232
   0.00001124  0.33051888  0.10960231
  -0.00000945  0.66941928  0.10963232
   0.33059064  0.33058122  0.10963689
   0.66941778  0.66940836  0.10963689
   0.66665431  0.33334469  0.11107476
   0.33332331  0.66667569  0.11042077
   0.25114452  0.25156725  0.45923631
   0.41776782  0.08268234  0.45908516
   0.24996128  0.75003772  0.45898397
   0.41654254  0.58345646  0.45914919
   0.74895172  0.25104728  0.45918879
   0.91649572  0.08350328  0.45932989
   0.74843175  0.74885448  0.45923631
   0.91731666  0.58223118  0.45908516
Direct configuration=    20
   0.66948122 -0.00001144  0.10983487
   0.33057979  0.00000959  0.10986559
   0.00001144  0.33051778  0.10983487
  -0.00000959  0.66941921  0.10986559
   0.33059088  0.33058116  0.10987026
   0.66941784  0.66940812  0.10987026
   0.66665421  0.33334479  0.11136118
   0.33332311  0.66667589  0.11065370
   0.25115271  0.25157452  0.45899820
   0.41777211  0.08268080  0.45884379
   0.24996313  0.75003587  0.45874041
   0.41653978  0.58345922  0.45890917
   0.74894783  0.25105117  0.45894965
   0.91649253  0.08350647  0.45909380
   0.74842448  0.74884629  0.45899820
   0.91731820  0.58222689  0.45884379
Direct configuration=    21
   0.66948341 -0.00001183  0.11029999
   0.33057992  0.00000986  0.11033213
   0.00001183  0.33051559  0.11029999
  -0.00000986  0.66941908  0.11033213
   0.33059136  0.33058103  0.11033702
   0.66941797  0.66940764  0.11033702
   0.66665401  0.33334499  0.11193402
   0.33332271  0.66667629  0.11111957
   0.25116911  0.25158905  0.45852198
   0.41778068  0.08267772  0.45836103
   0.24996683  0.75003217  0.45825331
   0.41653426  0.58346474  0.45842914
   0.74894005  0.25105895  0.45847137
   0.91648614  0.08351286  0.45862162
   0.74840995  0.74882989  0.45852198
   0.91732128  0.58221832  0.45836103
Direct configuration=    22
   0.66948780 -0.00001261  0.11123023
   0.33058019  0.00001040  0.11126521
   0.00001261  0.33051120  0.11123023
  -0.00001040  0.66941881  0.11126521
   0.33059232  0.33058077  0.11127053
   0.66941823  0.66940668  0.11127053
   0.66665361  0.33334539  0.11307971
   0.33332190  0.66667710  0.11205130
   0.25120189  0.25161812  0.45756955
   0.41779783  0.08267155  0.45739553
   0.24997424  0.75002476  0.45727909
   0.41652323  0.58347577  0.45746908
   0.74892450  0.25107450  0.45751480
   0.91647337  0.08352563  0.45767726
   0.74838088  0.74879711  0.45756955
   0.91732745  0.58220117  0.45739553
Direct configuration=    23
   0.66949658 -0.00001418  0.11309070
   0.33058072  0.00001149  0.11313138
   0.00001418  0.33050242  0.11309070
  -0.00001149  0.66941828  0.11313138
   0.33059425  0.33058025  0.11313755
   0.66941875  0.66940475  0.11313755
   0.66665281  0.33334619  0.11537109
   0.33332029  0.66667871  0.11391477
   0.25126746  0.25167625  0.45566467
   0.41783214  0.08265922  0.45546452
   0.24998904  0.75000996  0.45533067
   0.41650116  0.58349784  0.45554894
   0.74889340  0.25110560  0.45560166
   0.91644783  0.08355117  0.45578855
   0.74832275  0.74873154  0.45566467
   0.91733978  0.58216686  0.45546452
Direct configuration=    24
   0.66951415 -0.00001731  0.11681166
   0.33058178  0.00001367  0.11686372
   0.00001731  0.33048485  0.11681166
  -0.00001367  0.66941722  0.11686372
   0.33059810  0.33057922  0.11687159
   0.66941978  0.66940090  0.11687159
   0.66665121  0.33334779  0.11995384
   0.33331707  0.66668193  0.11764170
   0.25139860  0.25179251  0.45185493
   0.41790075  0.08263455  0.45160250
   0.25001865  0.74998035  0.45143382
   0.41645703  0.58354197  0.45170868
   0.74883120  0.25116780  0.45177538
   0.91639676  0.08360224  0.45201112
   0.74820649  0.74860040  0.45185493
   0.91736445  0.58209825  0.45160250
Direct configuration=    25
   0.66954927 -0.00002358  0.12425357
   0.33058391  0.00001802  0.12432840
   0.00002358  0.33044973  0.12425357
  -0.00001802  0.66941509  0.12432840
   0.33060580  0.33057716  0.12433967
   0.66942184  0.66939320  0.12433967
   0.66664801  0.33335099  0.12911935
   0.33331063  0.66668837  0.12509557
   0.25166088  0.25202503  0.44423544
   0.41803796  0.08258521  0.44387846
   0.25007788  0.74992112  0.44364012
   0.41636876  0.58363024  0.44402814
   0.74870680  0.25129220  0.44412283
   0.91629461  0.08370439  0.44445626
   0.74797397  0.74833812  0.44423544
   0.91741379  0.58196104  0.44387846
Direct configuration=    26
   0.66961952 -0.00003612  0.13913739
   0.33058816  0.00002673  0.13925774
   0.00003612  0.33037948  0.13913739
  -0.00002673  0.66941084  0.13925774
   0.33062119  0.33057303  0.13927582
   0.66942597  0.66937781  0.13927582
   0.66664162  0.33335738  0.14745036
   0.33329775  0.66670125  0.14000332
   0.25218544  0.25249008  0.42899646
   0.41831239  0.08248654  0.42843038
   0.25019632  0.74980268  0.42805272
   0.41619223  0.58380677  0.42866708
   0.74845801  0.25154099  0.42881772
   0.91609030  0.08390870  0.42934653
   0.74750892  0.74781356  0.42899646
   0.91751246  0.58168661  0.42843038
Direct configuration=    27
   0.66976001 -0.00006119  0.16890503
   0.33059666  0.00004414  0.16911644
   0.00006119  0.33023899  0.16890503
  -0.00004414  0.66940234  0.16911644
   0.33065199  0.33056477  0.16914814
   0.66943423  0.66934701  0.16914814
   0.66662882  0.33337018  0.18411239
   0.33327198  0.66672702  0.16981880
   0.25323456  0.25342017  0.39851851
   0.41886125  0.08228921  0.39753422
   0.25043321  0.74956579  0.39687793
   0.41583917  0.58415983  0.39794494
   0.74796041  0.25203859  0.39820750
   0.91568169  0.08431731  0.39912709
   0.74657883  0.74676444  0.39851851
   0.91770979  0.58113775  0.39753422
Direct configuration=    28
   0.66966888 -0.00004493  0.14959621
   0.33059115  0.00003285  0.14974856
   0.00004493  0.33033012  0.14959621
  -0.00003285  0.66940785  0.14974856
   0.33063201  0.33057013  0.14977142
   0.66942887  0.66936699  0.14977142
   0.66663712  0.33336188  0.16033152
   0.33328870  0.66671030  0.15047895
   0.25255405  0.25281686  0.41828808
   0.41850523  0.08241721  0.41757506
   0.25027955  0.74971945  0.41709950
   0.41606819  0.58393081  0.41787290
   0.74828317  0.25171583  0.41806286
   0.91594674  0.08405226  0.41872897
   0.74718214  0.74744495  0.41828808
   0.91758179  0.58149377  0.41757506
Direct configuration=    29
   0.66971445 -0.00005306  0.15925062
   0.33059390  0.00003850  0.15943250
   0.00005306  0.33028455  0.15925062
  -0.00003850  0.66940510  0.15943250
   0.33064200  0.33056745  0.15945978
   0.66943155  0.66935700  0.15945978
   0.66663297  0.33336603  0.17222195
   0.33328034  0.66671866  0.16014887
   0.25289430  0.25311851  0.40840329
   0.41868324  0.08235321  0.40755464
   0.25035638  0.74964262  0.40698871
   0.41595368  0.58404532  0.40790892
   0.74812179  0.25187721  0.40813518
   0.91581422  0.08418478  0.40892803
   0.74688049  0.74710470  0.40840329
   0.91764579  0.58131576  0.40755464
Direct configuration=    30
   0.66973723 -0.00005713  0.16407783
   0.33059528  0.00004132  0.16427447
   0.00005713  0.33026177  0.16407783
  -0.00004132  0.66940372  0.16427447
   0.33064699  0.33056611  0.16430396
   0.66943289  0.66935201  0.16430396
   0.66663090  0.33336810  0.17816717
   0.33327616  0.66672284  0.16498384
   0.25306443  0.25326934  0.40346090
   0.41877225  0.08232121  0.40254443
   0.25039480  0.74960420  0.40193332
   0.41589643  0.58410257  0.40292693
   0.74804110  0.25195790  0.40317134
   0.91574796  0.08425104  0.40402756
   0.74672966  0.74693457  0.40346090
   0.91767779  0.58122675  0.40254443
