   8   8   0  16
  0.4025466E+02  0.4979000E-09  0.4979000E-09  0.1500000E-08  0.5000000E-15
  1.000000000000000E-004
  CAR 
 SC                                      
     77.69208076    -22.48748828  301     -2.25442300      1.00000000
    -22.487  0.0000E+00  0.0000E+00
    -22.154  0.0000E+00  0.0000E+00
    -21.820  0.0000E+00  0.0000E+00
    -21.486  0.0000E+00  0.0000E+00
    -21.152  0.0000E+00  0.0000E+00
    -20.818  0.0000E+00  0.0000E+00
    -20.484  0.0000E+00  0.0000E+00
    -20.150  0.0000E+00  0.0000E+00
    -19.816  0.0000E+00  0.0000E+00
    -19.482  0.0000E+00  0.0000E+00
    -19.148  0.0000E+00  0.0000E+00
    -18.814  0.0000E+00  0.0000E+00
    -18.480  0.2243E-15  0.7491E-16
    -18.146  0.1238E-03  0.4135E-04
    -17.812  0.5779E+00  0.1930E+00
    -17.479  0.1639E+01  0.7404E+00
    -17.145  0.1976E+01  0.1400E+01
    -16.811  0.1649E+01  0.1951E+01
    -16.477  0.3702E+00  0.2074E+01
    -16.143  0.1727E+01  0.2651E+01
    -15.809  0.1303E+01  0.3086E+01
    -15.475  0.9020E+00  0.3387E+01
    -15.141  0.6477E+00  0.3604E+01
    -14.807  0.4801E+00  0.3764E+01
    -14.473  0.8038E+00  0.4032E+01
    -14.139  0.1844E+01  0.4648E+01
    -13.805  0.2713E+01  0.5554E+01
    -13.471  0.1339E+01  0.6001E+01
    -13.137  0.1440E+00  0.6049E+01
    -12.803  0.3068E+00  0.6152E+01
    -12.470  0.2033E+01  0.6831E+01
    -12.136  0.1608E+01  0.7368E+01
    -11.802  0.9880E+00  0.7698E+01
    -11.468  0.1290E+01  0.8128E+01
    -11.134  0.2455E+01  0.8948E+01
    -10.800  0.2151E+01  0.9666E+01
    -10.466  0.1980E+01  0.1033E+02
    -10.132  0.1714E+01  0.1090E+02
     -9.798  0.1691E+01  0.1146E+02
     -9.464  0.1656E+01  0.1202E+02
     -9.130  0.7998E+00  0.1228E+02
     -8.796  0.1231E+01  0.1270E+02
     -8.462  0.3050E+01  0.1371E+02
     -8.128  0.2810E+01  0.1465E+02
     -7.794  0.1121E+01  0.1503E+02
     -7.461  0.1248E+01  0.1544E+02
     -7.127  0.1335E+01  0.1589E+02
     -6.793  0.7263E+00  0.1613E+02
     -6.459  0.1315E+01  0.1657E+02
     -6.125  0.2890E+01  0.1754E+02
     -5.791  0.3318E+01  0.1864E+02
     -5.457  0.4164E+01  0.2003E+02
     -5.123  0.1631E+01  0.2058E+02
     -4.789  0.1132E+01  0.2096E+02
     -4.455  0.1617E+01  0.2150E+02
     -4.121  0.1538E+01  0.2201E+02
     -3.787  0.1340E+01  0.2246E+02
     -3.453  0.1377E+01  0.2292E+02
     -3.119  0.1420E+01  0.2339E+02
     -2.786  0.8617E+00  0.2368E+02
     -2.452  0.5614E+00  0.2387E+02
     -2.118  0.6792E+00  0.2409E+02
     -1.784  0.1273E+01  0.2452E+02
     -1.450  0.1257E+01  0.2494E+02
     -1.116  0.1488E+01  0.2544E+02
     -0.782  0.1155E+01  0.2582E+02
     -0.448  0.1109E+01  0.2619E+02
     -0.114  0.1411E+01  0.2666E+02
      0.220  0.1103E+01  0.2703E+02
      0.554  0.1766E+01  0.2762E+02
      0.888  0.1644E+01  0.2817E+02
      1.222  0.3122E+01  0.2921E+02
      1.556  0.3270E+01  0.3030E+02
      1.890  0.4275E+01  0.3173E+02
      2.223  0.4142E+01  0.3312E+02
      2.557  0.5032E+01  0.3480E+02
      2.891  0.6159E+01  0.3685E+02
      3.225  0.6345E+01  0.3897E+02
      3.559  0.5766E+01  0.4090E+02
      3.893  0.5346E+01  0.4268E+02
      4.227  0.4637E+01  0.4423E+02
      4.561  0.5345E+01  0.4601E+02
      4.895  0.6416E+01  0.4816E+02
      5.229  0.5994E+01  0.5016E+02
      5.563  0.7572E+01  0.5269E+02
      5.897  0.6505E+01  0.5486E+02
      6.231  0.6244E+01  0.5694E+02
      6.565  0.6241E+01  0.5903E+02
      6.899  0.6119E+01  0.6107E+02
      7.232  0.6087E+01  0.6310E+02
      7.566  0.6311E+01  0.6521E+02
      7.900  0.6203E+01  0.6728E+02
      8.234  0.5506E+01  0.6912E+02
      8.568  0.5906E+01  0.7109E+02
      8.902  0.5481E+01  0.7292E+02
      9.236  0.6272E+01  0.7502E+02
      9.570  0.7525E+01  0.7753E+02
      9.904  0.8404E+01  0.8034E+02
     10.238  0.9104E+01  0.8338E+02
     10.572  0.9048E+01  0.8640E+02
     10.906  0.9524E+01  0.8958E+02
     11.240  0.7917E+01  0.9222E+02
     11.574  0.8060E+01  0.9492E+02
     11.907  0.8619E+01  0.9779E+02
     12.241  0.8079E+01  0.1005E+03
     12.575  0.7931E+01  0.1031E+03
     12.909  0.8832E+01  0.1061E+03
     13.243  0.7977E+01  0.1088E+03
     13.577  0.7772E+01  0.1113E+03
     13.911  0.7744E+01  0.1139E+03
     14.245  0.9127E+01  0.1170E+03
     14.579  0.1037E+02  0.1204E+03
     14.913  0.1002E+02  0.1238E+03
     15.247  0.9199E+01  0.1269E+03
     15.581  0.1159E+02  0.1307E+03
     15.915  0.1000E+02  0.1341E+03
     16.249  0.1073E+02  0.1377E+03
     16.583  0.1104E+02  0.1413E+03
     16.916  0.1127E+02  0.1451E+03
     17.250  0.8300E+01  0.1479E+03
     17.584  0.1039E+02  0.1513E+03
     17.918  0.1194E+02  0.1553E+03
     18.252  0.1141E+02  0.1591E+03
     18.586  0.1060E+02  0.1627E+03
     18.920  0.1053E+02  0.1662E+03
     19.254  0.9802E+01  0.1695E+03
     19.588  0.9601E+01  0.1727E+03
     19.922  0.8961E+01  0.1757E+03
     20.256  0.9384E+01  0.1788E+03
     20.590  0.9799E+01  0.1821E+03
     20.924  0.1233E+02  0.1862E+03
     21.258  0.1204E+02  0.1902E+03
     21.592  0.1206E+02  0.1942E+03
     21.925  0.1104E+02  0.1979E+03
     22.259  0.1110E+02  0.2016E+03
     22.593  0.1130E+02  0.2054E+03
     22.927  0.1269E+02  0.2096E+03
     23.261  0.1086E+02  0.2133E+03
     23.595  0.1173E+02  0.2172E+03
     23.929  0.1072E+02  0.2208E+03
     24.263  0.9560E+01  0.2240E+03
     24.597  0.9816E+01  0.2272E+03
     24.931  0.1083E+02  0.2309E+03
     25.265  0.1113E+02  0.2346E+03
     25.599  0.1234E+02  0.2387E+03
     25.933  0.1147E+02  0.2425E+03
     26.267  0.1324E+02  0.2470E+03
     26.601  0.1122E+02  0.2507E+03
     26.934  0.1006E+02  0.2541E+03
     27.268  0.1068E+02  0.2576E+03
     27.602  0.8745E+01  0.2605E+03
     27.936  0.1143E+02  0.2644E+03
     28.270  0.1079E+02  0.2680E+03
     28.604  0.1036E+02  0.2714E+03
     28.938  0.1084E+02  0.2750E+03
     29.272  0.1278E+02  0.2793E+03
     29.606  0.1350E+02  0.2838E+03
     29.940  0.1083E+02  0.2874E+03
     30.274  0.1315E+02  0.2918E+03
     30.608  0.1375E+02  0.2964E+03
     30.942  0.1466E+02  0.3013E+03
     31.276  0.1340E+02  0.3058E+03
     31.609  0.1213E+02  0.3098E+03
     31.943  0.1252E+02  0.3140E+03
     32.277  0.1163E+02  0.3179E+03
     32.611  0.1296E+02  0.3222E+03
     32.945  0.1303E+02  0.3266E+03
     33.279  0.1190E+02  0.3306E+03
     33.613  0.1396E+02  0.3352E+03
     33.947  0.1222E+02  0.3393E+03
     34.281  0.1280E+02  0.3436E+03
     34.615  0.1258E+02  0.3478E+03
     34.949  0.1311E+02  0.3522E+03
     35.283  0.1409E+02  0.3569E+03
     35.617  0.1372E+02  0.3614E+03
     35.951  0.1312E+02  0.3658E+03
     36.285  0.1255E+02  0.3700E+03
     36.618  0.1387E+02  0.3746E+03
     36.952  0.1350E+02  0.3791E+03
     37.286  0.1375E+02  0.3837E+03
     37.620  0.1319E+02  0.3881E+03
     37.954  0.1487E+02  0.3931E+03
     38.288  0.1423E+02  0.3979E+03
     38.622  0.1363E+02  0.4024E+03
     38.956  0.1214E+02  0.4065E+03
     39.290  0.1490E+02  0.4114E+03
     39.624  0.1615E+02  0.4168E+03
     39.958  0.1471E+02  0.4217E+03
     40.292  0.1538E+02  0.4269E+03
     40.626  0.1672E+02  0.4325E+03
     40.960  0.1573E+02  0.4377E+03
     41.294  0.1557E+02  0.4429E+03
     41.627  0.1442E+02  0.4477E+03
     41.961  0.1564E+02  0.4530E+03
     42.295  0.1373E+02  0.4575E+03
     42.629  0.1581E+02  0.4628E+03
     42.963  0.1486E+02  0.4678E+03
     43.297  0.1401E+02  0.4725E+03
     43.631  0.1651E+02  0.4780E+03
     43.965  0.1524E+02  0.4831E+03
     44.299  0.1496E+02  0.4881E+03
     44.633  0.1372E+02  0.4926E+03
     44.967  0.1607E+02  0.4980E+03
     45.301  0.1489E+02  0.5030E+03
     45.635  0.1513E+02  0.5080E+03
     45.969  0.1455E+02  0.5129E+03
     46.302  0.1491E+02  0.5179E+03
     46.636  0.1504E+02  0.5229E+03
     46.970  0.1615E+02  0.5283E+03
     47.304  0.1498E+02  0.5333E+03
     47.638  0.1523E+02  0.5384E+03
     47.972  0.1541E+02  0.5435E+03
     48.306  0.1538E+02  0.5487E+03
     48.640  0.1530E+02  0.5538E+03
     48.974  0.1456E+02  0.5586E+03
     49.308  0.1524E+02  0.5637E+03
     49.642  0.1654E+02  0.5692E+03
     49.976  0.1566E+02  0.5745E+03
     50.310  0.1352E+02  0.5790E+03
     50.644  0.1473E+02  0.5839E+03
     50.978  0.1587E+02  0.5892E+03
     51.311  0.1749E+02  0.5950E+03
     51.645  0.1614E+02  0.6004E+03
     51.979  0.1652E+02  0.6059E+03
     52.313  0.1671E+02  0.6115E+03
     52.647  0.1650E+02  0.6170E+03
     52.981  0.1672E+02  0.6226E+03
     53.315  0.1698E+02  0.6283E+03
     53.649  0.1686E+02  0.6339E+03
     53.983  0.1713E+02  0.6396E+03
     54.317  0.1602E+02  0.6450E+03
     54.651  0.1591E+02  0.6503E+03
     54.985  0.1733E+02  0.6561E+03
     55.319  0.1769E+02  0.6620E+03
     55.653  0.1687E+02  0.6676E+03
     55.987  0.1823E+02  0.6737E+03
     56.320  0.1708E+02  0.6794E+03
     56.654  0.1647E+02  0.6849E+03
     56.988  0.1687E+02  0.6906E+03
     57.322  0.1700E+02  0.6962E+03
     57.656  0.1746E+02  0.7021E+03
     57.990  0.1666E+02  0.7076E+03
     58.324  0.1721E+02  0.7134E+03
     58.658  0.1508E+02  0.7184E+03
     58.992  0.1754E+02  0.7243E+03
     59.326  0.1852E+02  0.7304E+03
     59.660  0.1804E+02  0.7365E+03
     59.994  0.1558E+02  0.7417E+03
     60.328  0.1668E+02  0.7472E+03
     60.662  0.1669E+02  0.7528E+03
     60.995  0.1782E+02  0.7588E+03
     61.329  0.1825E+02  0.7649E+03
     61.663  0.1922E+02  0.7713E+03
     61.997  0.1650E+02  0.7768E+03
     62.331  0.1615E+02  0.7822E+03
     62.665  0.1612E+02  0.7876E+03
     62.999  0.1789E+02  0.7935E+03
     63.333  0.1817E+02  0.7996E+03
     63.667  0.1860E+02  0.8058E+03
     64.001  0.1775E+02  0.8118E+03
     64.335  0.1790E+02  0.8177E+03
     64.669  0.1812E+02  0.8238E+03
     65.003  0.1718E+02  0.8295E+03
     65.337  0.1747E+02  0.8353E+03
     65.671  0.1941E+02  0.8418E+03
     66.004  0.2032E+02  0.8486E+03
     66.338  0.1932E+02  0.8551E+03
     66.672  0.1722E+02  0.8608E+03
     67.006  0.1758E+02  0.8667E+03
     67.340  0.1810E+02  0.8727E+03
     67.674  0.1842E+02  0.8789E+03
     68.008  0.2086E+02  0.8858E+03
     68.342  0.1985E+02  0.8925E+03
     68.676  0.1829E+02  0.8986E+03
     69.010  0.1795E+02  0.9046E+03
     69.344  0.1868E+02  0.9108E+03
     69.678  0.1938E+02  0.9173E+03
     70.012  0.1846E+02  0.9235E+03
     70.346  0.1842E+02  0.9296E+03
     70.680  0.2090E+02  0.9366E+03
     71.013  0.1864E+02  0.9428E+03
     71.347  0.1548E+02  0.9480E+03
     71.681  0.1258E+02  0.9522E+03
     72.015  0.1057E+02  0.9557E+03
     72.349  0.8204E+01  0.9584E+03
     72.683  0.3475E+01  0.9596E+03
     73.017  0.1051E+01  0.9600E+03
     73.351  0.1380E+00  0.9600E+03
     73.685  0.1650E-03  0.9600E+03
     74.019  0.0000E+00  0.9600E+03
     74.353  0.0000E+00  0.9600E+03
     74.687  0.0000E+00  0.9600E+03
     75.021  0.0000E+00  0.9600E+03
     75.355  0.0000E+00  0.9600E+03
     75.688  0.0000E+00  0.9600E+03
     76.022  0.0000E+00  0.9600E+03
     76.356  0.0000E+00  0.9600E+03
     76.690  0.0000E+00  0.9600E+03
     77.024  0.0000E+00  0.9600E+03
     77.358  0.0000E+00  0.9600E+03
     77.692  0.0000E+00  0.9600E+03
