    8    8    1    1
  0.4025466E+02  0.4979000E-09  0.4979000E-09  0.1500000E-08  0.5000000E-15
  1.000000000000000E-004
  CAR 
 SC                                      
     24     33    480
 
  0.0000000E+00  0.0000000E+00  0.0000000E+00  0.3460208E-02
      1        -17.933872   1.000000
      2        -13.745466   1.000000
      3        -13.562808   1.000000
      4        -13.562789   1.000000
      5        -11.357459   1.000000
      6        -11.357437   1.000000
      7         -9.369530   1.000000
      8         -8.768320   1.000000
      9         -3.573449   1.000000
     10         -3.573444   1.000000
     11         -2.334215   0.870430
     12         -2.329491   0.855795
     13         -2.329471   0.855733
     14         -1.119900   0.000000
     15         -1.119880   0.000000
     16         -0.402194   0.000000
     17         -0.402182   0.000000
     18          0.904586   0.000000
     19          1.694332   0.000000
     20          2.408413   0.000000
     21          2.496488   0.000000
     22          4.373250   0.000000
     23          4.974386   0.000000
     24          6.316899   0.000000
     25          6.855670   0.000000
     26          6.855672   0.000000
     27          7.137721   0.000000
     28          7.939592   0.000000
     29          7.939598   0.000000
     30          8.373410   0.000000
     31          8.610001   0.000000
     32          8.944720   0.000000
     33          8.996777   0.000000
     34          9.511040   0.000000
     35          9.529839   0.000000
     36          9.741927   0.000000
     37          9.741928   0.000000
     38          9.754059   0.000000
     39          9.754063   0.000000
     40          9.790495   0.000000
     41          9.790501   0.000000
     42          9.794250   0.000000
     43          9.815563   0.000000
     44          9.815565   0.000000
     45          9.846985   0.000000
     46         10.559587   0.000000
     47         10.601437   0.000000
     48         10.737914   0.000000
     49         10.737937   0.000000
     50         10.769477   0.000000
     51         10.769477   0.000000
     52         11.627188   0.000000
     53         12.243244   0.000000
     54         12.282376   0.000000
     55         12.282398   0.000000
     56         12.331290   0.000000
     57         12.331303   0.000000
     58         12.839100   0.000000
     59         13.159811   0.000000
     60         13.222821   0.000000
     61         13.222838   0.000000
     62         13.271353   0.000000
     63         13.271359   0.000000
     64         13.652067   0.000000
     65         14.362467   0.000000
     66         14.584839   0.000000
     67         14.872022   0.000000
     68         16.076991   0.000000
     69         16.077004   0.000000
     70         16.137595   0.000000
     71         16.137624   0.000000
     72         16.283371   0.000000
     73         16.324215   0.000000
     74         16.324232   0.000000
     75         17.328048   0.000000
     76         17.388483   0.000000
     77         17.388484   0.000000
     78         17.615321   0.000000
     79         17.615321   0.000000
     80         17.753438   0.000000
     81         18.049261   0.000000
     82         18.251994   0.000000
     83         18.251998   0.000000
     84         18.393540   0.000000
     85         19.391355   0.000000
     86         20.520516   0.000000
     87         20.520518   0.000000
     88         20.622947   0.000000
     89         20.622955   0.000000
     90         20.700084   0.000000
     91         20.844551   0.000000
     92         21.437205   0.000000
     93         21.437212   0.000000
     94         22.012738   0.000000
     95         22.012741   0.000000
     96         22.257551   0.000000
     97         22.796384   0.000000
     98         22.975709   0.000000
     99         22.975721   0.000000
    100         23.018177   0.000000
    101         23.018186   0.000000
    102         23.213018   0.000000
    103         23.316780   0.000000
    104         24.074002   0.000000
    105         24.253504   0.000000
    106         24.253505   0.000000
    107         24.402730   0.000000
    108         24.402732   0.000000
    109         25.385437   0.000000
    110         25.385441   0.000000
    111         25.387673   0.000000
    112         25.524762   0.000000
    113         25.524766   0.000000
    114         25.593444   0.000000
    115         25.628322   0.000000
    116         25.688882   0.000000
    117         26.317867   0.000000
    118         26.317879   0.000000
    119         26.497451   0.000000
    120         26.497472   0.000000
    121         26.529705   0.000000
    122         26.529773   0.000000
    123         26.550932   0.000000
    124         26.550934   0.000000
    125         26.781816   0.000000
    126         26.868254   0.000000
    127         27.417789   0.000000
    128         28.155129   0.000000
    129         28.403335   0.000000
    130         28.756402   0.000000
    131         28.756403   0.000000
    132         28.806964   0.000000
    133         28.806966   0.000000
    134         28.943967   0.000000
    135         28.944000   0.000000
    136         29.027840   0.000000
    137         29.027904   0.000000
    138         29.083376   0.000000
    139         29.116256   0.000000
    140         29.219869   0.000000
    141         29.219877   0.000000
    142         29.492068   0.000000
    143         29.492073   0.000000
    144         29.574613   0.000000
    145         29.661949   0.000000
    146         29.762630   0.000000
    147         29.840643   0.000000
    148         29.840658   0.000000
    149         29.861414   0.000000
    150         29.861418   0.000000
    151         30.105370   0.000000
    152         30.820841   0.000000
    153         30.821402   0.000000
    154         31.935382   0.000000
    155         32.227455   0.000000
    156         32.307348   0.000000
    157         32.307351   0.000000
    158         32.569781   0.000000
    159         32.569784   0.000000
    160         32.648850   0.000000
    161         32.664869   0.000000
    162         32.781394   0.000000
    163         32.781395   0.000000
    164         32.908667   0.000000
    165         32.908671   0.000000
    166         33.167018   0.000000
    167         33.167044   0.000000
    168         33.320875   0.000000
    169         33.320928   0.000000
    170         33.685534   0.000000
    171         33.926021   0.000000
    172         34.066690   0.000000
    173         34.066702   0.000000
    174         34.257968   0.000000
    175         34.257972   0.000000
    176         34.338621   0.000000
    177         34.502071   0.000000
    178         34.502103   0.000000
    179         34.530240   0.000000
    180         34.585649   0.000000
    181         34.617917   0.000000
    182         34.617927   0.000000
    183         34.689820   0.000000
    184         35.092235   0.000000
    185         35.092248   0.000000
    186         36.280449   0.000000
    187         36.293261   0.000000
    188         36.293261   0.000000
    189         36.321664   0.000000
    190         36.321686   0.000000
    191         36.530337   0.000000
    192         36.658189   0.000000
    193         36.689357   0.000000
    194         36.689390   0.000000
    195         36.891963   0.000000
    196         36.891970   0.000000
    197         37.005680   0.000000
    198         37.023523   0.000000
    199         37.281786   0.000000
    200         37.379680   0.000000
    201         37.393443   0.000000
    202         37.393448   0.000000
    203         37.461934   0.000000
    204         37.567828   0.000000
    205         37.567855   0.000000
    206         37.689454   0.000000
    207         37.698207   0.000000
    208         37.698220   0.000000
    209         38.046472   0.000000
    210         38.046480   0.000000
    211         38.264453   0.000000
    212         38.558945   0.000000
    213         38.558960   0.000000
    214         38.861568   0.000000
    215         38.861578   0.000000
    216         39.003048   0.000000
    217         39.003068   0.000000
    218         39.401475   0.000000
    219         39.550812   0.000000
    220         39.550848   0.000000
    221         39.681308   0.000000
    222         39.698610   0.000000
    223         40.139816   0.000000
    224         40.304215   0.000000
    225         40.333134   0.000000
    226         40.437991   0.000000
    227         40.438003   0.000000
    228         40.505620   0.000000
    229         40.505623   0.000000
    230         40.708943   0.000000
    231         40.708949   0.000000
    232         41.023359   0.000000
    233         41.023377   0.000000
    234         41.070806   0.000000
    235         41.107193   0.000000
    236         41.519944   0.000000
    237         41.604105   0.000000
    238         41.775044   0.000000
    239         41.775063   0.000000
    240         42.723144   0.000000
    241         42.723148   0.000000
    242         44.123565   0.000000
    243         44.527730   0.000000
    244         44.601705   0.000000
    245         44.759354   0.000000
    246         44.759371   0.000000
    247         45.089216   0.000000
    248         45.089245   0.000000
    249         45.621451   0.000000
    250         45.621494   0.000000
    251         45.915288   0.000000
    252         45.915348   0.000000
    253         45.991357   0.000000
    254         45.991372   0.000000
    255         46.069550   0.000000
    256         46.069552   0.000000
    257         46.193578   0.000000
    258         46.750608   0.000000
    259         46.766533   0.000000
    260         46.777648   0.000000
    261         46.777658   0.000000
    262         47.061308   0.000000
    263         47.171298   0.000000
    264         47.348290   0.000000
    265         47.348302   0.000000
    266         47.532744   0.000000
    267         47.532776   0.000000
    268         47.585601   0.000000
    269         47.623248   0.000000
    270         47.623255   0.000000
    271         47.732660   0.000000
    272         48.227014   0.000000
    273         48.227026   0.000000
    274         48.656160   0.000000
    275         48.803917   0.000000
    276         48.803925   0.000000
    277         48.953735   0.000000
    278         49.116998   0.000000
    279         49.117000   0.000000
    280         49.148161   0.000000
    281         49.223082   0.000000
    282         49.223090   0.000000
    283         49.685990   0.000000
    284         49.888461   0.000000
    285         49.912927   0.000000
    286         49.912930   0.000000
    287         49.970994   0.000000
    288         50.227922   0.000000
    289         50.227923   0.000000
    290         51.272075   0.000000
    291         51.409572   0.000000
    292         51.409577   0.000000
    293         51.602117   0.000000
    294         52.393884   0.000000
    295         53.212562   0.000000
    296         53.527223   0.000000
    297         53.527247   0.000000
    298         53.575293   0.000000
    299         53.635820   0.000000
    300         53.635859   0.000000
    301         53.673116   0.000000
    302         53.815809   0.000000
    303         53.894841   0.000000
    304         53.894860   0.000000
    305         53.930257   0.000000
    306         53.930289   0.000000
    307         53.984305   0.000000
    308         53.984324   0.000000
    309         53.984959   0.000000
    310         54.553231   0.000000
    311         54.553242   0.000000
    312         54.590726   0.000000
    313         54.676420   0.000000
    314         54.676448   0.000000
    315         54.868308   0.000000
    316         54.868319   0.000000
    317         55.039907   0.000000
    318         55.279821   0.000000
    319         55.650271   0.000000
    320         55.900829   0.000000
    321         55.900831   0.000000
    322         56.107974   0.000000
    323         56.755173   0.000000
    324         56.755177   0.000000
    325         56.822488   0.000000
    326         57.288618   0.000000
    327         57.288621   0.000000
    328         57.327817   0.000000
    329         57.354092   0.000000
    330         57.354093   0.000000
    331         57.713787   0.000000
    332         57.845747   0.000000
    333         57.845765   0.000000
    334         57.897859   0.000000
    335         57.897862   0.000000
    336         58.112330   0.000000
    337         58.399461   0.000000
    338         58.399467   0.000000
    339         58.509039   0.000000
    340         58.593396   0.000000
    341         58.662347   0.000000
    342         58.662362   0.000000
    343         58.743034   0.000000
    344         58.760917   0.000000
    345         58.760945   0.000000
    346         58.780526   0.000000
    347         58.821982   0.000000
    348         58.838253   0.000000
    349         58.838278   0.000000
    350         58.913246   0.000000
    351         58.913255   0.000000
    352         58.927346   0.000000
    353         58.935552   0.000000
    354         58.935557   0.000000
    355         58.971476   0.000000
    356         58.971521   0.000000
    357         58.979938   0.000000
    358         59.001298   0.000000
    359         59.001320   0.000000
    360         59.059977   0.000000
    361         59.809471   0.000000
    362         59.809488   0.000000
    363         59.987372   0.000000
    364         60.021254   0.000000
    365         60.021268   0.000000
    366         60.120827   0.000000
    367         60.318570   0.000000
    368         60.524286   0.000000
    369         60.524319   0.000000
    370         60.642487   0.000000
    371         60.642508   0.000000
    372         60.704762   0.000000
    373         60.780538   0.000000
    374         60.849636   0.000000
    375         60.899055   0.000000
    376         60.899065   0.000000
    377         60.956800   0.000000
    378         60.956818   0.000000
    379         60.978611   0.000000
    380         61.043583   0.000000
    381         61.043606   0.000000
    382         61.078443   0.000000
    383         61.078448   0.000000
    384         61.102884   0.000000
    385         61.119127   0.000000
    386         61.119131   0.000000
    387         61.178761   0.000000
    388         61.199409   0.000000
    389         61.449643   0.000000
    390         61.449652   0.000000
    391         61.660718   0.000000
    392         61.777269   0.000000
    393         61.809518   0.000000
    394         61.809532   0.000000
    395         61.862463   0.000000
    396         61.862485   0.000000
    397         61.910690   0.000000
    398         62.008225   0.000000
    399         62.033499   0.000000
    400         62.033515   0.000000
    401         62.086102   0.000000
    402         62.320578   0.000000
    403         62.320587   0.000000
    404         62.479920   0.000000
    405         62.479923   0.000000
    406         62.538499   0.000000
    407         62.738330   0.000000
    408         63.649897   0.000000
    409         63.649902   0.000000
    410         64.147672   0.000000
    411         64.147678   0.000000
    412         64.298311   0.000000
    413         64.409105   0.000000
    414         64.449168   0.000000
    415         64.449169   0.000000
    416         64.486840   0.000000
    417         64.526090   0.000000
    418         64.526095   0.000000
    419         64.593393   0.000000
    420         64.625356   0.000000
    421         64.811940   0.000000
    422         64.811941   0.000000
    423         64.825181   0.000000
    424         64.889699   0.000000
    425         64.889701   0.000000
    426         65.044836   0.000000
    427         65.044882   0.000000
    428         65.230032   0.000000
    429         65.292147   0.000000
    430         65.292148   0.000000
    431         65.300498   0.000000
    432         65.300513   0.000000
    433         65.314046   0.000000
    434         65.314062   0.000000
    435         65.368223   0.000000
    436         65.449082   0.000000
    437         65.661384   0.000000
    438         65.695711   0.000000
    439         65.720531   0.000000
    440         65.720533   0.000000
    441         66.024134   0.000000
    442         66.024143   0.000000
    443         66.272669   0.000000
    444         66.278672   0.000000
    445         66.278684   0.000000
    446         66.453532   0.000000
    447         66.569524   0.000000
    448         66.569526   0.000000
    449         67.375305   0.000000
    450         67.375307   0.000000
    451         68.288430   0.000000
    452         69.433616   0.000000
    453         69.433622   0.000000
    454         69.481839   0.000000
    455         69.481842   0.000000
    456         69.513817   0.000000
    457         69.777249   0.000000
    458         69.959515   0.000000
    459         69.967645   0.000000
    460         69.967647   0.000000
    461         70.043188   0.000000
    462         70.043192   0.000000
    463         70.109082   0.000000
    464         70.248438   0.000000
    465         70.248449   0.000000
    466         70.855196   0.000000
    467         70.879317   0.000000
    468         70.900067   0.000000
    469         70.943341   0.000000
    470         70.943361   0.000000
    471         71.015152   0.000000
    472         71.334232   0.000000
    473         71.334252   0.000000
    474         71.374627   0.000000
    475         71.374640   0.000000
    476         71.637973   0.000000
    477         71.654934   0.000000
    478         71.654948   0.000000
    479         71.753150   0.000000
    480         71.761922   0.000000
 
  0.5882353E-01 -0.2524552E-17  0.0000000E+00  0.2076125E-01
      1        -17.917743   1.000000
      2        -14.047663   1.000000
      3        -13.579251   1.000000
      4        -13.272561   1.000000
      5        -11.390066   1.000000
      6        -11.315259   1.000000
      7         -9.287910   1.000000
      8         -8.743255   1.000000
      9         -3.799678   1.000000
     10         -3.773222   1.000000
     11         -2.777364   1.000000
     12         -2.287220   0.678611
     13         -1.900029   0.000000
     14         -1.166680   0.000000
     15         -1.084923   0.000000
     16         -0.188158   0.000000
     17         -0.164443   0.000000
     18          0.941295   0.000000
     19          1.734086   0.000000
     20          2.436897   0.000000
     21          2.569048   0.000000
     22          4.399375   0.000000
     23          5.001418   0.000000
     24          6.163887   0.000000
     25          6.697679   0.000000
     26          6.802293   0.000000
     27          7.047873   0.000000
     28          7.690533   0.000000
     29          7.871408   0.000000
     30          8.397217   0.000000
     31          8.511139   0.000000
     32          8.771170   0.000000
     33          8.971461   0.000000
     34          9.161751   0.000000
     35          9.238479   0.000000
     36          9.343593   0.000000
     37          9.411111   0.000000
     38          9.539502   0.000000
     39          9.580729   0.000000
     40          9.727112   0.000000
     41          9.990531   0.000000
     42         10.035811   0.000000
     43         10.276354   0.000000
     44         10.285320   0.000000
     45         10.327774   0.000000
     46         10.400503   0.000000
     47         10.552005   0.000000
     48         10.669832   0.000000
     49         11.064972   0.000000
     50         11.123692   0.000000
     51         11.306266   0.000000
     52         11.551077   0.000000
     53         11.664442   0.000000
     54         11.871485   0.000000
     55         12.287114   0.000000
     56         12.373516   0.000000
     57         12.792508   0.000000
     58         12.915260   0.000000
     59         12.926118   0.000000
     60         13.103143   0.000000
     61         13.542759   0.000000
     62         13.636387   0.000000
     63         13.685979   0.000000
     64         13.943822   0.000000
     65         14.513852   0.000000
     66         14.550992   0.000000
     67         14.890527   0.000000
     68         15.477635   0.000000
     69         15.762244   0.000000
     70         15.929952   0.000000
     71         16.053073   0.000000
     72         16.334653   0.000000
     73         16.663158   0.000000
     74         16.753372   0.000000
     75         16.915815   0.000000
     76         17.041552   0.000000
     77         17.195187   0.000000
     78         17.863896   0.000000
     79         17.905891   0.000000
     80         18.171227   0.000000
     81         18.283478   0.000000
     82         18.385502   0.000000
     83         18.391292   0.000000
     84         18.429787   0.000000
     85         19.332018   0.000000
     86         20.258049   0.000000
     87         20.468037   0.000000
     88         20.518600   0.000000
     89         20.734943   0.000000
     90         20.786327   0.000000
     91         20.839609   0.000000
     92         21.259406   0.000000
     93         21.276745   0.000000
     94         22.078619   0.000000
     95         22.210860   0.000000
     96         22.227461   0.000000
     97         22.338168   0.000000
     98         22.585185   0.000000
     99         22.739527   0.000000
    100         23.249850   0.000000
    101         23.326822   0.000000
    102         23.451962   0.000000
    103         23.484331   0.000000
    104         23.512830   0.000000
    105         23.730961   0.000000
    106         24.264720   0.000000
    107         24.621150   0.000000
    108         24.668807   0.000000
    109         24.711377   0.000000
    110         24.767450   0.000000
    111         25.157859   0.000000
    112         25.210882   0.000000
    113         25.211327   0.000000
    114         25.239987   0.000000
    115         25.576693   0.000000
    116         25.735105   0.000000
    117         26.129080   0.000000
    118         26.163917   0.000000
    119         26.259009   0.000000
    120         26.335908   0.000000
    121         26.649632   0.000000
    122         26.715859   0.000000
    123         27.068843   0.000000
    124         27.203749   0.000000
    125         27.646107   0.000000
    126         27.687287   0.000000
    127         27.695956   0.000000
    128         27.732767   0.000000
    129         28.034719   0.000000
    130         28.066883   0.000000
    131         28.081524   0.000000
    132         28.747036   0.000000
    133         28.766550   0.000000
    134         28.795054   0.000000
    135         29.011929   0.000000
    136         29.082333   0.000000
    137         29.097862   0.000000
    138         29.130021   0.000000
    139         29.152399   0.000000
    140         29.289575   0.000000
    141         29.468724   0.000000
    142         29.590481   0.000000
    143         29.643108   0.000000
    144         29.799722   0.000000
    145         30.058958   0.000000
    146         30.158491   0.000000
    147         30.286258   0.000000
    148         30.367149   0.000000
    149         30.422302   0.000000
    150         30.439563   0.000000
    151         30.468921   0.000000
    152         30.727727   0.000000
    153         31.123309   0.000000
    154         31.160288   0.000000
    155         31.320014   0.000000
    156         31.625891   0.000000
    157         31.649532   0.000000
    158         31.825443   0.000000
    159         31.837562   0.000000
    160         31.850924   0.000000
    161         32.447109   0.000000
    162         32.725826   0.000000
    163         32.861755   0.000000
    164         32.961008   0.000000
    165         33.103974   0.000000
    166         33.104279   0.000000
    167         33.299560   0.000000
    168         33.383442   0.000000
    169         33.457216   0.000000
    170         33.501677   0.000000
    171         33.691152   0.000000
    172         33.703805   0.000000
    173         34.031996   0.000000
    174         34.306305   0.000000
    175         34.325962   0.000000
    176         34.413677   0.000000
    177         34.643580   0.000000
    178         34.844114   0.000000
    179         34.996699   0.000000
    180         35.039205   0.000000
    181         35.112274   0.000000
    182         35.163063   0.000000
    183         35.340262   0.000000
    184         35.613419   0.000000
    185         35.629013   0.000000
    186         35.635970   0.000000
    187         35.662527   0.000000
    188         35.940512   0.000000
    189         35.946374   0.000000
    190         35.993826   0.000000
    191         36.465074   0.000000
    192         36.511535   0.000000
    193         36.578762   0.000000
    194         36.651763   0.000000
    195         36.746772   0.000000
    196         36.755355   0.000000
    197         37.084457   0.000000
    198         37.209441   0.000000
    199         37.231031   0.000000
    200         37.488734   0.000000
    201         37.499869   0.000000
    202         37.600329   0.000000
    203         37.644046   0.000000
    204         37.760203   0.000000
    205         37.805333   0.000000
    206         37.878126   0.000000
    207         38.007818   0.000000
    208         38.038444   0.000000
    209         38.133443   0.000000
    210         38.342320   0.000000
    211         38.510076   0.000000
    212         38.534541   0.000000
    213         38.543604   0.000000
    214         38.759670   0.000000
    215         38.843882   0.000000
    216         38.993981   0.000000
    217         39.344543   0.000000
    218         39.384533   0.000000
    219         39.522585   0.000000
    220         39.658518   0.000000
    221         39.911889   0.000000
    222         39.946892   0.000000
    223         40.013521   0.000000
    224         40.028251   0.000000
    225         40.032136   0.000000
    226         40.185092   0.000000
    227         40.352971   0.000000
    228         40.430728   0.000000
    229         40.524995   0.000000
    230         40.691864   0.000000
    231         40.832522   0.000000
    232         41.020625   0.000000
    233         41.396556   0.000000
    234         41.663359   0.000000
    235         41.681460   0.000000
    236         41.931853   0.000000
    237         41.993924   0.000000
    238         42.372406   0.000000
    239         42.755215   0.000000
    240         42.886745   0.000000
    241         43.397465   0.000000
    242         43.638214   0.000000
    243         43.861256   0.000000
    244         43.985105   0.000000
    245         44.241710   0.000000
    246         44.338428   0.000000
    247         44.700275   0.000000
    248         44.947245   0.000000
    249         45.057468   0.000000
    250         45.086373   0.000000
    251         45.334587   0.000000
    252         45.566668   0.000000
    253         45.630725   0.000000
    254         45.860149   0.000000
    255         45.948266   0.000000
    256         46.266468   0.000000
    257         46.474321   0.000000
    258         46.567736   0.000000
    259         46.658042   0.000000
    260         46.874601   0.000000
    261         47.065205   0.000000
    262         47.078976   0.000000
    263         47.202394   0.000000
    264         47.465346   0.000000
    265         47.530445   0.000000
    266         47.600681   0.000000
    267         47.822952   0.000000
    268         47.928457   0.000000
    269         47.974010   0.000000
    270         47.975622   0.000000
    271         48.041234   0.000000
    272         48.228494   0.000000
    273         48.280742   0.000000
    274         48.371361   0.000000
    275         48.658093   0.000000
    276         48.761192   0.000000
    277         48.778513   0.000000
    278         49.025667   0.000000
    279         49.217030   0.000000
    280         49.366021   0.000000
    281         49.481947   0.000000
    282         49.532491   0.000000
    283         49.727158   0.000000
    284         49.802275   0.000000
    285         49.957443   0.000000
    286         50.160848   0.000000
    287         50.482329   0.000000
    288         50.505668   0.000000
    289         50.969101   0.000000
    290         51.004130   0.000000
    291         51.342514   0.000000
    292         51.954087   0.000000
    293         51.973166   0.000000
    294         52.035987   0.000000
    295         52.125882   0.000000
    296         52.495873   0.000000
    297         52.842787   0.000000
    298         52.849676   0.000000
    299         53.148937   0.000000
    300         53.278917   0.000000
    301         53.332965   0.000000
    302         53.378440   0.000000
    303         53.491223   0.000000
    304         54.128646   0.000000
    305         54.134748   0.000000
    306         54.310054   0.000000
    307         54.319977   0.000000
    308         54.411918   0.000000
    309         54.430052   0.000000
    310         54.653198   0.000000
    311         54.674333   0.000000
    312         54.816304   0.000000
    313         54.834643   0.000000
    314         54.925625   0.000000
    315         55.033905   0.000000
    316         55.112099   0.000000
    317         55.262118   0.000000
    318         55.477175   0.000000
    319         55.575449   0.000000
    320         55.638855   0.000000
    321         55.905118   0.000000
    322         56.001412   0.000000