   16   16  128    2
  0.2013542E+02  0.4980000E-09  0.4980000E-09  0.1500000E-08  0.5000000E-15
  1.000000000000000E-004
  CAR 
 Lattice                                 
     56     43     48
