Lattice                                 
           1
     4.312807    2.490000    0.000000
    -4.312807    2.490000    0.000000
     0.000000    0.000000   15.000000
   B    C 
     8     8
Direct configuration=     1
   0.66888689  0.00000000  0.10000000
   0.33111211  0.00000000  0.10000000
   0.00000000  0.33111211  0.10000000
   0.00000000  0.66888689  0.10000000
   0.33111211  0.33111211  0.10000000
   0.66888689  0.66888689  0.10000000
   0.66666600  0.33333300  0.09922189
   0.33333300  0.66666600  0.10077811
   0.27777711  0.22222189  0.46960000
   0.44444411  0.05555489  0.46960000
   0.27777711  0.72222189  0.46960000
   0.44444411  0.55555489  0.46960000
   0.77777711  0.22222189  0.46960000
   0.94444411  0.05555489  0.46960000
   0.77777711  0.72222189  0.46960000
   0.94444411  0.55555489  0.46960000
Direct configuration=     2
   0.67055690 -0.00000011  0.10002617
   0.32944221 -0.00000012  0.10002623
   0.00000011  0.32944210  0.10002617
   0.00000012  0.67055679  0.10002623
   0.32944188  0.32944187  0.10002626
   0.67055713  0.67055712  0.10002626
   0.66666614  0.33333286  0.09924456
   0.33333259  0.66666641  0.10081385
   0.27777227  0.22221746  0.46957334
   0.44444186  0.05555715  0.46957273
   0.27777719  0.72222181  0.46957223
   0.44444491  0.55555409  0.46957295
   0.77778052  0.22221848  0.46957316
   0.94444465  0.05555435  0.46957380
   0.77778154  0.72222673  0.46957334
   0.94444185  0.55555714  0.46957273
Direct configuration=     3
   0.66974740 -0.00000005  0.10001349
   0.33025166 -0.00000006  0.10001351
   0.00000005  0.33025160  0.10001349
   0.00000006  0.66974734  0.10001351
   0.33025149  0.33025148  0.10001353
   0.66974752  0.66974751  0.10001353
   0.66666607  0.33333293  0.09923357
   0.33333279  0.66666621  0.10079653
   0.27777462  0.22221961  0.46958626
   0.44444295  0.05555605  0.46958595
   0.27777715  0.72222185  0.46958569
   0.44444452  0.55555448  0.46958606
   0.77777887  0.22222013  0.46958617
   0.94444439  0.05555461  0.46958650
   0.77777939  0.72222438  0.46958626
   0.94444295  0.55555605  0.46958595
Direct configuration=     4
   0.66975102 -0.00000005  0.10001354
   0.33024803 -0.00000006  0.10001357
   0.00000005  0.33024798  0.10001354
   0.00000006  0.66975097  0.10001357
   0.33024786  0.33024785  0.10001359
   0.66975115  0.66975114  0.10001359
   0.66666607  0.33333293  0.09923362
   0.33333279  0.66666621  0.10079661
   0.27777461  0.22221960  0.46958621
   0.44444295  0.05555606  0.46958589
   0.27777715  0.72222185  0.46958563
   0.44444453  0.55555447  0.46958600
   0.77777888  0.22222012  0.46958611
   0.94444439  0.05555461  0.46958644
   0.77777940  0.72222439  0.46958621
   0.94444294  0.55555605  0.46958589
Direct configuration=     5
   0.66974949 -0.00000005  0.10001352
   0.33024956 -0.00000006  0.10001355
   0.00000005  0.33024951  0.10001352
   0.00000006  0.66974944  0.10001355
   0.33024939  0.33024939  0.10001356
   0.66974961  0.66974961  0.10001356
   0.66666607  0.33333293  0.09923360
   0.33333279  0.66666621  0.10079657
   0.27777461  0.22221960  0.46958623
   0.44444295  0.05555606  0.46958591
   0.27777715  0.72222185  0.46958566
   0.44444453  0.55555447  0.46958603
   0.77777887  0.22222013  0.46958614
   0.94444439  0.05555461  0.46958647
   0.77777940  0.72222439  0.46958623
   0.94444294  0.55555605  0.46958591
Direct configuration=     6
   0.66974845 -0.00000005  0.10001350
   0.33025061 -0.00000006  0.10001353
   0.00000005  0.33025055  0.10001350
   0.00000006  0.66974839  0.10001353
   0.33025044  0.33025043  0.10001355
   0.66974857  0.66974856  0.10001355
   0.66666607  0.33333293  0.09923358
   0.33333279  0.66666621  0.10079655
   0.27777461  0.22221960  0.46958625
   0.44444295  0.05555605  0.46958593
   0.27777715  0.72222185  0.46958567
   0.44444452  0.55555448  0.46958604
   0.77777887  0.22222013  0.46958615
   0.94444439  0.05555461  0.46958648
   0.77777940  0.72222439  0.46958625
   0.94444295  0.55555605  0.46958593
Direct configuration=     7
   0.66974792 -0.00000005  0.10001349
   0.33025113 -0.00000006  0.10001352
   0.00000005  0.33025108  0.10001349
   0.00000006  0.66974787  0.10001352
   0.33025096  0.33025095  0.10001354
   0.66974805  0.66974804  0.10001354
   0.66666607  0.33333293  0.09923358
   0.33333279  0.66666621  0.10079654
   0.27777462  0.22221961  0.46958626
   0.44444295  0.05555605  0.46958594
   0.27777715  0.72222185  0.46958568
   0.44444452  0.55555448  0.46958605
   0.77777887  0.22222013  0.46958616
   0.94444439  0.05555461  0.46958649
   0.77777939  0.72222438  0.46958626
   0.94444295  0.55555605  0.46958594
Direct configuration=     8
   0.66974801 -0.00000007  0.10003741
   0.33025116 -0.00000003  0.10003749
   0.00000007  0.33025099  0.10003741
   0.00000003  0.66974784  0.10003749
   0.33025103  0.33025101  0.10003752
   0.66974799  0.66974797  0.10003752
   0.66666605  0.33333295  0.09925699
   0.33333277  0.66666623  0.10082559
   0.27777785  0.22222331  0.46956195
   0.44444498  0.05555394  0.46956119
   0.27777670  0.72222230  0.46956061
   0.44444425  0.55555475  0.46956146
   0.77777588  0.22222312  0.46956173
   0.94444436  0.05555464  0.46956249
   0.77777569  0.72222115  0.46956195
   0.94444506  0.55555402  0.46956119
Direct configuration=     9
   0.66974826 -0.00000013  0.10010916
   0.33025124  0.00000008  0.10010937
   0.00000013  0.33025074  0.10010916
  -0.00000008  0.66974776  0.10010937
   0.33025125  0.33025118  0.10010949
   0.66974782  0.66974775  0.10010949
   0.66666600  0.33333300  0.09932722
   0.33333273  0.66666627  0.10091273
   0.27778756  0.22223442  0.46948904
   0.44445107  0.05554759  0.46948696
   0.27777532  0.72222368  0.46948541
   0.44444343  0.55555557  0.46948769
   0.77776689  0.22223211  0.46948844
   0.94444428  0.05555472  0.46949048
   0.77776458  0.72221144  0.46948904
   0.94445141  0.55554793  0.46948696
Direct configuration=    10
   0.66974876 -0.00000025  0.10025265
   0.33025141  0.00000030  0.10025315
   0.00000025  0.33025024  0.10025265
  -0.00000030  0.66974759  0.10025315
   0.33025167  0.33025153  0.10025341
   0.66974747  0.66974733  0.10025341
   0.66666589  0.33333311  0.09946769
   0.33333264  0.66666636  0.10108702
   0.27780697  0.22225664  0.46934321
   0.44446326  0.05553489  0.46933850
   0.27777258  0.72222642  0.46933500
   0.44444178  0.55555722  0.46934014
   0.77774891  0.22225009  0.46934186
   0.94444412  0.05555488  0.46934646
   0.77774236  0.72219203  0.46934321
   0.94446411  0.55553574  0.46933850
Direct configuration=    11
   0.66974976 -0.00000049  0.10053963
   0.33025175  0.00000073  0.10054071
   0.00000049  0.33024924  0.10053963
  -0.00000073  0.66974725  0.10054071
   0.33025253  0.33025222  0.10054126
   0.66974678  0.66974647  0.10054126
   0.66666566  0.33333334  0.09974862
   0.33333245  0.66666655  0.10143560
   0.27784579  0.22230108  0.46905154
   0.44448763  0.05550950  0.46904158
   0.27776710  0.72223190  0.46903419
   0.44443849  0.55556051  0.46904506
   0.77771297  0.22228603  0.46904869
   0.94444380  0.05555520  0.46905841
   0.77769792  0.72215321  0.46905154
   0.94448950  0.55551137  0.46904158
Direct configuration=    12
   0.66975176 -0.00000097  0.10111360
   0.33025242  0.00000160  0.10111581
   0.00000097  0.33024724  0.10111360
  -0.00000160  0.66974658  0.10111581
   0.33025423  0.33025360  0.10111696
   0.66974540  0.66974477  0.10111696
   0.66666521  0.33333379  0.10031049
   0.33333208  0.66666692  0.10213275
   0.27792343  0.22238996  0.46846822
   0.44453637  0.05545871  0.46844773
   0.27775613  0.72224287  0.46843256
   0.44443191  0.55556709  0.46845488
   0.77764107  0.22235793  0.46846236
   0.94444316  0.05555584  0.46848233
   0.77760904  0.72207557  0.46846822
   0.94454029  0.55546263  0.46844773
Direct configuration=    13
   0.66975577 -0.00000193  0.10226154
   0.33025376  0.00000334  0.10226603
   0.00000193  0.33024323  0.10226154
  -0.00000334  0.66974524  0.10226603
   0.33025764  0.33025637  0.10226835
   0.66974263  0.66974136  0.10226835
   0.66666432  0.33333468  0.10143423
   0.33333135  0.66666765  0.10352706
   0.27807872  0.22256772  0.46730157
   0.44463384  0.05535713  0.46726003
   0.27773419  0.72226481  0.46722930
   0.44441875  0.55558025  0.46727452
   0.77749728  0.22250172  0.46728971
   0.94444188  0.05555712  0.46733015
   0.77743128  0.72192028  0.46730157
   0.94464187  0.55536516  0.46726003
Direct configuration=    14
   0.66976378 -0.00000385  0.10455741
   0.33025645  0.00000681  0.10456647
   0.00000385  0.33023522  0.10455741
  -0.00000681  0.66974255  0.10456647
   0.33026446  0.33026189  0.10457114
   0.66973711  0.66973454  0.10457114
   0.66666253  0.33333647  0.10368170
   0.33332988  0.66666912  0.10631568
   0.27838930  0.22292324  0.46496828
   0.44482880  0.05515397  0.46488463
   0.27769031  0.72230869  0.46482278
   0.44439244  0.55560656  0.46491381
   0.77720970  0.22278930  0.46494439
   0.94443932  0.05555968  0.46502581
   0.77707576  0.72160970  0.46496828
   0.94484503  0.55517020  0.46488463
Direct configuration=    15
   0.66977980 -0.00000769  0.10914915
   0.33026181  0.00001375  0.10916733
   0.00000769  0.33021920  0.10914915
  -0.00001375  0.66973719  0.10916733
   0.33027809  0.33027295  0.10917671
   0.66972605  0.66972091  0.10917671
   0.66665895  0.33334005  0.10817664
   0.33332693  0.66667207  0.11189292
   0.27901045  0.22363429  0.46030169
   0.44521871  0.05474764  0.46013384
   0.27760256  0.72239644  0.46000973
   0.44433980  0.55565920  0.46019238
   0.77663454  0.22336446  0.46025376
   0.94443419  0.05556481  0.46041711
   0.77636471  0.72098855  0.46030169
   0.94525136  0.55478029  0.46013384
Direct configuration=    16
   0.66977980 -0.00000769  0.10915028
   0.33026182  0.00001375  0.10916846
   0.00000769  0.33021920  0.10915028
  -0.00001375  0.66973718  0.10916846
   0.33027809  0.33027295  0.10917784
   0.66972605  0.66972091  0.10917784
   0.66665895  0.33334005  0.10817774
   0.33332693  0.66667207  0.11189428
   0.27901049  0.22363432  0.46030055
   0.44521872  0.05474763  0.46013268
   0.27760257  0.72239643  0.46000856
   0.44433979  0.55565921  0.46019122
   0.77663451  0.22336449  0.46025261
   0.94443418  0.05556482  0.46041598
   0.77636468  0.72098851  0.46030055
   0.94525137  0.55478028  0.46013268
Direct configuration=    17
   0.66977981 -0.00000770  0.10915364
   0.33026182  0.00001375  0.10917183
   0.00000770  0.33021919  0.10915364
  -0.00001375  0.66973718  0.10917183
   0.33027810  0.33027296  0.10918121
   0.66972604  0.66972090  0.10918121
   0.66665895  0.33334005  0.10818103
   0.33332693  0.66667207  0.11189837
   0.27901063  0.22363442  0.46029712
   0.44521876  0.05474759  0.46012920
   0.27760258  0.72239642  0.46000504
   0.44433975  0.55565925  0.46018776
   0.77663444  0.22336456  0.46024917
   0.94443415  0.05556485  0.46041260
   0.77636458  0.72098837  0.46029712
   0.94525141  0.55478024  0.46012920
Direct configuration=    18
   0.66977981 -0.00000771  0.10916038
   0.33026183  0.00001374  0.10917858
   0.00000771  0.33021919  0.10916038
  -0.00001374  0.66973717  0.10917858
   0.33027812  0.33027298  0.10918797
   0.66972602  0.66972088  0.10918797
   0.66665895  0.33334005  0.10818761
   0.33332693  0.66667207  0.11190654
   0.27901091  0.22363462  0.46029028
   0.44521884  0.05474750  0.46012224
   0.27760261  0.72239639  0.45999800
   0.44433966  0.55565934  0.46018084
   0.77663429  0.22336471  0.46024229
   0.94443409  0.05556491  0.46040583
   0.77636438  0.72098809  0.46029028
   0.94525150  0.55478016  0.46012224
Direct configuration=    19
   0.66977982 -0.00000774  0.10917385
   0.33026185  0.00001374  0.10919208
   0.00000774  0.33021918  0.10917385
  -0.00001374  0.66973715  0.10919208
   0.33027815  0.33027303  0.10920148
   0.66972597  0.66972085  0.10920148
   0.66665894  0.33334006  0.10820077
   0.33332692  0.66667208  0.11192287
   0.27901147  0.22363502  0.46027658
   0.44521899  0.05474732  0.46010832
   0.27760266  0.72239634  0.45998392
   0.44433950  0.55565950  0.46016700
   0.77663398  0.22336502  0.46022853
   0.94443396  0.05556504  0.46039228
   0.77636398  0.72098753  0.46027658
   0.94525168  0.55478001  0.46010832
Direct configuration=    20
   0.66977985 -0.00000779  0.10920079
   0.33026188  0.00001373  0.10921907
   0.00000779  0.33021915  0.10920079
  -0.00001373  0.66973712  0.10921907
   0.33027822  0.33027311  0.10922850
   0.66972589  0.66972078  0.10922850
   0.66665894  0.33334006  0.10822709
   0.33332690  0.66667210  0.11195554
   0.27901259  0.22363582  0.46024919
   0.44521930  0.05474697  0.46008049
   0.27760278  0.72239622  0.45995576
   0.44433918  0.55565982  0.46013932
   0.77663338  0.22336562  0.46020102
   0.94443372  0.05556528  0.46036520
   0.77636318  0.72098641  0.46024919
   0.94525203  0.55477970  0.46008049
Direct configuration=    21
   0.66977990 -0.00000790  0.10925467
   0.33026194  0.00001370  0.10927305
   0.00000790  0.33021910  0.10925467
  -0.00001370  0.66973706  0.10927305
   0.33027836  0.33027328  0.10928254
   0.66972572  0.66972064  0.10928254
   0.66665893  0.33334007  0.10827973
   0.33332686  0.66667214  0.11202088
   0.27901482  0.22363741  0.46019441
   0.44521992  0.05474627  0.46002482
   0.27760300  0.72239600  0.45989944
   0.44433853  0.55566047  0.46008396
   0.77663217  0.22336683  0.46014599
   0.94443323  0.05556577  0.46031103
   0.77636159  0.72098418  0.46019441
   0.94525273  0.55477908  0.46002482
Direct configuration=    22
   0.66978000 -0.00000811  0.10936243
   0.33026208  0.00001365  0.10938102
   0.00000811  0.33021900  0.10936243
  -0.00001365  0.66973692  0.10938102
   0.33027863  0.33027361  0.10939061
   0.66972539  0.66972037  0.10939061
   0.66665891  0.33334009  0.10838502
   0.33332679  0.66667221  0.11215156
   0.27901929  0.22364060  0.46008485
   0.44522115  0.05474486  0.45991348
   0.27760344  0.72239556  0.45978679
   0.44433723  0.55566177  0.45997323
   0.77662975  0.22336925  0.46003592
   0.94443225  0.05556675  0.46020268
   0.77635840  0.72097971  0.46008485
   0.94525414  0.55477785  0.45991348
Direct configuration=    23
   0.66978019 -0.00000854  0.10957794
   0.33026234  0.00001356  0.10959696
   0.00000854  0.33021881  0.10957794
  -0.00001356  0.66973666  0.10959696
   0.33027917  0.33027428  0.10960677
   0.66972472  0.66971983  0.10960677
   0.66665888  0.33334012  0.10859559
   0.33332664  0.66667236  0.11241293
   0.27902822  0.22364698  0.45986574
   0.44522361  0.05474204  0.45969080
   0.27760433  0.72239467  0.45956150
   0.44433464  0.55566436  0.45975177
   0.77662491  0.22337409  0.45981579
   0.94443029  0.05556871  0.45998600
   0.77635202  0.72097078  0.45986574
   0.94525696  0.55477539  0.45969080
Direct configuration=    24
   0.66978058 -0.00000941  0.11000898
   0.33026287  0.00001336  0.11002884
   0.00000941  0.33021842  0.11000898
  -0.00001336  0.66973613  0.11002884
   0.33028025  0.33027563  0.11003907
   0.66972337  0.66971875  0.11003907
   0.66665880  0.33334020  0.10901672
   0.33332635  0.66667265  0.11293565
   0.27904608  0.22365974  0.45942751
   0.44522854  0.05473641  0.45924545
   0.27760610  0.72239290  0.45911093
   0.44432946  0.55566954  0.45930885
   0.77661524  0.22338376  0.45937554
   0.94442636  0.05557264  0.45955263
   0.77633926  0.72095292  0.45942751
   0.94526259  0.55477046  0.45924545
Direct configuration=    25
   0.66978137 -0.00001113  0.11087105
   0.33026393  0.00001298  0.11089259
   0.00001113  0.33021763  0.11087105
  -0.00001298  0.66973507  0.11089259
   0.33028241  0.33027831  0.11090368
   0.66972069  0.66971659  0.11090368
   0.66665865  0.33334035  0.10985900
   0.33332576  0.66667324  0.11398110
   0.27908181  0.22368527  0.45855104
   0.44523839  0.05472515  0.45835473
   0.27760965  0.72238935  0.45820977
   0.44431909  0.55567991  0.45842302
   0.77659589  0.22340311  0.45849502
   0.94441852  0.05558048  0.45868588
   0.77631373  0.72091719  0.45855104
   0.94527385  0.55476061  0.45835473
Direct configuration=    26
   0.66978294 -0.00001458  0.11259519
   0.33026604  0.00001220  0.11262010
   0.00001458  0.33021606  0.11259519
  -0.00001220  0.66973296  0.11262010
   0.33028673  0.33028368  0.11263291
   0.66971532  0.66971227  0.11263291
   0.66665836  0.33334064  0.11154355
   0.33332458  0.66667442  0.11607200
   0.27915327  0.22373632  0.45679811
   0.44525809  0.05470262  0.45657331
   0.27761674  0.72238226  0.45640747
   0.44429836  0.55570064  0.45665136
   0.77655719  0.22344181  0.45673399
   0.94440283  0.05559617  0.45695240
   0.77626268  0.72084573  0.45679811
   0.94529638  0.55474091  0.45657331
Direct configuration=    27
   0.66978608 -0.00002148  0.11604347
   0.33027027  0.00001065  0.11607512
   0.00002148  0.33021292  0.11604347
  -0.00001065  0.66972873  0.11607512
   0.33029537  0.33029442  0.11609135
   0.66970458  0.66970363  0.11609135
   0.66665777  0.33334123  0.11491264
   0.33332223  0.66667677  0.12025380
   0.27929619  0.22383841  0.45329226
   0.44529750  0.05465756  0.45301045
   0.27763092  0.72236808  0.45280285
   0.44425689  0.55574211  0.45310803
   0.77647979  0.22351921  0.45321194
   0.94437145  0.05562755  0.45348543
   0.77616059  0.72070281  0.45329226
   0.94534144  0.55470150  0.45301045
Direct configuration=    28
   0.66979235 -0.00003527  0.12294004
   0.33027873  0.00000755  0.12298515
   0.00003527  0.33020665  0.12294004
  -0.00000755  0.66972027  0.12298515
   0.33031265  0.33031589  0.12300824
   0.66968311  0.66968635  0.12300824
   0.66665658  0.33334242  0.12165084
   0.33331752  0.66668148  0.12861741
   0.27958203  0.22404260  0.44628055
   0.44537632  0.05456744  0.44588475
   0.27765929  0.72233971  0.44559362
   0.44417395  0.55582505  0.44602137
   0.77632499  0.22367401  0.44616783
   0.94430868  0.05569032  0.44655148
   0.77595640  0.72041697  0.44628055
   0.94543156  0.55462268  0.44588475
Direct configuration=    29
   0.66980491 -0.00006286  0.13673317
   0.33029564  0.00000134  0.13680521
   0.00006286  0.33019409  0.13673317
  -0.00000134  0.66970336  0.13680521
   0.33034721  0.33035884  0.13684202
   0.66964016  0.66965179  0.13684202
   0.66665421  0.33334479  0.13512723
   0.33330810  0.66669090  0.14534461
   0.28015372  0.22445098  0.43225712
   0.44553396  0.05438721  0.43163334
   0.27771603  0.72228297  0.43117516
   0.44400808  0.55599092  0.43184806
   0.77601539  0.22398361  0.43207960
   0.94418315  0.05581585  0.43268360
   0.77554802  0.71984528  0.43225712
   0.94561179  0.55446504  0.43163334
Direct configuration=    30
   0.66983001 -0.00011804  0.16431944
   0.33032948 -0.00001107  0.16444534
   0.00011804  0.33016899  0.16431944
   0.00001107  0.66966952  0.16444534
   0.33041633  0.33044474  0.16450959
   0.66955426  0.66958267  0.16450959
   0.66664947  0.33334953  0.16208001
   0.33328926  0.66670974  0.17879902
   0.28129708  0.22526773  0.40421028
   0.44584924  0.05402676  0.40313052
   0.27782951  0.72216949  0.40233824
   0.44367633  0.55632267  0.40350143
   0.77539618  0.22460282  0.40390316
   0.94393210  0.05606690  0.40494783
   0.77473127  0.71870192  0.40421028
   0.94597224  0.55414976  0.40313052
Direct configuration=    31
   0.66982525 -0.00010757  0.15908663
   0.33032306 -0.00000871  0.15920232
   0.00010757  0.33017375  0.15908663
   0.00000871  0.66967594  0.15920232
   0.33040322  0.33042845  0.15926136
   0.66957055  0.66959578  0.15926136
   0.66665037  0.33334863  0.15696736
   0.33329283  0.66670617  0.17245309
   0.28108020  0.22511280  0.40953045
   0.44578944  0.05409513  0.40853718
   0.27780799  0.72219101  0.40780828
   0.44373926  0.55625974  0.40887847
   0.77551364  0.22448536  0.40924792
   0.94397972  0.05601928  0.41020900
   0.77488620  0.71891880  0.40953045
   0.94590387  0.55420956  0.40853718
Direct configuration=    32
   0.66982866 -0.00011507  0.16283435
   0.33032765 -0.00001040  0.16295736
   0.00011507  0.33017034  0.16283435
   0.00001040  0.66967135  0.16295736
   0.33041261  0.33044012  0.16302012
   0.66955888  0.66958639  0.16302012
   0.66664973  0.33334927  0.16062902
   0.33329027  0.66670873  0.17699803
   0.28123553  0.22522376  0.40572016
   0.44583227  0.05404616  0.40466494
   0.27782340  0.72217560  0.40389065
   0.44369419  0.55630481  0.40502745
   0.77542952  0.22456948  0.40542001
   0.94394562  0.05605338  0.40644096
   0.77477524  0.71876347  0.40572016
   0.94595284  0.55416673  0.40466494
