 ----------------------------------------------------
    OOO  PPPP  EEEEE N   N M   M PPPP
   O   O P   P E     NN  N MM MM P   P
   O   O PPPP  EEEEE N N N M M M PPPP   -- VERSION
   O   O P     E     N  NN M   M P
    OOO  P     EEEEE N   N M   M P
 ----------------------------------------------------
 running   48 mpi-ranks, with    1 threads/rank
 distrk:  each k-point on   48 cores,    1 groups
 distr:  one band on    1 cores,   48 groups
 vasp.6.3.2 27Jun22 (build Dec 22 2022 13:13:19) complex                        
  
 POSCAR found type information on POSCAR B C 
 POSCAR found :  2 types and      16 ions
 Reading from existing POTCAR
 -----------------------------------------------------------------------------
|                                                                             |
|           W    W    AA    RRRRR   N    N  II  N    N   GGGG   !!!           |
|           W    W   A  A   R    R  NN   N  II  NN   N  G    G  !!!           |
|           W    W  A    A  R    R  N N  N  II  N N  N  G       !!!           |
|           W WW W  AAAAAA  RRRRR   N  N N  II  N  N N  G  GGG   !            |
|           WW  WW  A    A  R   R   N   NN  II  N   NN  G    G                |
|           W    W  A    A  R    R  N    N  II  N    N   GGGG   !!!           |
|                                                                             |
|     You use a magnetic or noncollinear calculation, but did not specify     |
|     the initial magnetic moment with the MAGMOM tag. Note that a            |
|     default of 1 will be used for all atoms. This ferromagnetic setup       |
|     may break the symmetry of the crystal, in particular it may rule        |
|     out finding an antiferromagnetic solution. Thence, we recommend         |
|     setting the initial magnetic moment manually or verifying carefully     |
|     that this magnetic setup is desired.                                    |
|                                                                             |
 -----------------------------------------------------------------------------

 scaLAPACK will be used
 Reading from existing POTCAR
 LDA part: xc-table for Pade appr. of Perdew
 POSCAR found type information on POSCAR B C 
 POSCAR found :  2 types and      16 ions
 POSCAR, INCAR and KPOINTS ok, starting setup
 FFT: planning ... GRIDC
 FFT: planning ... GRID_SOFT
 FFT: planning ... GRID
 WAVECAR not read
 entering main loop
       N       E                     dE             d eps       ncg     rms          rms(c)
DAV:   1     0.186678827728E+03    0.18668E+03   -0.25431E+04  3648   0.863E+02
DAV:   2    -0.118482973835E+03   -0.30516E+03   -0.30422E+03  5712   0.158E+02
DAV:   3    -0.128070504946E+03   -0.95875E+01   -0.95584E+01  6192   0.370E+01
DAV:   4    -0.128097559002E+03   -0.27054E-01   -0.27045E-01  5568   0.173E+00
DAV:   5    -0.128097599834E+03   -0.40832E-04   -0.40831E-04  5664   0.754E-02    0.228E+01
DAV:   6    -0.946106297415E+02    0.33487E+02   -0.57139E+01  4800   0.216E+01    0.125E+01
DAV:   7    -0.105683801500E+03   -0.11073E+02   -0.14271E+01  5520   0.112E+01    0.674E+00
DAV:   8    -0.111455499820E+03   -0.57717E+01   -0.50349E+00  5136   0.644E+00    0.377E+00
DAV:   9    -0.116725313236E+03   -0.52698E+01   -0.27403E+00  4704   0.467E+00    0.254E+00
DAV:  10    -0.120918626451E+03   -0.41933E+01   -0.32828E+00  5568   0.477E+00    0.135E+00
DAV:  11    -0.122756186816E+03   -0.18376E+01   -0.14260E+00  5376   0.282E+00    0.824E-01
DAV:  12    -0.123754730137E+03   -0.99854E+00   -0.80487E-01  5712   0.195E+00    0.400E-01
DAV:  13    -0.124056119988E+03   -0.30139E+00   -0.18546E-01  5232   0.955E-01    0.196E-01
DAV:  14    -0.124107987361E+03   -0.51867E-01   -0.27093E-02  4608   0.395E-01    0.108E-01
DAV:  15    -0.124131500268E+03   -0.23513E-01   -0.15322E-02  4176   0.299E-01    0.581E-02
DAV:  16    -0.124133034253E+03   -0.15340E-02   -0.21744E-03  4272   0.175E-01    0.371E-02
DAV:  17    -0.124133571385E+03   -0.53713E-03   -0.76334E-04  4032   0.936E-02    0.149E-02
DAV:  18    -0.124133635160E+03   -0.63775E-04   -0.15411E-04  3936   0.460E-02    0.854E-03
DAV:  19    -0.124133695468E+03   -0.60308E-04   -0.33439E-05  3792   0.262E-02    0.519E-03
DAV:  20    -0.124133727286E+03   -0.31819E-04   -0.17545E-05  4032   0.169E-02    0.368E-03
DAV:  21    -0.124133771498E+03   -0.44211E-04   -0.14293E-05  3744   0.144E-02    0.236E-03
DAV:  22    -0.124133795229E+03   -0.23731E-04   -0.45458E-06  4416   0.799E-03    0.137E-03
DAV:  23    -0.124133800063E+03   -0.48333E-05   -0.16502E-06  5232   0.472E-03    0.620E-04
DAV:  24    -0.124133803220E+03   -0.31575E-05   -0.28399E-07  4896   0.184E-03    0.341E-04
DAV:  25    -0.124133804779E+03   -0.15591E-05   -0.15421E-07  4608   0.127E-03    0.179E-04
DAV:  26    -0.124133805172E+03   -0.39314E-06   -0.68733E-08  5328   0.957E-04
   1 F= -.12562957E+03 E0= -.12562655E+03  d E =-.125630E+03  mag=     0.0000
 curvature:   0.00 expect dE= 0.000E+00 dE for cont linesearch  0.000E+00
 trial: gam= 0.00000 g(F)=  0.115E-01 g(S)=  0.000E+00 ort = 0.000E+00 (trialstep = 0.100E+01)
 search vector abs. value=  0.115E-01
 bond charge predicted
       N       E                     dE             d eps       ncg     rms          rms(c)
DAV:   1    -0.124138694118E+03   -0.48893E-02   -0.85831E-01  3744   0.226E+00    0.314E-01
DAV:   2    -0.124134369473E+03    0.43246E-02   -0.20714E-02  5520   0.342E-01    0.138E-01
DAV:   3    -0.124133692082E+03    0.67739E-03   -0.32862E-03  5040   0.122E-01    0.382E-02
DAV:   4    -0.124133666921E+03    0.25161E-04   -0.25718E-04  5280   0.381E-02    0.137E-02
DAV:   5    -0.124133666546E+03    0.37494E-06   -0.14428E-05  5376   0.947E-03    0.430E-03
DAV:   6    -0.124133667917E+03   -0.13703E-05   -0.36705E-06  4224   0.441E-03    0.154E-03
DAV:   7    -0.124133669480E+03   -0.15628E-05   -0.26098E-07  4368   0.139E-03    0.775E-04
DAV:   8    -0.124133672073E+03   -0.25931E-05   -0.15753E-07  4128   0.751E-04    0.388E-04
DAV:   9    -0.124133674252E+03   -0.21793E-05   -0.14985E-07  4320   0.669E-04    0.236E-04
DAV:  10    -0.124133675276E+03   -0.10243E-05   -0.79003E-08  4176   0.565E-04    0.164E-04
DAV:  11    -0.124133675612E+03   -0.33623E-06   -0.30582E-08  4848   0.438E-04
   2 F= -.12562971E+03 E0= -.12562669E+03  d E =-.140319E-03  mag=    -0.0000
 trial-energy change:   -0.000140  1 .order   -0.000195   -0.011470    0.011080
 step:   0.5050(harm=  0.5086)  dis= 0.00484  next Energy=  -125.632462 (dE=-0.289E-02)
 bond charge predicted
       N       E                     dE             d eps       ncg     rms          rms(c)
DAV:   1    -0.124137772241E+03   -0.40970E-02   -0.20992E-01  3744   0.112E+00    0.155E-01
DAV:   2    -0.124136727223E+03    0.10450E-02   -0.50900E-03  5568   0.170E-01    0.681E-02
DAV:   3    -0.124136562486E+03    0.16474E-03   -0.81870E-04  5952   0.604E-02    0.186E-02
DAV:   4    -0.124136556788E+03    0.56981E-05   -0.57325E-05  4992   0.181E-02    0.680E-03
DAV:   5    -0.124136556891E+03   -0.10310E-06   -0.34646E-06  6096   0.468E-03
   3 F= -.12563246E+03 E0= -.12562945E+03  d E =-.288940E-02  mag=     0.0000
 curvature:  -0.25 expect dE=-0.147E-04 dE for cont linesearch -0.107E-06
 ZBRENT: interpolating
 opt :   0.5081  next Energy=  -125.632463 (dE=-0.289E-02)
 bond charge predicted
       N       E                     dE             d eps       ncg     rms          rms(c)
DAV:   1    -0.124136556160E+03    0.62735E-06   -0.51759E-06  4272   0.621E-03    0.119E-03
DAV:   2    -0.124136556272E+03   -0.11146E-06   -0.23875E-07  4608   0.109E-03
   4 F= -.12563246E+03 E0= -.12562945E+03  d E =-.288961E-02  mag=     0.0000
 curvature:  -0.25 expect dE=-0.149E-04 dE for cont linesearch -0.497E-07
 ZBRENT: interpolating
 opt :   0.5069  next Energy=  -125.632463 (dE=-0.289E-02)
 bond charge predicted
       N       E                     dE             d eps       ncg     rms          rms(c)
DAV:   1    -0.124136556856E+03   -0.69510E-06   -0.16783E-06  4272   0.310E-03    0.451E-04
DAV:   2    -0.124136556963E+03   -0.10691E-06   -0.47430E-08  5088   0.616E-04
   5 F= -.12563246E+03 E0= -.12562945E+03  d E =-.288996E-02  mag=     0.0000
 curvature:  -0.15 expect dE=-0.887E-05 dE for cont linesearch -0.174E-07
 ZBRENT: bisectioning
 opt :   0.5059  next Energy=  -125.632463 (dE=-0.289E-02)
 bond charge predicted
       N       E                     dE             d eps       ncg     rms          rms(c)
DAV:   1    -0.124136557337E+03   -0.48142E-06   -0.67030E-07  4224   0.207E-03    0.363E-04
DAV:   2    -0.124136557400E+03   -0.62558E-07   -0.20107E-08  5040   0.392E-04
   6 F= -.12563246E+03 E0= -.12562945E+03  d E =-.289015E-02  mag=     0.0000
 curvature:  -0.26 expect dE=-0.150E-04 dE for cont linesearch -0.531E-08
 ZBRENT: bisectioning
 opt :   0.5055  next Energy=  -125.632463 (dE=-0.289E-02)
 bond charge predicted
       N       E                     dE             d eps       ncg     rms          rms(c)
DAV:   1    -0.124136557599E+03   -0.26211E-06   -0.15370E-07  4272   0.103E-03    0.205E-04
DAV:   2    -0.124136557633E+03   -0.34145E-07   -0.53966E-09  5424   0.244E-04
   7 F= -.12563246E+03 E0= -.12562945E+03  d E =-.289026E-02  mag=     0.0000
 curvature:  -0.23 expect dE=-0.131E-04 dE for cont linesearch -0.169E-09
 trial: gam= 0.00532 g(F)=  0.581E-04 g(S)=  0.000E+00 ort =-0.293E-05 (trialstep = 0.901E+00)
 search vector abs. value=  0.584E-04
 bond charge predicted
       N       E                     dE             d eps       ncg     rms          rms(c)
DAV:   1    -0.124136564799E+03   -0.72003E-05   -0.46995E-03  3648   0.253E-01    0.123E-02
DAV:   2    -0.124136563611E+03    0.11883E-05   -0.54631E-05  4032   0.289E-02    0.754E-03
DAV:   3    -0.124136562984E+03    0.62745E-06   -0.70603E-06  4320   0.912E-03
   8 F= -.12563252E+03 E0= -.12562950E+03  d E =-.523713E-04  mag=    -0.0000
 ZBRENT: can't locate minimum, use default step
 trial-energy change:   -0.000052  1 .order   -0.000051   -0.000052   -0.000050
 step:   3.6044(harm= 25.2235)  dis= 0.00189  next Energy=  -125.633196 (dE=-0.733E-03)
 bond charge predicted
       N       E                     dE             d eps       ncg     rms          rms(c)
DAV:   1    -0.124136594705E+03   -0.31094E-04   -0.42453E-02  3648   0.760E-01    0.375E-02
DAV:   2    -0.124136584146E+03    0.10560E-04   -0.48746E-04  3840   0.868E-02    0.230E-02
DAV:   3    -0.124136577543E+03    0.66029E-05   -0.65487E-05  5424   0.277E-02    0.553E-03
DAV:   4    -0.124136577939E+03   -0.39626E-06   -0.73374E-06  3840   0.946E-03
   9 F= -.12563267E+03 E0= -.12562966E+03  d E =-.208492E-03  mag=    -0.0000
 curvature:  -2.66 expect dE=-0.168E-03 dE for cont linesearch -0.152E-03
 ZBRENT: increasing intervall
 opt :   9.0109  next Energy=  -125.632994 (dE=-0.531E-03)
 bond charge predicted
       N       E                     dE             d eps       ncg     rms          rms(c)
DAV:   1    -0.124136672621E+03   -0.95078E-04   -0.16933E-01  3648   0.152E+00    0.738E-02
DAV:   2    -0.124136633567E+03    0.39054E-04   -0.19530E-03  3840   0.174E-01    0.451E-02
DAV:   3    -0.124136604144E+03    0.29424E-04   -0.25648E-04  5088   0.549E-02    0.110E-02
DAV:   4    -0.124136605445E+03   -0.13010E-05   -0.29441E-05  4560   0.189E-02    0.473E-03
DAV:   5    -0.124136606058E+03   -0.61299E-06   -0.17548E-06  3936   0.505E-03
  10 F= -.12563298E+03 E0= -.12562997E+03  d E =-.520088E-03  mag=    -0.0000
 curvature:  -5.63 expect dE=-0.509E-03 dE for cont linesearch -0.307E-03
 ZBRENT: increasing intervall
 opt :  19.8241  next Energy=  -125.633579 (dE=-0.112E-02)
 bond charge predicted
       N       E                     dE             d eps       ncg     rms          rms(c)
DAV:   1    -0.124136908853E+03   -0.30341E-03   -0.67710E-01  3648   0.304E+00    0.147E-01
DAV:   2    -0.124136768856E+03    0.14000E-03   -0.78282E-03  4032   0.347E-01    0.904E-02
DAV:   3    -0.124136641159E+03    0.12770E-03   -0.10215E-03  4560   0.109E-01    0.223E-02
DAV:   4    -0.124136644351E+03   -0.31922E-05   -0.11917E-04  5280   0.379E-02    0.944E-03
DAV:   5    -0.124136643643E+03    0.70784E-06   -0.57324E-06  4032   0.842E-03
  11 F= -.12563359E+03 E0= -.12563058E+03  d E =-.112839E-02  mag=    -0.0000
 curvature: -10.92 expect dE=-0.244E-02 dE for cont linesearch -0.558E-03
 ZBRENT: increasing intervall
 opt :  41.4503  next Energy=  -125.634735 (dE=-0.227E-02)
 bond charge predicted
       N       E                     dE             d eps       ncg     rms          rms(c)
DAV:   1    -0.124137737843E+03   -0.10935E-02   -0.27083E+00  3648   0.607E+00    0.295E-01
DAV:   2    -0.124137165126E+03    0.57272E-03   -0.31333E-02  4128   0.694E-01    0.180E-01
DAV:   3    -0.124136674727E+03    0.49040E-03   -0.40925E-03  4608   0.219E-01    0.439E-02
DAV:   4    -0.124136681261E+03   -0.65341E-05   -0.46636E-04  5904   0.754E-02    0.190E-02
DAV:   5    -0.124136675227E+03    0.60343E-05   -0.20708E-05  4416   0.151E-02    0.427E-03
DAV:   6    -0.124136675038E+03    0.18837E-06   -0.44822E-06  4896   0.752E-03
  12 F= -.12563478E+03 E0= -.12563176E+03  d E =-.231640E-02  mag=     0.0000
 curvature: -22.37 expect dE=-0.180E-01 dE for cont linesearch -0.112E-02
 ZBRENT: increasing intervall
 opt :  84.7029  next Energy=  -125.637089 (dE=-0.463E-02)
 bond charge predicted
       N       E                     dE             d eps       ncg     rms          rms(c)
DAV:   1    -0.124140868719E+03   -0.41935E-02   -0.10827E+01  3648   0.121E+01    0.591E-01
DAV:   2    -0.124138652686E+03    0.22160E-02   -0.12575E-01  4560   0.139E+00    0.361E-01
DAV:   3    -0.124136594064E+03    0.20586E-02   -0.16434E-02  5376   0.432E-01    0.867E-02
DAV:   4    -0.124136610526E+03   -0.16462E-04   -0.16992E-03  5472   0.148E-01    0.387E-02
DAV:   5    -0.124136577763E+03    0.32763E-04   -0.83382E-05  5040   0.299E-02    0.767E-03
DAV:   6    -0.124136576600E+03    0.11627E-05   -0.16329E-05  4656   0.129E-02    0.480E-03
DAV:   7    -0.124136581952E+03   -0.53521E-05   -0.42570E-06  4848   0.748E-03    0.247E-03
DAV:   8    -0.124136598400E+03   -0.16448E-04   -0.38835E-06  4608   0.574E-03    0.187E-03
DAV:   9    -0.124136607786E+03   -0.93857E-05   -0.16282E-06  4896   0.448E-03    0.110E-03
DAV:  10    -0.124136618954E+03   -0.11168E-04   -0.29401E-06  4752   0.651E-03    0.522E-04
DAV:  11    -0.124136624699E+03   -0.57444E-05   -0.23803E-06  4320   0.606E-03    0.567E-04
DAV:  12    -0.124136628642E+03   -0.39437E-05   -0.12606E-06  4656   0.430E-03    0.265E-04
DAV:  13    -0.124136629249E+03   -0.60670E-06   -0.50069E-07  4800   0.285E-03
  13 F= -.12563711E+03 E0= -.12563409E+03  d E =-.464565E-02  mag=     0.0000
 curvature: -46.23 expect dE=-0.148E+00 dE for cont linesearch -0.214E-02
 ZBRENT: increasing intervall
 opt : 171.2080  next Energy=  -125.641435 (dE=-0.897E-02)
 bond charge predicted
       N       E                     dE             d eps       ncg     rms          rms(c)
DAV:   1    -0.124151739312E+03   -0.15111E-01   -0.43223E+01  3648   0.242E+01    0.118E+00
DAV:   2    -0.124143988393E+03    0.77509E-02   -0.50994E-01  3936   0.281E+00    0.725E-01
DAV:   3    -0.124135831628E+03    0.81568E-02   -0.66433E-02  6048   0.874E-01    0.177E-01
DAV:   4    -0.124135880758E+03   -0.49130E-04   -0.60447E-03  5616   0.278E-01    0.793E-02
DAV:   5    -0.124135778029E+03    0.10273E-03   -0.31552E-04  5328   0.547E-02    0.154E-02
DAV:   6    -0.124135764085E+03    0.13945E-04   -0.71527E-05  5184   0.224E-02    0.734E-03
DAV:   7    -0.124135781983E+03   -0.17898E-04   -0.89183E-06  4848   0.855E-03    0.412E-03
DAV:   8    -0.124135802738E+03   -0.20756E-04   -0.36607E-06  4608   0.479E-03    0.358E-03
DAV:   9    -0.124135824205E+03   -0.21467E-04   -0.21827E-06  4896   0.306E-03    0.174E-03
DAV:  10    -0.124135846191E+03   -0.21986E-04   -0.26539E-06  4800   0.346E-03    0.102E-03
DAV:  11    -0.124135854284E+03   -0.80931E-05   -0.81332E-07  4800   0.265E-03    0.865E-04
DAV:  12    -0.124135862309E+03   -0.80246E-05   -0.11762E-06  4224   0.267E-03    0.268E-04
DAV:  13    -0.124135864319E+03   -0.20105E-05   -0.38415E-07  5040   0.208E-03    0.119E-04
DAV:  14    -0.124135864486E+03   -0.16616E-06   -0.10160E-07  5568   0.132E-03
  14 F= -.12564135E+03 E0= -.12563833E+03  d E =-.889104E-02  mag=     0.0000
 curvature: -93.40 expect dE=-0.121E+01 dE for cont linesearch -0.338E-02
 ZBRENT: increasing intervall
 opt : 344.2181  next Energy=  -125.648260 (dE=-0.158E-01)
 bond charge predicted
       N       E                     dE             d eps       ncg     rms          rms(c)
DAV:   1    -0.124186594602E+03   -0.50730E-01   -0.17184E+02  3648   0.483E+01    0.234E+00
DAV:   2    -0.124164202026E+03    0.22393E-01   -0.21112E+00  4416   0.576E+00    0.145E+00
DAV:   3    -0.124131764900E+03    0.32437E-01   -0.25254E-01  5952   0.169E+00    0.374E-01
DAV:   4    -0.124132003820E+03   -0.23892E-03   -0.22048E-02  5568   0.532E-01    0.163E-01
DAV:   5    -0.124131484245E+03    0.51957E-03   -0.13960E-03  5472   0.106E-01    0.331E-02
DAV:   6    -0.124131429644E+03    0.54601E-04   -0.25472E-04  5184   0.423E-02    0.149E-02
DAV:   7    -0.124131492122E+03   -0.62478E-04   -0.51317E-05  4224   0.198E-02    0.808E-03
DAV:   8    -0.124131549799E+03   -0.57677E-04   -0.14167E-05  4512   0.917E-03    0.644E-03
DAV:   9    -0.124131590052E+03   -0.40253E-04   -0.52167E-06  5088   0.629E-03    0.317E-03
DAV:  10    -0.124131634340E+03   -0.44288E-04   -0.65626E-06  4512   0.589E-03    0.193E-03
DAV:  11    -0.124131656790E+03   -0.22450E-04   -0.34599E-06  4992   0.488E-03    0.115E-03
DAV:  12    -0.124131667088E+03   -0.10298E-04   -0.26502E-06  4512   0.572E-03    0.449E-04
DAV:  13    -0.124131669491E+03   -0.24031E-05   -0.10832E-06  5232   0.436E-03    0.213E-04
DAV:  14    -0.124131671041E+03   -0.15501E-05   -0.27862E-07  4320   0.189E-03    0.888E-05
DAV:  15    -0.124131671285E+03   -0.24413E-06   -0.42314E-08  6048   0.797E-04
  15 F= -.12564831E+03 E0= -.12564528E+03  d E =-.158461E-01  mag=     0.0000
 curvature: ****** expect dE=-0.996E+01 dE for cont linesearch -0.389E-02
 ZBRENT: increasing intervall
 opt : 690.2384  next Energy=  -125.656274 (dE=-0.238E-01)
 bond charge predicted
       N       E                     dE             d eps       ncg     rms          rms(c)
DAV:   1    -0.124225180021E+03   -0.93509E-01   -0.67090E+02  3648   0.950E+01    0.458E+00
DAV:   2    -0.124243950192E+03   -0.18770E-01   -0.92796E+00  4032   0.124E+01    0.293E+00
DAV:   3    -0.124112096658E+03    0.13185E+00   -0.89151E-01  6336   0.323E+00    0.927E-01
DAV:   4    -0.124113819308E+03   -0.17227E-02   -0.72038E-02  5760   0.984E-01    0.333E-01
DAV:   5    -0.124111986372E+03    0.18329E-02   -0.76280E-03  5760   0.218E-01    0.578E-02
DAV:   6    -0.124111789661E+03    0.19671E-03   -0.69226E-04  6048   0.736E-02    0.287E-02
DAV:   7    -0.124111964507E+03   -0.17485E-03   -0.23342E-04  4128   0.440E-02    0.153E-02
DAV:   8    -0.124112096417E+03   -0.13191E-03   -0.49156E-05  4416   0.163E-02    0.134E-02
DAV:   9    -0.124112184967E+03   -0.88549E-04   -0.15279E-05  4896   0.947E-03    0.698E-03
DAV:  10    -0.124112266018E+03   -0.81052E-04   -0.15340E-05  4944   0.926E-03    0.409E-03
DAV:  11    -0.124112318522E+03   -0.52504E-04   -0.11256E-05  4896   0.678E-03    0.246E-03
DAV:  12    -0.124112332579E+03   -0.14057E-04   -0.17649E-06  5760   0.301E-03    0.932E-04
DAV:  13    -0.124112337450E+03   -0.48710E-05   -0.30698E-07  4848   0.130E-03    0.446E-04
DAV:  14    -0.124112340324E+03   -0.28739E-05   -0.14115E-07  4800   0.802E-04    0.213E-04
DAV:  15    -0.124112342521E+03   -0.21975E-05   -0.17075E-07  4224   0.665E-04    0.808E-05
DAV:  16    -0.124112342828E+03   -0.30710E-06   -0.14407E-08  5760   0.232E-04
  16 F= -.12565664E+03 E0= -.12565354E+03  d E =-.241788E-01  mag=     0.0000
 curvature: ****** expect dE=-0.823E+02 dE for cont linesearch -0.129E-02
 ZBRENT: increasing intervall
 opt : ********  next Energy=  -125.651988 (dE=-0.195E-01)
 bond charge predicted
       N       E                     dE             d eps       ncg     rms          rms(c)
DAV:   1    -0.123358274659E+03    0.75407E+00   -0.24344E+03  3648   0.176E+02    0.886E+00
DAV:   2    -0.124585033091E+03   -0.12268E+01   -0.45294E+01  3840   0.283E+01    0.578E+00
DAV:   3    -0.124092755870E+03    0.49228E+00   -0.24910E+00  6336   0.564E+00    0.278E+00
DAV:   4    -0.124030075081E+03    0.62681E-01   -0.43422E-01  5808   0.234E+00    0.632E-01
DAV:   5    -0.124025314161E+03    0.47609E-02   -0.36357E-02  5808   0.588E-01    0.135E-01
DAV:   6    -0.124024157859E+03    0.11563E-02   -0.31166E-03  7008   0.158E-01    0.700E-02
DAV:   7    -0.124024160857E+03   -0.29981E-05   -0.12597E-03  4416   0.104E-01    0.292E-02
DAV:   8    -0.124024513608E+03   -0.35275E-03   -0.28104E-04  4224   0.429E-02    0.217E-02
DAV:   9    -0.124024716369E+03   -0.20276E-03   -0.89409E-05  4512   0.235E-02    0.147E-02
DAV:  10    -0.124024802207E+03   -0.85838E-04   -0.23974E-05  5280   0.125E-02    0.105E-02
DAV:  11    -0.124024879413E+03   -0.77205E-04   -0.31446E-05  4512   0.121E-02    0.411E-03
DAV:  12    -0.124024905709E+03   -0.26297E-04   -0.49036E-06  5568   0.569E-03    0.237E-03
DAV:  13    -0.124024916360E+03   -0.10651E-04   -0.11627E-06  6048   0.290E-03    0.166E-03
DAV:  14    -0.124024920603E+03   -0.42426E-05   -0.22147E-07  5568   0.125E-03    0.796E-04
DAV:  15    -0.124024923971E+03   -0.33684E-05   -0.21133E-07  4704   0.102E-03    0.191E-04
DAV:  16    -0.124024924816E+03   -0.84422E-06   -0.33440E-08  5136   0.378E-04
  17 F= -.12565466E+03 E0= -.12565103E+03  d E =-.222004E-01  mag=    -0.0000
 curvature: ****** expect dE= 0.120E+04 dE for cont linesearch  0.904E-02
 ZBRENT: bracketing found
 ZBRENT: interpolating
 opt : 979.3573  next Energy=  -125.658649 (dE=-0.262E-01)
 bond charge predicted
       N       E                     dE             d eps       ncg     rms          rms(c)
DAV:   1    -0.124195570292E+03   -0.17065E+00   -0.89855E+02  3648   0.110E+02    0.535E+00
DAV:   2    -0.124261194338E+03   -0.65624E-01   -0.13073E+01  3648   0.150E+01    0.342E+00
DAV:   3    -0.124085864133E+03    0.17533E+00   -0.10568E+00  6240   0.360E+00    0.125E+00
DAV:   4    -0.124085884235E+03   -0.20103E-04   -0.10346E-01  5760   0.119E+00    0.376E-01
DAV:   5    -0.124084193863E+03    0.16904E-02   -0.13507E-02  5568   0.305E-01    0.643E-02
DAV:   6    -0.124083955408E+03    0.23845E-03   -0.73523E-04  5616   0.806E-02    0.324E-02
DAV:   7    -0.124083889051E+03    0.66357E-04   -0.26239E-04  4080   0.475E-02    0.179E-02
DAV:   8    -0.124083950932E+03   -0.61881E-04   -0.29476E-05  4032   0.136E-02    0.115E-02
DAV:   9    -0.124084077772E+03   -0.12684E-03   -0.27689E-05  3984   0.137E-02    0.632E-03
DAV:  10    -0.124084168028E+03   -0.90256E-04   -0.72431E-06  5232   0.695E-03    0.613E-03
DAV:  11    -0.124084240257E+03   -0.72229E-04   -0.47004E-06  4944   0.657E-03    0.156E-03
DAV:  12    -0.124084264273E+03   -0.24016E-04   -0.76129E-07  5424   0.273E-03    0.961E-04
DAV:  13    -0.124084272864E+03   -0.85919E-05   -0.17675E-07  5376   0.119E-03    0.532E-04
DAV:  14    -0.124084276113E+03   -0.32487E-05   -0.66535E-08  5904   0.654E-04    0.212E-04
DAV:  15    -0.124084277397E+03   -0.12843E-05   -0.37744E-08  5280   0.397E-04    0.846E-05
DAV:  16    -0.124084277579E+03   -0.18190E-06   -0.42630E-09  5616   0.182E-04
  18 F= -.12565855E+03 E0= -.12565530E+03  d E =-.260890E-01  mag=    -0.0000
 curvature: ****** expect dE=-0.133E+03 dE for cont linesearch -0.677E-06
 trial: gam=******** g(F)=  0.425E+00 g(S)=  0.000E+00 ort =-0.355E-06 (trialstep = 0.367E-05)
 search vector abs. value=  0.313E+04
 bond charge predicted
       N       E                     dE             d eps       ncg     rms          rms(c)
DAV:   1    -0.124084276092E+03    0.13049E-05   -0.41851E-06  5520   0.755E-03    0.369E-04
DAV:   2    -0.124084276092E+03    0.34379E-09   -0.43445E-08  6480   0.816E-04
  19 F= -.12565855E+03 E0= -.12565530E+03  d E =-.165293E-05  mag=     0.0000
 ZBRENT: can't locate minimum, use default step
 trial-energy change:   -0.000002  1 .order   -0.000002   -0.000002   -0.000002
 step:   0.0000(harm=  0.0000)  dis= 0.00006  next Energy=  -125.658559 (dE=-0.624E-05)
 bond charge predicted
       N       E                     dE             d eps       ncg     rms          rms(c)
DAV:   1    -0.124084271349E+03    0.47435E-05   -0.37034E-05  4800   0.225E-02    0.114E-03
DAV:   2    -0.124084271331E+03    0.17545E-07   -0.38015E-07  5760   0.239E-03
  20 F= -.12565856E+03 E0= -.12565531E+03  d E =-.631298E-05  mag=     0.0000
 curvature:  -0.08 expect dE=-0.347E-01 dE for cont linesearch -0.472E-05
 ZBRENT: increasing intervall
 opt :   0.0000  next Energy=  -125.658568 (dE=-0.157E-04)
 bond charge predicted
       N       E                     dE             d eps       ncg     rms          rms(c)
DAV:   1    -0.124084261860E+03    0.94893E-05   -0.14687E-04  3840   0.449E-02    0.230E-03
DAV:   2    -0.124084261801E+03    0.58634E-07   -0.16069E-06  4992   0.500E-03
  21 F= -.12565857E+03 E0= -.12565532E+03  d E =-.156259E-04  mag=    -0.0000
 curvature:  -0.16 expect dE=-0.692E-01 dE for cont linesearch -0.949E-05
 ZBRENT: increasing intervall
 opt :   0.0001  next Energy=  -125.658587 (dE=-0.345E-04)
 bond charge predicted
       N       E                     dE             d eps       ncg     rms          rms(c)
DAV:   1    -0.124084242945E+03    0.18915E-04   -0.58765E-04  3648   0.899E-02    0.460E-03
DAV:   2    -0.124084242704E+03    0.24047E-06   -0.66122E-06  4512   0.102E-02
  22 F= -.12565859E+03 E0= -.12565534E+03  d E =-.342232E-04  mag=    -0.0000
 curvature:  -0.32 expect dE=-0.138E+00 dE for cont linesearch -0.193E-04
 ZBRENT: increasing intervall
 opt :   0.0002  next Energy=  -125.658625 (dE=-0.726E-04)
 bond charge predicted
       N       E                     dE             d eps       ncg     rms          rms(c)
DAV:   1    -0.124084205427E+03    0.37518E-04   -0.23512E-03  3648   0.180E-01    0.921E-03
DAV:   2    -0.124084204598E+03    0.82912E-06   -0.26400E-05  4896   0.204E-02    0.567E-03
DAV:   3    -0.124084204426E+03    0.17212E-06   -0.34227E-06  4752   0.628E-03
  23 F= -.12565862E+03 E0= -.12565537E+03  d E =-.712520E-04  mag=    -0.0000
 curvature:  -0.65 expect dE=-0.275E+00 dE for cont linesearch -0.354E-04
 ZBRENT: increasing intervall
 opt :   0.0003  next Energy=  -125.658694 (dE=-0.141E-03)
 bond charge predicted
       N       E                     dE             d eps       ncg     rms          rms(c)
DAV:   1    -0.124084131818E+03    0.72781E-04   -0.96783E-03  3648   0.363E-01    0.181E-02
DAV:   2    -0.124084128821E+03    0.29968E-05   -0.11107E-04  4560   0.415E-02    0.111E-02
DAV:   3    -0.124084127545E+03    0.12760E-05   -0.14268E-05  5040   0.128E-02    0.268E-03
DAV:   4    -0.124084127788E+03   -0.24327E-06   -0.17265E-06  4128   0.454E-03
  24 F= -.12565870E+03 E0= -.12565545E+03  d E =-.145564E-03  mag=    -0.0000
 curvature:  -1.28 expect dE=-0.544E+00 dE for cont linesearch -0.732E-04
 ZBRENT: increasing intervall
 opt :   0.0007  next Energy=  -125.658851 (dE=-0.298E-03)
 bond charge predicted
       N       E                     dE             d eps       ncg     rms          rms(c)
DAV:   1    -0.124083989848E+03    0.13770E-03   -0.38519E-02  3648   0.724E-01    0.352E-02
DAV:   2    -0.124083979395E+03    0.10454E-04   -0.44549E-04  4512   0.831E-02    0.215E-02
DAV:   3    -0.124083973360E+03    0.60344E-05   -0.56277E-05  4992   0.253E-02    0.528E-03
DAV:   4    -0.124083973952E+03   -0.59137E-06   -0.66619E-06  3840   0.895E-03
  25 F= -.12565885E+03 E0= -.12565559E+03  d E =-.294130E-03  mag=    -0.0000
 curvature:  -2.66 expect dE=-0.114E+01 dE for cont linesearch -0.153E-03
 ZBRENT: increasing intervall
 opt :   0.0014  next Energy=  -125.659146 (dE=-0.594E-03)
 bond charge predicted
       N       E                     dE             d eps       ncg     rms          rms(c)
DAV:   1    -0.124083726362E+03    0.24700E-03   -0.15405E-01  3648   0.145E+00    0.703E-02
DAV:   2    -0.124083689702E+03    0.36660E-04   -0.17795E-03  3648   0.167E-01    0.433E-02
DAV:   3    -0.124083665149E+03    0.24553E-04   -0.24407E-04  5472   0.535E-02    0.105E-02
DAV:   4    -0.124083666372E+03   -0.12239E-05   -0.24824E-05  4416   0.175E-02    0.463E-03
DAV:   5    -0.124083666742E+03   -0.36944E-06   -0.14390E-06  4032   0.451E-03
  26 F= -.12565915E+03 E0= -.12565589E+03  d E =-.593653E-03  mag=    -0.0000
 curvature:  -5.21 expect dE=-0.224E+01 dE for cont linesearch -0.292E-03
 ZBRENT: increasing intervall
 opt :   0.0028  next Energy=  -125.659730 (dE=-0.118E-02)
 bond charge predicted
       N       E                     dE             d eps       ncg     rms          rms(c)
DAV:   1    -0.124083286969E+03    0.37940E-03   -0.61597E-01  3648   0.290E+00    0.141E-01
DAV:   2    -0.124083152775E+03    0.13419E-03   -0.71025E-03  3648   0.332E-01    0.865E-02
DAV:   3    -0.124083041722E+03    0.11105E-03   -0.96407E-04  4752   0.107E-01    0.212E-02
DAV:   4    -0.124083044922E+03   -0.32004E-05   -0.11215E-04  5520   0.361E-02    0.912E-03
DAV:   5    -0.124083045023E+03   -0.10075E-06   -0.40969E-06  4368   0.667E-03
  27 F= -.12565975E+03 E0= -.12565648E+03  d E =-.119306E-02  mag=    -0.0000
 curvature: -10.40 expect dE=-0.452E+01 dE for cont linesearch -0.574E-03
 ZBRENT: increasing intervall
 opt :   0.0056  next Energy=  -125.660907 (dE=-0.235E-02)
 bond charge predicted
       N       E                     dE             d eps       ncg     rms          rms(c)
DAV:   1    -0.124082740402E+03    0.30452E-03   -0.24637E+00  3648   0.579E+00    0.281E-01
DAV:   2    -0.124082219230E+03    0.52117E-03   -0.28681E-02  4704   0.664E-01    0.172E-01
DAV:   3    -0.124081783451E+03    0.43578E-03   -0.36085E-03  4704   0.202E-01    0.419E-02
DAV:   4    -0.124081785181E+03   -0.17298E-05   -0.41719E-04  6048   0.708E-02    0.180E-02
DAV:   5    -0.124081779722E+03    0.54595E-05   -0.18001E-05  4752   0.132E-02    0.350E-03
DAV:   6    -0.124081780281E+03   -0.55943E-06   -0.32847E-06  5712   0.490E-03
  28 F= -.12566095E+03 E0= -.12565767E+03  d E =-.240200E-02  mag=    -0.0000
 curvature: -21.06 expect dE=-0.934E+01 dE for cont linesearch -0.126E-02
 ZBRENT: increasing intervall
 opt :   0.0113  next Energy=  -125.663500 (dE=-0.495E-02)
 bond charge predicted
       N       E                     dE             d eps       ncg     rms          rms(c)
DAV:   1    -0.124083097578E+03   -0.13179E-02   -0.98481E+00  3648   0.116E+01    0.564E-01
DAV:   2    -0.124081034381E+03    0.20632E-02   -0.11478E-01  4896   0.133E+00    0.344E-01
DAV:   3    -0.124079193852E+03    0.18405E-02   -0.14596E-02  5760   0.404E-01    0.830E-02
DAV:   4    -0.124079191407E+03    0.24444E-05   -0.14169E-03  5952   0.133E-01    0.369E-02
DAV:   5    -0.124079166194E+03    0.25213E-04   -0.73712E-05  5520   0.269E-02    0.693E-03
DAV:   6    -0.124079166862E+03   -0.66742E-06   -0.14723E-05  5136   0.104E-02    0.341E-03
DAV:   7    -0.124079175915E+03   -0.90535E-05   -0.19888E-06  4368   0.464E-03    0.211E-03
DAV:   8    -0.124079183924E+03   -0.80082E-05   -0.99836E-07  5664   0.300E-03    0.173E-03
DAV:   9    -0.124079193146E+03   -0.92220E-05   -0.86494E-07  4992   0.189E-03    0.660E-04
DAV:  10    -0.124079201114E+03   -0.79688E-05   -0.88523E-07  5664   0.192E-03    0.561E-04
DAV:  11    -0.124079204062E+03   -0.29471E-05   -0.30792E-07  5280   0.194E-03    0.348E-04
DAV:  12    -0.124079205843E+03   -0.17812E-05   -0.18086E-07  5040   0.143E-03    0.124E-04
DAV:  13    -0.124079206685E+03   -0.84222E-06   -0.47864E-08  5424   0.469E-04
  29 F= -.12566345E+03 E0= -.12566014E+03  d E =-.490185E-02  mag=     0.0000
 curvature: -42.41 expect dE=-0.196E+02 dE for cont linesearch -0.272E-02
 ZBRENT: increasing intervall
 opt :   0.0226  next Energy=  -125.668681 (dE=-0.101E-01)
 bond charge predicted
       N       E                     dE             d eps       ncg     rms          rms(c)
DAV:   1    -0.124088146071E+03   -0.89402E-02   -0.39318E+01  3648   0.231E+01    0.112E+00
DAV:   2    -0.124080919156E+03    0.72269E-02   -0.46602E-01  4224   0.269E+00    0.691E-01
DAV:   3    -0.124073715954E+03    0.72032E-02   -0.59813E-02  5808   0.825E-01    0.170E-01
DAV:   4    -0.124073754172E+03   -0.38218E-04   -0.56718E-03  6240   0.263E-01    0.751E-02
DAV:   5    -0.124073681306E+03    0.72866E-04   -0.28966E-04  5904   0.515E-02    0.150E-02
DAV:   6    -0.124073674445E+03    0.68609E-05   -0.60729E-05  5664   0.211E-02    0.652E-03
DAV:   7    -0.124073695668E+03   -0.21223E-04   -0.74266E-06  4224   0.847E-03    0.370E-03
DAV:   8    -0.124073711075E+03   -0.15407E-04   -0.15895E-06  4800   0.321E-03    0.314E-03
DAV:   9    -0.124073729331E+03   -0.18256E-04   -0.19370E-06  4656   0.281E-03    0.133E-03
DAV:  10    -0.124073743025E+03   -0.13694E-04   -0.15086E-06  5472   0.225E-03    0.974E-04
DAV:  11    -0.124073748985E+03   -0.59600E-05   -0.43561E-07  5712   0.124E-03    0.760E-04
DAV:  12    -0.124073754218E+03   -0.52328E-05   -0.47343E-07  5280   0.127E-03    0.261E-04
DAV:  13    -0.124073755996E+03   -0.17784E-05   -0.98821E-08  5328   0.587E-04    0.111E-04
DAV:  14    -0.124073756676E+03   -0.67948E-06   -0.27501E-08  5040   0.293E-04
  30 F= -.12566868E+03 E0= -.12566529E+03  d E =-.101260E-01  mag=     0.0000
 curvature: -81.35 expect dE=-0.409E+02 dE for cont linesearch -0.593E-02
 ZBRENT: increasing intervall
 opt :   0.0451  next Energy=  -125.680118 (dE=-0.216E-01)
 bond charge predicted
       N       E                     dE             d eps       ncg     rms          rms(c)
DAV:   1    -0.124112150949E+03   -0.38395E-01   -0.15637E+02  3648   0.461E+01    0.223E+00
DAV:   2    -0.124090566395E+03    0.21585E-01   -0.19272E+00  4608   0.550E+00    0.139E+00
DAV:   3    -0.124061453823E+03    0.29113E-01   -0.22509E-01  6048   0.159E+00    0.365E-01
DAV:   4    -0.124061763820E+03   -0.31000E-03   -0.20503E-02  5904   0.504E-01    0.154E-01
DAV:   5    -0.124061351353E+03    0.41247E-03   -0.13012E-03  6048   0.100E-01    0.320E-02
DAV:   6    -0.124061322571E+03    0.28783E-04   -0.21077E-04  5520   0.398E-02    0.135E-02
DAV:   7    -0.124061387884E+03   -0.65313E-04   -0.41723E-05  4224   0.196E-02    0.781E-03
DAV:   8    -0.124061444108E+03   -0.56224E-04   -0.10812E-05  4896   0.783E-03    0.489E-03
DAV:   9    -0.124061484259E+03   -0.40151E-04   -0.59584E-06  4896   0.519E-03    0.241E-03
DAV:  10    -0.124061505299E+03   -0.21039E-04   -0.24446E-06  5184   0.302E-03    0.177E-03
DAV:  11    -0.124061520853E+03   -0.15555E-04   -0.21490E-06  5760   0.279E-03    0.104E-03
DAV:  12    -0.124061527318E+03   -0.64648E-05   -0.67744E-07  5472   0.165E-03    0.345E-04
DAV:  13    -0.124061528887E+03   -0.15687E-05   -0.59857E-08  5424   0.584E-04    0.185E-04
DAV:  14    -0.124061530036E+03   -0.11493E-05   -0.51674E-08  4608   0.471E-04    0.843E-05
DAV:  15    -0.124061530741E+03   -0.70520E-06   -0.43270E-08  4800   0.327E-04
  31 F= -.12568006E+03 E0= -.12567650E+03  d E =-.215044E-01  mag=    -0.0000
 curvature: ****** expect dE=-0.920E+02 dE for cont linesearch -0.142E-01
 ZBRENT: increasing intervall
 opt :   0.0903  next Energy=  -125.706496 (dE=-0.479E-01)
 bond charge predicted
       N       E                     dE             d eps       ncg     rms          rms(c)
DAV:   1    -0.124151483229E+03   -0.89953E-01   -0.61165E+02  3648   0.909E+01    0.439E+00
DAV:   2    -0.124149576763E+03    0.19065E-02   -0.84125E+00  4512   0.118E+01    0.279E+00
DAV:   3    -0.124029444423E+03    0.12013E+00   -0.76664E-01  6240   0.298E+00    0.891E-01
DAV:   4    -0.124031044966E+03   -0.16005E-02   -0.69326E-02  5664   0.953E-01    0.314E-01
DAV:   5    -0.124029483646E+03    0.15613E-02   -0.70354E-03  6144   0.214E-01    0.559E-02
DAV:   6    -0.124029342545E+03    0.14110E-03   -0.55642E-04  6528   0.683E-02    0.262E-02
DAV:   7    -0.124029507709E+03   -0.16516E-03   -0.20319E-04  4128   0.411E-02    0.144E-02
DAV:   8    -0.124029621778E+03   -0.11407E-03   -0.36074E-05  4608   0.147E-02    0.122E-02
DAV:   9    -0.124029702834E+03   -0.81056E-04   -0.16659E-05  4416   0.975E-03    0.616E-03
DAV:  10    -0.124029767385E+03   -0.64551E-04   -0.13527E-05  5472   0.819E-03    0.389E-03
DAV:  11    -0.124029802654E+03   -0.35269E-04   -0.88211E-06  5376   0.588E-03    0.222E-03
DAV:  12    -0.124029813492E+03   -0.10838E-04   -0.15512E-06  6336   0.300E-03    0.822E-04
DAV:  13    -0.124029816956E+03   -0.34639E-05   -0.20611E-07  5664   0.117E-03    0.478E-04
DAV:  14    -0.124029818707E+03   -0.17507E-05   -0.73900E-08  5568   0.706E-04    0.232E-04
DAV:  15    -0.124029819759E+03   -0.10521E-05   -0.56278E-08  4896   0.509E-04    0.669E-05
DAV:  16    -0.124029820194E+03   -0.43472E-06   -0.18255E-08  5376   0.280E-04
  32 F= -.12570578E+03 E0= -.12570191E+03  d E =-.472295E-01  mag=     0.0000
 curvature: ****** expect dE=-0.227E+03 dE for cont linesearch -0.328E-01
 ZBRENT: increasing intervall
 opt :   0.1806  next Energy=  -125.764753 (dE=-0.106E+00)
 bond charge predicted
       N       E                     dE             d eps       ncg     rms          rms(c)
DAV:   1    -0.123429899704E+03    0.59992E+00   -0.22379E+03  3648   0.170E+02    0.851E+00
DAV:   2    -0.124392735993E+03   -0.96284E+00   -0.40919E+01  4032   0.269E+01    0.554E+00
DAV:   3    -0.123953534204E+03    0.43920E+00   -0.22358E+00  6432   0.532E+00    0.261E+00
DAV:   4    -0.123900848947E+03    0.52685E-01   -0.36851E-01  5472   0.218E+00    0.592E-01
DAV:   5    -0.123897533552E+03    0.33154E-02   -0.32807E-02  5808   0.560E-01    0.130E-01
DAV:   6    -0.123896503261E+03    0.10303E-02   -0.25974E-03  6528   0.149E-01    0.646E-02
DAV:   7    -0.123896489757E+03    0.13504E-04   -0.11369E-03  5376   0.968E-02    0.305E-02
DAV:   8    -0.123896742611E+03   -0.25285E-03   -0.16670E-04  4848   0.326E-02    0.214E-02
DAV:   9    -0.123896925045E+03   -0.18243E-03   -0.92862E-05  5136   0.243E-02    0.148E-02
DAV:  10    -0.123897020129E+03   -0.95084E-04   -0.36381E-05  5328   0.151E-02    0.127E-02
DAV:  11    -0.123897074026E+03   -0.53897E-04   -0.28348E-05  4560   0.123E-02    0.440E-03
DAV:  12    -0.123897085674E+03   -0.11648E-04   -0.32400E-06  5952   0.466E-03    0.354E-03
DAV:  13    -0.123897094862E+03   -0.91879E-05   -0.13289E-06  5088   0.297E-03    0.199E-03
DAV:  14    -0.123897100394E+03   -0.55320E-05   -0.59763E-07  6240   0.181E-03    0.754E-04
DAV:  15    -0.123897102551E+03   -0.21563E-05   -0.12747E-07  5760   0.895E-04    0.316E-04
DAV:  16    -0.123897103688E+03   -0.11378E-05   -0.67496E-08  5520   0.578E-04    0.250E-04
DAV:  17    -0.123897104107E+03   -0.41909E-06   -0.14411E-08  5760   0.256E-04
  33 F= -.12573567E+03 E0= -.12573362E+03  d E =-.771180E-01  mag=    -0.0000
 curvature: ****** expect dE=-0.658E+03 dE for cont linesearch -0.251E-01
 ZBRENT: bracketing found
 ZBRENT: interpolating
 opt :   0.1449  next Energy=  -125.742551 (dE=-0.840E-01)
 bond charge predicted
       N       E                     dE             d eps       ncg     rms          rms(c)
DAV:   1    -0.124082664543E+03   -0.18556E+00   -0.38497E+02  3648   0.726E+01    0.354E+00
DAV:   2    -0.124036011676E+03    0.46653E-01   -0.49504E+00  4320   0.909E+00    0.219E+00
DAV:   3    -0.123967374077E+03    0.68638E-01   -0.50335E-01  6720   0.240E+00    0.667E-01
DAV:   4    -0.123968004163E+03   -0.63009E-03   -0.37582E-02  5184   0.718E-01    0.244E-01
DAV:   5    -0.123967480198E+03    0.52397E-03   -0.41408E-03  5568   0.172E-01    0.460E-02
DAV:   6    -0.123967414726E+03    0.65472E-04   -0.34360E-04  6048   0.576E-02    0.216E-02
DAV:   7    -0.123967452428E+03   -0.37702E-04   -0.74553E-05  4416   0.295E-02    0.116E-02
DAV:   8    -0.123967481940E+03   -0.29511E-04   -0.12219E-05  4224   0.890E-03    0.100E-02
DAV:   9    -0.123967528046E+03   -0.46106E-04   -0.63003E-06  5184   0.632E-03    0.515E-03
DAV:  10    -0.123967585936E+03   -0.57891E-04   -0.59390E-06  5424   0.551E-03    0.277E-03
DAV:  11    -0.123967634319E+03   -0.48383E-04   -0.39629E-06  6336   0.442E-03    0.216E-03
DAV:  12    -0.123967654238E+03   -0.19919E-04   -0.36394E-07  5856   0.174E-03    0.774E-04
DAV:  13    -0.123967662237E+03   -0.79988E-05   -0.10577E-07  6096   0.891E-04    0.399E-04
DAV:  14    -0.123967665570E+03   -0.33328E-05   -0.50859E-08  5856   0.484E-04    0.363E-04
DAV:  15    -0.123967666633E+03   -0.10632E-05   -0.25672E-08  5856   0.328E-04    0.932E-05
DAV:  16    -0.123967666799E+03   -0.16553E-06   -0.38802E-09  5904   0.164E-04
  34 F= -.12573416E+03 E0= -.12573078E+03  d E =-.756056E-01  mag=    -0.0000
 curvature: ****** expect dE=-0.151E+03 dE for cont linesearch -0.552E-02
 ZBRENT: interpolating
 opt :   0.1618  next Energy=  -125.737070 (dE=-0.785E-01)
 bond charge predicted
       N       E                     dE             d eps       ncg     rms          rms(c)
DAV:   1    -0.123969805142E+03   -0.21385E-02   -0.87093E+01  3648   0.346E+01    0.168E+00
DAV:   2    -0.123954152297E+03    0.15653E-01   -0.10678E+00  4992   0.407E+00    0.103E+00
DAV:   3    -0.123938773152E+03    0.15379E-01   -0.11969E-01  6144   0.116E+00    0.272E-01
DAV:   4    -0.123938792850E+03   -0.19698E-04   -0.12454E-02  6144   0.392E-01    0.110E-01
DAV:   5    -0.123938640068E+03    0.15278E-03   -0.62061E-04  6720   0.774E-02    0.228E-02
DAV:   6    -0.123938623331E+03    0.16736E-04   -0.96605E-05  4416   0.278E-02    0.102E-02
DAV:   7    -0.123938659869E+03   -0.36538E-04   -0.23413E-05  5280   0.138E-02    0.528E-03
DAV:   8    -0.123938692558E+03   -0.32688E-04   -0.50549E-06  4800   0.535E-03    0.371E-03
DAV:   9    -0.123938715863E+03   -0.23306E-04   -0.30343E-06  5376   0.380E-03    0.191E-03
DAV:  10    -0.123938732258E+03   -0.16395E-04   -0.24050E-06  5280   0.290E-03    0.131E-03
DAV:  11    -0.123938741030E+03   -0.87717E-05   -0.12256E-06  5760   0.216E-03    0.690E-04
DAV:  12    -0.123938745116E+03   -0.40864E-05   -0.41434E-07  6240   0.139E-03    0.294E-04
DAV:  13    -0.123938746127E+03   -0.10108E-05   -0.53651E-08  6096   0.797E-04    0.167E-04
DAV:  14    -0.123938746769E+03   -0.64196E-06   -0.33568E-08  5904   0.583E-04
  35 F= -.12573804E+03 E0= -.12573524E+03  d E =-.794868E-01  mag=    -0.0000
 curvature: -76.06 expect dE=-0.869E+02 dE for cont linesearch -0.207E-03
 trial: gam= 1.05641 g(F)=  0.114E+01 g(S)=  0.000E+00 ort = 0.923E-01 (trialstep = 0.290E-01)
 search vector abs. value=  0.349E+04
 bond charge predicted
       N       E                     dE             d eps       ncg     rms          rms(c)
DAV:   1    -0.123984455775E+03   -0.45710E-01   -0.28539E+02  3648   0.625E+01    0.304E+00
DAV:   2    -0.123949794932E+03    0.34661E-01   -0.36788E+00  4992   0.766E+00    0.188E+00
DAV:   3    -0.123897847100E+03    0.51948E-01   -0.36657E-01  6720   0.204E+00    0.549E-01
DAV:   4    -0.123898089478E+03   -0.24238E-03   -0.33310E-02  5952   0.652E-01    0.206E-01
DAV:   5    -0.123897379102E+03    0.71038E-03   -0.25122E-03  6624   0.141E-01    0.408E-02
DAV:   6    -0.123897312502E+03    0.66600E-04   -0.29016E-04  4992   0.505E-02    0.191E-02
DAV:   7    -0.123897401081E+03   -0.88579E-04   -0.12276E-04  5520   0.319E-02    0.114E-02
DAV:   8    -0.123897465881E+03   -0.64800E-04   -0.16064E-05  4656   0.110E-02    0.723E-03
DAV:   9    -0.123897528267E+03   -0.62386E-04   -0.13613E-05  5328   0.920E-03    0.356E-03
DAV:  10    -0.123897554730E+03   -0.26463E-04   -0.47214E-06  5856   0.507E-03    0.254E-03
DAV:  11    -0.123897573396E+03   -0.18666E-04   -0.43996E-06  5280   0.439E-03    0.133E-03
DAV:  12    -0.123897578542E+03   -0.51461E-05   -0.78463E-07  6288   0.251E-03    0.616E-04
DAV:  13    -0.123897580737E+03   -0.21949E-05   -0.37520E-07  6144   0.258E-03    0.347E-04
DAV:  14    -0.123897581568E+03   -0.83053E-06   -0.17901E-07  6144   0.186E-03
  36 F= -.12576245E+03 E0= -.12576081E+03  d E =-.244148E-01  mag=     0.0000
 trial-energy change:   -0.024415  1 .order   -0.022468   -0.035946   -0.008990
 step:   0.0353(harm=  0.0386)  dis= 0.14294  next Energy=  -125.763456 (dE=-0.254E-01)
 bond charge predicted
       N       E                     dE             d eps       ncg     rms          rms(c)
DAV:   1    -0.123889161707E+03    0.84190E-02   -0.13774E+01  3648   0.138E+01    0.673E-01
DAV:   2    -0.123885737608E+03    0.34241E-02   -0.16132E-01  5376   0.158E+00    0.406E-01
DAV:   3    -0.123883338505E+03    0.23991E-02   -0.19009E-02  6240   0.461E-01    0.104E-01
DAV:   4    -0.123883332672E+03    0.58323E-05   -0.20586E-03  6336   0.159E-01    0.428E-02
DAV:   5    -0.123883297735E+03    0.34938E-04   -0.95014E-05  6528   0.335E-02    0.838E-03
DAV:   6    -0.123883294000E+03    0.37351E-05   -0.15195E-05  4464   0.117E-02    0.411E-03
DAV:   7    -0.123883300112E+03   -0.61120E-05   -0.52758E-06  5760   0.699E-03    0.207E-03
DAV:   8    -0.123883306249E+03   -0.61373E-05   -0.98275E-07  4944   0.334E-03    0.181E-03
DAV:   9    -0.123883312812E+03   -0.65628E-05   -0.65616E-07  5424   0.241E-03    0.890E-04
DAV:  10    -0.123883320323E+03   -0.75113E-05   -0.88744E-07  5664   0.196E-03    0.531E-04
DAV:  11    -0.123883323649E+03   -0.33254E-05   -0.33750E-07  6192   0.138E-03    0.352E-04
DAV:  12    -0.123883325074E+03   -0.14258E-05   -0.16598E-07  6048   0.137E-03    0.192E-04
DAV:  13    -0.123883325639E+03   -0.56440E-06   -0.58089E-08  6528   0.913E-04
  37 F= -.12576341E+03 E0= -.12576192E+03  d E =-.253757E-01  mag=     0.0000
 curvature: -47.88 expect dE=-0.509E+02 dE for cont linesearch -0.354E-05
 trial: gam=-0.03388 g(F)=  0.106E+01 g(S)=  0.000E+00 ort =-0.161E-01 (trialstep = 0.302E-01)
 search vector abs. value=  0.507E+01
 bond charge predicted
       N       E                     dE             d eps       ncg     rms          rms(c)
DAV:   1    -0.123916201002E+03   -0.32876E-01   -0.50239E-01  3648   0.269E+00    0.138E-01
DAV:   2    -0.123916069122E+03    0.13188E-03   -0.72483E-03  5808   0.339E-01    0.870E-02
DAV:   3    -0.123915981179E+03    0.87942E-04   -0.94978E-04  5856   0.108E-01    0.319E-02
DAV:   4    -0.123915979772E+03    0.14070E-05   -0.20045E-04  5376   0.469E-02    0.192E-02
DAV:   5    -0.123915980063E+03   -0.29071E-06   -0.11266E-05  5088   0.137E-02    0.538E-03
DAV:   6    -0.123915980022E+03    0.41548E-07   -0.33024E-06  6528   0.626E-03
  38 F= -.12579379E+03 E0= -.12579229E+03  d E =-.303762E-01  mag=     0.0000
 ZBRENT: can't locate minimum, use default step
 trial-energy change:   -0.030376  1 .order   -0.030376   -0.032146   -0.028606
 step:   0.1210(harm=  0.2747)  dis= 0.01340  next Energy=  -125.909379 (dE=-0.146E+00)
 bond charge predicted
       N       E                     dE             d eps       ncg     rms          rms(c)
DAV:   1    -0.123995175734E+03   -0.79196E-01   -0.45249E+00  3648   0.805E+00    0.419E-01
DAV:   2    -0.123993831306E+03    0.13444E-02   -0.63434E-02  6816   0.101E+00    0.259E-01
DAV:   3    -0.123992942852E+03    0.88845E-03   -0.78171E-03  5952   0.309E-01    0.924E-02
DAV:   4    -0.123992930362E+03    0.12491E-04   -0.16404E-03  5280   0.135E-01    0.539E-02
DAV:   5    -0.123992922729E+03    0.76331E-05   -0.84404E-05  4944   0.378E-02    0.168E-02
DAV:   6    -0.123992922948E+03   -0.21979E-06   -0.30395E-05  5136   0.187E-02    0.688E-03
DAV:   7    -0.123992923544E+03   -0.59608E-06   -0.20543E-06  4800   0.534E-03
  39 F= -.12586378E+03 E0= -.12586225E+03  d E =-.100365E+00  mag=    -0.0000
 curvature:  -0.40 expect dE=-0.134E+00 dE for cont linesearch -0.278E-01
 ZBRENT: increasing intervall
 opt :   0.3025  next Energy=  -125.908789 (dE=-0.145E+00)
 bond charge predicted
       N       E                     dE             d eps       ncg     rms          rms(c)
DAV:   1    -0.124061799410E+03   -0.68876E-01   -0.18100E+01  3648   0.161E+01    0.839E-01
DAV:   2    -0.124056495571E+03    0.53038E-02   -0.25643E-01  6624   0.203E+00    0.518E-01
DAV:   3    -0.124053030017E+03    0.34656E-02   -0.31847E-02  5760   0.624E-01    0.186E-01
DAV:   4    -0.124052923189E+03    0.10683E-03   -0.67126E-03  5472   0.272E-01    0.108E-01
DAV:   5    -0.124052887489E+03    0.35700E-04   -0.36144E-04  5088   0.771E-02    0.328E-02
DAV:   6    -0.124052886983E+03    0.50611E-06   -0.11725E-04  5904   0.369E-02    0.138E-02
DAV:   7    -0.124052888885E+03   -0.19026E-05   -0.70984E-06  4512   0.988E-03    0.763E-03
DAV:   8    -0.124052894475E+03   -0.55898E-05   -0.50123E-06  4896   0.735E-03    0.182E-03
DAV:   9    -0.124052899292E+03   -0.48169E-05   -0.78852E-07  4176   0.351E-03    0.230E-03
DAV:  10    -0.124052907554E+03   -0.82620E-05   -0.61411E-07  5904   0.201E-03    0.169E-03
DAV:  11    -0.124052917089E+03   -0.95345E-05   -0.74061E-07  5808   0.197E-03    0.567E-04
DAV:  12    -0.124052921972E+03   -0.48832E-05   -0.15384E-07  5760   0.130E-03    0.236E-04
DAV:  13    -0.124052924187E+03   -0.22154E-05   -0.94967E-08  6384   0.112E-03    0.136E-04
DAV:  14    -0.124052924708E+03   -0.52114E-06   -0.13040E-08  5856   0.467E-04
  40 F= -.12590937E+03 E0= -.12590777E+03  d E =-.145956E+00  mag=    -0.0000
 curvature:  -0.64 expect dE=-0.966E-02 dE for cont linesearch -0.111E-02
 ZBRENT: bracketing found
 ZBRENT: interpolating
 opt :   0.2778  next Energy=  -125.910530 (dE=-0.147E+00)
 bond charge predicted
       N       E                     dE             d eps       ncg     rms          rms(c)
DAV:   1    -0.124052236423E+03    0.68776E-03   -0.33509E-01  3648   0.219E+00    0.113E-01
DAV:   2    -0.124052154519E+03    0.81903E-04   -0.49078E-03  6528   0.278E-01    0.710E-02
DAV:   3    -0.124052091702E+03    0.62817E-04   -0.60141E-04  5856   0.861E-02    0.254E-02
DAV:   4    -0.124052089935E+03    0.17668E-05   -0.13131E-04  4992   0.379E-02    0.149E-02
DAV:   5    -0.124052089780E+03    0.15515E-06   -0.77056E-06  5424   0.113E-02
  41 F= -.12591053E+03 E0= -.12590894E+03  d E =-.147118E+00  mag=    -0.0000
 curvature:  -0.67 expect dE=-0.434E-02 dE for cont linesearch -0.286E-07
 trial: gam= 0.00193 g(F)=  0.652E-02 g(S)=  0.000E+00 ort =-0.467E-03 (trialstep = 0.798E-01)
 search vector abs. value=  0.654E-02
 bond charge predicted
       N       E                     dE             d eps       ncg     rms          rms(c)
DAV:   1    -0.124052600968E+03   -0.51103E-03   -0.24316E-03  4272   0.151E-01    0.154E-02
DAV:   2    -0.124052592936E+03    0.80321E-05   -0.55393E-05  6528   0.209E-02    0.715E-03
DAV:   3    -0.124052591831E+03    0.11047E-05   -0.63051E-06  5232   0.621E-03    0.228E-03
DAV:   4    -0.124052592033E+03   -0.20238E-06   -0.55196E-07  5856   0.207E-03
  42 F= -.12591103E+03 E0= -.12590945E+03  d E =-.495711E-03  mag=    -0.0000
 ZBRENT: can't locate minimum, use default step
 trial-energy change:   -0.000496  1 .order   -0.000495   -0.000520   -0.000470
 step:   0.3190(harm=  0.8341)  dis= 0.00156  next Energy=  -125.913253 (dE=-0.272E-02)
 bond charge predicted
       N       E                     dE             d eps       ncg     rms          rms(c)
DAV:   1    -0.124053886882E+03   -0.12951E-02   -0.21918E-02  3840   0.455E-01    0.458E-02
DAV:   2    -0.124053813342E+03    0.73540E-04   -0.49911E-04  6960   0.643E-02    0.211E-02
DAV:   3    -0.124053801185E+03    0.12158E-04   -0.55519E-05  4464   0.190E-02    0.662E-03
DAV:   4    -0.124053801091E+03    0.93701E-07   -0.50798E-06  6192   0.649E-03
  43 F= -.12591222E+03 E0= -.12591067E+03  d E =-.168504E-02  mag=    -0.0000
 curvature:  -0.22 expect dE=-0.701E-03 dE for cont linesearch -0.554E-03
 ZBRENT: increasing intervall
 opt :   0.7976  next Energy=  -125.913253 (dE=-0.272E-02)
 bond charge predicted
       N       E                     dE             d eps       ncg     rms          rms(c)
DAV:   1    -0.124055218916E+03   -0.14177E-02   -0.87646E-02  3648   0.911E-01    0.917E-02
DAV:   2    -0.124054925611E+03    0.29331E-03   -0.19902E-03  7008   0.129E-01    0.424E-02
DAV:   3    -0.124054875229E+03    0.50382E-04   -0.22461E-04  5232   0.380E-02    0.132E-02
DAV:   4    -0.124054874102E+03    0.11272E-05   -0.19182E-05  5856   0.127E-02    0.417E-03
DAV:   5    -0.124054874396E+03   -0.29399E-06   -0.66944E-07  5712   0.311E-03
  44 F= -.12591325E+03 E0= -.12591174E+03  d E =-.271804E-02  mag=    -0.0000
 curvature:  -0.42 expect dE=-0.171E-02 dE for cont linesearch -0.453E-05
 trial: gam= 0.58764 g(F)=  0.410E-02 g(S)=  0.000E+00 ort = 0.267E-03 (trialstep = 0.219E+00)
 search vector abs. value=  0.667E-02
 bond charge predicted
       N       E                     dE             d eps       ncg     rms          rms(c)
DAV:   1    -0.124055738509E+03   -0.86441E-03   -0.12417E-02  3840   0.380E-01    0.238E-02
DAV:   2    -0.124055731592E+03    0.69172E-05   -0.77302E-05  6336   0.312E-02    0.135E-02
DAV:   3    -0.124055729532E+03    0.20604E-05   -0.15475E-05  6096   0.109E-02    0.298E-03
DAV:   4    -0.124055729606E+03   -0.74609E-07   -0.14523E-06  5472   0.480E-03
  45 F= -.12591415E+03 E0= -.12591264E+03  d E =-.901157E-03  mag=    -0.0000
 ZBRENT: can't locate minimum, use default step
 trial-energy change:   -0.000901  1 .order   -0.000900   -0.000932   -0.000869
 step:   0.8757(harm=  3.2520)  dis= 0.00332  next Energy=  -125.920171 (dE=-0.692E-02)
 bond charge predicted
       N       E                     dE             d eps       ncg     rms          rms(c)
DAV:   1    -0.124057999480E+03   -0.22699E-02   -0.11179E-01  3648   0.114E+00    0.716E-02
DAV:   2    -0.124057937878E+03    0.61602E-04   -0.68808E-04  6816   0.932E-02    0.405E-02
DAV:   3    -0.124057916954E+03    0.20924E-04   -0.13508E-04  4992   0.319E-02    0.867E-03
DAV:   4    -0.124057917125E+03   -0.17011E-06   -0.12341E-05  4992   0.127E-02    0.358E-03
DAV:   5    -0.124057917281E+03   -0.15626E-06   -0.71212E-07  6048   0.386E-03
  46 F= -.12591648E+03 E0= -.12591494E+03  d E =-.322671E-02  mag=     0.0000
 curvature:  -0.98 expect dE=-0.271E-02 dE for cont linesearch -0.143E-02
 ZBRENT: increasing intervall
 opt :   2.1891  next Energy=  -125.919451 (dE=-0.620E-02)
 bond charge predicted
       N       E                     dE             d eps       ncg     rms          rms(c)
DAV:   1    -0.124060965063E+03   -0.30479E-02   -0.44751E-01  3648   0.228E+00    0.143E-01
DAV:   2    -0.124060720604E+03    0.24446E-03   -0.27463E-03  7104   0.186E-01    0.808E-02
DAV:   3    -0.124060634700E+03    0.85904E-04   -0.54120E-04  5328   0.635E-02    0.170E-02
DAV:   4    -0.124060634933E+03   -0.23305E-06   -0.47502E-05  4992   0.250E-02    0.706E-03
DAV:   5    -0.124060635327E+03   -0.39379E-06   -0.29346E-06  6192   0.794E-03
  47 F= -.12591947E+03 E0= -.12591789E+03  d E =-.621873E-02  mag=    -0.0000
 curvature:  -2.04 expect dE=-0.105E-01 dE for cont linesearch -0.637E-03
 ZBRENT: increasing intervall
 opt :   4.8161  next Energy=  -125.918861 (dE=-0.561E-02)
 bond charge predicted
       N       E                     dE             d eps       ncg     rms          rms(c)
DAV:   1    -0.124060852101E+03   -0.21717E-03   -0.17915E+00  3648   0.456E+00    0.285E-01
DAV:   2    -0.124059898167E+03    0.95393E-03   -0.11053E-02  7104   0.373E-01    0.161E-01
DAV:   3    -0.124059551111E+03    0.34706E-03   -0.21551E-03  5568   0.126E-01    0.339E-02
DAV:   4    -0.124059551741E+03   -0.62955E-06   -0.18697E-04  5328   0.499E-02    0.141E-02
DAV:   5    -0.124059553000E+03   -0.12589E-05   -0.12322E-05  5760   0.167E-02    0.615E-03
DAV:   6    -0.124059556484E+03   -0.34837E-05   -0.82771E-06  5136   0.138E-02    0.244E-03
DAV:   7    -0.124059553185E+03    0.32988E-05   -0.42568E-06  4992   0.979E-03    0.977E-04
DAV:   8    -0.124059554692E+03   -0.15075E-05   -0.61041E-07  5664   0.324E-03    0.498E-04
DAV:   9    -0.124059556342E+03   -0.16502E-05   -0.14659E-07  4512   0.147E-03    0.325E-04
DAV:  10    -0.124059558649E+03   -0.23067E-05   -0.27140E-07  4320   0.182E-03    0.242E-04
DAV:  11    -0.124059559225E+03   -0.57622E-06   -0.95417E-08  5184   0.132E-03
  48 F= -.12591894E+03 E0= -.12591727E+03  d E =-.568414E-02  mag=    -0.0000
 curvature:   1.95 expect dE= 0.508E-01 dE for cont linesearch  0.997E-03
 ZBRENT: bracketing found
 ZBRENT: interpolating
 opt :   3.3413  next Energy=  -125.920301 (dE=-0.705E-02)
 bond charge predicted
       N       E                     dE             d eps       ncg     rms          rms(c)
DAV:   1    -0.124061636663E+03   -0.20780E-02   -0.56495E-01  3648   0.256E+00    0.160E-01
DAV:   2    -0.124061331356E+03    0.30531E-03   -0.35011E-03  7104   0.210E-01    0.906E-02
DAV:   3    -0.124061224105E+03    0.10725E-03   -0.67800E-04  5376   0.710E-02    0.190E-02
DAV:   4    -0.124061225128E+03   -0.10223E-05   -0.58410E-05  5376   0.268E-02    0.788E-03
DAV:   5    -0.124061225670E+03   -0.54283E-06   -0.24242E-06  5760   0.605E-03
  49 F= -.12592030E+03 E0= -.12591868E+03  d E =-.704768E-02  mag=    -0.0000
 curvature:  -1.63 expect dE=-0.189E-01 dE for cont linesearch -0.213E-09
 trial: gam= 3.03333 g(F)=  0.116E-01 g(S)=  0.000E+00 ort =-0.934E-06 (trialstep = 0.770E-01)
 search vector abs. value=  0.730E-01
 bond charge predicted
       N       E                     dE             d eps       ncg     rms          rms(c)
DAV:   1    -0.124061995577E+03   -0.77045E-03   -0.18250E-02  4320   0.497E-01    0.308E-02
DAV:   2    -0.124061982603E+03    0.12973E-04   -0.19218E-04  5568   0.525E-02    0.165E-02
DAV:   3    -0.124061979949E+03    0.26542E-05   -0.20819E-05  5952   0.155E-02    0.576E-03
DAV:   4    -0.124061980390E+03   -0.44106E-06   -0.30100E-06  4224   0.578E-03
  50 F= -.12592113E+03 E0= -.12591949E+03  d E =-.826037E-03  mag=    -0.0000
 ZBRENT: can't locate minimum, use default step
 trial-energy change:   -0.000826  1 .order   -0.000826   -0.000897   -0.000754
 step:   0.3082(harm=  0.4837)  dis= 0.00393  next Energy=  -125.923115 (dE=-0.282E-02)
 bond charge predicted
       N       E                     dE             d eps       ncg     rms          rms(c)
DAV:   1    -0.124063519590E+03   -0.15396E-02   -0.16449E-01  3648   0.149E+00    0.917E-02
DAV:   2    -0.124063412922E+03    0.10667E-03   -0.18050E-03  6384   0.163E-01    0.500E-02
DAV:   3    -0.124063384748E+03    0.28173E-04   -0.19074E-04  5808   0.471E-02    0.175E-02
DAV:   4    -0.124063384664E+03    0.84789E-07   -0.28128E-05  5376   0.179E-02    0.619E-03
DAV:   5    -0.124063385178E+03   -0.51444E-06   -0.11144E-06  5184   0.424E-03
  51 F= -.12592274E+03 E0= -.12592107E+03  d E =-.244233E-02  mag=     0.0000
 curvature:  -1.23 expect dE=-0.239E-02 dE for cont linesearch -0.297E-03
 ZBRENT: increasing intervall
 opt :   0.7705  next Energy=  -125.922092 (dE=-0.179E-02)
 bond charge predicted
       N       E                     dE             d eps       ncg     rms          rms(c)
DAV:   1    -0.124062878750E+03    0.50591E-03   -0.65889E-01  3648   0.299E+00    0.183E-01
DAV:   2    -0.124062455355E+03    0.42340E-03   -0.72688E-03  7008   0.325E-01    0.998E-02
DAV:   3    -0.124062335603E+03    0.11975E-03   -0.72475E-04  5472   0.918E-02    0.347E-02
DAV:   4    -0.124062334327E+03    0.12756E-05   -0.10922E-04  5712   0.353E-02    0.121E-02
DAV:   5    -0.124062335750E+03   -0.14232E-05   -0.37970E-06  5616   0.785E-03    0.473E-03
DAV:   6    -0.124062335823E+03   -0.72958E-07   -0.10611E-06  5136   0.384E-03
  52 F= -.12592210E+03 E0= -.12592034E+03  d E =-.180504E-02  mag=     0.0000
 curvature:   2.70 expect dE= 0.169E-01 dE for cont linesearch  0.179E-02
 ZBRENT: bracketing found
 ZBRENT: interpolating
 opt :   0.4819  next Energy=  -125.923105 (dE=-0.281E-02)
 bond charge predicted
       N       E                     dE             d eps       ncg     rms          rms(c)
DAV:   1    -0.124063807498E+03   -0.14717E-02   -0.25677E-01  3648   0.186E+00    0.114E-01
DAV:   2    -0.124063637329E+03    0.17017E-03   -0.28047E-03  5664   0.203E-01    0.624E-02
DAV:   3    -0.124063593464E+03    0.43865E-04   -0.31390E-04  5760   0.606E-02    0.218E-02
DAV:   4    -0.124063593547E+03   -0.83463E-07   -0.46304E-05  5280   0.230E-02    0.790E-03
DAV:   5    -0.124063594531E+03   -0.98360E-06   -0.19244E-06  4848   0.571E-03
  53 F= -.12592311E+03 E0= -.12592140E+03  d E =-.280819E-02  mag=     0.0000
 curvature:  -0.55 expect dE=-0.489E-03 dE for cont linesearch -0.875E-08
 trial: gam= 0.06403 g(F)=  0.893E-03 g(S)=  0.000E+00 ort = 0.342E-04 (trialstep = 0.158E+00)
 search vector abs. value=  0.120E-02
 bond charge predicted
       N       E                     dE             d eps       ncg     rms          rms(c)
DAV:   1    -0.124063682248E+03   -0.88701E-04   -0.24697E-03  5136   0.198E-01    0.149E-02
DAV:   2    -0.124063674785E+03    0.74633E-05   -0.66403E-05  6048   0.297E-02    0.671E-03
DAV:   3    -0.124063674234E+03    0.55082E-06   -0.42070E-06  4848   0.797E-03
  54 F= -.12592322E+03 E0= -.12592152E+03  d E =-.114909E-03  mag=     0.0000
 trial-energy change:   -0.000115  1 .order   -0.000115   -0.000142   -0.000088
 step:   0.4163(harm=  0.4163)  dis= 0.00079  next Energy=  -125.923294 (dE=-0.186E-03)
 bond charge predicted
       N       E                     dE             d eps       ncg     rms          rms(c)
DAV:   1    -0.124063709059E+03   -0.34275E-04   -0.65917E-03  3696   0.324E-01    0.244E-02
DAV:   2    -0.124063691414E+03    0.17646E-04   -0.18372E-04  6672   0.508E-02    0.115E-02
DAV:   3    -0.124063689731E+03    0.16823E-05   -0.13189E-05  4032   0.139E-02    0.500E-03
DAV:   4    -0.124063689821E+03   -0.89722E-07   -0.26078E-06  3936   0.646E-03
  55 F= -.12592329E+03 E0= -.12592160E+03  d E =-.187714E-03  mag=    -0.0000
 curvature:  -0.28 expect dE=-0.562E-04 dE for cont linesearch -0.157E-07
 trial: gam= 0.21852 g(F)=  0.202E-03 g(S)=  0.000E+00 ort = 0.822E-05 (trialstep = 0.210E+00)
 search vector abs. value=  0.263E-03
 bond charge predicted
       N       E                     dE             d eps       ncg     rms          rms(c)
DAV:   1    -0.124063683017E+03    0.67141E-05   -0.11406E-03  3648   0.130E-01    0.611E-03
DAV:   2    -0.124063682589E+03    0.42833E-06   -0.94512E-06  3648   0.133E-02
  56 F= -.12592333E+03 E0= -.12592164E+03  d E =-.395469E-04  mag=    -0.0000
 ZBRENT: can't locate minimum, use default step
 trial-energy change:   -0.000040  1 .order   -0.000040   -0.000043   -0.000037
 step:   0.8387(harm=  1.5336)  dis= 0.00167  next Energy=  -125.923451 (dE=-0.156E-03)
 bond charge predicted
       N       E                     dE             d eps       ncg     rms          rms(c)
DAV:   1    -0.124063626057E+03    0.56960E-04   -0.10164E-02  3648   0.388E-01    0.187E-02
DAV:   2    -0.124063623489E+03    0.25683E-05   -0.81054E-05  5184   0.376E-02    0.111E-02
DAV:   3    -0.124063623270E+03    0.21921E-06   -0.12417E-05  4608   0.131E-02    0.228E-03
DAV:   4    -0.124063623445E+03   -0.17572E-06   -0.25161E-06  3984   0.768E-03
  57 F= -.12592342E+03 E0= -.12592174E+03  d E =-.120857E-03  mag=    -0.0000
 curvature:  -0.72 expect dE=-0.497E-04 dE for cont linesearch -0.188E-04
 ZBRENT: increasing intervall
 opt :   2.0967  next Energy=  -125.923403 (dE=-0.108E-03)
 bond charge predicted
       N       E                     dE             d eps       ncg     rms          rms(c)
DAV:   1    -0.124063344916E+03    0.27835E-03   -0.41105E-02  3648   0.778E-01    0.369E-02
DAV:   2    -0.124063335110E+03    0.98065E-05   -0.32543E-04  4896   0.750E-02    0.218E-02
DAV:   3    -0.124063331916E+03    0.31935E-05   -0.48705E-05  4800   0.243E-02    0.442E-03
DAV:   4    -0.124063332402E+03   -0.48640E-06   -0.61725E-06  4320   0.104E-02
  58 F= -.12592341E+03 E0= -.12592175E+03  d E =-.111365E-03  mag=     0.0000
 curvature:   0.48 expect dE= 0.136E-03 dE for cont linesearch  0.178E-04
 ZBRENT: bracketing found
 ZBRENT: interpolating
 opt :   1.4142  next Energy=  -125.923440 (dE=-0.145E-03)
 bond charge predicted
       N       E                     dE             d eps       ncg     rms          rms(c)
DAV:   1    -0.124063523296E+03   -0.19138E-03   -0.12094E-02  3648   0.422E-01    0.197E-02
DAV:   2    -0.124063519663E+03    0.36326E-05   -0.10035E-04  5376   0.419E-02    0.117E-02
DAV:   3    -0.124063519361E+03    0.30235E-06   -0.15357E-05  3648   0.151E-02    0.244E-03
DAV:   4    -0.124063519524E+03   -0.16275E-06   -0.42901E-06  3984   0.103E-02
  59 F= -.12592344E+03 E0= -.12592177E+03  d E =-.145621E-03  mag=     0.0000
 curvature:  -0.65 expect dE=-0.679E-04 dE for cont linesearch -0.880E-09
 trial: gam= 0.52623 g(F)=  0.105E-03 g(S)=  0.000E+00 ort = 0.598E-06 (trialstep = 0.451E+00)
 search vector abs. value=  0.178E-03
 bond charge predicted
       N       E                     dE             d eps       ncg     rms          rms(c)
DAV:   1    -0.124063418661E+03    0.10070E-03   -0.32461E-03  3648   0.219E-01    0.120E-02
DAV:   2    -0.124063415351E+03    0.33109E-05   -0.39054E-05  5232   0.249E-02    0.647E-03
DAV:   3    -0.124063414781E+03    0.56919E-06   -0.59836E-06  5328   0.889E-03
  60 F= -.12592348E+03 E0= -.12592180E+03  d E =-.360978E-04  mag=    -0.0000
 trial-energy change:   -0.000036  1 .order   -0.000037   -0.000047   -0.000026
 step:   0.9986(harm=  0.9986)  dis= 0.00086  next Energy=  -125.923493 (dE=-0.525E-04)
 bond charge predicted
       N       E                     dE             d eps       ncg     rms          rms(c)
DAV:   1    -0.124063266124E+03    0.14923E-03   -0.48264E-03  3648   0.267E-01    0.151E-02
DAV:   2    -0.124063261188E+03    0.49353E-05   -0.56929E-05  4368   0.303E-02    0.831E-03
DAV:   3    -0.124063260678E+03    0.50987E-06   -0.97450E-06  5616   0.117E-02
  61 F= -.12592349E+03 E0= -.12592182E+03  d E =-.533487E-04  mag=    -0.0000
 curvature:  -0.85 expect dE=-0.538E-04 dE for cont linesearch -0.876E-08
 trial: gam= 0.58716 g(F)=  0.636E-04 g(S)=  0.000E+00 ort = 0.136E-05 (trialstep = 0.560E+00)
 search vector abs. value=  0.127E-03
 bond charge predicted
       N       E                     dE             d eps       ncg     rms          rms(c)
DAV:   1    -0.124063101862E+03    0.15933E-03   -0.33662E-03  3648   0.221E-01    0.113E-02
DAV:   2    -0.124063099925E+03    0.19377E-05   -0.40559E-05  3936   0.270E-02    0.671E-03
DAV:   3    -0.124063100287E+03   -0.36258E-06   -0.64047E-06  5040   0.114E-02
  62 F= -.12592353E+03 E0= -.12592186E+03  d E =-.327004E-04  mag=    -0.0000
 ZBRENT: can't locate minimum, use default step
 trial-energy change:   -0.000033  1 .order   -0.000032   -0.000036   -0.000027
 step:   2.2407(harm=  2.3013)  dis= 0.00245  next Energy=  -125.923568 (dE=-0.741E-04)
 bond charge predicted
       N       E                     dE             d eps       ncg     rms          rms(c)
DAV:   1    -0.124062582399E+03    0.51753E-03   -0.30177E-02  3648   0.662E-01    0.335E-02
DAV:   2    -0.124062568781E+03    0.13618E-04   -0.34387E-04  3888   0.753E-02    0.195E-02
DAV:   3    -0.124062566072E+03    0.27092E-05   -0.43841E-05  5568   0.256E-02    0.587E-03
DAV:   4    -0.124062567609E+03   -0.15372E-05   -0.11031E-05  3744   0.160E-02    0.242E-03
DAV:   5    -0.124062566821E+03    0.78812E-06   -0.64405E-06  3840   0.123E-02
  63 F= -.12592357E+03 E0= -.12592192E+03  d E =-.788250E-04  mag=    -0.0000
 curvature:  -2.26 expect dE=-0.374E-03 dE for cont linesearch -0.271E-06
 trial: gam= 2.61817 g(F)=  0.166E-03 g(S)=  0.000E+00 ort = 0.389E-05 (trialstep = 0.108E+00)
 search vector abs. value=  0.105E-02
 bond charge predicted
       N       E                     dE             d eps       ncg     rms          rms(c)
DAV:   1    -0.124062469566E+03    0.98043E-04   -0.10399E-03  5088   0.122E-01    0.608E-03
DAV:   2    -0.124062468943E+03    0.62288E-06   -0.10898E-05  4032   0.134E-02    0.354E-03
DAV:   3    -0.124062468860E+03    0.83392E-07   -0.16947E-06  3840   0.505E-03
  64 F= -.12592359E+03 E0= -.12592194E+03  d E =-.165965E-04  mag=    -0.0000
 ZBRENT: can't locate minimum, use default step
 trial-energy change:   -0.000017  1 .order   -0.000018   -0.000019   -0.000017
 step:   0.4307(harm=  0.9068)  dis= 0.00151  next Energy=  -125.923652 (dE=-0.797E-04)
 bond charge predicted
       N       E                     dE             d eps       ncg     rms          rms(c)
DAV:   1    -0.124062172442E+03    0.29650E-03   -0.93168E-03  3648   0.365E-01    0.185E-02
DAV:   2    -0.124062168443E+03    0.39994E-05   -0.10783E-04  3840   0.419E-02    0.110E-02
DAV:   3    -0.124062167276E+03    0.11674E-05   -0.15798E-05  4560   0.142E-02    0.293E-03
DAV:   4    -0.124062167517E+03   -0.24186E-06   -0.26543E-06  3792   0.702E-03
  65 F= -.12592363E+03 E0= -.12592200E+03  d E =-.590205E-04  mag=    -0.0000
 curvature:  -1.75 expect dE=-0.144E-03 dE for cont linesearch -0.179E-04
 ZBRENT: increasing intervall
 opt :   1.0768  next Energy=  -125.923666 (dE=-0.930E-04)
 bond charge predicted
       N       E                     dE             d eps       ncg     rms          rms(c)
DAV:   1    -0.124061531038E+03    0.63624E-03   -0.37139E-02  3648   0.729E-01    0.366E-02
DAV:   2    -0.124061515981E+03    0.15056E-04   -0.43051E-04  4368   0.835E-02    0.216E-02
DAV:   3    -0.124061510700E+03    0.52812E-05   -0.59591E-05  5232   0.271E-02    0.573E-03
DAV:   4    -0.124061511240E+03   -0.53981E-06   -0.89150E-06  4224   0.127E-02
  66 F= -.12592366E+03 E0= -.12592205E+03  d E =-.906548E-04  mag=    -0.0000
 curvature:  -3.33 expect dE=-0.677E-03 dE for cont linesearch -0.101E-06
 trial: gam= 1.35703 g(F)=  0.203E-03 g(S)=  0.000E+00 ort =-0.565E-05 (trialstep = 0.149E+00)
 search vector abs. value=  0.213E-02
 bond charge predicted
       N       E                     dE             d eps       ncg     rms          rms(c)
DAV:   1    -0.124061300335E+03    0.21037E-03   -0.40812E-03  3840   0.240E-01    0.118E-02
DAV:   2    -0.124061299055E+03    0.12805E-05   -0.49335E-05  3936   0.297E-02    0.727E-03
DAV:   3    -0.124061299296E+03   -0.24192E-06   -0.82488E-06  4320   0.126E-02
  67 F= -.12592369E+03 E0= -.12592208E+03  d E =-.282803E-04  mag=     0.0000
 ZBRENT: can't locate minimum, use default step
 trial-energy change:   -0.000028  1 .order   -0.000027   -0.000029   -0.000025
 step:   0.5971(harm=  1.0355)  dis= 0.00307  next Energy=  -125.923765 (dE=-0.101E-03)
 bond charge predicted
       N       E                     dE             d eps       ncg     rms          rms(c)
DAV:   1    -0.124060659701E+03    0.63935E-03   -0.36743E-02  3648   0.721E-01    0.356E-02
DAV:   2    -0.124060648675E+03    0.11025E-04   -0.41966E-04  4656   0.833E-02    0.215E-02
DAV:   3    -0.124060644791E+03    0.38849E-05   -0.56832E-05  4896   0.280E-02    0.557E-03
DAV:   4    -0.124060645969E+03   -0.11789E-05   -0.13400E-05  4032   0.176E-02    0.267E-03
DAV:   5    -0.124060644453E+03    0.15165E-05   -0.52881E-06  3840   0.113E-02    0.128E-03
DAV:   6    -0.124060643735E+03    0.71741E-06   -0.10966E-06  4848   0.500E-03
  68 F= -.12592376E+03 E0= -.12592216E+03  d E =-.938515E-04  mag=    -0.0000
 curvature:  -4.26 expect dE=-0.673E-03 dE for cont linesearch -0.290E-04
 ZBRENT: increasing intervall
 opt :   1.4927  next Energy=  -125.923823 (dE=-0.160E-03)
 bond charge predicted
       N       E                     dE             d eps       ncg     rms          rms(c)
DAV:   1    -0.124059325589E+03    0.13189E-02   -0.14659E-01  3648   0.144E+00    0.705E-02
DAV:   2    -0.124059276992E+03    0.48597E-04   -0.16272E-03  4368   0.160E-01    0.421E-02
DAV:   3    -0.124059255751E+03    0.21241E-04   -0.21748E-04  5808   0.500E-02    0.106E-02
DAV:   4    -0.124059256629E+03   -0.87815E-06   -0.25872E-05  5088   0.178E-02    0.451E-03
DAV:   5    -0.124059256745E+03   -0.11656E-06   -0.11014E-06  5040   0.418E-03
  69 F= -.12592381E+03 E0= -.12592224E+03  d E =-.151038E-03  mag=     0.0000
 curvature:  -9.67 expect dE=-0.327E-02 dE for cont linesearch -0.146E-06
 trial: gam= 1.34826 g(F)=  0.338E-03 g(S)=  0.000E+00 ort = 0.568E-05 (trialstep = 0.211E+00)
 search vector abs. value=  0.422E-02
 bond charge predicted
       N       E                     dE             d eps       ncg     rms          rms(c)
DAV:   1    -0.124058842415E+03    0.41421E-03   -0.16639E-02  3648   0.486E-01    0.244E-02
DAV:   2    -0.124058835326E+03    0.70898E-05   -0.20177E-04  4752   0.563E-02    0.142E-02
DAV:   3    -0.124058833166E+03    0.21598E-05   -0.21952E-05  4560   0.166E-02    0.422E-03
DAV:   4    -0.124058833361E+03   -0.19464E-06   -0.34865E-06  4848   0.690E-03
  70 F= -.12592388E+03 E0= -.12592231E+03  d E =-.609072E-04  mag=     0.0000
 trial-energy change:   -0.000061  1 .order   -0.000061   -0.000073   -0.000049
 step:   0.6417(harm=  0.6417)  dis= 0.00434  next Energy=  -125.923925 (dE=-0.111E-03)
 bond charge predicted
       N       E                     dE             d eps       ncg     rms          rms(c)
DAV:   1    -0.124057927389E+03    0.90578E-03   -0.69463E-02  3648   0.994E-01    0.503E-02
DAV:   2    -0.124057896491E+03    0.30898E-04   -0.83337E-04  4464   0.114E-01    0.293E-02
DAV:   3    -0.124057887381E+03    0.91101E-05   -0.92027E-05  4464   0.339E-02    0.866E-03
DAV:   4    -0.124057888192E+03   -0.81097E-06   -0.14448E-05  5616   0.135E-02    0.318E-03
DAV:   5    -0.124057888321E+03   -0.12892E-06   -0.10885E-06  4992   0.494E-03
  71 F= -.12592392E+03 E0= -.12592237E+03  d E =-.107543E-03  mag=     0.0000
 curvature:  -3.92 expect dE=-0.314E-03 dE for cont linesearch -0.266E-06
 ZBRENT: interpolating
 opt :   0.6124  next Energy=  -125.923922 (dE=-0.108E-03)
 bond charge predicted
       N       E                     dE             d eps       ncg     rms          rms(c)
DAV:   1    -0.124057956068E+03   -0.67876E-04   -0.31548E-04  4272   0.675E-02    0.349E-03
DAV:   2    -0.124057956040E+03    0.27996E-07   -0.42814E-06  5568   0.849E-03
  72 F= -.12592392E+03 E0= -.12592237E+03  d E =-.107829E-03  mag=     0.0000
 curvature:  -3.66 expect dE=-0.260E-03 dE for cont linesearch -0.222E-07
 trial: gam= 0.26256 g(F)=  0.711E-04 g(S)=  0.000E+00 ort =-0.506E-05 (trialstep = 0.291E+00)
 search vector abs. value=  0.360E-03
 bond charge predicted
       N       E                     dE             d eps       ncg     rms          rms(c)
DAV:   1    -0.124057771953E+03    0.18411E-03   -0.30222E-03  3648   0.206E-01    0.959E-03
DAV:   2    -0.124057771198E+03    0.75497E-06   -0.33928E-05  4608   0.236E-02    0.571E-03
DAV:   3    -0.124057770909E+03    0.28869E-06   -0.43210E-06  4224   0.779E-03
  73 F= -.12592394E+03 E0= -.12592239E+03  d E =-.186402E-04  mag=     0.0000
 trial-energy change:   -0.000019  1 .order   -0.000018   -0.000020   -0.000015
 step:   1.1231(harm=  1.1231)  dis= 0.00176  next Energy=  -125.923961 (dE=-0.392E-04)
 bond charge predicted
       N       E                     dE             d eps       ncg     rms          rms(c)
DAV:   1    -0.124057223666E+03    0.54753E-03   -0.24464E-02  3648   0.587E-01    0.290E-02
DAV:   2    -0.124057215982E+03    0.76836E-05   -0.26000E-04  4416   0.651E-02    0.173E-02
DAV:   3    -0.124057213279E+03    0.27036E-05   -0.34574E-05  4320   0.209E-02    0.434E-03
DAV:   4    -0.124057213654E+03   -0.37549E-06   -0.58800E-06  4080   0.100E-02
  74 F= -.12592397E+03 E0= -.12592242E+03  d E =-.442801E-04  mag=     0.0000
 curvature:  -2.89 expect dE=-0.123E-03 dE for cont linesearch -0.284E-06
 trial: gam= 0.50984 g(F)=  0.425E-04 g(S)=  0.000E+00 ort = 0.594E-05 (trialstep = 0.457E+00)
 search vector abs. value=  0.142E-03
 bond charge predicted
       N       E                     dE             d eps       ncg     rms          rms(c)
DAV:   1    -0.124057026624E+03    0.18665E-03   -0.27743E-03  3648   0.197E-01    0.961E-03
DAV:   2    -0.124057026309E+03    0.31526E-06   -0.33196E-05  4032   0.241E-02    0.598E-03
DAV:   3    -0.124057026141E+03    0.16795E-06   -0.44871E-06  4224   0.899E-03
  75 F= -.12592399E+03 E0= -.12592244E+03  d E =-.201138E-04  mag=     0.0000
 ZBRENT: can't locate minimum, use default step
 trial-energy change:   -0.000020  1 .order   -0.000020   -0.000021   -0.000018
 step:   1.8298(harm=  3.7783)  dis= 0.00252  next Energy=  -125.924053 (dE=-0.861E-04)
 bond charge predicted
       N       E                     dE             d eps       ncg     rms          rms(c)
DAV:   1    -0.124056460485E+03    0.56582E-03   -0.24953E-02  3648   0.592E-01    0.286E-02
DAV:   2    -0.124056455595E+03    0.48899E-05   -0.28200E-04  4128   0.683E-02    0.175E-02
DAV:   3    -0.124056453090E+03    0.25052E-05   -0.34722E-05  4176   0.221E-02    0.466E-03
DAV:   4    -0.124056453604E+03   -0.51376E-06   -0.79201E-06  4896   0.126E-02
  76 F= -.12592404E+03 E0= -.12592249E+03  d E =-.708130E-04  mag=    -0.0000
 curvature:  -3.86 expect dE=-0.192E-03 dE for cont linesearch -0.268E-04
 ZBRENT: increasing intervall
 opt :   4.5745  next Energy=  -125.924100 (dE=-0.133E-03)
 bond charge predicted
       N       E                     dE             d eps       ncg     rms          rms(c)
DAV:   1    -0.124055290493E+03    0.11626E-02   -0.99556E-02  3648   0.118E+00    0.567E-02
DAV:   2    -0.124055271608E+03    0.18885E-04   -0.11309E-03  4416   0.135E-01    0.346E-02
DAV:   3    -0.124055259749E+03    0.11858E-04   -0.13285E-04  4704   0.411E-02    0.902E-03
DAV:   4    -0.124055260978E+03   -0.12289E-05   -0.22817E-05  5616   0.191E-02    0.376E-03
DAV:   5    -0.124055261462E+03   -0.48427E-06   -0.51817E-06  5184   0.112E-02
  77 F= -.12592409E+03 E0= -.12592255E+03  d E =-.126744E-03  mag=    -0.0000
 curvature:  -9.00 expect dE=-0.188E-02 dE for cont linesearch -0.512E-05
 ZBRENT: extrapolating
 opt :   5.6769  next Energy=  -125.924098 (dE=-0.132E-03)
 bond charge predicted
       N       E                     dE             d eps       ncg     rms          rms(c)
DAV:   1    -0.124054767778E+03    0.49320E-03   -0.16087E-02  3648   0.475E-01    0.224E-02
DAV:   2    -0.124054765432E+03    0.23466E-05   -0.18585E-04  5040   0.550E-02    0.137E-02
DAV:   3    -0.124054763829E+03    0.16031E-05   -0.20535E-05  4320   0.164E-02    0.367E-03
DAV:   4    -0.124054764147E+03   -0.31811E-06   -0.38874E-06  4176   0.840E-03
  78 F= -.12592410E+03 E0= -.12592256E+03  d E =-.131316E-03  mag=    -0.0000
 curvature:  -8.71 expect dE=-0.282E-02 dE for cont linesearch -0.595E-07
 trial: gam= 7.81048 g(F)=  0.324E-03 g(S)=  0.000E+00 ort = 0.985E-06 (trialstep = 0.237E-01)
 search vector abs. value=  0.901E-02
 bond charge predicted
       N       E                     dE             d eps       ncg     rms          rms(c)
DAV:   1    -0.124054686282E+03    0.77546E-04   -0.47068E-04  3744   0.815E-02    0.409E-03
DAV:   2    -0.124054686274E+03    0.81382E-08   -0.62886E-06  4560   0.113E-02
  79 F= -.12592411E+03 E0= -.12592257E+03  d E =-.785344E-05  mag=    -0.0000
 ZBRENT: can't locate minimum, use default step
 trial-energy change:   -0.000008  1 .order   -0.000008   -0.000008   -0.000008
 step:   0.0947(harm=  4.8201)  dis= 0.00108  next Energy=  -125.924897 (dE=-0.799E-03)
 bond charge predicted
       N       E                     dE             d eps       ncg     rms          rms(c)
DAV:   1    -0.124054451922E+03    0.23436E-03   -0.41483E-03  3648   0.242E-01    0.121E-02
DAV:   2    -0.124054451307E+03    0.61514E-06   -0.48513E-05  5280   0.288E-02    0.745E-03
DAV:   3    -0.124054451050E+03    0.25653E-06   -0.63020E-06  4464   0.104E-02
  80 F= -.12592413E+03 E0= -.12592259E+03  d E =-.298626E-04  mag=    -0.0000
 curvature:  -1.93 expect dE=-0.472E-03 dE for cont linesearch -0.153E-04
 ZBRENT: increasing intervall
 opt :   0.2368  next Energy=  -125.924157 (dE=-0.590E-04)
 bond charge predicted
       N       E                     dE             d eps       ncg     rms          rms(c)
DAV:   1    -0.124053976863E+03    0.47444E-03   -0.16890E-02  3648   0.487E-01    0.236E-02
DAV:   2    -0.124053973704E+03    0.31585E-05   -0.19332E-04  4464   0.570E-02    0.146E-02
DAV:   3    -0.124053972422E+03    0.12824E-05   -0.24603E-05  4272   0.193E-02    0.391E-03
DAV:   4    -0.124053973043E+03   -0.62164E-06   -0.71699E-06  4080   0.129E-02
  81 F= -.12592416E+03 E0= -.12592263E+03  d E =-.665731E-04  mag=     0.0000
 curvature:  -3.67 expect dE=-0.606E-03 dE for cont linesearch -0.190E-04
 ZBRENT: increasing intervall
 opt :   0.5210  next Energy=  -125.924211 (dE=-0.113E-03)
 bond charge predicted
       N       E                     dE             d eps       ncg     rms          rms(c)
DAV:   1    -0.124053004578E+03    0.96784E-03   -0.67288E-02  3648   0.972E-01    0.467E-02
DAV:   2    -0.124052990709E+03    0.13869E-04   -0.76355E-04  4512   0.111E-01    0.286E-02
DAV:   3    -0.124052983119E+03    0.75893E-05   -0.91561E-05  4416   0.343E-02    0.747E-03
DAV:   4    -0.124052984028E+03   -0.90830E-06   -0.16670E-05  4896   0.166E-02    0.320E-03
DAV:   5    -0.124052984410E+03   -0.38273E-06   -0.41613E-06  4944   0.101E-02
  82 F= -.12592421E+03 E0= -.12592267E+03  d E =-.108399E-03  mag=     0.0000
 curvature:  -9.02 expect dE=-0.113E-02 dE for cont linesearch -0.595E-05
 ZBRENT: increasing intervall
 opt :   1.0895  next Energy=  -125.924171 (dE=-0.733E-04)
 bond charge predicted
       N       E                     dE             d eps       ncg     rms          rms(c)
DAV:   1    -0.124050974407E+03    0.20096E-02   -0.26914E-01  3648   0.194E+00    0.925E-02
DAV:   2    -0.124050924950E+03    0.49457E-04   -0.30372E-03  5088   0.220E-01    0.562E-02
DAV:   3    -0.124050884698E+03    0.40253E-04   -0.35846E-04  5328   0.653E-02    0.145E-02
DAV:   4    -0.124050885429E+03   -0.73121E-06   -0.49059E-05  6144   0.258E-02    0.623E-03
DAV:   5    -0.124050886254E+03   -0.82496E-06   -0.41240E-06  5328   0.980E-03
  83 F= -.12592417E+03 E0= -.12592264E+03  d E =-.749727E-04  mag=     0.0000
 curvature:  53.22 expect dE= 0.284E-01 dE for cont linesearch  0.234E-03
 ZBRENT: bracketing found
 ZBRENT: interpolating
 opt :   0.6797  next Energy=  -125.924212 (dE=-0.115E-03)
 bond charge predicted
       N       E                     dE             d eps       ncg     rms          rms(c)
DAV:   1    -0.124052458871E+03   -0.15734E-02   -0.13958E-01  3648   0.140E+00    0.667E-02
DAV:   2    -0.124052433529E+03    0.25342E-04   -0.16024E-03  5328   0.159E-01    0.408E-02
DAV:   3    -0.124052414432E+03    0.19097E-04   -0.18802E-04  5040   0.476E-02    0.105E-02
DAV:   4    -0.124052416217E+03   -0.17853E-05   -0.28724E-05  4560   0.223E-02    0.460E-03
DAV:   5    -0.124052417561E+03   -0.13441E-05   -0.63228E-06  4128   0.126E-02    0.160E-03
DAV:   6    -0.124052415935E+03    0.16264E-05   -0.32410E-06  5040   0.865E-03    0.708E-04
DAV:   7    -0.124052415917E+03    0.18015E-07   -0.36305E-07  5808   0.290E-03
  84 F= -.12592421E+03 E0= -.12592268E+03  d E =-.115518E-03  mag=     0.0000
 curvature:  -1.39 expect dE=-0.241E-03 dE for cont linesearch -0.315E-08
 trial: gam= 0.48691 g(F)=  0.173E-03 g(S)=  0.000E+00 ort = 0.452E-05 (trialstep = 0.155E+00)
 search vector abs. value=  0.231E-02
 bond charge predicted
       N       E                     dE             d eps       ncg     rms          rms(c)
DAV:   1    -0.124052164974E+03    0.25096E-03   -0.51348E-03  4704   0.269E-01    0.129E-02
DAV:   2    -0.124052162938E+03    0.20354E-05   -0.51959E-05  3936   0.286E-02    0.774E-03
DAV:   3    -0.124052162545E+03    0.39324E-06   -0.73429E-06  4800   0.949E-03
  85 F= -.12592424E+03 E0= -.12592271E+03  d E =-.245024E-04  mag=     0.0000
 trial-energy change:   -0.000025  1 .order   -0.000024   -0.000027   -0.000020
 step:   0.5947(harm=  0.5947)  dis= 0.00335  next Energy=  -125.924266 (dE=-0.522E-04)
 bond charge predicted
       N       E                     dE             d eps       ncg     rms          rms(c)
DAV:   1    -0.124051427445E+03    0.73549E-03   -0.41552E-02  3648   0.766E-01    0.372E-02
DAV:   2    -0.124051417074E+03    0.10371E-04   -0.45149E-04  4704   0.848E-02    0.225E-02
DAV:   3    -0.124051412366E+03    0.47086E-05   -0.57023E-05  5808   0.258E-02    0.555E-03
DAV:   4    -0.124051412744E+03   -0.37811E-06   -0.71001E-06  3744   0.962E-03
  86 F= -.12592428E+03 E0= -.12592275E+03  d E =-.644404E-04  mag=     0.0000
 curvature:  -3.92 expect dE=-0.822E-04 dE for cont linesearch -0.313E-05
 ZBRENT: extrapolating
 opt :   0.8125  next Energy=  -125.924282 (dE=-0.691E-04)
 bond charge predicted
       N       E                     dE             d eps       ncg     rms          rms(c)
DAV:   1    -0.124051027611E+03    0.38476E-03   -0.10159E-02  3648   0.379E-01    0.179E-02
DAV:   2    -0.124051026157E+03    0.14537E-05   -0.11750E-04  3648   0.436E-02    0.111E-02
DAV:   3    -0.124051025126E+03    0.10316E-05   -0.15059E-05  5424   0.141E-02    0.285E-03
DAV:   4    -0.124051025232E+03   -0.10620E-06   -0.23557E-06  4032   0.663E-03
  87 F= -.12592428E+03 E0= -.12592275E+03  d E =-.682110E-04  mag=     0.0000
 curvature:  -5.86 expect dE=-0.128E-03 dE for cont linesearch -0.938E-07
 ZBRENT: bracketing found
 ZBRENT: interpolating
 opt :   0.7855  next Energy=  -125.924282 (dE=-0.683E-04)
 bond charge predicted
       N       E                     dE             d eps       ncg     rms          rms(c)
DAV:   1    -0.124051074029E+03   -0.48904E-04   -0.15518E-04  4128   0.473E-02    0.212E-03
DAV:   2    -0.124051074066E+03   -0.36815E-07   -0.24588E-06  4032   0.741E-03
  88 F= -.12592428E+03 E0= -.12592275E+03  d E =-.685086E-04  mag=    -0.0000
 curvature:  -5.13 expect dE=-0.103E-03 dE for cont linesearch -0.205E-07
 trial: gam= 0.13020 g(F)=  0.201E-04 g(S)=  0.000E+00 ort =-0.304E-05 (trialstep = 0.281E+00)
 search vector abs. value=  0.585E-04
 bond charge predicted
       N       E                     dE             d eps       ncg     rms          rms(c)
DAV:   1    -0.124051010101E+03    0.63928E-04   -0.43184E-04  3648   0.791E-02    0.397E-03
DAV:   2    -0.124051009781E+03    0.31966E-06   -0.63657E-06  3648   0.108E-02
  89 F= -.12592429E+03 E0= -.12592276E+03  d E =-.472412E-05  mag=    -0.0000
 trial-energy change:   -0.000005  1 .order   -0.000005   -0.000006   -0.000004
 step:   0.9882(harm=  0.9882)  dis= 0.00049  next Energy=  -125.924292 (dE=-0.975E-05)
 bond charge predicted
       N       E                     dE             d eps       ncg     rms          rms(c)
DAV:   1    -0.124050841455E+03    0.16865E-03   -0.26433E-03  3648   0.197E-01    0.111E-02
DAV:   2    -0.124050839341E+03    0.21143E-05   -0.34121E-05  3984   0.234E-02    0.621E-03
DAV:   3    -0.124050839206E+03    0.13506E-06   -0.42615E-06  3648   0.831E-03
  90 F= -.12592429E+03 E0= -.12592276E+03  d E =-.784360E-05  mag=     0.0000
 curvature:  -1.47 expect dE=-0.281E-04 dE for cont linesearch -0.760E-06
 ZBRENT: interpolating
 opt :   0.7897  next Energy=  -125.924290 (dE=-0.839E-05)
 bond charge predicted
       N       E                     dE             d eps       ncg     rms          rms(c)
DAV:   1    -0.124050888747E+03   -0.49407E-04   -0.20680E-04  3648   0.555E-02    0.252E-03
DAV:   2    -0.124050888627E+03    0.12027E-06   -0.38836E-06  4800   0.899E-03
  91 F= -.12592429E+03 E0= -.12592276E+03  d E =-.850574E-05  mag=     0.0000
 curvature:  -1.05 expect dE=-0.123E-04 dE for cont linesearch -0.428E-09
 trial: gam= 0.56268 g(F)=  0.117E-04 g(S)=  0.000E+00 ort =-0.154E-06 (trialstep = 0.383E+00)
 search vector abs. value=  0.301E-04
 bond charge predicted
       N       E                     dE             d eps       ncg     rms          rms(c)
DAV:   1    -0.124050837655E+03    0.51093E-04   -0.36126E-04  3648   0.735E-02    0.358E-03
DAV:   2    -0.124050837407E+03    0.24745E-06   -0.46507E-06  4128   0.951E-03
  92 F= -.12592429E+03 E0= -.12592276E+03  d E =-.366085E-05  mag=     0.0000
 trial-energy change:   -0.000004  1 .order   -0.000004   -0.000004   -0.000003
 step:   1.1629(harm=  1.1629)  dis= 0.00035  next Energy=  -125.924297 (dE=-0.675E-05)
 bond charge predicted
       N       E                     dE             d eps       ncg     rms          rms(c)
DAV:   1    -0.124050728532E+03    0.10912E-03   -0.14464E-03  3648   0.148E-01    0.821E-03
DAV:   2    -0.124050727424E+03    0.11083E-05   -0.16278E-05  3888   0.167E-02    0.467E-03
DAV:   3    -0.124050727501E+03   -0.77290E-07   -0.31029E-06  3648   0.743E-03
  93 F= -.12592430E+03 E0= -.12592277E+03  d E =-.564748E-05  mag=    -0.0000
 curvature:  -1.51 expect dE=-0.184E-04 dE for cont linesearch -0.501E-06
 ZBRENT: interpolating
 opt :   0.9377  next Energy=  -125.924296 (dE=-0.600E-05)
 bond charge predicted
       N       E                     dE             d eps       ncg     rms          rms(c)
DAV:   1    -0.124050760373E+03   -0.32949E-04   -0.12100E-04  3648   0.434E-02    0.200E-03
DAV:   2    -0.124050760153E+03    0.22014E-06   -0.25819E-06  5040   0.774E-03
  94 F= -.12592430E+03 E0= -.12592277E+03  d E =-.599022E-05  mag=    -0.0000
 curvature:  -1.07 expect dE=-0.790E-05 dE for cont linesearch -0.728E-09
 trial: gam= 0.66381 g(F)=  0.738E-05 g(S)=  0.000E+00 ort =-0.143E-06 (trialstep = 0.494E+00)
 search vector abs. value=  0.204E-04
 bond charge predicted
       N       E                     dE             d eps       ncg     rms          rms(c)
DAV:   1    -0.124050715391E+03    0.44982E-04   -0.29886E-04  3648   0.661E-02    0.325E-03
DAV:   2    -0.124050715120E+03    0.27191E-06   -0.39353E-06  3840   0.897E-03
  95 F= -.12592430E+03 E0= -.12592277E+03  d E =-.334577E-05  mag=    -0.0000
 ZBRENT: can't locate minimum, use default step
 trial-energy change:   -0.000003  1 .order   -0.000003   -0.000004   -0.000003
 step:   1.9749(harm=  4.2131)  dis= 0.00057  next Energy=  -125.924312 (dE=-0.153E-04)
 bond charge predicted
       N       E                     dE             d eps       ncg     rms          rms(c)
DAV:   1    -0.124050577463E+03    0.13793E-03   -0.26041E-03  3648   0.196E-01    0.108E-02
DAV:   2    -0.124050575746E+03    0.17175E-05   -0.27373E-05  3648   0.213E-02    0.633E-03
DAV:   3    -0.124050575782E+03   -0.36482E-07   -0.52394E-06  4272   0.920E-03
  96 F= -.12592431E+03 E0= -.12592277E+03  d E =-.916350E-05  mag=     0.0000
 curvature:  -3.77 expect dE=-0.394E-04 dE for cont linesearch -0.161E-06
 trial: gam= 1.24917 g(F)=  0.105E-04 g(S)=  0.000E+00 ort = 0.934E-06 (trialstep = 0.361E+00)
 search vector abs. value=  0.447E-04
 bond charge predicted
       N       E                     dE             d eps       ncg     rms          rms(c)
DAV:   1    -0.124050535074E+03    0.40671E-04   -0.35552E-04  3888   0.756E-02    0.419E-03
DAV:   2    -0.124050534606E+03    0.46852E-06   -0.51042E-06  4128   0.111E-02
  97 F= -.12592431E+03 E0= -.12592278E+03  d E =-.305850E-05  mag=     0.0000
 trial-energy change:   -0.000003  1 .order   -0.000003   -0.000004   -0.000002
 step:   0.7571(harm=  0.7571)  dis= 0.00030  next Energy=  -125.924310 (dE=-0.440E-05)
 bond charge predicted
       N       E                     dE             d eps       ncg     rms          rms(c)
DAV:   1    -0.124050487589E+03    0.47485E-04   -0.40781E-04  3648   0.816E-02    0.467E-03
DAV:   2    -0.124050486903E+03    0.68596E-06   -0.60985E-06  3648   0.123E-02
  98 F= -.12592431E+03 E0= -.12592278E+03  d E =-.379555E-05  mag=     0.0000
 curvature:  -1.46 expect dE=-0.128E-04 dE for cont linesearch -0.677E-07
 ZBRENT: interpolating
 opt :   0.6812  next Energy=  -125.924309 (dE=-0.385E-05)
 bond charge predicted
       N       E                     dE             d eps       ncg     rms          rms(c)
DAV:   1    -0.124050497565E+03   -0.99760E-05   -0.21815E-05  3648   0.198E-02    0.110E-03
DAV:   2    -0.124050496584E+03    0.98178E-06   -0.36455E-06  3744   0.973E-03
  99 F= -.12592431E+03 E0= -.12592278E+03  d E =-.418645E-05  mag=     0.0000
 curvature:  -1.18 expect dE=-0.793E-05 dE for cont linesearch -0.250E-07
 trial: gam= 0.97478 g(F)=  0.674E-05 g(S)=  0.000E+00 ort =-0.975E-06 (trialstep = 0.402E+00)
 search vector abs. value=  0.473E-04
 bond charge predicted
       N       E                     dE             d eps       ncg     rms          rms(c)
DAV:   1    -0.124050449017E+03    0.48549E-04   -0.42199E-04  5424   0.797E-02    0.413E-03
DAV:   2    -0.124050448679E+03    0.33735E-06   -0.31220E-06  3840   0.720E-03
 100 F= -.12592431E+03 E0= -.12592278E+03  d E =-.102757E-05  mag=     0.0000
 trial-energy change:   -0.000001  1 .order   -0.000002   -0.000002   -0.000001
 step:   0.7516(harm=  0.7516)  dis= 0.00031  next Energy=  -125.924312 (dE=-0.218E-05)
 bond charge predicted
       N       E                     dE             d eps       ncg     rms          rms(c)
DAV:   1    -0.124050406292E+03    0.42725E-04   -0.30583E-04  4080   0.685E-02    0.393E-03
DAV:   2    -0.124050406082E+03    0.20953E-06   -0.25794E-06  3744   0.692E-03
 101 F= -.12592431E+03 E0= -.12592277E+03  d E =-.103684E-05  mag=     0.0000
 curvature:  -3.07 expect dE=-0.106E-04 dE for cont linesearch -0.646E-07
 ZBRENT: interpolating
 opt :   0.6572  next Energy=  -125.924311 (dE=-0.108E-05)
 bond charge predicted
       N       E                     dE             d eps       ncg     rms          rms(c)
DAV:   1    -0.124050417873E+03   -0.11582E-04   -0.27166E-05  3744   0.200E-02    0.857E-04
DAV:   2    -0.124050417814E+03    0.59285E-07   -0.96096E-07  4272   0.481E-03
 102 F= -.12592431E+03 E0= -.12592278E+03  d E =-.126129E-05  mag=     0.0000
 curvature:  -2.24 expect dE=-0.745E-05 dE for cont linesearch -0.402E-07
 ZBRENT: bisectioning
 opt :   0.5295  next Energy=  -125.924311 (dE=-0.137E-05)
 bond charge predicted
       N       E                     dE             d eps       ncg     rms          rms(c)
DAV:   1    -0.124050433421E+03   -0.15547E-04   -0.41793E-05  4272   0.255E-02    0.146E-03
DAV:   2    -0.124050433376E+03    0.45102E-07   -0.61684E-07  5472   0.375E-03
 103 F= -.12592431E+03 E0= -.12592278E+03  d E =-.127320E-05  mag=     0.0000
 curvature:  -6.19 expect dE=-0.198E-04 dE for cont linesearch -0.599E-08
 trial: gam=-0.01501 g(F)=  0.320E-05 g(S)=  0.000E+00 ort = 0.214E-06 (trialstep = 0.427E+00)
 search vector abs. value=  0.321E-05
 bond charge predicted
       N       E                     dE             d eps       ncg     rms          rms(c)
DAV:   1    -0.124050435118E+03   -0.16974E-05   -0.64731E-05  3648   0.323E-02    0.191E-03
DAV:   2    -0.124050435040E+03    0.78653E-07   -0.14707E-06  3840   0.609E-03
 104 F= -.12592431E+03 E0= -.12592278E+03  d E =-.692019E-06  mag=    -0.0000
 trial-energy change:   -0.000001  1 .order   -0.000001   -0.000001   -0.000000
 step:   0.4317(harm=  0.4317)  dis= 0.00007  next Energy=  -125.924312 (dE=-0.691E-06)
 bond charge predicted
       N       E                     dE             d eps       ncg     rms          rms(c)
DAV:   1    -0.124050435060E+03    0.58135E-07   -0.44099E-07  3744   0.344E-03    0.581E-04
DAV:   2    -0.124050435042E+03    0.17978E-07   -0.27619E-07  4416   0.266E-03
 105 F= -.12592431E+03 E0= -.12592278E+03  d E =-.684596E-06  mag=     0.0000
 curvature:  -0.22 expect dE=-0.203E-06 dE for cont linesearch -0.183E-08
 trial: gam= 0.34229 g(F)=  0.940E-06 g(S)=  0.000E+00 ort =-0.165E-06 (trialstep = 0.428E+00)
 search vector abs. value=  0.120E-05
 bond charge predicted
       N       E                     dE             d eps       ncg     rms          rms(c)
DAV:   1    -0.124050434269E+03    0.79123E-06   -0.23161E-05  3936   0.186E-02    0.946E-04
DAV:   2    -0.124050434247E+03    0.21374E-07   -0.29383E-07  4752   0.275E-03
 106 F= -.12592431E+03 E0= -.12592278E+03  d E =-.256141E-06  mag=    -0.0000
 trial-energy change:   -0.000000  1 .order   -0.000000   -0.000000   -0.000000
 step:   0.8172(harm=  0.8172)  dis= 0.00007  next Energy=  -125.924312 (dE=-0.361E-06)
 bond charge predicted
       N       E                     dE             d eps       ncg     rms          rms(c)
DAV:   1    -0.124050433385E+03    0.88382E-06   -0.18616E-05  3840   0.167E-02    0.948E-04
DAV:   2    -0.124050433364E+03    0.21005E-07   -0.24792E-07  4032   0.257E-03
 107 F= -.12592431E+03 E0= -.12592278E+03  d E =-.327370E-06  mag=    -0.0000
 curvature:  -0.56 expect dE=-0.247E-06 dE for cont linesearch -0.427E-09
 trial: gam= 0.41423 g(F)=  0.445E-06 g(S)=  0.000E+00 ort =-0.304E-07 (trialstep = 0.506E+00)
 search vector abs. value=  0.626E-06
 reached required accuracy - stopping structural energy minimisation
