Lattice                                 
           1
     4.304146    2.485000    0.000000
    -4.304146    2.485000    0.000000
     0.000000    0.000000   15.000000
   B    C 
     8     8
Direct configuration=     1
   0.66888689  0.00000000  0.10000000
   0.33111211  0.00000000  0.10000000
   0.00000000  0.33111211  0.10000000
   0.00000000  0.66888689  0.10000000
   0.33111211  0.33111211  0.10000000
   0.66888689  0.66888689  0.10000000
   0.66666600  0.33333300  0.09922189
   0.33333300  0.66666600  0.10077811
   0.16666600  0.33333300  0.46773333
   0.33333300  0.16666600  0.46773333
   0.16666600  0.83333300  0.46773333
   0.33333300  0.66666600  0.46773333
   0.66666600  0.33333300  0.46773333
   0.83333300  0.16666600  0.46773333
   0.66666600  0.83333300  0.46773333
   0.83333300  0.66666600  0.46773333
Direct configuration=     2
   0.67081424  0.00000004  0.10002704
   0.32918480  0.00000004  0.10002704
  -0.00000004  0.32918476  0.10002704
  -0.00000004  0.67081420  0.10002704
   0.32918480  0.32918476  0.10002704
   0.67081424  0.67081420  0.10002704
   0.66666600  0.33333300  0.09924262
   0.33333300  0.66666600  0.10081727
   0.16666366  0.33332833  0.46770555
   0.33332845  0.16666372  0.46770557
   0.16666366  0.83333534  0.46770555
   0.33333300  0.66666600  0.46770554
   0.66666600  0.33333300  0.46770562
   0.83333528  0.16666372  0.46770557
   0.66667067  0.83333534  0.46770555
   0.83333528  0.66667055  0.46770557
Direct configuration=     3
   0.66986023  0.00000002  0.10001365
   0.33013879  0.00000002  0.10001365
  -0.00000002  0.33013877  0.10001365
  -0.00000002  0.66986021  0.10001365
   0.33013879  0.33013877  0.10001365
   0.66986023  0.66986021  0.10001365
   0.66666600  0.33333300  0.09923236
   0.33333300  0.66666600  0.10079789
   0.16666482  0.33333064  0.46771930
   0.33333070  0.16666485  0.46771931
   0.16666482  0.83333418  0.46771930
   0.33333300  0.66666600  0.46771930
   0.66666600  0.33333300  0.46771934
   0.83333415  0.16666485  0.46771931
   0.66666836  0.83333418  0.46771930
   0.83333415  0.66666830  0.46771931
Direct configuration=     4
   0.66986618  0.00000002  0.10001374
   0.33013284  0.00000002  0.10001374
  -0.00000002  0.33013282  0.10001374
  -0.00000002  0.66986616  0.10001374
   0.33013284  0.33013282  0.10001374
   0.66986618  0.66986616  0.10001374
   0.66666600  0.33333300  0.09923242
   0.33333300  0.66666600  0.10079801
   0.16666481  0.33333063  0.46771922
   0.33333069  0.16666484  0.46771923
   0.16666481  0.83333419  0.46771922
   0.33333300  0.66666600  0.46771921
   0.66666600  0.33333300  0.46771925
   0.83333416  0.16666484  0.46771923
   0.66666837  0.83333419  0.46771922
   0.83333416  0.66666831  0.46771923
Direct configuration=     5
   0.66986377  0.00000002  0.10001370
   0.33013525  0.00000002  0.10001370
  -0.00000002  0.33013523  0.10001370
  -0.00000002  0.66986375  0.10001370
   0.33013525  0.33013523  0.10001370
   0.66986377  0.66986375  0.10001370
   0.66666600  0.33333300  0.09923240
   0.33333300  0.66666600  0.10079796
   0.16666482  0.33333063  0.46771925
   0.33333069  0.16666485  0.46771926
   0.16666482  0.83333418  0.46771925
   0.33333300  0.66666600  0.46771925
   0.66666600  0.33333300  0.46771929
   0.83333415  0.16666485  0.46771926
   0.66666837  0.83333418  0.46771925
   0.83333415  0.66666831  0.46771926
Direct configuration=     6
   0.66986200  0.00000002  0.10001368
   0.33013702  0.00000002  0.10001368
  -0.00000002  0.33013700  0.10001368
  -0.00000002  0.66986198  0.10001368
   0.33013702  0.33013700  0.10001368
   0.66986200  0.66986198  0.10001368
   0.66666600  0.33333300  0.09923238
   0.33333300  0.66666600  0.10079793
   0.16666482  0.33333064  0.46771928
   0.33333070  0.16666485  0.46771929
   0.16666482  0.83333418  0.46771928
   0.33333300  0.66666600  0.46771927
   0.66666600  0.33333300  0.46771931
   0.83333415  0.16666485  0.46771929
   0.66666836  0.83333418  0.46771928
   0.83333415  0.66666830  0.46771929
Direct configuration=     7
   0.66986111  0.00000002  0.10001367
   0.33013791  0.00000002  0.10001367
  -0.00000002  0.33013789  0.10001367
  -0.00000002  0.66986109  0.10001367
   0.33013791  0.33013789  0.10001367
   0.66986111  0.66986109  0.10001367
   0.66666600  0.33333300  0.09923237
   0.33333300  0.66666600  0.10079791
   0.16666482  0.33333064  0.46771929
   0.33333070  0.16666485  0.46771930
   0.16666482  0.83333418  0.46771929
   0.33333300  0.66666600  0.46771928
   0.66666600  0.33333300  0.46771933
   0.83333415  0.16666485  0.46771930
   0.66666836  0.83333418  0.46771929
   0.83333415  0.66666830  0.46771930
Direct configuration=     8
   0.66986107 -0.00000001  0.10003826
   0.33013792 -0.00000001  0.10003826
   0.00000001  0.33013793  0.10003826
   0.00000001  0.66986108  0.10003826
   0.33013792  0.33013793  0.10003826
   0.66986107  0.66986108  0.10003826
   0.66666600  0.33333300  0.09925432
   0.33333300  0.66666600  0.10082946
   0.16666655  0.33333409  0.46769414
   0.33333406  0.16666653  0.46769417
   0.16666655  0.83333245  0.46769414
   0.33333300  0.66666600  0.46769414
   0.66666600  0.33333300  0.46769423
   0.83333247  0.16666653  0.46769417
   0.66666491  0.83333245  0.46769414
   0.83333247  0.66666494  0.46769417
Direct configuration=     9
   0.66986096 -0.00000010  0.10011206
   0.33013794 -0.00000010  0.10011206
   0.00000010  0.33013804  0.10011206
   0.00000010  0.66986106  0.10011206
   0.33013794  0.33013804  0.10011206
   0.66986096  0.66986106  0.10011206
   0.66666600  0.33333300  0.09932017
   0.33333300  0.66666600  0.10092411
   0.16667173  0.33334446  0.46761869
   0.33334414  0.16667157  0.46761877
   0.16667173  0.83332727  0.46761869
   0.33333300  0.66666600  0.46761869
   0.66666600  0.33333300  0.46761896
   0.83332743  0.16667157  0.46761877
   0.66665454  0.83332727  0.46761869
   0.83332743  0.66665486  0.46761877
Direct configuration=    10
   0.66986073 -0.00000028  0.10025964
   0.33013799 -0.00000028  0.10025964
   0.00000028  0.33013827  0.10025964
   0.00000028  0.66986101  0.10025964
   0.33013799  0.33013827  0.10025964
   0.66986073  0.66986101  0.10025964
   0.66666600  0.33333300  0.09945187
   0.33333300  0.66666600  0.10111342
   0.16668210  0.33336521  0.46746779
   0.33336430  0.16668165  0.46746798
   0.16668210  0.83331690  0.46746779
   0.33333300  0.66666600  0.46746780
   0.66666600  0.33333300  0.46746841
   0.83331735  0.16668165  0.46746798
   0.66663379  0.83331690  0.46746779
   0.83331735  0.66663470  0.46746798
Direct configuration=    11
   0.66986027 -0.00000064  0.10055481
   0.33013810 -0.00000064  0.10055481
   0.00000064  0.33013873  0.10055481
   0.00000064  0.66986090  0.10055481
   0.33013810  0.33013873  0.10055481
   0.66986027  0.66986090  0.10055481
   0.66666600  0.33333300  0.09971528
   0.33333300  0.66666600  0.10149204
   0.16670284  0.33340669  0.46716599
   0.33340462  0.16670181  0.46716639
   0.16670284  0.83329616  0.46716599
   0.33333300  0.66666600  0.46716602
   0.66666600  0.33333300  0.46716731
   0.83329719  0.16670181  0.46716639
   0.66659231  0.83329616  0.46716599
   0.83329719  0.66659438  0.46716639
Direct configuration=    12
   0.66985934 -0.00000135  0.10114516
   0.33013830 -0.00000135  0.10114516
   0.00000135  0.33013966  0.10114516
   0.00000135  0.66986070  0.10114516
   0.33013830  0.33013966  0.10114516
   0.66985934  0.66986070  0.10114516
   0.66666600  0.33333300  0.10024209
   0.33333300  0.66666600  0.10224927
   0.16674432  0.33348965  0.46656238
   0.33348526  0.16674213  0.46656321
   0.16674432  0.83325468  0.46656238
   0.33333300  0.66666600  0.46656247
   0.66666600  0.33333300  0.46656512
   0.83325687  0.16674213  0.46656321
   0.66650935  0.83325468  0.46656238
   0.83325687  0.66651374  0.46656321
Direct configuration=    13
   0.66985750 -0.00000278  0.10232584
   0.33013872 -0.00000278  0.10232584
   0.00000278  0.33014150  0.10232584
   0.00000278  0.66986028  0.10232584
   0.33013872  0.33014150  0.10232584
   0.66985750  0.66986028  0.10232584
   0.66666600  0.33333300  0.10129571
   0.33333300  0.66666600  0.10376374
   0.16682729  0.33365557  0.46535517
   0.33364654  0.16682277  0.46535685
   0.16682729  0.83317171  0.46535517
   0.33333300  0.66666600  0.46535536
   0.66666600  0.33333300  0.46536073
   0.83317623  0.16682277  0.46535685
   0.66634343  0.83317171  0.46535517
   0.83317623  0.66635246  0.46535685
Direct configuration=    14
   0.66985381 -0.00000565  0.10468721
   0.33013954 -0.00000565  0.10468721
   0.00000565  0.33014519  0.10468721
   0.00000565  0.66985946  0.10468721
   0.33013954  0.33014519  0.10468721
   0.66985381  0.66985946  0.10468721
   0.66666600  0.33333300  0.10340295
   0.33333300  0.66666600  0.10679268
   0.16699321  0.33398742  0.46294076
   0.33396910  0.16698405  0.46294414
   0.16699321  0.83300579  0.46294076
   0.33333300  0.66666600  0.46294114
   0.66666600  0.33333300  0.46295196
   0.83301495  0.16698405  0.46294414
   0.66601158  0.83300579  0.46294076
   0.83301495  0.66602990  0.46294414
Direct configuration=    15
   0.66984643 -0.00001137  0.10940994
   0.33014120 -0.00001137  0.10940994
   0.00001137  0.33015257  0.10940994
   0.00001137  0.66985780  0.10940994
   0.33014120  0.33015257  0.10940994
   0.66984643  0.66985780  0.10940994
   0.66666600  0.33333300  0.10761743
   0.33333300  0.66666600  0.11285055
   0.16732506  0.33465111  0.45811192
   0.33461423  0.16730661  0.45811872
   0.16732506  0.83267394  0.45811192
   0.33333300  0.66666600  0.45811269
   0.66666600  0.33333300  0.45813440
   0.83269239  0.16730661  0.45811872
   0.66534789  0.83267394  0.45811192
   0.83269239  0.66538477  0.45811872
Direct configuration=    16
   0.66983168 -0.00002281  0.11885542
   0.33014451 -0.00002281  0.11885542
   0.00002281  0.33016732  0.11885542
   0.00002281  0.66985449  0.11885542
   0.33014451  0.33016732  0.11885542
   0.66983168  0.66985449  0.11885542
   0.66666600  0.33333300  0.11604639
   0.33333300  0.66666600  0.12496630
   0.16798875  0.33597850  0.44845425
   0.33590448  0.16795174  0.44846787
   0.16798875  0.83201025  0.44845425
   0.33333300  0.66666600  0.44845580
   0.66666600  0.33333300  0.44849929
   0.83204726  0.16795174  0.44846787
   0.66402050  0.83201025  0.44845425
   0.83204726  0.66409452  0.44846787
Direct configuration=    17
   0.66980217 -0.00004571  0.13774636
   0.33015112 -0.00004571  0.13774636
   0.00004571  0.33019683  0.13774636
   0.00004571  0.66984788  0.13774636
   0.33015112  0.33019683  0.13774636
   0.66980217  0.66984788  0.13774636
   0.66666600  0.33333300  0.13290432
   0.33333300  0.66666600  0.14919779
   0.16931614  0.33863327  0.42913892
   0.33848498  0.16924199  0.42916618
   0.16931614  0.83068286  0.42913892
   0.33333300  0.66666600  0.42914202
   0.66666600  0.33333300  0.42922908
   0.83075701  0.16924199  0.42916618
   0.66136573  0.83068286  0.42913892
   0.83075701  0.66151402  0.42916618
Direct configuration=    18
   0.66981935 -0.00003238  0.12674762
   0.33014727 -0.00003238  0.12674762
   0.00003238  0.33017965  0.12674762
   0.00003238  0.66985173  0.12674762
   0.33014727  0.33017965  0.12674762
   0.66981935  0.66985173  0.12674762
   0.66666600  0.33333300  0.12308925
   0.33333300  0.66666600  0.13508967
   0.16854330  0.33708760  0.44038474
   0.33698255  0.16849078  0.44040406
   0.16854330  0.83145570  0.44038474
   0.33333300  0.66666600  0.44038694
   0.66666600  0.33333300  0.44044863
   0.83150822  0.16849078  0.44040406
   0.66291140  0.83145570  0.44038474
   0.83150822  0.66301645  0.44040406
Direct configuration=    19
   0.66981935 -0.00003238  0.12674836
   0.33014727 -0.00003238  0.12674836
   0.00003238  0.33017965  0.12674836
   0.00003238  0.66985173  0.12674836
   0.33014727  0.33017965  0.12674836
   0.66981935  0.66985173  0.12674836
   0.66666600  0.33333300  0.12308991
   0.33333300  0.66666600  0.13509061
   0.16854333  0.33708766  0.44038399
   0.33698260  0.16849080  0.44040331
   0.16854333  0.83145567  0.44038399
   0.33333300  0.66666600  0.44038619
   0.66666600  0.33333300  0.44044788
   0.83150820  0.16849080  0.44040331
   0.66291134  0.83145567  0.44038399
   0.83150820  0.66301640  0.44040331
Direct configuration=    20
   0.66981934 -0.00003239  0.12675056
   0.33014727 -0.00003239  0.12675056
   0.00003239  0.33017966  0.12675056
   0.00003239  0.66985173  0.12675056
   0.33014727  0.33017966  0.12675056
   0.66981934  0.66985173  0.12675056
   0.66666600  0.33333300  0.12309187
   0.33333300  0.66666600  0.13509343
   0.16854341  0.33708781  0.44038174
   0.33698276  0.16849088  0.44040107
   0.16854341  0.83145559  0.44038174
   0.33333300  0.66666600  0.44038394
   0.66666600  0.33333300  0.44044564
   0.83150812  0.16849088  0.44040107
   0.66291119  0.83145559  0.44038174
   0.83150812  0.66301624  0.44040107
Direct configuration=    21
   0.66981932 -0.00003240  0.12675496
   0.33014728 -0.00003240  0.12675496
   0.00003240  0.33017968  0.12675496
   0.00003240  0.66985172  0.12675496
   0.33014728  0.33017968  0.12675496
   0.66981932  0.66985172  0.12675496
   0.66666600  0.33333300  0.12309580
   0.33333300  0.66666600  0.13509907
   0.16854356  0.33708813  0.44037724
   0.33698306  0.16849103  0.44039657
   0.16854356  0.83145544  0.44037724
   0.33333300  0.66666600  0.44037944
   0.66666600  0.33333300  0.44044115
   0.83150797  0.16849103  0.44039657
   0.66291087  0.83145544  0.44037724
   0.83150797  0.66301594  0.44039657
Direct configuration=    22
   0.66981929 -0.00003243  0.12676377
   0.33014729 -0.00003243  0.12676377
   0.00003243  0.33017971  0.12676377
   0.00003243  0.66985171  0.12676377
   0.33014729  0.33017971  0.12676377
   0.66981929  0.66985171  0.12676377
   0.66666600  0.33333300  0.12310365
   0.33333300  0.66666600  0.13511036
   0.16854388  0.33708876  0.44036824
   0.33698368  0.16849134  0.44038757
   0.16854388  0.83145512  0.44036824
   0.33333300  0.66666600  0.44037044
   0.66666600  0.33333300  0.44043216
   0.83150766  0.16849134  0.44038757
   0.66291024  0.83145512  0.44036824
   0.83150766  0.66301532  0.44038757
Direct configuration=    23
   0.66981922 -0.00003248  0.12678139
   0.33014731 -0.00003248  0.12678139
   0.00003248  0.33017978  0.12678139
   0.00003248  0.66985169  0.12678139
   0.33014731  0.33017978  0.12678139
   0.66981922  0.66985169  0.12678139
   0.66666600  0.33333300  0.12311935
   0.33333300  0.66666600  0.13513293
   0.16854451  0.33709002  0.44035023
   0.33698490  0.16849195  0.44036958
   0.16854451  0.83145449  0.44035023
   0.33333300  0.66666600  0.44035243
   0.66666600  0.33333300  0.44041420
   0.83150705  0.16849195  0.44036958
   0.66290898  0.83145449  0.44035023
   0.83150705  0.66301410  0.44036958
Direct configuration=    24
   0.66981907 -0.00003258  0.12681662
   0.33014734 -0.00003258  0.12681662
   0.00003258  0.33017993  0.12681662
   0.00003258  0.66985166  0.12681662
   0.33014734  0.33017993  0.12681662
   0.66981907  0.66985166  0.12681662
   0.66666600  0.33333300  0.12315075
   0.33333300  0.66666600  0.13517808
   0.16854577  0.33709254  0.44031422
   0.33698736  0.16849318  0.44033359
   0.16854577  0.83145323  0.44031422
   0.33333300  0.66666600  0.44031642
   0.66666600  0.33333300  0.44037826
   0.83150582  0.16849318  0.44033359
   0.66290646  0.83145323  0.44031422
   0.83150582  0.66301164  0.44033359
Direct configuration=    25
   0.66981879 -0.00003280  0.12688708
   0.33014742 -0.00003280  0.12688708
   0.00003280  0.33018021  0.12688708
   0.00003280  0.66985158  0.12688708
   0.33014742  0.33018021  0.12688708
   0.66981879  0.66985158  0.12688708
   0.66666600  0.33333300  0.12321355
   0.33333300  0.66666600  0.13526837
   0.16854829  0.33709758  0.44024220
   0.33699227  0.16849563  0.44026161
   0.16854829  0.83145071  0.44024220
   0.33333300  0.66666600  0.44024440
   0.66666600  0.33333300  0.44030640
   0.83150337  0.16849563  0.44026161
   0.66290142  0.83145071  0.44024220
   0.83150337  0.66300673  0.44026161
Direct configuration=    26
   0.66981822 -0.00003322  0.12702801
   0.33014757 -0.00003322  0.12702801
   0.00003322  0.33018078  0.12702801
   0.00003322  0.66985143  0.12702801
   0.33014757  0.33018078  0.12702801
   0.66981822  0.66985143  0.12702801
   0.66666600  0.33333300  0.12333916
   0.33333300  0.66666600  0.13544896
   0.16855333  0.33710767  0.44009816
   0.33700208  0.16850054  0.44011767
   0.16855333  0.83144567  0.44009816
   0.33333300  0.66666600  0.44010036
   0.66666600  0.33333300  0.44016266
   0.83149846  0.16850054  0.44011767
   0.66289133  0.83144567  0.44009816
   0.83149846  0.66299692  0.44011767
Direct configuration=    27
   0.66981708 -0.00003406  0.12730986
   0.33014786 -0.00003406  0.12730986
   0.00003406  0.33018192  0.12730986
   0.00003406  0.66985114  0.12730986
   0.33014786  0.33018192  0.12730986
   0.66981708  0.66985114  0.12730986
   0.66666600  0.33333300  0.12359038
   0.33333300  0.66666600  0.13581013
   0.16856342  0.33712784  0.43981007
   0.33702171  0.16851036  0.43982977
   0.16856342  0.83143558  0.43981007
   0.33333300  0.66666600  0.43981229
   0.66666600  0.33333300  0.43987519
   0.83148864  0.16851036  0.43982977
   0.66287116  0.83143558  0.43981007
   0.83148864  0.66297729  0.43982977
Direct configuration=    28
   0.66981480 -0.00003575  0.12787357
   0.33014845 -0.00003575  0.12787357
   0.00003575  0.33018420  0.12787357
   0.00003575  0.66985055  0.12787357
   0.33014845  0.33018420  0.12787357
   0.66981480  0.66985055  0.12787357
   0.66666600  0.33333300  0.12409282
   0.33333300  0.66666600  0.13653247
   0.16858359  0.33716817  0.43923389
   0.33706098  0.16852999  0.43925397
   0.16858359  0.83141541  0.43923389
   0.33333300  0.66666600  0.43923613
   0.66666600  0.33333300  0.43930025
   0.83146901  0.16852999  0.43925397
   0.66283083  0.83141541  0.43923389
   0.83146901  0.66293802  0.43925397
Direct configuration=    29
   0.66981023 -0.00003913  0.12900098
   0.33014964 -0.00003913  0.12900098
   0.00003913  0.33018877  0.12900098
   0.00003913  0.66984936  0.12900098
   0.33014964  0.33018877  0.12900098
   0.66981023  0.66984936  0.12900098
   0.66666600  0.33333300  0.12509769
   0.33333300  0.66666600  0.13797716
   0.16862392  0.33724885  0.43808154
   0.33713951  0.16856925  0.43810238
   0.16862392  0.83137508  0.43808154
   0.33333300  0.66666600  0.43808382
   0.66666600  0.33333300  0.43815038
   0.83142975  0.16856925  0.43810238
   0.66275015  0.83137508  0.43808154
   0.83142975  0.66285949  0.43810238
Direct configuration=    30
   0.66980111 -0.00004589  0.13125580
   0.33015201 -0.00004589  0.13125580
   0.00004589  0.33019789  0.13125580
   0.00004589  0.66984699  0.13125580
   0.33015201  0.33019789  0.13125580
   0.66980111  0.66984699  0.13125580
   0.66666600  0.33333300  0.12710742
   0.33333300  0.66666600  0.14086653
   0.16870460  0.33741020  0.43577683
   0.33729656  0.16864778  0.43579920
   0.16870460  0.83129440  0.43577683
   0.33333300  0.66666600  0.43577919
   0.66666600  0.33333300  0.43585063
   0.83135122  0.16864778  0.43579920
   0.66258880  0.83129440  0.43577683
   0.83135122  0.66270244  0.43579920
Direct configuration=    31
   0.66978286 -0.00005940  0.13576544
   0.33015674 -0.00005940  0.13576544
   0.00005940  0.33021614  0.13576544
   0.00005940  0.66984226  0.13576544
   0.33015674  0.33021614  0.13576544
   0.66978286  0.66984226  0.13576544
   0.66666600  0.33333300  0.13112690
   0.33333300  0.66666600  0.14664527
   0.16886595  0.33773290  0.43116742
   0.33761067  0.16880484  0.43119284
   0.16886595  0.83113305  0.43116742
   0.33333300  0.66666600  0.43116994
   0.66666600  0.33333300  0.43125112
   0.83119416  0.16880484  0.43119284
   0.66226610  0.83113305  0.43116742
   0.83119416  0.66238833  0.43119284
Direct configuration=    32
   0.66974636 -0.00008643  0.14478472
   0.33016621 -0.00008643  0.14478472
   0.00008643  0.33025264  0.14478472
   0.00008643  0.66983279  0.14478472
   0.33016621  0.33025264  0.14478472
   0.66974636  0.66983279  0.14478472
   0.66666600  0.33333300  0.13916586
   0.33333300  0.66666600  0.15820276
   0.16918865  0.33837831  0.42194860
   0.33823890  0.16911895  0.42198012
   0.16918865  0.83081035  0.42194860
   0.33333300  0.66666600  0.42195144
   0.66666600  0.33333300  0.42205211
   0.83088005  0.16911895  0.42198012
   0.66162069  0.83081035  0.42194860
   0.83088005  0.66176010  0.42198012
Direct configuration=    33
   0.66967335 -0.00014049  0.16282329
   0.33018516 -0.00014049  0.16282329
   0.00014049  0.33032565  0.16282329
   0.00014049  0.66981384  0.16282329
   0.33018516  0.33032565  0.16282329
   0.66967335  0.66981384  0.16282329
   0.66666600  0.33333300  0.15524378
   0.33333300  0.66666600  0.18131773
   0.16983406  0.33966911  0.40351096
   0.33949535  0.16974718  0.40355467
   0.16983406  0.83016494  0.40351096
   0.33333300  0.66666600  0.40351444
   0.66666600  0.33333300  0.40365410
   0.83025182  0.16974718  0.40355467
   0.66032989  0.83016494  0.40351096
   0.83025182  0.66050365  0.40355467
Direct configuration=    34
   0.66970216 -0.00011916  0.15570436
   0.33017768 -0.00011916  0.15570436
   0.00011916  0.33029684  0.15570436
   0.00011916  0.66982132  0.15570436
   0.33017768  0.33029684  0.15570436
   0.66970216  0.66982132  0.15570436
   0.66666600  0.33333300  0.14889862
   0.33333300  0.66666600  0.17219538
   0.16957935  0.33915970  0.41078739
   0.33899949  0.16949925  0.41082629
   0.16957935  0.83041965  0.41078739
   0.33333300  0.66666600  0.41079062
   0.66666600  0.33333300  0.41091489
   0.83049975  0.16949925  0.41082629
   0.66083930  0.83041965  0.41078739
   0.83049975  0.66099951  0.41082629
Direct configuration=    35
   0.66968855 -0.00012924  0.15906788
   0.33018121 -0.00012924  0.15906788
   0.00012924  0.33031045  0.15906788
   0.00012924  0.66981779  0.15906788
   0.33018121  0.33031045  0.15906788
   0.66968855  0.66981779  0.15906788
   0.66666600  0.33333300  0.15189655
   0.33333300  0.66666600  0.17650547
   0.16969969  0.33940038  0.40734945
   0.33923377  0.16961639  0.40739062
   0.16969969  0.83029931  0.40734945
   0.33333300  0.66666600  0.40735279
   0.66666600  0.33333300  0.40748434
   0.83038261  0.16961639  0.40739062
   0.66059862  0.83029931  0.40734945
   0.83038261  0.66076523  0.40739062
Direct configuration=    36
   0.66958078 -0.00019533  0.16519181
   0.33022290 -0.00019533  0.16519181
   0.00019533  0.33041822  0.16519181
   0.00019533  0.66977610  0.16519181
   0.33022290  0.33041822  0.16519181
   0.66958078  0.66977610  0.16519181
   0.66666600  0.33333300  0.15733808
   0.33333300  0.66666600  0.18432767
   0.16959365  0.33918829  0.40109629
   0.33903195  0.16951548  0.40113998
   0.16959365  0.83040535  0.40109629
   0.33333300  0.66666600  0.40109942
   0.66666600  0.33333300  0.40124182
   0.83048352  0.16951548  0.40113998
   0.66081071  0.83040535  0.40109629
   0.83048352  0.66096705  0.40113998
Direct configuration=    37
   0.66955725 -0.00020975  0.16652852
   0.33023199 -0.00020975  0.16652852
   0.00020975  0.33044175  0.16652852
   0.00020975  0.66976701  0.16652852
   0.33023199  0.33044175  0.16652852
   0.66955725  0.66976701  0.16652852
   0.66666600  0.33333300  0.15852584
   0.33333300  0.66666600  0.18603508
   0.16957050  0.33914200  0.39973137
   0.33898790  0.16949345  0.39977561
   0.16957050  0.83042850  0.39973137
   0.33333300  0.66666600  0.39973445
   0.66666600  0.33333300  0.39987922
   0.83050555  0.16949345  0.39977561
   0.66085700  0.83042850  0.39973137
   0.83050555  0.66101110  0.39977561
Direct configuration=    38
   0.66946064 -0.00026362  0.16631817
   0.33027475 -0.00026362  0.16631817
   0.00026362  0.33053836  0.16631817
   0.00026362  0.66972425  0.16631817
   0.33027475  0.33053836  0.16631817
   0.66946064  0.66972425  0.16631817
   0.66666600  0.33333300  0.15831969
   0.33333300  0.66666600  0.18573184
   0.16924820  0.33849739  0.39995466
   0.33836779  0.16918340  0.39999554
   0.16924820  0.83075080  0.39995466
   0.33333300  0.66666600  0.39995728
   0.66666600  0.33333300  0.40009824
   0.83081560  0.16918340  0.39999554
   0.66150161  0.83075080  0.39995466
   0.83081560  0.66163121  0.39999554
Direct configuration=    39
   0.66917079 -0.00042521  0.16568713
   0.33040300 -0.00042521  0.16568713
   0.00042521  0.33082821  0.16568713
   0.00042521  0.66959600  0.16568713
   0.33040300  0.33082821  0.16568713
   0.66917079  0.66959600  0.16568713
   0.66666600  0.33333300  0.15770125
   0.33333300  0.66666600  0.18482211
   0.16828129  0.33656358  0.40062451
   0.33650747  0.16825323  0.40065531
   0.16828129  0.83171771  0.40062451
   0.33333300  0.66666600  0.40062576
   0.66666600  0.33333300  0.40075529
   0.83174577  0.16825323  0.40065531
   0.66343542  0.83171771  0.40062451
   0.83174577  0.66349153  0.40065531
Direct configuration=    40
   0.66859110 -0.00074838  0.16442505
   0.33065952 -0.00074838  0.16442505
   0.00074838  0.33140790  0.16442505
   0.00074838  0.66933948  0.16442505
   0.33065952  0.33140790  0.16442505
   0.66859110  0.66933948  0.16442505
   0.66666600  0.33333300  0.15646436
   0.33333300  0.66666600  0.18300264
   0.16634748  0.33269595  0.40196423
   0.33278682  0.16639291  0.40197486
   0.16634748  0.83365152  0.40196423
   0.33333300  0.66666600  0.40196273
   0.66666600  0.33333300  0.40206940
   0.83360609  0.16639291  0.40197486
   0.66730305  0.83365152  0.40196423
   0.83360609  0.66721218  0.40197486
Direct configuration=    41
   0.66866993 -0.00070444  0.16459666
   0.33062464 -0.00070444  0.16459666
   0.00070444  0.33132907  0.16459666
   0.00070444  0.66937436  0.16459666
   0.33062464  0.33132907  0.16459666
   0.66866993  0.66937436  0.16459666
   0.66666600  0.33333300  0.15663255
   0.33333300  0.66666600  0.18325005
   0.16661043  0.33322186  0.40178205
   0.33329274  0.16664587  0.40179543
   0.16661043  0.83338857  0.40178205
   0.33333300  0.66666600  0.40178093
   0.66666600  0.33333300  0.40189071
   0.83335313  0.16664587  0.40179543
   0.66677714  0.83338857  0.40178205
   0.83335313  0.66670626  0.40179543
Direct configuration=    42
   0.66857990 -0.00072743  0.16461028
   0.33069167 -0.00072743  0.16461028
   0.00072743  0.33141910  0.16461028
   0.00072743  0.66930733  0.16461028
   0.33069167  0.33141910  0.16461028
   0.66857990  0.66930733  0.16461028
   0.66666600  0.33333300  0.15659953
   0.33333300  0.66666600  0.18320247
   0.16661704  0.33323509  0.40178494
   0.33330010  0.16664955  0.40179380
   0.16661704  0.83338196  0.40178494
   0.33333300  0.66666600  0.40178215
   0.66666600  0.33333300  0.40188460
   0.83334945  0.16664955  0.40179380
   0.66676391  0.83338196  0.40178494
   0.83334945  0.66669890  0.40179380
Direct configuration=    43
   0.66830982 -0.00079640  0.16465114
   0.33089278 -0.00079640  0.16465114
   0.00079640  0.33168918  0.16465114
   0.00079640  0.66910622  0.16465114
   0.33089278  0.33168918  0.16465114
   0.66830982  0.66910622  0.16465114
   0.66666600  0.33333300  0.15650046
   0.33333300  0.66666600  0.18305974
   0.16663687  0.33327475  0.40179359
   0.33332218  0.16666059  0.40178892
   0.16663687  0.83336213  0.40179359
   0.33333300  0.66666600  0.40178580
   0.66666600  0.33333300  0.40186627
   0.83333841  0.16666059  0.40178892
   0.66672425  0.83336213  0.40179359
   0.83333841  0.66667682  0.40178892
Direct configuration=    44
   0.66776965 -0.00093434  0.16473287
   0.33129501 -0.00093434  0.16473287
   0.00093434  0.33222935  0.16473287
   0.00093434  0.66870399  0.16473287
   0.33129501  0.33222935  0.16473287
   0.66776965  0.66870399  0.16473287
   0.66666600  0.33333300  0.15630233
   0.33333300  0.66666600  0.18277426
   0.16667654  0.33335407  0.40181090
   0.33336634  0.16668267  0.40177915
   0.16667654  0.83332246  0.40181090
   0.33333300  0.66666600  0.40179311
   0.66666600  0.33333300  0.40182960
   0.83331633  0.16668267  0.40177915
   0.66664493  0.83332246  0.40181090
   0.83331633  0.66663266  0.40177915
Direct configuration=    45
   0.66782211 -0.00085228  0.16478812
   0.33132461 -0.00085228  0.16478812
   0.00085228  0.33217689  0.16478812
   0.00085228  0.66867439  0.16478812
   0.33132461  0.33217689  0.16478812
   0.66782211  0.66867439  0.16478812
   0.66666600  0.33333300  0.15616746
   0.33333300  0.66666600  0.18260871
   0.16665793  0.33331686  0.40181420
   0.33334781  0.16667341  0.40177155
   0.16665793  0.83334107  0.40181420
   0.33333300  0.66666600  0.40179837
   0.66666600  0.33333300  0.40180614
   0.83332559  0.16667341  0.40177155
   0.66668214  0.83334107  0.40181420
   0.83332559  0.66665119  0.40177155
Direct configuration=    46
   0.66797949 -0.00060609  0.16495389
   0.33141342 -0.00060609  0.16495389
   0.00060609  0.33201951  0.16495389
   0.00060609  0.66858558  0.16495389
   0.33141342  0.33201951  0.16495389
   0.66797949  0.66858558  0.16495389
   0.66666600  0.33333300  0.15576284
   0.33333300  0.66666600  0.18211203
   0.16660211  0.33320523  0.40182411
   0.33329221  0.16664561  0.40174876
   0.16660211  0.83339689  0.40182411
   0.33333300  0.66666600  0.40181412
   0.66666600  0.33333300  0.40173577
   0.83335339  0.16664561  0.40174876
   0.66679377  0.83339689  0.40182411
   0.83335339  0.66670679  0.40174876
Direct configuration=    47
   0.66829425 -0.00011371  0.16528541
   0.33159104 -0.00011371  0.16528541
   0.00011371  0.33170475  0.16528541
   0.00011371  0.66840796  0.16528541
   0.33159104  0.33170475  0.16528541
   0.66829425  0.66840796  0.16528541
   0.66666600  0.33333300  0.15495360
   0.33333300  0.66666600  0.18111869
   0.16649048  0.33298195  0.40184392
   0.33318101  0.16659001  0.40170317
   0.16649048  0.83350852  0.40184392
   0.33333300  0.66666600  0.40184564
   0.66666600  0.33333300  0.40159501