<?xml version="1.0" encoding="ISO-8859-1"?>
<modeling>
 <generator>
  <i name="program" type="string">vasp </i>
  <i name="version" type="string">6.3.2  </i>
  <i name="subversion" type="string">27Jun22 (build Dec 22 2022 13:13:19) complex                          parallel </i>
  <i name="platform" type="string">LinuxIFC </i>
  <i name="date" type="string">2023 08 23 </i>
  <i name="time" type="string">19:24:53 </i>
 </generator>
 <incar>
  <i type="string" name="SYSTEM">Lattice</i>
  <i type="int" name="ISTART">     0</i>
  <i type="string" name="PREC">Accurate</i>
  <i type="string" name="ALGO">Normal</i>
  <i type="int" name="ISPIN">     2</i>
  <i type="int" name="ICHARG">     2</i>
  <i type="int" name="NELM">    64</i>
  <i type="int" name="IBRION">     2</i>
  <i name="EDIFF">      0.00000100</i>
  <i name="EDIFFG">     -0.00100000</i>
  <i type="int" name="NSW">   128</i>
  <i type="int" name="ISIF">     2</i>
  <i name="ENCUT">    450.00000000</i>
  <i name="POTIM">      0.50000000</i>
  <i type="int" name="ISMEAR">     0</i>
  <i name="SIGMA">      0.10000000</i>
  <i type="logical" name="LWAVE"> F  </i>
  <i type="logical" name="LCHARG"> F  </i>
  <i type="string" name="GGA">PE</i>
  <i type="int" name="IVDW">    12</i>
 </incar>
 <primitive_cell>
  <structure name="primitive_cell" >
   <crystal>
    <varray name="basis" >
     <v>       4.30501228       2.48550000       0.00000000 </v>
     <v>      -4.30501228       2.48550000       0.00000000 </v>
     <v>       0.00000000       0.00000000      15.00000000 </v>
    </varray>
    <i name="volume">    321.00324082 </i>
    <varray name="rec_basis" >
     <v>       0.11614369       0.20116677       0.00000000 </v>
     <v>      -0.11614369       0.20116677       0.00000000 </v>
     <v>       0.00000000       0.00000000       0.06666667 </v>
    </varray>
   </crystal>
   <varray name="positions" >
    <v>       0.66888689       0.00000000       0.10000000 </v>
    <v>       0.33111211       0.00000000       0.10000000 </v>
    <v>       0.00000000       0.33111211       0.10000000 </v>
    <v>       0.00000000       0.66888689       0.10000000 </v>
    <v>       0.33111211       0.33111211       0.10000000 </v>
    <v>       0.66888689       0.66888689       0.10000000 </v>
    <v>       0.66666600       0.33333300       0.09922189 </v>
    <v>       0.33333300       0.66666600       0.10077811 </v>
    <v>       0.24999933       0.24999967       0.46906667 </v>
    <v>       0.41666633       0.08333267       0.46906667 </v>
    <v>       0.24999933       0.74999967       0.46906667 </v>
    <v>       0.41666633       0.58333267       0.46906667 </v>
    <v>       0.74999933       0.24999967       0.46906667 </v>
    <v>       0.91666633       0.08333267       0.46906667 </v>
    <v>       0.74999933       0.74999967       0.46906667 </v>
    <v>       0.91666633       0.58333267       0.46906667 </v>
   </varray>
  </structure>
  <varray name="primitive_index" >
   <v type="int" >        1 </v>
   <v type="int" >        2 </v>
   <v type="int" >        3 </v>
   <v type="int" >        4 </v>
   <v type="int" >        5 </v>
   <v type="int" >        6 </v>
   <v type="int" >        7 </v>
   <v type="int" >        8 </v>
   <v type="int" >        9 </v>
   <v type="int" >       10 </v>
   <v type="int" >       11 </v>
   <v type="int" >       12 </v>
   <v type="int" >       13 </v>
   <v type="int" >       14 </v>
   <v type="int" >       15 </v>
   <v type="int" >       16 </v>
  </varray>
 </primitive_cell>
 <kpoints>
  <generation param="Gamma">
   <v type="int" name="divisions">      12       12        1 </v>
   <v name="usershift">      0.00000000       0.00000000       0.00000000 </v>
   <v name="genvec1">      0.08333333      -0.00000000       0.00000000 </v>
   <v name="genvec2">     -0.00000000       0.08333333       0.00000000 </v>
   <v name="genvec3">      0.00000000       0.00000000       1.00000000 </v>
   <v name="shift">      0.00000000       0.00000000       0.00000000 </v>
  </generation>
  <varray name="kpointlist" >
   <v>       0.00000000       0.00000000       0.00000000 </v>
   <v>       0.08333333       0.00000000       0.00000000 </v>
   <v>      -0.08333333       0.08333333       0.00000000 </v>
   <v>       0.16666667      -0.00000000       0.00000000 </v>
   <v>      -0.16666667       0.16666667       0.00000000 </v>
   <v>       0.25000000      -0.00000000       0.00000000 </v>
   <v>      -0.25000000       0.25000000       0.00000000 </v>
   <v>       0.33333333       0.00000000       0.00000000 </v>
   <v>      -0.33333333       0.33333333       0.00000000 </v>
   <v>       0.41666667      -0.00000000       0.00000000 </v>
   <v>      -0.41666667       0.41666667       0.00000000 </v>
   <v>       0.50000000      -0.00000000       0.00000000 </v>
   <v>       0.50000000       0.50000000       0.00000000 </v>
   <v>       0.08333333       0.08333333       0.00000000 </v>
   <v>      -0.08333333       0.16666667       0.00000000 </v>
   <v>       0.16666667       0.08333333       0.00000000 </v>
   <v>      -0.08333333       0.25000000       0.00000000 </v>
   <v>      -0.25000000       0.16666667       0.00000000 </v>
   <v>       0.25000000       0.08333333       0.00000000 </v>
   <v>      -0.08333333       0.33333333       0.00000000 </v>
   <v>      -0.33333333       0.25000000       0.00000000 </v>
   <v>       0.33333333       0.08333333       0.00000000 </v>
   <v>      -0.08333333       0.41666667       0.00000000 </v>
   <v>      -0.41666667       0.33333333       0.00000000 </v>
   <v>       0.41666667       0.08333333       0.00000000 </v>
   <v>      -0.08333333       0.50000000       0.00000000 </v>
   <v>       0.50000000       0.41666667       0.00000000 </v>
   <v>       0.16666667       0.16666667       0.00000000 </v>
   <v>      -0.16666667       0.33333333       0.00000000 </v>
   <v>       0.25000000       0.16666667       0.00000000 </v>
   <v>      -0.16666667       0.41666667       0.00000000 </v>
   <v>      -0.41666667       0.25000000       0.00000000 </v>
   <v>       0.33333333       0.16666667       0.00000000 </v>
   <v>      -0.16666667       0.50000000       0.00000000 </v>
   <v>       0.50000000       0.33333333       0.00000000 </v>
   <v>       0.41666667       0.16666667       0.00000000 </v>
   <v>       0.41666667       0.41666667       0.00000000 </v>
   <v>       0.25000000       0.25000000       0.00000000 </v>
   <v>      -0.25000000       0.50000000       0.00000000 </v>
   <v>       0.33333333       0.25000000       0.00000000 </v>
   <v>      -0.25000000      -0.41666667       0.00000000 </v>
   <v>       0.41666667       0.33333333       0.00000000 </v>
   <v>       0.33333333       0.33333333       0.00000000 </v>
  </varray>
  <varray name="weights" >
   <v>       0.00694444 </v>
   <v>       0.02777778 </v>
   <v>       0.01388889 </v>
   <v>       0.02777778 </v>
   <v>       0.01388889 </v>
   <v>       0.02777778 </v>
   <v>       0.01388889 </v>
   <v>       0.02777778 </v>
   <v>       0.01388889 </v>
   <v>       0.02777778 </v>
   <v>       0.01388889 </v>
   <v>       0.01388889 </v>
   <v>       0.00694444 </v>
   <v>       0.01388889 </v>
   <v>       0.02777778 </v>
   <v>       0.02777778 </v>
   <v>       0.02777778 </v>
   <v>       0.02777778 </v>
   <v>       0.02777778 </v>
   <v>       0.02777778 </v>
   <v>       0.02777778 </v>
   <v>       0.02777778 </v>
   <v>       0.02777778 </v>
   <v>       0.02777778 </v>
   <v>       0.02777778 </v>
   <v>       0.02777778 </v>
   <v>       0.02777778 </v>
   <v>       0.01388889 </v>
   <v>       0.02777778 </v>
   <v>       0.02777778 </v>
   <v>       0.02777778 </v>
   <v>       0.02777778 </v>
   <v>       0.02777778 </v>
   <v>       0.02777778 </v>
   <v>       0.02777778 </v>
   <v>       0.02777778 </v>
   <v>       0.01388889 </v>
   <v>       0.01388889 </v>
   <v>       0.02777778 </v>
   <v>       0.02777778 </v>
   <v>       0.02777778 </v>
   <v>       0.02777778 </v>
   <v>       0.01388889 </v>
  </varray>
 </kpoints>
 <parameters>
  <separator name="general" >
   <i type="string" name="SYSTEM">Lattice</i>
   <i type="logical" name="LCOMPAT"> F  </i>
  </separator>
  <separator name="electronic" >
   <i type="string" name="PREC">accura</i>
   <i name="ENMAX">    450.00000000</i>
   <i name="ENAUG">    644.87300000</i>
   <i name="EDIFF">      0.00000100</i>
   <i type="int" name="IALGO">    38</i>
   <i type="int" name="IWAVPR">    11</i>
   <i type="int" name="NBANDS">    48</i>
   <i type="int" name="NBANDSLOW">    -1</i>
   <i type="int" name="NBANDSHIGH">    -1</i>
   <i name="NELECT">     56.00000000</i>
   <i type="int" name="TURBO">     0</i>
   <i type="int" name="IRESTART">     0</i>
   <i type="int" name="NREBOOT">     0</i>
   <i type="int" name="NMIN">     0</i>
   <i name="EREF">      0.00000000</i>
   <separator name="electronic smearing" >
    <i type="int" name="ISMEAR">     0</i>
    <i name="SIGMA">      0.10000000</i>
    <i name="KSPACING">      0.50000000</i>
    <i type="logical" name="KGAMMA"> T  </i>
    <i type="logical" name="KBLOWUP"> T  </i>
   </separator>
   <separator name="electronic projectors" >
    <i type="logical" name="LREAL"> F  </i>
    <v name="ROPT">      0.00000000      0.00000000</v>
    <i type="int" name="LMAXPAW">  -100</i>
    <i type="int" name="LMAXMIX">     2</i>
    <i type="logical" name="NLSPLINE"> F  </i>
   </separator>
   <separator name="electronic startup" >
    <i type="int" name="ISTART">     0</i>
    <i type="int" name="ICHARG">     2</i>
    <i type="int" name="INIWAV">     1</i>
   </separator>
   <separator name="electronic spin" >
    <i type="int" name="ISPIN">     2</i>
    <i type="logical" name="LNONCOLLINEAR"> F  </i>
    <v name="MAGMOM">      1.00000000      1.00000000      1.00000000      1.00000000      1.00000000      1.00000000      1.00000000      1.00000000      1.00000000      1.00000000      1.00000000      1.00000000      1.00000000      1.00000000      1.00000000      1.00000000</v>
    <i name="NUPDOWN">     -1.00000000</i>
    <i type="logical" name="LSORBIT"> F  </i>
    <v name="SAXIS">      0.00000000      0.00000000      1.00000000</v>
    <i type="logical" name="LSPIRAL"> F  </i>
    <v name="QSPIRAL">      0.00000000      0.00000000      0.00000000</v>
    <i type="logical" name="LZEROZ"> F  </i>
   </separator>
   <separator name="electronic exchange-correlation" >
    <i type="logical" name="LASPH"> F  </i>
    <i type="logical" name="LMETAGGA"> F  </i>
   </separator>
   <separator name="electronic convergence" >
    <i type="int" name="NELM">    64</i>
    <i type="int" name="NELMDL">    -5</i>
    <i type="int" name="NELMIN">     2</i>
    <i name="ENINI">    450.00000000</i>
    <separator name="electronic convergence detail" >
     <i type="logical" name="LDIAG"> T  </i>
     <i type="logical" name="LSUBROT"> F  </i>
     <i name="WEIMIN">      0.00100000</i>
     <i name="EBREAK">      0.00000001</i>
     <i name="DEPER">      0.30000000</i>
     <i type="int" name="NRMM">     4</i>
     <i name="TIME">      0.40000000</i>
    </separator>
   </separator>
   <separator name="electronic mixer" >
    <i name="AMIX">      0.40000000</i>
    <i name="BMIX">      1.00000000</i>
    <i name="AMIN">      0.10000000</i>
    <i name="AMIX_MAG">      1.60000000</i>
    <i name="BMIX_MAG">      1.00000000</i>
    <separator name="electronic mixer details" >
     <i type="int" name="IMIX">     4</i>
     <i type="logical" name="MIXFIRST"> F  </i>
     <i type="int" name="MAXMIX">   -45</i>
     <i name="WC">    100.00000000</i>
     <i type="int" name="INIMIX">     1</i>
     <i type="int" name="MIXPRE">     1</i>
     <i type="int" name="MREMOVE">     5</i>
    </separator>
   </separator>
   <separator name="electronic dipolcorrection" >
    <i type="logical" name="LDIPOL"> F  </i>
    <i type="logical" name="LMONO"> F  </i>
    <i type="int" name="IDIPOL">     0</i>
    <i name="EPSILON">      1.00000000</i>
    <v name="DIPOL">   -100.00000000   -100.00000000   -100.00000000</v>
    <i name="EFIELD">      0.00000000</i>
   </separator>
  </separator>
  <separator name="grids" >
   <i type="int" name="NGX">    36</i>
   <i type="int" name="NGY">    36</i>
   <i type="int" name="NGZ">   108</i>
   <i type="int" name="NGXF">    72</i>
   <i type="int" name="NGYF">    72</i>
   <i type="int" name="NGZF">   216</i>
   <i type="logical" name="ADDGRID"> F  </i>
  </separator>
  <separator name="ionic" >
   <i type="int" name="NSW">   128</i>
   <i type="int" name="IBRION">     2</i>
   <i type="int" name="MDALGO">     0</i>
   <i type="int" name="ISIF">     2</i>
   <i name="PSTRESS">      0.00000000</i>
   <i name="EDIFFG">     -0.00100000</i>
   <i type="int" name="NFREE">     1</i>
   <i name="POTIM">      0.50000000</i>
   <i name="SMASS">     -3.00000000</i>
   <i name="SCALEE">      1.00000000</i>
  </separator>
  <separator name="ionic md" >
   <i name="TEBEG">      0.00010000</i>
   <i name="TEEND">      0.00010000</i>
   <i type="int" name="NBLOCK">     1</i>
   <i type="int" name="KBLOCK">   128</i>
   <i type="int" name="NPACO">   256</i>
   <i name="APACO">     10.00000000</i>
  </separator>
  <separator name="symmetry" >
   <i type="int" name="ISYM">     2</i>
   <i name="SYMPREC">      0.00001000</i>
  </separator>
  <separator name="dos" >
   <i type="int" name="LORBIT">     0</i>
   <v name="RWIGS">     -1.00000000     -1.00000000</v>
   <i type="int" name="NEDOS">   301</i>
   <i name="EMIN">     10.00000000</i>
   <i name="EMAX">    -10.00000000</i>
   <i name="EFERMI">      0.00000000</i>
  </separator>
  <separator name="writing" >
   <i type="int" name="NWRITE">     2</i>
   <i type="logical" name="LWAVE"> F  </i>
   <i type="logical" name="LDOWNSAMPLE"> F  </i>
   <i type="logical" name="LCHARG"> F  </i>
   <i type="logical" name="LPARD"> F  </i>
   <i type="logical" name="LVTOT"> F  </i>
   <i type="logical" name="LVHAR"> F  </i>
   <i type="logical" name="LELF"> F  </i>
   <i type="logical" name="LOPTICS"> F  </i>
   <v name="STM">      0.00000000      0.00000000      0.00000000      0.00000000      0.00000000      0.00000000      0.00000000</v>
  </separator>
  <separator name="performance" >
   <i type="int" name="NPAR">    48</i>
   <i type="int" name="NSIM">     4</i>
   <i type="int" name="NBLK">    -1</i>
   <i type="logical" name="LPLANE"> T  </i>
   <i type="logical" name="LSCALAPACK"> T  </i>
   <i type="logical" name="LSCAAWARE"> F  </i>
   <i type="logical" name="LSCALU"> F  </i>
   <i type="logical" name="LASYNC"> F  </i>
   <i type="logical" name="LORBITALREAL"> F  </i>
  </separator>
  <separator name="miscellaneous" >
   <i type="int" name="IDIOT">     3</i>
   <i type="int" name="PHON_NSTRUCT">    -1</i>
   <i type="logical" name="LMUSIC"> F  </i>
   <v name="POMASS">     10.81100000     12.01100000</v>
   <v name="DARWINR">      0.00000000      0.00000000</v>
   <v name="DARWINV">      1.00000000      1.00000000</v>
   <i type="logical" name="LCORR"> T  </i>
  </separator>
  <i type="logical" name="GGA_COMPAT"> T  </i>
  <i type="logical" name="LBERRY"> F  </i>
  <i type="int" name="ICORELEVEL">     0</i>
  <i type="logical" name="LDAU"> F  </i>
  <i type="int" name="I_CONSTRAINED_M">     0</i>
  <separator name="electronic exchange-correlation" >
   <i type="string" name="GGA">PE</i>
   <i type="int" name="VOSKOWN">     0</i>
   <i type="logical" name="LHFCALC"> F  </i>
   <i type="string" name="PRECFOCK"></i>
   <i type="logical" name="LSYMGRAD"> F  </i>
   <i type="logical" name="LHFONE"> F  </i>
   <i type="logical" name="LRHFCALC"> F  </i>
   <i type="logical" name="LTHOMAS"> F  </i>
   <i type="logical" name="LMODELHF"> F  </i>
   <i type="logical" name="LFOCKACE"> F  </i>
   <i name="ENCUT4O">     -1.00000000</i>
   <i type="int" name="EXXOEP">     0</i>
   <i type="int" name="FOURORBIT">     0</i>
   <i name="AEXX">      0.00000000</i>
   <i name="HFALPHA">      0.00000000</i>
   <i name="MCALPHA">      0.00000000</i>
   <i name="ALDAX">      1.00000000</i>
   <i name="AGGAX">      1.00000000</i>
   <i name="ALDAC">      1.00000000</i>
   <i name="AGGAC">      1.00000000</i>
   <i type="int" name="NKREDX">     1</i>
   <i type="int" name="NKREDY">     1</i>
   <i type="int" name="NKREDZ">     1</i>
   <i type="logical" name="SHIFTRED"> F  </i>
   <i type="logical" name="ODDONLY"> F  </i>
   <i type="logical" name="EVENONLY"> F  </i>
   <i type="int" name="LMAXFOCK">     0</i>
   <i type="int" name="NMAXFOCKAE">     0</i>
   <i type="logical" name="LFOCKAEDFT"> F  </i>
   <i name="HFSCREEN">      0.00000000</i>
   <i name="HFSCREENC">      0.00000000</i>
   <i type="int" name="NBANDSGWLOW">     0</i>
  </separator>
  <separator name="vdW DFT" >
   <i type="logical" name="LUSE_VDW"> F  </i>
   <i name="Zab_VDW">     -0.84910000</i>
   <i name="PARAM1">      0.12340000</i>
   <i name="PARAM2">      1.00000000</i>
   <i name="PARAM3">      0.00000000</i>
  </separator>
  <separator name="model GW" >
   <i type="int" name="MODEL_GW">     0</i>
   <i name="MODEL_EPS0">     12.03762153</i>
   <i name="MODEL_ALPHA">      1.00000000</i>
  </separator>
  <separator name="linear response parameters" >
   <i type="logical" name="LEPSILON"> F  </i>
   <i type="logical" name="LRPA"> F  </i>
   <i type="logical" name="LNABLA"> F  </i>
   <i type="logical" name="LVEL"> F  </i>
   <i name="CSHIFT">      0.10000000</i>
   <i name="OMEGAMAX">     -1.00000000</i>
   <i name="DEG_THRESHOLD">      0.00200000</i>
   <i name="RTIME">     -0.10000000</i>
   <i name="WPLASMAI">      0.00000000</i>
   <v name="DFIELD">      0.00000000      0.00000000      0.00000000</v>
   <v name="WPLASMA">      0.00000000      0.00000000      0.00000000      0.00000000      0.00000000      0.00000000      0.00000000      0.00000000      0.00000000</v>
  </separator>
  <separator name="orbital magnetization" >
   <i type="logical" name="NUCIND"> F  </i>
   <v name="MAGPOS">      0.00000000      0.00000000      0.00000000</v>
   <i type="logical" name="LNICSALL"> T  </i>
   <i type="logical" name="ORBITALMAG"> F  </i>
   <i type="logical" name="LMAGBLOCH"> F  </i>
   <i type="logical" name="LCHIMAG"> F  </i>
   <i type="logical" name="LGAUGE"> T  </i>
   <i type="int" name="MAGATOM">     0</i>
   <v name="MAGDIPOL">      0.00000000      0.00000000      0.00000000</v>
   <v name="AVECCONST">      0.00000000      0.00000000      0.00000000</v>
  </separator>
  <separator name="response functions" >
   <i type="logical" name="LFINITE_TEMPERATURE"> F  </i>
   <i type="logical" name="LADDER"> F  </i>
   <i type="logical" name="LRPAFORCE"> F  </i>
   <i type="logical" name="LFXC"> F  </i>
   <i type="logical" name="LHARTREE"> T  </i>
   <i type="int" name="IBSE">     0</i>
   <v type="int" name="KPOINT">    -1     0     0     0</v>
   <i type="logical" name="LTCTC"> F  </i>
   <i type="logical" name="LTCTE"> F  </i>
   <i type="logical" name="LTETE"> F  </i>
   <i type="logical" name="LTRIPLET"> F  </i>
   <i type="logical" name="LFXCEPS"> F  </i>
   <i type="logical" name="LFXHEG"> F  </i>
   <i type="int" name="NATURALO">     2</i>
   <i type="logical" name="LHOLEGF"> F  </i>
   <i type="logical" name="L2ORDER"> F  </i>
   <i type="logical" name="LDMP1"> F  </i>
   <i type="logical" name="LMP2LT"> F  </i>
   <i type="logical" name="LSMP2LT"> F  </i>
   <i type="logical" name="LGWLF"> F  </i>
   <i name="ENCUTGW">     -2.00000000</i>
   <i name="ENCUTGWSOFT">     -2.00000000</i>
   <i name="ENCUTLF">     -1.00000000</i>
   <i type="logical" name="LESF_SPLINES"> F  </i>
   <i type="int" name="LMAXMP2">    -1</i>
   <i name="SCISSOR">      0.00000000</i>
   <i type="int" name="NOMEGA">     0</i>
   <i type="int" name="NOMEGAR">     0</i>
   <i type="int" name="NBANDSGW">    -1</i>
   <i type="int" name="NBANDSO">    -1</i>
   <i type="int" name="NBANDSV">    -1</i>
   <i type="int" name="NELMGW">     1</i>
   <i type="int" name="NELMHF">     1</i>
   <i type="int" name="DIM">     3</i>
   <i type="int" name="IESPILON">     4</i>
   <i type="int" name="ANTIRES">     0</i>
   <i name="OMEGAMAX">    -30.00000000</i>
   <i name="OMEGAMIN">    -30.00000000</i>
   <i name="OMEGATL">   -200.00000000</i>
   <i type="int" name="OMEGAGRID">     0</i>
   <i name="CSHIFT">     -0.10000000</i>
   <i type="logical" name="LSELFENERGY"> F  </i>
   <i type="logical" name="LSPECTRAL"> F  </i>
   <i type="logical" name="LSPECTRALGW"> F  </i>
   <i type="logical" name="LSINGLES"> F  </i>
   <i type="logical" name="LFERMIGW"> F  </i>
   <i type="logical" name="ODDONLYGW"> F  </i>
   <i type="logical" name="EVENONLYGW"> F  </i>
   <i type="int" name="NKREDLFX">     1</i>
   <i type="int" name="NKREDLFY">     1</i>
   <i type="int" name="NKREDLFZ">     1</i>
   <i type="int" name="MAXMEM">  2800</i>
   <i type="int" name="TELESCOPE">     0</i>
   <i type="int" name="NTAUPAR">    -1</i>
   <i type="int" name="NOMEGAPAR">    -1</i>
   <i name="DAMP_NEWTON">      0.80000001</i>
   <i name="LAMBDA">      1.00000000</i>
  </separator>
  <separator name="External order field" >
   <i name="OFIELD_KAPPA">      0.00000000</i>
   <v name="OFIELD_K">      0.00000000      0.00000000      0.00000000</v>
   <i name="OFIELD_Q6_NEAR">      0.00000000</i>
   <i name="OFIELD_Q6_FAR">      0.00000000</i>
   <i name="OFIELD_A">      0.00000000</i>
  </separator>
  <separator name="optional k-points parameters" >
   <i type="int" name="KPOINTS_OPT_MODE">     1</i>
   <i type="logical" name="LKPOINTS_OPT"> F  </i>
  </separator>
  <separator name="solvation model" >
   <i type="logical" name="LSOL"> F  </i>
  </separator>
 </parameters>
 <atominfo>
  <atoms>      16 </atoms>
  <types>       2 </types>
  <array name="atoms" >
   <dimension dim="1">ion</dimension>
   <field type="string">element</field>
   <field type="int">atomtype</field>
   <set>
    <rc><c>B </c><c>   1</c></rc>
    <rc><c>B </c><c>   1</c></rc>
    <rc><c>B </c><c>   1</c></rc>
    <rc><c>B </c><c>   1</c></rc>
    <rc><c>B </c><c>   1</c></rc>
    <rc><c>B </c><c>   1</c></rc>
    <rc><c>B </c><c>   1</c></rc>
    <rc><c>B </c><c>   1</c></rc>
    <rc><c>C </c><c>   2</c></rc>
    <rc><c>C </c><c>   2</c></rc>
    <rc><c>C </c><c>   2</c></rc>
    <rc><c>C </c><c>   2</c></rc>
    <rc><c>C </c><c>   2</c></rc>
    <rc><c>C </c><c>   2</c></rc>
    <rc><c>C </c><c>   2</c></rc>
    <rc><c>C </c><c>   2</c></rc>
   </set>
  </array>
  <array name="atomtypes" >
   <dimension dim="1">type</dimension>
   <field type="int">atomspertype</field>
   <field type="string">element</field>
   <field>mass</field>
   <field>valence</field>
   <field type="string">pseudopotential</field>
   <set>
    <rc><c>   8</c><c>B </c><c>     10.81100000</c><c>      3.00000000</c><c>  PAW_PBE B 06Sep2000                   </c></rc>
    <rc><c>   8</c><c>C </c><c>     12.01100000</c><c>      4.00000000</c><c>  PAW_PBE C 08Apr2002                   </c></rc>
   </set>
  </array>
 </atominfo>
 <structure name="initialpos" >
  <crystal>
   <varray name="basis" >
    <v>       4.30501228       2.48550000       0.00000000 </v>
    <v>      -4.30501228       2.48550000       0.00000000 </v>
    <v>       0.00000000       0.00000000      15.00000000 </v>
   </varray>
   <i name="volume">    321.00324082 </i>
   <varray name="rec_basis" >
    <v>       0.11614369       0.20116677       0.00000000 </v>
    <v>      -0.11614369       0.20116677       0.00000000 </v>
    <v>       0.00000000       0.00000000       0.06666667 </v>
   </varray>
  </crystal>
  <varray name="positions" >
   <v>       0.66888689       0.00000000       0.10000000 </v>
   <v>       0.33111211       0.00000000       0.10000000 </v>
   <v>       0.00000000       0.33111211       0.10000000 </v>
   <v>       0.00000000       0.66888689       0.10000000 </v>
   <v>       0.33111211       0.33111211       0.10000000 </v>
   <v>       0.66888689       0.66888689       0.10000000 </v>
   <v>       0.66666600       0.33333300       0.09922189 </v>
   <v>       0.33333300       0.66666600       0.10077811 </v>
   <v>       0.24999933       0.24999967       0.46906667 </v>
   <v>       0.41666633       0.08333267       0.46906667 </v>
   <v>       0.24999933       0.74999967       0.46906667 </v>
   <v>       0.41666633       0.58333267       0.46906667 </v>
   <v>       0.74999933       0.24999967       0.46906667 </v>
   <v>       0.91666633       0.08333267       0.46906667 </v>
   <v>       0.74999933       0.74999967       0.46906667 </v>
   <v>       0.91666633       0.58333267       0.46906667 </v>
  </varray>
 </structure>
 <calculation>
  <scstep>
   <time name="dav">    3.26    3.30</time>
   <time name="total">    3.30    3.35</time>
   <energy>
    <i name="alphaZ">     60.66553501 </i>
    <i name="ewald">   1887.13565253 </i>
    <i name="hartreedc">  -3299.91372051 </i>
    <i name="XCdc">    163.62084462 </i>
    <i name="pawpsdc">   1214.24570090 </i>
    <i name="pawaedc">  -1211.68112031 </i>
    <i name="eentropy">     -0.02080547 </i>
    <i name="bandstr">   -373.02959404 </i>
    <i name="atom">   1746.50554237 </i>
    <i name="e_fr_energy">    187.52803510 </i>
    <i name="e_wo_entrp">    187.54884057 </i>
    <i name="e_0_energy">    187.53843784 </i>
   </energy>
  </scstep>
  <scstep>
   <time name="dav">    5.15    5.21</time>
   <time name="total">    5.15    5.21</time>
   <energy>
    <i name="e_fr_energy">   -118.44725538 </i>
    <i name="e_wo_entrp">   -118.43702784 </i>
    <i name="e_0_energy">   -118.44214161 </i>
   </energy>
  </scstep>
  <scstep>
   <time name="dav">    5.83    5.88</time>
   <time name="total">    5.83    5.88</time>
   <energy>
    <i name="e_fr_energy">   -128.05083503 </i>
    <i name="e_wo_entrp">   -128.03846132 </i>
    <i name="e_0_energy">   -128.04464818 </i>
   </energy>
  </scstep>
  <scstep>
   <time name="dav">    5.40    5.45</time>
   <time name="total">    5.40    5.45</time>
   <energy>
    <i name="e_fr_energy">   -128.08143607 </i>
    <i name="e_wo_entrp">   -128.06914305 </i>
    <i name="e_0_energy">   -128.07528956 </i>
   </energy>
  </scstep>
  <scstep>
   <time name="dav">    5.23    5.27</time>
   <time name="total">    5.41    5.47</time>
   <energy>
    <i name="e_fr_energy">   -128.08147513 </i>
    <i name="e_wo_entrp">   -128.06918194 </i>
    <i name="e_0_energy">   -128.07532854 </i>
   </energy>
  </scstep>
  <scstep>
   <time name="dav">    4.37    4.41</time>
   <time name="total">    4.59    4.66</time>
   <energy>
    <i name="e_fr_energy">    -94.61469081 </i>
    <i name="e_wo_entrp">    -94.60340443 </i>
    <i name="e_0_energy">    -94.60904762 </i>
   </energy>
  </scstep>
  <scstep>
   <time name="dav">    5.07    5.12</time>
   <time name="total">    5.29    5.37</time>
   <energy>
    <i name="e_fr_energy">   -105.69482746 </i>
    <i name="e_wo_entrp">   -105.68529891 </i>
    <i name="e_0_energy">   -105.69006319 </i>
   </energy>
  </scstep>
  <scstep>
   <time name="dav">    5.31    5.35</time>
   <time name="total">    5.52    5.59</time>
   <energy>
    <i name="e_fr_energy">   -111.47610862 </i>
    <i name="e_wo_entrp">   -111.46677385 </i>
    <i name="e_0_energy">   -111.47144123 </i>
   </energy>
  </scstep>
  <scstep>
   <time name="dav">    4.14    4.18</time>
   <time name="total">    4.35    4.40</time>
   <energy>
    <i name="e_fr_energy">   -116.71025370 </i>
    <i name="e_wo_entrp">   -116.70775253 </i>
    <i name="e_0_energy">   -116.70900311 </i>
   </energy>
  </scstep>
  <scstep>
   <time name="dav">    5.43    5.47</time>
   <time name="total">    5.65    5.69</time>
   <energy>
    <i name="e_fr_energy">   -120.92219724 </i>
    <i name="e_wo_entrp">   -120.91732609 </i>
    <i name="e_0_energy">   -120.91976166 </i>
   </energy>
  </scstep>
  <scstep>
   <time name="dav">    5.02    5.06</time>
   <time name="total">    5.23    5.28</time>
   <energy>
    <i name="e_fr_energy">   -122.75598542 </i>
    <i name="e_wo_entrp">   -122.75276906 </i>
    <i name="e_0_energy">   -122.75437724 </i>
   </energy>
  </scstep>
  <scstep>
   <time name="dav">    5.43    5.47</time>
   <time name="total">    5.64    5.68</time>
   <energy>
    <i name="e_fr_energy">   -123.75521086 </i>
    <i name="e_wo_entrp">   -123.75042854 </i>
    <i name="e_0_energy">   -123.75281970 </i>
   </energy>
  </scstep>
  <scstep>
   <time name="dav">    5.03    5.07</time>
   <time name="total">    5.23    5.28</time>
   <energy>
    <i name="e_fr_energy">   -124.05594907 </i>
    <i name="e_wo_entrp">   -124.04989208 </i>
    <i name="e_0_energy">   -124.05292058 </i>
   </energy>
  </scstep>
  <scstep>
   <time name="dav">    4.29    4.31</time>
   <time name="total">    4.49    4.53</time>
   <energy>
    <i name="e_fr_energy">   -124.10919572 </i>
    <i name="e_wo_entrp">   -124.10310875 </i>
    <i name="e_0_energy">   -124.10615223 </i>
   </energy>
  </scstep>
  <scstep>
   <time name="dav">    3.87    3.90</time>
   <time name="total">    4.08    4.11</time>
   <energy>
    <i name="e_fr_energy">   -124.13281207 </i>
    <i name="e_wo_entrp">   -124.12674360 </i>
    <i name="e_0_energy">   -124.12977783 </i>
   </energy>
  </scstep>
  <scstep>
   <time name="dav">    3.95    3.97</time>
   <time name="total">    4.15    4.19</time>
   <energy>
    <i name="e_fr_energy">   -124.13430426 </i>
    <i name="e_wo_entrp">   -124.12825244 </i>
    <i name="e_0_energy">   -124.13127835 </i>
   </energy>
  </scstep>
  <scstep>
   <time name="dav">    3.64    3.68</time>
   <time name="total">    3.85    3.89</time>
   <energy>
    <i name="e_fr_energy">   -124.13481569 </i>
    <i name="e_wo_entrp">   -124.12876919 </i>
    <i name="e_0_energy">   -124.13179244 </i>
   </energy>
  </scstep>
  <scstep>
   <time name="dav">    3.65    3.68</time>
   <time name="total">    3.85    3.89</time>
   <energy>
    <i name="e_fr_energy">   -124.13485767 </i>
    <i name="e_wo_entrp">   -124.12880072 </i>
    <i name="e_0_energy">   -124.13182919 </i>
   </energy>
  </scstep>
  <scstep>
   <time name="dav">    3.38    3.41</time>
   <time name="total">    3.58    3.62</time>
   <energy>
    <i name="e_fr_energy">   -124.13491247 </i>
    <i name="e_wo_entrp">   -124.12885169 </i>
    <i name="e_0_energy">   -124.13188208 </i>
   </energy>
  </scstep>
  <scstep>
   <time name="dav">    3.58    3.61</time>
   <time name="total">    3.79    3.83</time>
   <energy>
    <i name="e_fr_energy">   -124.13494159 </i>
    <i name="e_wo_entrp">   -124.12888370 </i>
    <i name="e_0_energy">   -124.13191265 </i>
   </energy>
  </scstep>
  <scstep>
   <time name="dav">    3.35    3.38</time>
   <time name="total">    3.56    3.59</time>
   <energy>
    <i name="e_fr_energy">   -124.13499160 </i>
    <i name="e_wo_entrp">   -124.12893543 </i>
    <i name="e_0_energy">   -124.13196351 </i>
   </energy>
  </scstep>
  <scstep>
   <time name="dav">    3.83    3.86</time>
   <time name="total">    4.04    4.08</time>
   <energy>
    <i name="e_fr_energy">   -124.13501669 </i>
    <i name="e_wo_entrp">   -124.12895997 </i>
    <i name="e_0_energy">   -124.13198833 </i>
   </energy>
  </scstep>
  <scstep>
   <time name="dav">    4.83    4.86</time>
   <time name="total">    5.05    5.08</time>
   <energy>
    <i name="e_fr_energy">   -124.13502097 </i>
    <i name="e_wo_entrp">   -124.12896398 </i>
    <i name="e_0_energy">   -124.13199247 </i>
   </energy>
  </scstep>
  <scstep>
   <time name="dav">    5.01    5.04</time>
   <time name="total">    5.22    5.26</time>
   <energy>
    <i name="e_fr_energy">   -124.13502397 </i>
    <i name="e_wo_entrp">   -124.12896685 </i>
    <i name="e_0_energy">   -124.13199541 </i>
   </energy>
  </scstep>
  <scstep>
   <time name="dav">    4.11    4.14</time>
   <time name="total">    4.31    4.36</time>
   <energy>
    <i name="e_fr_energy">   -124.13502539 </i>
    <i name="e_wo_entrp">   -124.12896835 </i>
    <i name="e_0_energy">   -124.13199687 </i>
   </energy>
  </scstep>
  <scstep>
   <time name="dav">    5.41    5.44</time>
   <time name="total">    5.44    5.48</time>
   <energy>
    <i name="alphaZ">     60.66553501 </i>
    <i name="ewald">   1887.13565253 </i>
    <i name="hartreedc">  -3497.40613272 </i>
    <i name="XCdc">    168.51539788 </i>
    <i name="pawpsdc">   5853.17311894 </i>
    <i name="pawaedc">  -5852.56784258 </i>
    <i name="eentropy">     -0.00605690 </i>
    <i name="bandstr">   -490.15024026 </i>
    <i name="atom">   1746.50554237 </i>
    <i name="e_fr_energy">   -124.13502574 </i>
    <i name="e_wo_entrp">   -124.12896884 </i>
    <i name="e_0_energy">   -124.13199729 </i>
   </energy>
  </scstep>
  <structure>
   <crystal>
    <varray name="basis" >
     <v>       4.30501228       2.48550000       0.00000000 </v>
     <v>      -4.30501228       2.48550000       0.00000000 </v>
     <v>       0.00000000       0.00000000      15.00000000 </v>
    </varray>
    <i name="volume">    321.00324082 </i>
    <varray name="rec_basis" >
     <v>       0.11614369       0.20116677       0.00000000 </v>
     <v>      -0.11614369       0.20116677       0.00000000 </v>
     <v>       0.00000000       0.00000000       0.06666667 </v>
    </varray>
   </crystal>
   <varray name="positions" >
    <v>       0.66888689       0.00000000       0.10000000 </v>
    <v>       0.33111211       0.00000000       0.10000000 </v>
    <v>       0.00000000       0.33111211       0.10000000 </v>
    <v>       0.00000000       0.66888689       0.10000000 </v>
    <v>       0.33111211       0.33111211       0.10000000 </v>
    <v>       0.66888689       0.66888689       0.10000000 </v>
    <v>       0.66666600       0.33333300       0.09922189 </v>
    <v>       0.33333300       0.66666600       0.10077811 </v>
    <v>       0.24999933       0.24999967       0.46906667 </v>
    <v>       0.41666633       0.08333267       0.46906667 </v>
    <v>       0.24999933       0.74999967       0.46906667 </v>
    <v>       0.41666633       0.58333267       0.46906667 </v>
    <v>       0.74999933       0.24999967       0.46906667 </v>
    <v>       0.91666633       0.08333267       0.46906667 </v>
    <v>       0.74999933       0.74999967       0.46906667 </v>
    <v>       0.91666633       0.58333267       0.46906667 </v>
   </varray>
  </structure>
  <varray name="forces" >
   <v>       0.16970614       0.09796964       0.00822814 </v>
   <v>      -0.16967046      -0.09797379       0.00824981 </v>
   <v>       0.16970614      -0.09796964       0.00822814 </v>
   <v>      -0.16967046       0.09797379       0.00824981 </v>
   <v>       0.00000707      -0.19596835       0.00825383 </v>
   <v>       0.00000707       0.19596835       0.00825383 </v>
   <v>       0.00001788       0.00000000       0.00635142 </v>
   <v>      -0.00008102       0.00000000       0.01192175 </v>
   <v>       0.00005149      -0.00047042      -0.00838201 </v>
   <v>      -0.00044248      -0.00009748      -0.00855414 </v>
   <v>      -0.00007262       0.00000000      -0.00867559 </v>
   <v>       0.00012564       0.00000000      -0.00848059 </v>
   <v>       0.00052340       0.00000000      -0.00843808 </v>
   <v>       0.00018319       0.00000000      -0.00827016 </v>
   <v>       0.00005149       0.00047042      -0.00838201 </v>
   <v>      -0.00044248       0.00009748      -0.00855414 </v>
  </varray>
  <varray name="stress" >
   <v>      10.63253287      -0.00000000      -0.00066618 </v>
   <v>      -0.00000000      10.63327131       0.00000000 </v>
   <v>      -0.00066618       0.00000000      -3.65025979 </v>
  </varray>
  <energy>
   <i name="e_fr_energy">   -125.62912786 </i>
   <i name="e_wo_entrp">   -125.62307096 </i>
   <i name="e_0_energy">   -125.62609941 </i>
  </energy>
  <time name="totalsc">  125.07  126.34</time>
 </calculation>
 <calculation>
  <scstep>
   <time name="dav">    3.31    3.33</time>
   <time name="total">    3.52    3.56</time>
   <energy>
    <i name="alphaZ">     60.66553501 </i>
    <i name="ewald">   1885.97401569 </i>
    <i name="hartreedc">  -3497.03632072 </i>
    <i name="XCdc">    168.47578921 </i>
    <i name="pawpsdc">   5853.17357586 </i>
    <i name="pawaedc">  -5852.56830276 </i>
    <i name="eentropy">     -0.00604020 </i>
    <i name="bandstr">   -489.32359186 </i>
    <i name="atom">   1746.50554237 </i>
    <i name="e_fr_energy">   -124.13979740 </i>
    <i name="e_wo_entrp">   -124.13375720 </i>
    <i name="e_0_energy">   -124.13677730 </i>
   </energy>
  </scstep>
  <scstep>
   <time name="dav">    5.29    5.32</time>
   <time name="total">    5.50    5.54</time>
   <energy>
    <i name="e_fr_energy">   -124.13559148 </i>
    <i name="e_wo_entrp">   -124.12950937 </i>
    <i name="e_0_energy">   -124.13255043 </i>
   </energy>
  </scstep>
  <scstep>
   <time name="dav">    4.68    4.71</time>
   <time name="total">    4.88    4.93</time>
   <energy>
    <i name="e_fr_energy">   -124.13493197 </i>
    <i name="e_wo_entrp">   -124.12887999 </i>
    <i name="e_0_energy">   -124.13190598 </i>
   </energy>
  </scstep>
  <scstep>
   <time name="dav">    5.37    5.41</time>
   <time name="total">    5.57    5.63</time>
   <energy>
    <i name="e_fr_energy">   -124.13490790 </i>
    <i name="e_wo_entrp">   -124.12886799 </i>
    <i name="e_0_energy">   -124.13188794 </i>
   </energy>
  </scstep>
  <scstep>
   <time name="dav">    4.97    5.00</time>
   <time name="total">    5.17    5.21</time>
   <energy>
    <i name="e_fr_energy">   -124.13490759 </i>
    <i name="e_wo_entrp">   -124.12886485 </i>
    <i name="e_0_energy">   -124.13188622 </i>
   </energy>
  </scstep>
  <scstep>
   <time name="dav">    3.88    3.90</time>
   <time name="total">    4.09    4.13</time>
   <energy>
    <i name="e_fr_energy">   -124.13490898 </i>
    <i name="e_wo_entrp">   -124.12886620 </i>
    <i name="e_0_energy">   -124.13188759 </i>
   </energy>
  </scstep>
  <scstep>
   <time name="dav">    4.27    4.30</time>
   <time name="total">    4.48    4.51</time>
   <energy>
    <i name="e_fr_energy">   -124.13491056 </i>
    <i name="e_wo_entrp">   -124.12886847 </i>
    <i name="e_0_energy">   -124.13188952 </i>
   </energy>
  </scstep>
  <scstep>
   <time name="dav">    3.81    3.84</time>
   <time name="total">    4.02    4.06</time>
   <energy>
    <i name="e_fr_energy">   -124.13491303 </i>
    <i name="e_wo_entrp">   -124.12887178 </i>
    <i name="e_0_energy">   -124.13189241 </i>
   </energy>
  </scstep>
  <scstep>
   <time name="dav">    4.09    4.12</time>
   <time name="total">    4.29    4.33</time>
   <energy>
    <i name="e_fr_energy">   -124.13491516 </i>
    <i name="e_wo_entrp">   -124.12887392 </i>
    <i name="e_0_energy">   -124.13189454 </i>
   </energy>
  </scstep>
  <scstep>
   <time name="dav">    3.88    3.92</time>
   <time name="total">    3.92    3.95</time>
   <energy>
    <i name="alphaZ">     60.66553501 </i>
    <i name="ewald">   1885.97401569 </i>
    <i name="hartreedc">  -3496.33449797 </i>
    <i name="XCdc">    168.46244153 </i>
    <i name="pawpsdc">   5834.27369633 </i>
    <i name="pawaedc">  -5833.66264510 </i>
    <i name="eentropy">     -0.00604122 </i>
    <i name="bandstr">   -490.01296270 </i>
    <i name="atom">   1746.50554237 </i>
    <i name="e_fr_energy">   -124.13491604 </i>
    <i name="e_wo_entrp">   -124.12887483 </i>
    <i name="e_0_energy">   -124.13189544 </i>
   </energy>
  </scstep>
  <structure>
   <crystal>
    <varray name="basis" >
     <v>       4.30501228       2.48550000       0.00000000 </v>
     <v>      -4.30501228       2.48550000       0.00000000 </v>
     <v>       0.00000000       0.00000000      15.00000000 </v>
    </varray>
    <i name="volume">    321.00324082 </i>
    <varray name="rec_basis" >
     <v>       0.11614369       0.20116677       0.00000000 </v>
     <v>      -0.11614369       0.20116677       0.00000000 </v>
     <v>       0.00000000       0.00000000       0.06666667 </v>
    </varray>
   </crystal>
   <varray name="positions" >
    <v>       0.67078854      -0.00000010       0.10002646 </v>
    <v>       0.32921062      -0.00000014       0.10002653 </v>
    <v>       0.00000010       0.32921046       0.10002646 </v>
    <v>       0.00000014       0.67078838       0.10002653 </v>
    <v>       0.32921031       0.32921024       0.10002655 </v>
    <v>       0.67078876       0.67078869       0.10002655 </v>
    <v>       0.66666610       0.33333290       0.09924231 </v>
    <v>       0.33333255       0.66666645       0.10081646 </v>
    <v>       0.24999506       0.24999481       0.46903971 </v>
    <v>       0.41666291       0.08333420       0.46903916 </v>
    <v>       0.24999893       0.75000007       0.46903876 </v>
    <v>       0.41666704       0.58333196       0.46903939 </v>
    <v>       0.75000227       0.24999673       0.46903953 </v>
    <v>       0.91666736       0.08333164       0.46904007 </v>
    <v>       0.75000419       0.75000394       0.46903971 </v>
    <v>       0.91666480       0.58333609       0.46903916 </v>
   </varray>
  </structure>
  <varray name="forces" >
   <v>      -0.16501642      -0.09526791       0.00831130 </v>
   <v>       0.16500835       0.09528895       0.00833063 </v>
   <v>      -0.16501642       0.09526791       0.00831130 </v>
   <v>       0.16500835      -0.09528895       0.00833063 </v>
   <v>      -0.00000418       0.19059410       0.00833428 </v>
   <v>      -0.00000418      -0.19059410       0.00833428 </v>
   <v>      -0.00002455       0.00000000       0.00846319 </v>
   <v>       0.00007089       0.00000000       0.00934877 </v>
   <v>      -0.00029415       0.00122269      -0.00842461 </v>
   <v>       0.00129756       0.00025254      -0.00851857 </v>
   <v>       0.00003468      -0.00000000      -0.00857641 </v>
   <v>      -0.00019654       0.00000000      -0.00847886 </v>
   <v>      -0.00153651       0.00000000      -0.00845242 </v>
   <v>      -0.00033031      -0.00000000      -0.00837034 </v>
   <v>      -0.00029415      -0.00122269      -0.00842461 </v>
   <v>       0.00129756      -0.00025254      -0.00851857 </v>
  </varray>
  <varray name="stress" >
   <v>       9.00767432       0.00000000      -0.00063438 </v>
   <v>       0.00000000       9.00439247       0.00000000 </v>
   <v>      -0.00063438       0.00000000      -3.65268577 </v>
  </varray>
  <energy>
   <i name="e_fr_energy">   -125.62928331 </i>
   <i name="e_wo_entrp">   -125.62324209 </i>
   <i name="e_0_energy">   -125.62626270 </i>
  </energy>
  <time name="totalsc">   48.51   48.95</time>
 </calculation>
 <calculation>
  <scstep>
   <time name="dav">    3.30    3.32</time>
   <time name="total">    3.51    3.54</time>
   <energy>
    <i name="alphaZ">     60.66553501 </i>
    <i name="ewald">   1886.53256095 </i>
    <i name="hartreedc">  -3496.50179880 </i>
    <i name="XCdc">    168.48155515 </i>
    <i name="pawpsdc">   5834.26355530 </i>
    <i name="pawaedc">  -5833.65250667 </i>
    <i name="eentropy">     -0.00593669 </i>
    <i name="bandstr">   -490.42739059 </i>
    <i name="atom">   1746.50554237 </i>
    <i name="e_fr_energy">   -124.13888397 </i>
    <i name="e_wo_entrp">   -124.13294728 </i>
    <i name="e_0_energy">   -124.13591562 </i>
   </energy>
  </scstep>
  <scstep>
   <time name="dav">    5.45    5.49</time>
   <time name="total">    5.66    5.70</time>
   <energy>
    <i name="e_fr_energy">   -124.13787377 </i>
    <i name="e_wo_entrp">   -124.13187934 </i>
    <i name="e_0_energy">   -124.13487656 </i>
   </energy>
  </scstep>
  <scstep>
   <time name="dav">    5.94    5.97</time>
   <time name="total">    6.14    6.19</time>
   <energy>
    <i name="e_fr_energy">   -124.13771376 </i>
    <i name="e_wo_entrp">   -124.13168349 </i>
    <i name="e_0_energy">   -124.13469862 </i>
   </energy>
  </scstep>
  <scstep>
   <time name="dav">    4.99    5.02</time>
   <time name="total">    5.19    5.23</time>
   <energy>
    <i name="e_fr_energy">   -124.13770812 </i>
    <i name="e_wo_entrp">   -124.13167479 </i>
    <i name="e_0_energy">   -124.13469145 </i>
   </energy>
  </scstep>
  <scstep>
   <time name="dav">    5.79    5.83</time>
   <time name="total">    5.82    5.86</time>
   <energy>
    <i name="alphaZ">     60.66553501 </i>
    <i name="ewald">   1886.53256095 </i>
    <i name="hartreedc">  -3496.83086887 </i>
    <i name="XCdc">    168.48793945 </i>
    <i name="pawpsdc">   5843.35167558 </i>
    <i name="pawaedc">  -5842.74335331 </i>
    <i name="eentropy">     -0.00603298 </i>
    <i name="bandstr">   -490.10070635 </i>
    <i name="atom">   1746.50554237 </i>
    <i name="e_fr_energy">   -124.13770816 </i>
    <i name="e_wo_entrp">   -124.13167518 </i>
    <i name="e_0_energy">   -124.13469167 </i>
   </energy>
  </scstep>
  <structure>
   <crystal>
    <varray name="basis" >
     <v>       4.30501228       2.48550000       0.00000000 </v>
     <v>      -4.30501228       2.48550000       0.00000000 </v>
     <v>       0.00000000       0.00000000      15.00000000 </v>
    </varray>
    <i name="volume">    321.00324082 </i>
    <varray name="rec_basis" >
     <v>       0.11614369       0.20116677       0.00000000 </v>
     <v>      -0.11614369       0.20116677       0.00000000 </v>
     <v>       0.00000000       0.00000000       0.06666667 </v>
    </varray>
   </crystal>
   <varray name="positions" >
    <v>       0.66984889      -0.00000005       0.10001339 </v>
    <v>       0.33015019      -0.00000007       0.10001342 </v>
    <v>       0.00000005       0.33015011       0.10001339 </v>
    <v>       0.00000007       0.66984881       0.10001342 </v>
    <v>       0.33015003       0.33014999       0.10001343 </v>
    <v>       0.66984901       0.66984897       0.10001343 </v>
    <v>       0.66666605       0.33333295       0.09923222 </v>
    <v>       0.33333277       0.66666623       0.10079751 </v>
    <v>       0.24999717       0.24999721       0.46905303 </v>
    <v>       0.41666460       0.08333344       0.46905275 </v>
    <v>       0.24999913       0.74999987       0.46905255 </v>
    <v>       0.41666669       0.58333231       0.46905287 </v>
    <v>       0.75000082       0.24999818       0.46905294 </v>
    <v>       0.91666685       0.08333215       0.46905321 </v>
    <v>       0.75000179       0.75000183       0.46905303 </v>
    <v>       0.91666556       0.58333440       0.46905275 </v>
   </varray>
  </structure>
  <varray name="forces" >
   <v>       0.00018086       0.00010054       0.00827235 </v>
   <v>      -0.00016618      -0.00009433       0.00829312 </v>
   <v>       0.00018086      -0.00010054       0.00827235 </v>
   <v>      -0.00016618       0.00009433       0.00829312 </v>
   <v>       0.00000021      -0.00018690       0.00829631 </v>
   <v>       0.00000021       0.00018690       0.00829631 </v>
   <v>      -0.00000375       0.00000000       0.00740957 </v>
   <v>      -0.00000409      -0.00000000       0.01058701 </v>
   <v>      -0.00012300       0.00038407      -0.00839918 </v>
   <v>       0.00043632       0.00007877      -0.00853255 </v>
   <v>      -0.00001902      -0.00000000      -0.00862228 </v>
   <v>      -0.00003680       0.00000000      -0.00847635 </v>
   <v>      -0.00051769       0.00000000      -0.00844231 </v>
   <v>      -0.00007509      -0.00000000      -0.00831575 </v>
   <v>      -0.00012300      -0.00038407      -0.00839918 </v>
   <v>       0.00043632      -0.00007877      -0.00853255 </v>
  </varray>
  <varray name="stress" >
   <v>       9.75586879       0.00000000      -0.00064681 </v>
   <v>      -0.00000000       9.75456508       0.00000000 </v>
   <v>      -0.00064681       0.00000000      -3.64259389 </v>
  </varray>
  <energy>
   <i name="e_fr_energy">   -125.63194576 </i>
   <i name="e_wo_entrp">   -125.62591278 </i>
   <i name="e_0_energy">   -125.62892927 </i>
  </energy>
  <time name="totalsc">   29.45   29.69</time>
 </calculation>
 <calculation>
  <scstep>
   <time name="dav">    3.75    3.78</time>
   <time name="total">    3.95    3.99</time>
   <energy>
    <i name="alphaZ">     60.66553501 </i>
    <i name="ewald">   1886.52901966 </i>
    <i name="hartreedc">  -3496.83191134 </i>
    <i name="XCdc">    168.48773800 </i>
    <i name="pawpsdc">   5843.42010714 </i>
    <i name="pawaedc">  -5842.81178093 </i>
    <i name="eentropy">     -0.00603316 </i>
    <i name="bandstr">   -490.09592417 </i>
    <i name="atom">   1746.50554237 </i>
    <i name="e_fr_energy">   -124.13770741 </i>
    <i name="e_wo_entrp">   -124.13167426 </i>
    <i name="e_0_energy">   -124.13469084 </i>
   </energy>
  </scstep>
  <scstep>
   <time name="dav">    4.15    4.18</time>
   <time name="total">    4.20    4.22</time>
   <energy>
    <i name="alphaZ">     60.66553501 </i>
    <i name="ewald">   1886.52901966 </i>
    <i name="hartreedc">  -3496.83331121 </i>
    <i name="XCdc">    168.48775244 </i>
    <i name="pawpsdc">   5843.38306226 </i>
    <i name="pawaedc">  -5842.77473241 </i>
    <i name="eentropy">     -0.00603330 </i>
    <i name="bandstr">   -490.09454232 </i>
    <i name="atom">   1746.50554237 </i>
    <i name="e_fr_energy">   -124.13770750 </i>
    <i name="e_wo_entrp">   -124.13167420 </i>
    <i name="e_0_energy">   -124.13469085 </i>
   </energy>
  </scstep>
  <structure>
   <crystal>
    <varray name="basis" >
     <v>       4.30501228       2.48550000       0.00000000 </v>
     <v>      -4.30501228       2.48550000       0.00000000 </v>
     <v>       0.00000000       0.00000000      15.00000000 </v>
    </varray>
    <i name="volume">    321.00324082 </i>
    <varray name="rec_basis" >
     <v>       0.11614369       0.20116677       0.00000000 </v>
     <v>      -0.11614369       0.20116677       0.00000000 </v>
     <v>       0.00000000       0.00000000       0.06666667 </v>
    </varray>
   </crystal>
   <varray name="positions" >
    <v>       0.66985470      -0.00000005       0.10001347 </v>
    <v>       0.33014439      -0.00000007       0.10001350 </v>
    <v>       0.00000005       0.33014430       0.10001347 </v>
    <v>       0.00000007       0.66985461       0.10001350 </v>
    <v>       0.33014423       0.33014419       0.10001351 </v>
    <v>       0.66985481       0.66985477       0.10001351 </v>
    <v>       0.66666605       0.33333295       0.09923228 </v>
    <v>       0.33333277       0.66666623       0.10079763 </v>
    <v>       0.24999716       0.24999720       0.46905295 </v>
    <v>       0.41666459       0.08333345       0.46905267 </v>
    <v>       0.24999913       0.74999987       0.46905247 </v>
    <v>       0.41666669       0.58333231       0.46905279 </v>
    <v>       0.75000083       0.24999817       0.46905286 </v>
    <v>       0.91666686       0.08333214       0.46905313 </v>
    <v>       0.75000180       0.75000184       0.46905295 </v>
    <v>       0.91666555       0.58333441       0.46905267 </v>
   </varray>
  </structure>
  <varray name="forces" >
   <v>      -0.00153093      -0.00088684       0.00826543 </v>
   <v>       0.00154423       0.00089573       0.00828589 </v>
   <v>      -0.00153093       0.00088684       0.00826543 </v>
   <v>       0.00154423      -0.00089573       0.00828589 </v>
   <v>       0.00000114       0.00178969       0.00828977 </v>
   <v>       0.00000114      -0.00178969       0.00828977 </v>
   <v>      -0.00000393      -0.00000000       0.00742265 </v>
   <v>      -0.00000295      -0.00000000       0.01057073 </v>
   <v>      -0.00012449       0.00039154      -0.00839439 </v>
   <v>       0.00044348       0.00008050      -0.00852649 </v>
   <v>      -0.00001790       0.00000000      -0.00861569 </v>
   <v>      -0.00003831      -0.00000000      -0.00846996 </v>
   <v>      -0.00052567       0.00000000      -0.00843595 </v>
   <v>      -0.00007809       0.00000000      -0.00831218 </v>
   <v>      -0.00012449      -0.00039154      -0.00839439 </v>
   <v>       0.00044348      -0.00008050      -0.00852649 </v>
  </varray>
  <varray name="stress" >
   <v>       9.75585604       0.00000000      -0.00064953 </v>
   <v>      -0.00000000       9.75451226       0.00000000 </v>
   <v>      -0.00064950       0.00000000      -3.64466668 </v>
  </varray>
  <energy>
   <i name="e_fr_energy">   -125.63194592 </i>
   <i name="e_wo_entrp">   -125.62591262 </i>
   <i name="e_0_energy">   -125.62892927 </i>
  </energy>
  <time name="totalsc">   11.21   11.31</time>
 </calculation>
 <calculation>
  <scstep>
   <time name="dav">    4.03    4.07</time>
   <time name="total">    4.24    4.28</time>
   <energy>
    <i name="alphaZ">     60.66553501 </i>
    <i name="ewald">   1886.53045102 </i>
    <i name="hartreedc">  -3496.83569273 </i>
    <i name="XCdc">    168.48782647 </i>
    <i name="pawpsdc">   5843.35567671 </i>
    <i name="pawaedc">  -5842.74734349 </i>
    <i name="eentropy">     -0.00603311 </i>
    <i name="bandstr">   -490.09367031 </i>
    <i name="atom">   1746.50554237 </i>
    <i name="e_fr_energy">   -124.13770805 </i>
    <i name="e_wo_entrp">   -124.13167495 </i>
    <i name="e_0_energy">   -124.13469150 </i>
   </energy>
  </scstep>
  <scstep>
   <time name="dav">    4.25    4.28</time>
   <time name="total">    4.28    4.31</time>
   <energy>
    <i name="alphaZ">     60.66553501 </i>
    <i name="ewald">   1886.53045102 </i>
    <i name="hartreedc">  -3496.83752086 </i>
    <i name="XCdc">    168.48785717 </i>
    <i name="pawpsdc">   5843.35690293 </i>
    <i name="pawaedc">  -5842.74857216 </i>
    <i name="eentropy">     -0.00603326 </i>
    <i name="bandstr">   -490.09187036 </i>
    <i name="atom">   1746.50554237 </i>
    <i name="e_fr_energy">   -124.13770815 </i>
    <i name="e_wo_entrp">   -124.13167489 </i>
    <i name="e_0_energy">   -124.13469152 </i>
   </energy>
  </scstep>
  <structure>
   <crystal>
    <varray name="basis" >
     <v>       4.30501228       2.48550000       0.00000000 </v>
     <v>      -4.30501228       2.48550000       0.00000000 </v>
     <v>       0.00000000       0.00000000      15.00000000 </v>
    </varray>
    <i name="volume">    321.00324082 </i>
    <varray name="rec_basis" >
     <v>       0.11614369       0.20116677       0.00000000 </v>
     <v>      -0.11614369       0.20116677       0.00000000 </v>
     <v>       0.00000000       0.00000000       0.06666667 </v>
    </varray>
   </crystal>
   <varray name="positions" >
    <v>       0.66985235      -0.00000005       0.10001344 </v>
    <v>       0.33014673      -0.00000007       0.10001347 </v>
    <v>       0.00000005       0.33014665       0.10001344 </v>
    <v>       0.00000007       0.66985227       0.10001347 </v>
    <v>       0.33014658       0.33014654       0.10001348 </v>
    <v>       0.66985246       0.66985242       0.10001348 </v>
    <v>       0.66666605       0.33333295       0.09923226 </v>
    <v>       0.33333277       0.66666623       0.10079758 </v>
    <v>       0.24999716       0.24999720       0.46905298 </v>
    <v>       0.41666459       0.08333345       0.46905270 </v>
    <v>       0.24999913       0.74999987       0.46905250 </v>
    <v>       0.41666669       0.58333231       0.46905282 </v>
    <v>       0.75000082       0.24999818       0.46905289 </v>
    <v>       0.91666685       0.08333215       0.46905316 </v>
    <v>       0.75000180       0.75000184       0.46905298 </v>
    <v>       0.91666555       0.58333441       0.46905270 </v>
   </varray>
  </structure>
  <varray name="forces" >
   <v>      -0.00137293      -0.00079553       0.00826366 </v>
   <v>       0.00138629       0.00080438       0.00828409 </v>
   <v>      -0.00137293       0.00079553       0.00826366 </v>
   <v>       0.00138629      -0.00080438       0.00828409 </v>
   <v>       0.00000110       0.00160733       0.00828782 </v>
   <v>       0.00000110      -0.00160733       0.00828782 </v>
   <v>      -0.00000396       0.00000000       0.00742907 </v>
   <v>      -0.00000299       0.00000000       0.01057609 </v>
   <v>      -0.00012429       0.00038923      -0.00839438 </v>
   <v>       0.00044125       0.00008023      -0.00852674 </v>
   <v>      -0.00001814      -0.00000000      -0.00861602 </v>
   <v>      -0.00003758       0.00000000      -0.00847020 </v>
   <v>      -0.00052306       0.00000000      -0.00843610 </v>
   <v>      -0.00007711       0.00000000      -0.00831175 </v>
   <v>      -0.00012429      -0.00038923      -0.00839438 </v>
   <v>       0.00044125      -0.00008023      -0.00852674 </v>
  </varray>
  <varray name="stress" >
   <v>       9.75795392       0.00000000      -0.00064994 </v>
   <v>      -0.00000000       9.75659383       0.00000000 </v>
   <v>      -0.00064994       0.00000000      -3.64357267 </v>
  </varray>
  <energy>
   <i name="e_fr_energy">   -125.63194624 </i>
   <i name="e_wo_entrp">   -125.62591298 </i>
   <i name="e_0_energy">   -125.62892961 </i>
  </energy>
  <time name="totalsc">   11.58   11.69</time>
 </calculation>
 <calculation>
  <scstep>
   <time name="dav">    4.15    4.18</time>
   <time name="total">    4.35    4.39</time>
   <energy>
    <i name="alphaZ">     60.66553501 </i>
    <i name="ewald">   1886.53150594 </i>
    <i name="hartreedc">  -3496.83945674 </i>
    <i name="XCdc">    168.48791581 </i>
    <i name="pawpsdc">   5843.35523642 </i>
    <i name="pawaedc">  -5842.74690682 </i>
    <i name="eentropy">     -0.00603321 </i>
    <i name="bandstr">   -490.09104728 </i>
    <i name="atom">   1746.50554237 </i>
    <i name="e_fr_energy">   -124.13770851 </i>
    <i name="e_wo_entrp">   -124.13167530 </i>
    <i name="e_0_energy">   -124.13469190 </i>
   </energy>
  </scstep>
  <scstep>
   <time name="dav">    4.60    4.63</time>
   <time name="total">    4.63    4.66</time>
   <energy>
    <i name="alphaZ">     60.66553501 </i>
    <i name="ewald">   1886.53150594 </i>
    <i name="hartreedc">  -3496.84080265 </i>
    <i name="XCdc">    168.48793676 </i>
    <i name="pawpsdc">   5843.36213164 </i>
    <i name="pawaedc">  -5842.75380459 </i>
    <i name="eentropy">     -0.00603334 </i>
    <i name="bandstr">   -490.08971970 </i>
    <i name="atom">   1746.50554237 </i>
    <i name="e_fr_energy">   -124.13770856 </i>
    <i name="e_wo_entrp">   -124.13167523 </i>
    <i name="e_0_energy">   -124.13469190 </i>
   </energy>
  </scstep>
  <structure>
   <crystal>
    <varray name="basis" >
     <v>       4.30501228       2.48550000       0.00000000 </v>
     <v>      -4.30501228       2.48550000       0.00000000 </v>
     <v>       0.00000000       0.00000000      15.00000000 </v>
    </varray>
    <i name="volume">    321.00324082 </i>
    <varray name="rec_basis" >
     <v>       0.11614369       0.20116677       0.00000000 </v>
     <v>      -0.11614369       0.20116677       0.00000000 </v>
     <v>       0.00000000       0.00000000       0.06666667 </v>
    </varray>
   </crystal>
   <varray name="positions" >
    <v>       0.66985062      -0.00000005       0.10001341 </v>
    <v>       0.33014846      -0.00000007       0.10001345 </v>
    <v>       0.00000005       0.33014838       0.10001341 </v>
    <v>       0.00000007       0.66985054       0.10001345 </v>
    <v>       0.33014831       0.33014827       0.10001345 </v>
    <v>       0.66985073       0.66985069       0.10001345 </v>
    <v>       0.66666605       0.33333295       0.09923224 </v>
    <v>       0.33333277       0.66666623       0.10079754 </v>
    <v>       0.24999717       0.24999721       0.46905300 </v>
    <v>       0.41666460       0.08333344       0.46905272 </v>
    <v>       0.24999913       0.74999987       0.46905253 </v>
    <v>       0.41666669       0.58333231       0.46905284 </v>
    <v>       0.75000082       0.24999818       0.46905291 </v>
    <v>       0.91666685       0.08333215       0.46905319 </v>
    <v>       0.75000179       0.75000183       0.46905300 </v>
    <v>       0.91666556       0.58333440       0.46905272 </v>
   </varray>
  </structure>
  <varray name="forces" >
   <v>      -0.00106582      -0.00061834       0.00826411 </v>
   <v>       0.00107929       0.00062707       0.00828457 </v>
   <v>      -0.00106582       0.00061834       0.00826411 </v>
   <v>       0.00107929      -0.00062707       0.00828457 </v>
   <v>       0.00000110       0.00125262       0.00828828 </v>
   <v>       0.00000110      -0.00125262       0.00828828 </v>
   <v>      -0.00000391      -0.00000000       0.00743047 </v>
   <v>      -0.00000317      -0.00000000       0.01058246 </v>
   <v>      -0.00012406       0.00038767      -0.00839562 </v>
   <v>       0.00043972       0.00007990      -0.00852814 </v>
   <v>      -0.00001829       0.00000000      -0.00861745 </v>
   <v>      -0.00003725       0.00000000      -0.00847156 </v>
   <v>      -0.00052121      -0.00000000      -0.00843746 </v>
   <v>      -0.00007662       0.00000000      -0.00831286 </v>
   <v>      -0.00012406      -0.00038767      -0.00839562 </v>
   <v>       0.00043972      -0.00007990      -0.00852814 </v>
  </varray>
  <varray name="stress" >
   <v>       9.75947057       0.00000000      -0.00064987 </v>
   <v>      -0.00000000       9.75811154       0.00000000 </v>
   <v>      -0.00064988       0.00000000      -3.64552957 </v>
  </varray>
  <energy>
   <i name="e_fr_energy">   -125.63194641 </i>
   <i name="e_wo_entrp">   -125.62591307 </i>
   <i name="e_0_energy">   -125.62892974 </i>
  </energy>
  <time name="totalsc">   12.07   12.16</time>
 </calculation>
 <calculation>
  <scstep>
   <time name="dav">    4.21    4.25</time>
   <time name="total">    4.41    4.46</time>
   <energy>
    <i name="alphaZ">     60.66553501 </i>
    <i name="ewald">   1886.53203343 </i>
    <i name="hartreedc">  -3496.84238610 </i>
    <i name="XCdc">    168.48797285 </i>
    <i name="pawpsdc">   5843.36658190 </i>
    <i name="pawaedc">  -5842.75825630 </i>
    <i name="eentropy">     -0.00603335 </i>
    <i name="bandstr">   -490.08869855 </i>
    <i name="atom">   1746.50554237 </i>
    <i name="e_fr_energy">   -124.13770875 </i>
    <i name="e_wo_entrp">   -124.13167540 </i>
    <i name="e_0_energy">   -124.13469207 </i>
   </energy>
  </scstep>
  <scstep>
   <time name="dav">    4.82    4.86</time>
   <time name="total">    4.85    4.89</time>
   <energy>
    <i name="alphaZ">     60.66553501 </i>
    <i name="ewald">   1886.53203343 </i>
    <i name="hartreedc">  -3496.84321004 </i>
    <i name="XCdc">    168.48798393 </i>
    <i name="pawpsdc">   5843.37142538 </i>
    <i name="pawaedc">  -5842.76310100 </i>
    <i name="eentropy">     -0.00603342 </i>
    <i name="bandstr">   -490.08788444 </i>
    <i name="atom">   1746.50554237 </i>
    <i name="e_fr_energy">   -124.13770878 </i>
    <i name="e_wo_entrp">   -124.13167537 </i>
    <i name="e_0_energy">   -124.13469207 </i>
   </energy>
  </scstep>
  <structure>
   <crystal>
    <varray name="basis" >
     <v>       4.30501228       2.48550000       0.00000000 </v>
     <v>      -4.30501228       2.48550000       0.00000000 </v>
     <v>       0.00000000       0.00000000      15.00000000 </v>
    </varray>
    <i name="volume">    321.00324082 </i>
    <varray name="rec_basis" >
     <v>       0.11614369       0.20116677       0.00000000 </v>
     <v>      -0.11614369       0.20116677       0.00000000 </v>
     <v>       0.00000000       0.00000000       0.06666667 </v>
    </varray>
   </crystal>
   <varray name="positions" >
    <v>       0.66984976      -0.00000005       0.10001340 </v>
    <v>       0.33014932      -0.00000007       0.10001343 </v>
    <v>       0.00000005       0.33014924       0.10001340 </v>
    <v>       0.00000007       0.66984968       0.10001343 </v>
    <v>       0.33014917       0.33014913       0.10001344 </v>
    <v>       0.66984987       0.66984983       0.10001344 </v>
    <v>       0.66666605       0.33333295       0.09923223 </v>
    <v>       0.33333277       0.66666623       0.10079753 </v>
    <v>       0.24999717       0.24999721       0.46905302 </v>
    <v>       0.41666460       0.08333344       0.46905274 </v>
    <v>       0.24999913       0.74999987       0.46905254 </v>
    <v>       0.41666669       0.58333231       0.46905286 </v>
    <v>       0.75000082       0.24999818       0.46905293 </v>
    <v>       0.91666685       0.08333215       0.46905320 </v>
    <v>       0.75000179       0.75000183       0.46905302 </v>
    <v>       0.91666556       0.58333440       0.46905274 </v>
   </varray>
  </structure>
  <varray name="forces" >
   <v>      -0.00088328      -0.00051297       0.00826530 </v>
   <v>       0.00089678       0.00052166       0.00828581 </v>
   <v>      -0.00088328       0.00051297       0.00826530 </v>
   <v>       0.00089678      -0.00052166       0.00828581 </v>
   <v>       0.00000109       0.00104179       0.00828951 </v>
   <v>       0.00000109      -0.00104179       0.00828951 </v>
   <v>      -0.00000388      -0.00000000       0.00743165 </v>
   <v>      -0.00000324      -0.00000000       0.01058628 </v>
   <v>      -0.00012391       0.00038688      -0.00839710 </v>
   <v>       0.00043894       0.00007973      -0.00852969 </v>
   <v>      -0.00001834       0.00000000      -0.00861909 </v>
   <v>      -0.00003711       0.00000000      -0.00847316 </v>
   <v>      -0.00052028      -0.00000000      -0.00843907 </v>
   <v>      -0.00007638       0.00000000      -0.00831426 </v>
   <v>      -0.00012391      -0.00038688      -0.00839710 </v>
   <v>       0.00043894      -0.00007973      -0.00852969 </v>
  </varray>
  <varray name="stress" >
   <v>       9.76029572       0.00000000      -0.00064982 </v>
   <v>      -0.00000000       9.75893993       0.00000000 </v>
   <v>      -0.00064982       0.00000000      -3.64742618 </v>
  </varray>
  <energy>
   <i name="e_fr_energy">   -125.63194651 </i>
   <i name="e_wo_entrp">   -125.62591309 </i>
   <i name="e_0_energy">   -125.62892980 </i>
  </energy>
  <time name="totalsc">   12.35   12.46</time>
 </calculation>
 <calculation>
  <scstep>
   <time name="dav">    3.23    3.25</time>
   <time name="total">    3.44    3.47</time>
   <energy>
    <i name="alphaZ">     60.66553501 </i>
    <i name="ewald">   1887.16096693 </i>
    <i name="hartreedc">  -3497.47302158 </i>
    <i name="XCdc">    168.48799158 </i>
    <i name="pawpsdc">   5843.37459059 </i>
    <i name="pawaedc">  -5842.76626682 </i>
    <i name="eentropy">     -0.00603349 </i>
    <i name="bandstr">   -490.08702027 </i>
    <i name="atom">   1746.50554237 </i>
    <i name="e_fr_energy">   -124.13771569 </i>
    <i name="e_wo_entrp">   -124.13168219 </i>
    <i name="e_0_energy">   -124.13469894 </i>
   </energy>
  </scstep>
  <scstep>
   <time name="dav">    3.67    3.70</time>
   <time name="total">    3.87    3.91</time>
   <energy>
    <i name="e_fr_energy">   -124.13771463 </i>
    <i name="e_wo_entrp">   -124.13168087 </i>
    <i name="e_0_energy">   -124.13469775 </i>
   </energy>
  </scstep>
  <scstep>
   <time name="dav">    4.17    4.20</time>
   <time name="total">    4.21    4.24</time>
   <energy>
    <i name="alphaZ">     60.66553501 </i>
    <i name="ewald">   1887.16096693 </i>
    <i name="hartreedc">  -3497.48209240 </i>
    <i name="XCdc">    168.48801924 </i>
    <i name="pawpsdc">   5843.36809902 </i>
    <i name="pawaedc">  -5842.75977293 </i>
    <i name="eentropy">     -0.00603357 </i>
    <i name="bandstr">   -490.07797763 </i>
    <i name="atom">   1746.50554237 </i>
    <i name="e_fr_energy">   -124.13771397 </i>
    <i name="e_wo_entrp">   -124.13168040 </i>
    <i name="e_0_energy">   -124.13469718 </i>
   </energy>
  </scstep>
  <structure>
   <crystal>
    <varray name="basis" >
     <v>       4.30501228       2.48550000       0.00000000 </v>
     <v>      -4.30501228       2.48550000       0.00000000 </v>
     <v>       0.00000000       0.00000000      15.00000000 </v>
    </varray>
    <i name="volume">    321.00324082 </i>
    <varray name="rec_basis" >
     <v>       0.11614369       0.20116677       0.00000000 </v>
     <v>      -0.11614369       0.20116677       0.00000000 </v>
     <v>       0.00000000       0.00000000       0.06666667 </v>
    </varray>
   </crystal>
   <varray name="positions" >
    <v>       0.66984983      -0.00000008       0.10003748 </v>
    <v>       0.33014939      -0.00000004       0.10003758 </v>
    <v>       0.00000008       0.33014917       0.10003748 </v>
    <v>       0.00000004       0.66984961       0.10003758 </v>
    <v>       0.33014926       0.33014921       0.10003760 </v>
    <v>       0.66984979       0.66984974       0.10003760 </v>
    <v>       0.66666603       0.33333297       0.09925387 </v>
    <v>       0.33333275       0.66666625       0.10082839 </v>
    <v>       0.24999991       0.25000120       0.46902855 </v>
    <v>       0.41666750       0.08333193       0.46902788 </v>
    <v>       0.24999903       0.74999997       0.46902742 </v>
    <v>       0.41666651       0.58333249       0.46902817 </v>
    <v>       0.74999820       0.25000080       0.46902834 </v>
    <v>       0.91666647       0.08333253       0.46902897 </v>
    <v>       0.74999780       0.74999909       0.46902855 </v>
    <v>       0.91666707       0.58333150       0.46902788 </v>
   </varray>
  </structure>
  <varray name="forces" >
   <v>      -0.00086260      -0.00050599       0.00798185 </v>
   <v>       0.00087198       0.00049045       0.00800120 </v>
   <v>      -0.00086260       0.00050599       0.00798185 </v>
   <v>       0.00087198      -0.00049045       0.00800120 </v>
   <v>      -0.00000152       0.00099618       0.00800422 </v>
   <v>      -0.00000152      -0.00099618       0.00800422 </v>
   <v>       0.00000839      -0.00000000       0.00713772 </v>
   <v>      -0.00000456      -0.00000000       0.01032631 </v>
   <v>       0.00045170      -0.00092038      -0.00814281 </v>
   <v>      -0.00121186      -0.00019934      -0.00821665 </v>
   <v>       0.00018806       0.00000000      -0.00826284 </v>
   <v>      -0.00008425       0.00000000      -0.00819053 </v>
   <v>       0.00138459       0.00000000      -0.00817010 </v>
   <v>       0.00001234      -0.00000000      -0.00809618 </v>
   <v>       0.00045170       0.00092038      -0.00814281 </v>
   <v>      -0.00121186       0.00019934      -0.00821665 </v>
  </varray>
  <varray name="stress" >
   <v>       9.75825106       0.00000000      -0.00064875 </v>
   <v>      -0.00000000       9.76081541       0.00000000 </v>
   <v>      -0.00064876       0.00000000      -3.65220056 </v>
  </varray>
  <energy>
   <i name="e_fr_energy">   -125.63199690 </i>
   <i name="e_wo_entrp">   -125.62596333 </i>
   <i name="e_0_energy">   -125.62898012 </i>
  </energy>
  <time name="totalsc">   14.59   14.72</time>
 </calculation>
 <calculation>
  <scstep>
   <time name="dav">    3.25    3.27</time>
   <time name="total">    3.45    3.48</time>
   <energy>
    <i name="alphaZ">     60.66553501 </i>
    <i name="ewald">   1889.04917861 </i>
    <i name="hartreedc">  -3499.36834546 </i>
    <i name="XCdc">    168.48801027 </i>
    <i name="pawpsdc">   5843.37117459 </i>
    <i name="pawaedc">  -5842.76284814 </i>
    <i name="eentropy">     -0.00603359 </i>
    <i name="bandstr">   -490.07995781 </i>
    <i name="atom">   1746.50554237 </i>
    <i name="e_fr_energy">   -124.13774416 </i>
    <i name="e_wo_entrp">   -124.13171057 </i>
    <i name="e_0_energy">   -124.13472736 </i>
   </energy>
  </scstep>
  <scstep>
   <time name="dav">    3.50    3.53</time>
   <time name="total">    3.70    3.74</time>
   <energy>
    <i name="e_fr_energy">   -124.13773405 </i>
    <i name="e_wo_entrp">   -124.13169972 </i>
    <i name="e_0_energy">   -124.13471689 </i>
   </energy>
  </scstep>
  <scstep>
   <time name="dav">    5.02    5.05</time>
   <time name="total">    5.22    5.26</time>
   <energy>
    <i name="e_fr_energy">   -124.13772772 </i>
    <i name="e_wo_entrp">   -124.13169395 </i>
    <i name="e_0_energy">   -124.13471083 </i>
   </energy>
  </scstep>
  <scstep>
   <time name="dav">    3.73    3.75</time>
   <time name="total">    3.76    3.79</time>
   <energy>
    <i name="alphaZ">     60.66553501 </i>
    <i name="ewald">   1889.04917861 </i>
    <i name="hartreedc">  -3499.38371203 </i>
    <i name="XCdc">    168.48805647 </i>
    <i name="pawpsdc">   5843.36484953 </i>
    <i name="pawaedc">  -5842.75651617 </i>
    <i name="eentropy">     -0.00603356 </i>
    <i name="bandstr">   -490.06462838 </i>
    <i name="atom">   1746.50554237 </i>
    <i name="e_fr_energy">   -124.13772816 </i>
    <i name="e_wo_entrp">   -124.13169460 </i>
    <i name="e_0_energy">   -124.13471138 </i>
   </energy>
  </scstep>
  <structure>
   <crystal>
    <varray name="basis" >
     <v>       4.30501228       2.48550000       0.00000000 </v>
     <v>      -4.30501228       2.48550000       0.00000000 </v>
     <v>       0.00000000       0.00000000      15.00000000 </v>
    </varray>
    <i name="volume">    321.00324082 </i>
    <varray name="rec_basis" >
     <v>       0.11614369       0.20116677       0.00000000 </v>
     <v>      -0.11614369       0.20116677       0.00000000 </v>
     <v>       0.00000000       0.00000000       0.06666667 </v>
    </varray>
   </crystal>
   <varray name="positions" >
    <v>       0.66985006      -0.00000016       0.10010973 </v>
    <v>       0.33014960       0.00000006       0.10011001 </v>
    <v>       0.00000016       0.33014894       0.10010973 </v>
    <v>      -0.00000006       0.66984940       0.10011001 </v>
    <v>       0.33014954       0.33014946       0.10011006 </v>
    <v>       0.66984954       0.66984946       0.10011006 </v>
    <v>       0.66666597       0.33333303       0.09931878 </v>
    <v>       0.33333270       0.66666630       0.10092100 </v>
    <v>       0.25000812       0.25001316       0.46895514 </v>
    <v>       0.41667619       0.08332740       0.46895332 </v>
    <v>       0.24999875       0.75000025       0.46895207 </v>
    <v>       0.41666595       0.58333305       0.46895410 </v>
    <v>       0.74999036       0.25000864       0.46895456 </v>
    <v>       0.91666533       0.08333367       0.46895629 </v>
    <v>       0.74998584       0.74999088       0.46895514 </v>
    <v>       0.91667160       0.58332281       0.46895332 </v>
   </varray>
  </structure>
  <varray name="forces" >
   <v>      -0.00089523      -0.00054645       0.00833019 </v>
   <v>       0.00089786       0.00045399       0.00834546 </v>
   <v>      -0.00089523       0.00054645       0.00833019 </v>
   <v>       0.00089786      -0.00045399       0.00834546 </v>
   <v>      -0.00001591       0.00097362       0.00834649 </v>
   <v>      -0.00001591      -0.00097362       0.00834649 </v>
   <v>       0.00004949       0.00000000       0.00729730 </v>
   <v>      -0.00000064       0.00000000       0.01055017 </v>
   <v>       0.00217345      -0.00466475      -0.00853164 </v>
   <v>      -0.00605836      -0.00096607      -0.00843935 </v>
   <v>       0.00089809       0.00000000      -0.00836062 </v>
   <v>      -0.00027760       0.00000000      -0.00848989 </v>
   <v>       0.00698258      -0.00000000      -0.00850974 </v>
   <v>       0.00014445       0.00000000      -0.00858952 </v>
   <v>       0.00217345       0.00466475      -0.00853164 </v>
   <v>      -0.00605836       0.00096607      -0.00843935 </v>
  </varray>
  <varray name="stress" >
   <v>       9.75029451       0.00000000      -0.00065478 </v>
   <v>      -0.00000000       9.76845561       0.00000000 </v>
   <v>      -0.00065479       0.00000000      -3.65676396 </v>
  </varray>
  <energy>
   <i name="e_fr_energy">   -125.63214691 </i>
   <i name="e_wo_entrp">   -125.62611335 </i>
   <i name="e_0_energy">   -125.62913013 </i>
  </energy>
  <time name="totalsc">   19.22   19.39</time>
 </calculation>
 <calculation>
  <scstep>
   <time name="dav">    3.24    3.26</time>
   <time name="total">    3.44    3.48</time>
   <energy>
    <i name="alphaZ">     60.66553501 </i>
    <i name="ewald">   1892.83195126 </i>
    <i name="hartreedc">  -3503.16009361 </i>
    <i name="XCdc">    168.48804180 </i>
    <i name="pawpsdc">   5843.36644205 </i>
    <i name="pawaedc">  -5842.75811174 </i>
    <i name="eentropy">     -0.00603359 </i>
    <i name="bandstr">   -490.07108955 </i>
    <i name="atom">   1746.50554237 </i>
    <i name="e_fr_energy">   -124.13781600 </i>
    <i name="e_wo_entrp">   -124.13178242 </i>
    <i name="e_0_energy">   -124.13479921 </i>
   </energy>
  </scstep>
  <scstep>
   <time name="dav">    3.52    3.54</time>
   <time name="total">    3.72    3.76</time>
   <energy>
    <i name="e_fr_energy">   -124.13777871 </i>
    <i name="e_wo_entrp">   -124.13174367 </i>
    <i name="e_0_energy">   -124.13476119 </i>
   </energy>
  </scstep>
  <scstep>
   <time name="dav">    4.69    4.72</time>
   <time name="total">    4.89    4.93</time>
   <energy>
    <i name="e_fr_energy">   -124.13775027 </i>
    <i name="e_wo_entrp">   -124.13171630 </i>
    <i name="e_0_energy">   -124.13473329 </i>
   </energy>
  </scstep>
  <scstep>
   <time name="dav">    4.57    4.59</time>
   <time name="total">    4.78    4.82</time>
   <energy>
    <i name="e_fr_energy">   -124.13775153 </i>
    <i name="e_wo_entrp">   -124.13171798 </i>
    <i name="e_0_energy">   -124.13473475 </i>
   </energy>
  </scstep>
  <scstep>
   <time name="dav">    3.62    3.65</time>
   <time name="total">    3.66    3.68</time>
   <energy>
    <i name="alphaZ">     60.66553501 </i>
    <i name="ewald">   1892.83195126 </i>
    <i name="hartreedc">  -3503.17679918 </i>
    <i name="XCdc">    168.48811464 </i>
    <i name="pawpsdc">   5843.35568698 </i>
    <i name="pawaedc">  -5842.74734981 </i>
    <i name="eentropy">     -0.00603347 </i>
    <i name="bandstr">   -490.05440004 </i>
    <i name="atom">   1746.50554237 </i>
    <i name="e_fr_energy">   -124.13775225 </i>
    <i name="e_wo_entrp">   -124.13171878 </i>
    <i name="e_0_energy">   -124.13473552 </i>
   </energy>
  </scstep>
  <structure>
   <crystal>
    <varray name="basis" >
     <v>       4.30501228       2.48550000       0.00000000 </v>
     <v>      -4.30501228       2.48550000       0.00000000 </v>
     <v>       0.00000000       0.00000000      15.00000000 </v>
    </varray>
    <i name="volume">    321.00324082 </i>
    <varray name="rec_basis" >
     <v>       0.11614369       0.20116677       0.00000000 </v>
     <v>      -0.11614369       0.20116677       0.00000000 </v>
     <v>       0.00000000       0.00000000       0.06666667 </v>
    </varray>
   </crystal>
   <varray name="positions" >
    <v>       0.66985052      -0.00000032       0.10025424 </v>
    <v>       0.33015001       0.00000026       0.10025487 </v>
    <v>       0.00000032       0.33014848       0.10025424 </v>
    <v>      -0.00000026       0.66984899       0.10025487 </v>
    <v>       0.33015011       0.33014995       0.10025498 </v>
    <v>       0.66984905       0.66984889       0.10025498 </v>
    <v>       0.66666586       0.33333314       0.09944862 </v>
    <v>       0.33333258       0.66666642       0.10110620 </v>
    <v>       0.25002455       0.25003708       0.46880834 </v>
    <v>       0.41669358       0.08331832       0.46880419 </v>
    <v>       0.24999818       0.75000082       0.46880138 </v>
    <v>       0.41666485       0.58333415       0.46880596 </v>
    <v>       0.74997468       0.25002432       0.46880702 </v>
    <v>       0.91666304       0.08333596       0.46881094 </v>
    <v>       0.74996192       0.74997445       0.46880834 </v>
    <v>       0.91668068       0.58330542       0.46880419 </v>
   </varray>
  </structure>
  <varray name="forces" >
   <v>      -0.00096451      -0.00061284       0.00832561 </v>
   <v>       0.00093691       0.00038974       0.00833237 </v>
   <v>      -0.00096451       0.00061284       0.00832561 </v>
   <v>       0.00093691      -0.00038974       0.00833237 </v>
   <v>      -0.00002906       0.00092287       0.00833017 </v>
[...]
       <r>     2.5727     1.3230    31.2508 </r>
       <r>     2.6758     1.9589    31.4528 </r>
       <r>     2.7789     1.7250    31.6307 </r>
       <r>     2.8820     1.5001    31.7854 </r>
       <r>     2.9851     1.1321    31.9021 </r>
       <r>     3.0882     1.1702    32.0228 </r>
       <r>     3.1913     2.1793    32.2475 </r>
       <r>     3.2945     2.5581    32.5113 </r>
       <r>     3.3976     2.3106    32.7495 </r>
       <r>     3.5007     1.7000    32.9248 </r>
       <r>     3.6038     2.3193    33.1639 </r>
       <r>     3.7069     2.9942    33.4727 </r>
       <r>     3.8100     2.5344    33.7340 </r>
       <r>     3.9131     2.4864    33.9904 </r>
       <r>     4.0162     2.2677    34.2242 </r>
       <r>     4.1193     2.3300    34.4645 </r>
       <r>     4.2225     2.7778    34.7509 </r>
       <r>     4.3256     3.3632    35.0977 </r>
       <r>     4.4287     2.9807    35.4050 </r>
       <r>     4.5318     2.1810    35.6299 </r>
       <r>     4.6349     2.9492    35.9340 </r>
       <r>     4.7380     3.8662    36.3326 </r>
       <r>     4.8411     2.4180    36.5820 </r>
       <r>     4.9442     2.5388    36.8437 </r>
       <r>     5.0473     3.5316    37.2079 </r>
       <r>     5.1505     4.0742    37.6280 </r>
       <r>     5.2536     3.8097    38.0208 </r>
       <r>     5.3567     3.4938    38.3811 </r>
       <r>     5.4598     2.6693    38.6563 </r>
       <r>     5.5629     3.0890    38.9748 </r>
       <r>     5.6660     3.7912    39.3657 </r>
       <r>     5.7691     3.3679    39.7130 </r>
       <r>     5.8722     2.8225    40.0040 </r>
       <r>     5.9754     2.4418    40.2558 </r>
       <r>     6.0785     2.8523    40.5499 </r>
       <r>     6.1816     3.1237    40.8720 </r>
       <r>     6.2847     2.3363    41.1129 </r>
       <r>     6.3878     2.4887    41.3695 </r>
       <r>     6.4909     2.6922    41.6471 </r>
       <r>     6.5940     2.9950    41.9559 </r>
       <r>     6.6971     3.4509    42.3118 </r>
       <r>     6.8002     3.8874    42.7126 </r>
       <r>     6.9034     3.7055    43.0947 </r>
       <r>     7.0065     3.5503    43.4608 </r>
       <r>     7.1096     3.2335    43.7942 </r>
       <r>     7.2127     3.7383    44.1796 </r>
       <r>     7.3158     4.1260    44.6051 </r>
       <r>     7.4189     4.9921    45.1198 </r>
       <r>     7.5220     5.3370    45.6701 </r>
       <r>     7.6251     4.0180    46.0844 </r>
       <r>     7.7283     3.8059    46.4768 </r>
       <r>     7.8314     4.6060    46.9518 </r>
       <r>     7.9345     4.0928    47.3738 </r>
       <r>     8.0376     2.7939    47.6619 </r>
       <r>     8.1407     2.0866    47.8770 </r>
       <r>     8.2438     1.0025    47.9804 </r>
       <r>     8.3469     0.1400    47.9948 </r>
       <r>     8.4500     0.0381    47.9988 </r>
       <r>     8.5531     0.0113    47.9999 </r>
       <r>     8.6563     0.0006    48.0000 </r>
       <r>     8.7594     0.0000    48.0000 </r>
       <r>     8.8625     0.0000    48.0000 </r>
       <r>     8.9656     0.0000    48.0000 </r>
       <r>     9.0687     0.0000    48.0000 </r>
       <r>     9.1718     0.0000    48.0000 </r>
       <r>     9.2749     0.0000    48.0000 </r>
       <r>     9.3780     0.0000    48.0000 </r>
       <r>     9.4812     0.0000    48.0000 </r>
       <r>     9.5843     0.0000    48.0000 </r>
       <r>     9.6874     0.0000    48.0000 </r>
       <r>     9.7905     0.0000    48.0000 </r>
      </set>
      <set comment="spin 2">
       <r>   -21.1430     0.0000     0.0000 </r>
       <r>   -21.0399     0.0000     0.0000 </r>
       <r>   -20.9368     0.0000     0.0000 </r>
       <r>   -20.8337     0.0000     0.0000 </r>
       <r>   -20.7306     0.0000     0.0000 </r>
       <r>   -20.6275     0.0000     0.0000 </r>
       <r>   -20.5243     0.0000     0.0000 </r>
       <r>   -20.4212     0.0000     0.0000 </r>
       <r>   -20.3181     0.0000     0.0000 </r>
       <r>   -20.2150     0.0000     0.0000 </r>
       <r>   -20.1119     0.0000     0.0000 </r>
       <r>   -20.0088     0.0000     0.0000 </r>
       <r>   -19.9057     0.0012     0.0001 </r>
       <r>   -19.8026     0.0396     0.0042 </r>
       <r>   -19.6995     0.2653     0.0316 </r>
       <r>   -19.5963     0.5496     0.0882 </r>
       <r>   -19.4932     0.6078     0.1509 </r>
       <r>   -19.3901     0.6524     0.2182 </r>
       <r>   -19.2870     0.5668     0.2766 </r>
       <r>   -19.1839     0.7122     0.3501 </r>
       <r>   -19.0808     0.5573     0.4075 </r>
       <r>   -18.9777     0.5940     0.4688 </r>
       <r>   -18.8746     0.7840     0.5496 </r>
       <r>   -18.7714     0.4948     0.6006 </r>
       <r>   -18.6683     0.5583     0.6582 </r>
       <r>   -18.5652     0.8131     0.7420 </r>
       <r>   -18.4621     0.6628     0.8104 </r>
       <r>   -18.3590     0.3884     0.8504 </r>
       <r>   -18.2559     0.6621     0.9187 </r>
       <r>   -18.1528     0.8878     1.0102 </r>
       <r>   -18.0497     0.5831     1.0704 </r>
       <r>   -17.9466     0.4809     1.1200 </r>
       <r>   -17.8434     0.4642     1.1678 </r>
       <r>   -17.7403     0.9428     1.2650 </r>
       <r>   -17.6372     0.7986     1.3474 </r>
       <r>   -17.5341     0.4274     1.3915 </r>
       <r>   -17.4310     0.4805     1.4410 </r>
       <r>   -17.3279     0.5914     1.5020 </r>
       <r>   -17.2248     0.9028     1.5951 </r>
       <r>   -17.1217     0.8276     1.6804 </r>
       <r>   -17.0185     0.5594     1.7381 </r>
       <r>   -16.9154     0.2934     1.7683 </r>
       <r>   -16.8123     0.5963     1.8298 </r>
       <r>   -16.7092     0.9235     1.9250 </r>
       <r>   -16.6061     0.8213     2.0097 </r>
       <r>   -16.5030     0.6753     2.0794 </r>
       <r>   -16.3999     0.5719     2.1383 </r>
       <r>   -16.2968     0.3381     2.1732 </r>
       <r>   -16.1937     0.4840     2.2231 </r>
       <r>   -16.0905     1.1710     2.3438 </r>
       <r>   -15.9874     0.9620     2.4430 </r>
       <r>   -15.8843     1.0978     2.5562 </r>
       <r>   -15.7812     1.2808     2.6883 </r>
       <r>   -15.6781     1.3499     2.8275 </r>
       <r>   -15.5750     1.2565     2.9571 </r>
       <r>   -15.4719     1.6839     3.1307 </r>
       <r>   -15.3688     2.1084     3.3481 </r>
       <r>   -15.2656     1.7003     3.5234 </r>
       <r>   -15.1625     1.6365     3.6921 </r>
       <r>   -15.0594     1.7874     3.8764 </r>
       <r>   -14.9563     1.3494     4.0156 </r>
       <r>   -14.8532     1.2231     4.1417 </r>
       <r>   -14.7501     1.3378     4.2796 </r>
       <r>   -14.6470     1.3894     4.4229 </r>
       <r>   -14.5439     1.0831     4.5346 </r>
       <r>   -14.4408     1.2024     4.6586 </r>
       <r>   -14.3376     1.0196     4.7637 </r>
       <r>   -14.2345     1.2161     4.8891 </r>
       <r>   -14.1314     1.9652     5.0917 </r>
       <r>   -14.0283     1.6263     5.2594 </r>
       <r>   -13.9252     0.8374     5.3457 </r>
       <r>   -13.8221     0.6766     5.4155 </r>
       <r>   -13.7190     0.5325     5.4704 </r>
       <r>   -13.6159     0.5409     5.5262 </r>
       <r>   -13.5128     0.9708     5.6263 </r>
       <r>   -13.4096     1.1517     5.7450 </r>
       <r>   -13.3065     0.8657     5.8343 </r>
       <r>   -13.2034     0.7762     5.9143 </r>
       <r>   -13.1003     0.9671     6.0141 </r>
       <r>   -12.9972     1.0652     6.1239 </r>
       <r>   -12.8941     0.7861     6.2050 </r>
       <r>   -12.7910     1.0540     6.3136 </r>
       <r>   -12.6879     1.1614     6.4334 </r>
       <r>   -12.5847     1.3521     6.5728 </r>
       <r>   -12.4816     1.8388     6.7624 </r>
       <r>   -12.3785     1.4465     6.9116 </r>
       <r>   -12.2754     1.7602     7.0931 </r>
       <r>   -12.1723     1.6450     7.2627 </r>
       <r>   -12.0692     1.6394     7.4317 </r>
       <r>   -11.9661     2.5797     7.6977 </r>
       <r>   -11.8630     2.1658     7.9210 </r>
       <r>   -11.7599     1.4688     8.0725 </r>
       <r>   -11.6567     1.3670     8.2134 </r>
       <r>   -11.5536     1.2095     8.3382 </r>
       <r>   -11.4505     1.0259     8.4439 </r>
       <r>   -11.3474     0.6161     8.5075 </r>
       <r>   -11.2443     0.4263     8.5514 </r>
       <r>   -11.1412     0.6353     8.6169 </r>
       <r>   -11.0381     0.6868     8.6878 </r>
       <r>   -10.9350     0.7501     8.7651 </r>
       <r>   -10.8318     0.9589     8.8640 </r>
       <r>   -10.7287     1.2777     8.9957 </r>
       <r>   -10.6256     1.1551     9.1148 </r>
       <r>   -10.5225     1.7508     9.2953 </r>
       <r>   -10.4194     2.6424     9.5678 </r>
       <r>   -10.3163     1.9214     9.7659 </r>
       <r>   -10.2132     0.8932     9.8580 </r>
       <r>   -10.1101     0.5494     9.9147 </r>
       <r>   -10.0070     1.4043    10.0595 </r>
       <r>    -9.9038     2.2204    10.2884 </r>
       <r>    -9.8007     1.3084    10.4233 </r>
       <r>    -9.6976     0.6618    10.4916 </r>
       <r>    -9.5945     0.9426    10.5887 </r>
       <r>    -9.4914     1.8777    10.7824 </r>
       <r>    -9.3883     2.3037    11.0199 </r>
       <r>    -9.2852     2.0525    11.2315 </r>
       <r>    -9.1821     2.4209    11.4812 </r>
       <r>    -9.0789     1.8113    11.6679 </r>
       <r>    -8.9758     1.2213    11.7939 </r>
       <r>    -8.8727     1.9867    11.9987 </r>
       <r>    -8.7696     2.5327    12.2599 </r>
       <r>    -8.6665     1.6346    12.4284 </r>
       <r>    -8.5634     1.0519    12.5369 </r>
       <r>    -8.4603     1.8490    12.7275 </r>
       <r>    -8.3572     2.6877    13.0046 </r>
       <r>    -8.2541     2.0190    13.2128 </r>
       <r>    -8.1509     1.0631    13.3224 </r>
       <r>    -8.0478     1.8956    13.5179 </r>
       <r>    -7.9447     1.7075    13.6940 </r>
       <r>    -7.8416     2.1188    13.9124 </r>
       <r>    -7.7385     3.4047    14.2635 </r>
       <r>    -7.6354     2.4160    14.5126 </r>
       <r>    -7.5323     1.7236    14.6904 </r>
       <r>    -7.4292     1.8337    14.8794 </r>
       <r>    -7.3261     2.4637    15.1335 </r>
       <r>    -7.2229     2.5294    15.3943 </r>
       <r>    -7.1198     1.9914    15.5996 </r>
       <r>    -7.0167     1.9062    15.7962 </r>
       <r>    -6.9136     2.3089    16.0343 </r>
       <r>    -6.8105     3.0000    16.3436 </r>
       <r>    -6.7074     3.2650    16.6803 </r>
       <r>    -6.6043     3.6768    17.0594 </r>
       <r>    -6.5012     3.5508    17.4255 </r>
       <r>    -6.3980     3.4259    17.7788 </r>
       <r>    -6.2949     3.2330    18.1121 </r>
       <r>    -6.1918     2.7020    18.3907 </r>
       <r>    -6.0887     2.1123    18.6085 </r>
       <r>    -5.9856     2.0729    18.8223 </r>
       <r>    -5.8825     1.9025    19.0184 </r>
       <r>    -5.7794     2.1017    19.2351 </r>
       <r>    -5.6763     2.6148    19.5048 </r>
       <r>    -5.5732     1.7165    19.6818 </r>
       <r>    -5.4700     0.9165    19.7763 </r>
       <r>    -5.3669     1.7423    19.9559 </r>
       <r>    -5.2638     2.5841    20.2224 </r>
       <r>    -5.1607     2.2065    20.4499 </r>
       <r>    -5.0576     1.4514    20.5995 </r>
       <r>    -4.9545     1.8766    20.7930 </r>
       <r>    -4.8514     2.3584    21.0362 </r>
       <r>    -4.7483     1.6320    21.2045 </r>
       <r>    -4.6451     1.2389    21.3322 </r>
       <r>    -4.5420     1.6297    21.5003 </r>
       <r>    -4.4389     2.5115    21.7592 </r>
       <r>    -4.3358     2.5452    22.0217 </r>
       <r>    -4.2327     2.2942    22.2582 </r>
       <r>    -4.1296     2.3338    22.4989 </r>
       <r>    -4.0265     2.5033    22.7570 </r>
       <r>    -3.9234     2.9375    23.0599 </r>
       <r>    -3.8203     3.1945    23.3893 </r>
       <r>    -3.7171     3.5511    23.7554 </r>
       <r>    -3.6140     3.6136    24.1280 </r>
       <r>    -3.5109     2.8426    24.4211 </r>
       <r>    -3.4078     1.9247    24.6196 </r>
       <r>    -3.3047     1.6399    24.7887 </r>
       <r>    -3.2016     1.6526    24.9591 </r>
       <r>    -3.0985     1.3783    25.1012 </r>
       <r>    -2.9954     1.7305    25.2797 </r>
       <r>    -2.8922     2.0224    25.4882 </r>
       <r>    -2.7891     1.4579    25.6385 </r>
       <r>    -2.6860     1.1166    25.7537 </r>
       <r>    -2.5829     1.2271    25.8802 </r>
       <r>    -2.4798     2.2087    26.1079 </r>
       <r>    -2.3767     2.1734    26.3320 </r>
       <r>    -2.2736     0.9665    26.4317 </r>
       <r>    -2.1705     0.9707    26.5318 </r>
       <r>    -2.0674     1.2490    26.6606 </r>
       <r>    -1.9642     1.0479    26.7686 </r>
       <r>    -1.8611     1.0604    26.8779 </r>
       <r>    -1.7580     1.0935    26.9907 </r>
       <r>    -1.6549     0.9835    27.0921 </r>
       <r>    -1.5518     0.9548    27.1906 </r>
       <r>    -1.4487     1.2955    27.3241 </r>
       <r>    -1.3456     0.8428    27.4110 </r>
       <r>    -1.2425     0.6166    27.4746 </r>
       <r>    -1.1394     0.8652    27.5638 </r>
       <r>    -1.0362     0.8566    27.6522 </r>
       <r>    -0.9331     0.8738    27.7423 </r>
       <r>    -0.8300     0.6524    27.8095 </r>
       <r>    -0.7269     0.2922    27.8397 </r>
       <r>    -0.6238     0.1447    27.8546 </r>
       <r>    -0.5207     0.4074    27.8966 </r>
       <r>    -0.4176     0.5232    27.9505 </r>
       <r>    -0.3145     0.3592    27.9876 </r>
       <r>    -0.2113     0.3385    28.0225 </r>
       <r>    -0.1082     0.4242    28.0662 </r>
       <r>    -0.0051     0.4198    28.1095 </r>
       <r>     0.0980     0.3808    28.1488 </r>
       <r>     0.2011     0.7710    28.2283 </r>
       <r>     0.3042     1.2014    28.3522 </r>
       <r>     0.4073     1.4144    28.4980 </r>
       <r>     0.5104     1.3608    28.6383 </r>
       <r>     0.6135     0.8878    28.7298 </r>
       <r>     0.7167     0.6796    28.7999 </r>
       <r>     0.8198     1.3055    28.9345 </r>
       <r>     0.9229     1.2048    29.0588 </r>
       <r>     1.0260     0.6234    29.1230 </r>
       <r>     1.1291     0.8109    29.2067 </r>
       <r>     1.2322     1.8702    29.3995 </r>
       <r>     1.3353     2.2943    29.6361 </r>
       <r>     1.4384     1.8461    29.8264 </r>
       <r>     1.5416     1.4784    29.9789 </r>
       <r>     1.6447     0.9730    30.0792 </r>
       <r>     1.7478     0.9092    30.1729 </r>
       <r>     1.8509     1.3946    30.3167 </r>
       <r>     1.9540     1.3412    30.4550 </r>
       <r>     2.0571     1.8110    30.6417 </r>
       <r>     2.1602     1.4432    30.7906 </r>
       <r>     2.2633     1.2262    30.9170 </r>
       <r>     2.3664     1.2261    31.0434 </r>
       <r>     2.4696     0.6887    31.1144 </r>
       <r>     2.5727     1.3230    31.2508 </r>
       <r>     2.6758     1.9589    31.4528 </r>
       <r>     2.7789     1.7250    31.6307 </r>
       <r>     2.8820     1.5001    31.7854 </r>
       <r>     2.9851     1.1322    31.9021 </r>
       <r>     3.0882     1.1703    32.0228 </r>
       <r>     3.1913     2.1795    32.2475 </r>
       <r>     3.2945     2.5582    32.5113 </r>
       <r>     3.3976     2.3104    32.7495 </r>
       <r>     3.5007     1.6999    32.9248 </r>
       <r>     3.6038     2.3193    33.1640 </r>
       <r>     3.7069     2.9939    33.4727 </r>
       <r>     3.8100     2.5344    33.7340 </r>
       <r>     3.9131     2.4867    33.9904 </r>
       <r>     4.0162     2.2678    34.2242 </r>
       <r>     4.1193     2.3299    34.4645 </r>
       <r>     4.2225     2.7773    34.7509 </r>
       <r>     4.3256     3.3635    35.0977 </r>
       <r>     4.4287     2.9811    35.4050 </r>
       <r>     4.5318     2.1812    35.6300 </r>
       <r>     4.6349     2.9493    35.9341 </r>
       <r>     4.7380     3.8660    36.3327 </r>
       <r>     4.8411     2.4192    36.5821 </r>
       <r>     4.9442     2.5398    36.8440 </r>
       <r>     5.0473     3.5314    37.2081 </r>
       <r>     5.1505     4.0745    37.6283 </r>
       <r>     5.2536     3.8106    38.0212 </r>
       <r>     5.3567     3.4929    38.3813 </r>
       <r>     5.4598     2.6692    38.6566 </r>
       <r>     5.5629     3.0899    38.9752 </r>
       <r>     5.6660     3.7893    39.3659 </r>
       <r>     5.7691     3.3672    39.7131 </r>
       <r>     5.8722     2.8233    40.0042 </r>
       <r>     5.9754     2.4433    40.2561 </r>
       <r>     6.0785     2.8543    40.5505 </r>
       <r>     6.1816     3.1210    40.8723 </r>
       <r>     6.2847     2.3346    41.1130 </r>
       <r>     6.3878     2.4886    41.3696 </r>
       <r>     6.4909     2.6937    41.6473 </r>
       <r>     6.5940     2.9974    41.9564 </r>
       <r>     6.6971     3.4497    42.3121 </r>
       <r>     6.8002     3.8865    42.7129 </r>
       <r>     6.9034     3.7046    43.0948 </r>
       <r>     7.0065     3.5507    43.4610 </r>
       <r>     7.1096     3.2349    43.7945 </r>
       <r>     7.2127     3.7389    44.1800 </r>
       <r>     7.3158     4.1256    44.6054 </r>
       <r>     7.4189     4.9924    45.1202 </r>
       <r>     7.5220     5.3360    45.6704 </r>
       <r>     7.6251     4.0174    46.0847 </r>
       <r>     7.7283     3.8069    46.4772 </r>
       <r>     7.8314     4.6058    46.9521 </r>
       <r>     7.9345     4.0921    47.3740 </r>
       <r>     8.0376     2.7927    47.6620 </r>
       <r>     8.1407     2.0865    47.8771 </r>
       <r>     8.2438     1.0017    47.9804 </r>
       <r>     8.3469     0.1398    47.9948 </r>
       <r>     8.4500     0.0381    47.9988 </r>
       <r>     8.5531     0.0113    47.9999 </r>
       <r>     8.6563     0.0006    48.0000 </r>
       <r>     8.7594     0.0000    48.0000 </r>
       <r>     8.8625     0.0000    48.0000 </r>
       <r>     8.9656     0.0000    48.0000 </r>
       <r>     9.0687     0.0000    48.0000 </r>
       <r>     9.1718     0.0000    48.0000 </r>
       <r>     9.2749     0.0000    48.0000 </r>
       <r>     9.3780     0.0000    48.0000 </r>
       <r>     9.4812     0.0000    48.0000 </r>
       <r>     9.5843     0.0000    48.0000 </r>
       <r>     9.6874     0.0000    48.0000 </r>
       <r>     9.7905     0.0000    48.0000 </r>
      </set>
     </set>
    </array>
   </total>
  </dos>
 </calculation>
 <structure name="finalpos" >
  <crystal>
   <varray name="basis" >
    <v>       4.30501228       2.48550000       0.00000000 </v>
    <v>      -4.30501228       2.48550000       0.00000000 </v>
    <v>       0.00000000       0.00000000      15.00000000 </v>
   </varray>
   <i name="volume">    321.00324082 </i>
   <varray name="rec_basis" >
    <v>       0.11614369       0.20116677       0.00000000 </v>
    <v>      -0.11614369       0.20116677       0.00000000 </v>
    <v>       0.00000000       0.00000000       0.06666667 </v>
   </varray>
  </crystal>
  <varray name="positions" >
   <v>       0.67445239      -0.00590167       0.16807682 </v>
   <v>       0.33708451      -0.00578918       0.16819850 </v>
   <v>       0.00590167       0.32554661       0.16807682 </v>
   <v>       0.00578918       0.66291449       0.16819850 </v>
   <v>       0.33678088       0.32551107       0.16652613 </v>
   <v>       0.67448793       0.66321812       0.16652613 </v>
   <v>       0.67200296       0.32799604       0.15577920 </v>
   <v>       0.33875947       0.66123953       0.18084185 </v>
   <v>       0.24436079       0.25560903       0.40122834 </v>
   <v>       0.41096915       0.08900995       0.40129615 </v>
   <v>       0.24436045       0.75563855       0.40124414 </v>
   <v>       0.41102984       0.58896916       0.40127750 </v>
   <v>       0.74434710       0.25565190       0.40142891 </v>
   <v>       0.91095431       0.08904469       0.40130983 </v>
   <v>       0.74438997       0.75563821       0.40122834 </v>
   <v>       0.91098905       0.58902985       0.40129615 </v>
  </varray>
 </structure>
</modeling>
