  15  15   0   4
  0.2011985E+02  0.4820000E-09  0.4820000E-09  0.1500000E-08  0.5000000E-15
  1.000000000000000E-004
  CAR 
 Lattice                                 
     10.39774234    -21.72842255  301     -0.21304043      1.00000000
    -21.728  0.0000E+00  0.0000E+00  0.0000E+00  0.0000E+00
    -21.621  0.0000E+00  0.0000E+00  0.0000E+00  0.0000E+00
    -21.514  0.0000E+00  0.0000E+00  0.0000E+00  0.0000E+00
    -21.407  0.0000E+00  0.0000E+00  0.0000E+00  0.0000E+00
    -21.300  0.0000E+00  0.0000E+00  0.0000E+00  0.0000E+00
    -21.193  0.0000E+00  0.0000E+00  0.0000E+00  0.0000E+00
    -21.086  0.0000E+00  0.0000E+00  0.0000E+00  0.0000E+00
    -20.979  0.0000E+00  0.0000E+00  0.0000E+00  0.0000E+00
    -20.872  0.0000E+00  0.0000E+00  0.0000E+00  0.0000E+00
    -20.765  0.5928E-15  0.5928E-15  0.6348E-16  0.6348E-16
    -20.658  0.1074E-10  0.1074E-10  0.1150E-11  0.1150E-11
    -20.550  0.2306E-07  0.2306E-07  0.2471E-08  0.2471E-08
    -20.443  0.6469E-05  0.6469E-05  0.6952E-06  0.6952E-06
    -20.336  0.2655E-03  0.2654E-03  0.2912E-04  0.2912E-04
    -20.229  0.1952E-02  0.1952E-02  0.2381E-03  0.2381E-03
    -20.122  0.4114E-02  0.4114E-02  0.6787E-03  0.6787E-03
    -20.015  0.4467E-02  0.4467E-02  0.1157E-02  0.1157E-02
    -19.908  0.4903E-02  0.4903E-02  0.1682E-02  0.1682E-02
    -19.801  0.4096E-02  0.4096E-02  0.2121E-02  0.2121E-02
    -19.694  0.5320E-02  0.5320E-02  0.2690E-02  0.2690E-02
    -19.587  0.4238E-02  0.4238E-02  0.3144E-02  0.3144E-02
    -19.480  0.4107E-02  0.4107E-02  0.3584E-02  0.3584E-02
    -19.373  0.5975E-02  0.5975E-02  0.4224E-02  0.4224E-02
    -19.265  0.3911E-02  0.3911E-02  0.4643E-02  0.4643E-02
    -19.158  0.3670E-02  0.3670E-02  0.5036E-02  0.5036E-02
    -19.051  0.6015E-02  0.6015E-02  0.5680E-02  0.5680E-02
    -18.944  0.5299E-02  0.5299E-02  0.6247E-02  0.6247E-02
    -18.837  0.3073E-02  0.3073E-02  0.6576E-02  0.6576E-02
    -18.730  0.3948E-02  0.3948E-02  0.6999E-02  0.6999E-02
    -18.623  0.6899E-02  0.6899E-02  0.7738E-02  0.7738E-02
    -18.516  0.4745E-02  0.4745E-02  0.8246E-02  0.8246E-02
    -18.409  0.3831E-02  0.3831E-02  0.8657E-02  0.8657E-02
    -18.302  0.2837E-02  0.2837E-02  0.8960E-02  0.8960E-02
    -18.195  0.6084E-02  0.6084E-02  0.9612E-02  0.9612E-02
    -18.087  0.6897E-02  0.6897E-02  0.1035E-01  0.1035E-01
    -17.980  0.3860E-02  0.3860E-02  0.1076E-01  0.1076E-01
    -17.873  0.3039E-02  0.3039E-02  0.1109E-01  0.1109E-01
    -17.766  0.3986E-02  0.3986E-02  0.1152E-01  0.1152E-01
    -17.659  0.5689E-02  0.5689E-02  0.1213E-01  0.1213E-01
    -17.552  0.7057E-02  0.7057E-02  0.1288E-01  0.1288E-01
    -17.445  0.6626E-02  0.6626E-02  0.1359E-01  0.1359E-01
    -17.338  0.8111E-02  0.8111E-02  0.1446E-01  0.1446E-01
    -17.231  0.9904E-02  0.9904E-02  0.1552E-01  0.1552E-01
    -17.124  0.1429E-01  0.1429E-01  0.1705E-01  0.1705E-01
    -17.017  0.1626E-01  0.1626E-01  0.1879E-01  0.1879E-01
    -16.909  0.1852E-01  0.1852E-01  0.2078E-01  0.2078E-01
    -16.802  0.2113E-01  0.2113E-01  0.2304E-01  0.2304E-01
    -16.695  0.1355E-01  0.1355E-01  0.2449E-01  0.2449E-01
    -16.588  0.3337E-02  0.3337E-02  0.2485E-01  0.2485E-01
    -16.481  0.5485E-02  0.5485E-02  0.2543E-01  0.2543E-01
    -16.374  0.8884E-02  0.8884E-02  0.2639E-01  0.2639E-01
    -16.267  0.4963E-02  0.4963E-02  0.2692E-01  0.2692E-01
    -16.160  0.4246E-02  0.4246E-02  0.2737E-01  0.2737E-01
    -16.053  0.3699E-02  0.3699E-02  0.2777E-01  0.2777E-01
    -15.946  0.4067E-02  0.4067E-02  0.2820E-01  0.2820E-01
    -15.839  0.3108E-02  0.3108E-02  0.2854E-01  0.2854E-01
    -15.732  0.6619E-02  0.6619E-02  0.2924E-01  0.2924E-01
    -15.624  0.8877E-02  0.8877E-02  0.3020E-01  0.3020E-01
    -15.517  0.4796E-02  0.4796E-02  0.3071E-01  0.3071E-01
    -15.410  0.3743E-02  0.3743E-02  0.3111E-01  0.3111E-01
    -15.303  0.3310E-02  0.3310E-02  0.3146E-01  0.3146E-01
    -15.196  0.4002E-02  0.4002E-02  0.3189E-01  0.3189E-01
    -15.089  0.5829E-02  0.5829E-02  0.3252E-01  0.3252E-01
    -14.982  0.1083E-01  0.1083E-01  0.3368E-01  0.3368E-01
    -14.875  0.1755E-01  0.1755E-01  0.3556E-01  0.3556E-01
    -14.768  0.1950E-01  0.1950E-01  0.3764E-01  0.3764E-01
    -14.661  0.1614E-01  0.1614E-01  0.3937E-01  0.3937E-01
    -14.554  0.1239E-01  0.1239E-01  0.4070E-01  0.4070E-01
    -14.446  0.7963E-02  0.7963E-02  0.4155E-01  0.4155E-01
    -14.339  0.1136E-01  0.1136E-01  0.4277E-01  0.4277E-01
    -14.232  0.1576E-01  0.1576E-01  0.4446E-01  0.4446E-01
    -14.125  0.1439E-01  0.1439E-01  0.4600E-01  0.4600E-01
    -14.018  0.1097E-01  0.1097E-01  0.4717E-01  0.4717E-01
    -13.911  0.1236E-01  0.1236E-01  0.4850E-01  0.4850E-01
    -13.804  0.1862E-01  0.1862E-01  0.5049E-01  0.5049E-01
    -13.697  0.1837E-01  0.1837E-01  0.5246E-01  0.5246E-01
    -13.590  0.1761E-01  0.1761E-01  0.5434E-01  0.5434E-01
    -13.483  0.1219E-01  0.1219E-01  0.5565E-01  0.5565E-01
    -13.376  0.6774E-02  0.6774E-02  0.5637E-01  0.5637E-01
    -13.269  0.3481E-02  0.3481E-02  0.5675E-01  0.5675E-01
    -13.161  0.3270E-02  0.3270E-02  0.5710E-01  0.5710E-01
    -13.054  0.5756E-02  0.5756E-02  0.5771E-01  0.5771E-01
    -12.947  0.7359E-02  0.7359E-02  0.5850E-01  0.5850E-01
    -12.840  0.5127E-02  0.5127E-02  0.5905E-01  0.5905E-01
    -12.733  0.5667E-02  0.5667E-02  0.5966E-01  0.5966E-01
    -12.626  0.6858E-02  0.6858E-02  0.6039E-01  0.6039E-01
    -12.519  0.6155E-02  0.6155E-02  0.6105E-01  0.6105E-01
    -12.412  0.5541E-02  0.5541E-02  0.6164E-01  0.6164E-01
    -12.305  0.4099E-02  0.4099E-02  0.6208E-01  0.6208E-01
    -12.198  0.4380E-02  0.4380E-02  0.6255E-01  0.6255E-01
    -12.091  0.8214E-02  0.8214E-02  0.6343E-01  0.6343E-01
    -11.983  0.5129E-02  0.5129E-02  0.6398E-01  0.6398E-01
    -11.876  0.3014E-02  0.3014E-02  0.6430E-01  0.6430E-01
    -11.769  0.3562E-02  0.3562E-02  0.6469E-01  0.6469E-01
    -11.662  0.4078E-02  0.4078E-02  0.6512E-01  0.6512E-01
    -11.555  0.6873E-02  0.6873E-02  0.6586E-01  0.6586E-01
    -11.448  0.5704E-02  0.5704E-02  0.6647E-01  0.6647E-01
    -11.341  0.2195E-02  0.2195E-02  0.6670E-01  0.6670E-01
    -11.234  0.3192E-02  0.3192E-02  0.6705E-01  0.6705E-01
    -11.127  0.5703E-02  0.5703E-02  0.6766E-01  0.6766E-01
    -11.020  0.5840E-02  0.5840E-02  0.6828E-01  0.6828E-01
    -10.913  0.6781E-02  0.6781E-02  0.6901E-01  0.6901E-01
    -10.806  0.7257E-02  0.7257E-02  0.6979E-01  0.6979E-01
    -10.698  0.3707E-02  0.3707E-02  0.7018E-01  0.7018E-01
    -10.591  0.7131E-02  0.7131E-02  0.7095E-01  0.7095E-01
    -10.484  0.1274E-01  0.1274E-01  0.7231E-01  0.7231E-01
    -10.377  0.1474E-01  0.1474E-01  0.7389E-01  0.7389E-01
    -10.270  0.1619E-01  0.1619E-01  0.7562E-01  0.7562E-01
    -10.163  0.1600E-01  0.1600E-01  0.7733E-01  0.7733E-01
    -10.056  0.1624E-01  0.1624E-01  0.7907E-01  0.7907E-01
     -9.949  0.1611E-01  0.1611E-01  0.8080E-01  0.8080E-01
     -9.842  0.1067E-01  0.1067E-01  0.8194E-01  0.8194E-01
     -9.735  0.9671E-02  0.9671E-02  0.8298E-01  0.8298E-01
     -9.628  0.1335E-01  0.1335E-01  0.8441E-01  0.8441E-01
     -9.520  0.1124E-01  0.1124E-01  0.8561E-01  0.8561E-01
     -9.413  0.1512E-01  0.1512E-01  0.8723E-01  0.8723E-01
     -9.306  0.1955E-01  0.1955E-01  0.8932E-01  0.8932E-01
     -9.199  0.1490E-01  0.1490E-01  0.9092E-01  0.9092E-01
     -9.092  0.9803E-02  0.9803E-02  0.9197E-01  0.9197E-01
     -8.985  0.5917E-02  0.5917E-02  0.9260E-01  0.9260E-01
     -8.878  0.1343E-01  0.1343E-01  0.9404E-01  0.9404E-01
     -8.771  0.2301E-01  0.2301E-01  0.9650E-01  0.9650E-01
     -8.664  0.1536E-01  0.1536E-01  0.9815E-01  0.9815E-01
     -8.557  0.8224E-02  0.8224E-02  0.9903E-01  0.9903E-01
     -8.450  0.1022E-01  0.1022E-01  0.1001E+00  0.1001E+00
     -8.343  0.1818E-01  0.1817E-01  0.1021E+00  0.1021E+00
     -8.235  0.2000E-01  0.2000E-01  0.1042E+00  0.1042E+00
     -8.128  0.1313E-01  0.1313E-01  0.1056E+00  0.1056E+00
     -8.021  0.1486E-01  0.1486E-01  0.1072E+00  0.1072E+00
     -7.914  0.2269E-01  0.2269E-01  0.1096E+00  0.1096E+00
     -7.807  0.2359E-01  0.2359E-01  0.1122E+00  0.1122E+00
     -7.700  0.2200E-01  0.2200E-01  0.1145E+00  0.1145E+00
     -7.593  0.1314E-01  0.1314E-01  0.1159E+00  0.1159E+00
     -7.486  0.6815E-02  0.6815E-02  0.1167E+00  0.1167E+00
     -7.379  0.1498E-01  0.1498E-01  0.1183E+00  0.1183E+00
     -7.272  0.1861E-01  0.1861E-01  0.1203E+00  0.1203E+00
     -7.165  0.1272E-01  0.1272E-01  0.1216E+00  0.1216E+00
     -7.057  0.1233E-01  0.1233E-01  0.1229E+00  0.1229E+00
     -6.950  0.1573E-01  0.1573E-01  0.1246E+00  0.1246E+00
     -6.843  0.1759E-01  0.1759E-01  0.1265E+00  0.1265E+00
     -6.736  0.1765E-01  0.1765E-01  0.1284E+00  0.1284E+00
     -6.629  0.2193E-01  0.2193E-01  0.1307E+00  0.1307E+00
     -6.522  0.2228E-01  0.2228E-01  0.1331E+00  0.1331E+00
     -6.415  0.2155E-01  0.2155E-01  0.1354E+00  0.1354E+00
     -6.308  0.1721E-01  0.1721E-01  0.1373E+00  0.1373E+00
     -6.201  0.1698E-01  0.1698E-01  0.1391E+00  0.1391E+00
     -6.094  0.2269E-01  0.2269E-01  0.1415E+00  0.1415E+00
     -5.987  0.2721E-01  0.2721E-01  0.1444E+00  0.1444E+00
     -5.880  0.3014E-01  0.3014E-01  0.1477E+00  0.1477E+00
     -5.772  0.2508E-01  0.2508E-01  0.1504E+00  0.1504E+00
     -5.665  0.1949E-01  0.1949E-01  0.1524E+00  0.1524E+00
     -5.558  0.2236E-01  0.2236E-01  0.1548E+00  0.1548E+00
     -5.451  0.3016E-01  0.3016E-01  0.1581E+00  0.1581E+00
     -5.344  0.3178E-01  0.3178E-01  0.1615E+00  0.1615E+00
     -5.237  0.2430E-01  0.2430E-01  0.1641E+00  0.1641E+00
     -5.130  0.1726E-01  0.1726E-01  0.1659E+00  0.1659E+00
     -5.023  0.1094E-01  0.1094E-01  0.1671E+00  0.1671E+00
     -4.916  0.8087E-02  0.8087E-02  0.1680E+00  0.1680E+00
     -4.809  0.1287E-01  0.1287E-01  0.1693E+00  0.1693E+00
     -4.702  0.1380E-01  0.1380E-01  0.1708E+00  0.1708E+00
     -4.594  0.9285E-02  0.9285E-02  0.1718E+00  0.1718E+00
     -4.487  0.8474E-02  0.8474E-02  0.1727E+00  0.1727E+00
     -4.380  0.1196E-01  0.1196E-01  0.1740E+00  0.1740E+00
     -4.273  0.2219E-01  0.2219E-01  0.1764E+00  0.1764E+00
     -4.166  0.2309E-01  0.2309E-01  0.1788E+00  0.1788E+00
     -4.059  0.1843E-01  0.1843E-01  0.1808E+00  0.1808E+00
     -3.952  0.1926E-01  0.1926E-01  0.1829E+00  0.1829E+00
     -3.845  0.2497E-01  0.2497E-01  0.1856E+00  0.1856E+00
     -3.738  0.2021E-01  0.2021E-01  0.1877E+00  0.1877E+00
     -3.631  0.1897E-01  0.1897E-01  0.1898E+00  0.1898E+00
     -3.524  0.1899E-01  0.1899E-01  0.1918E+00  0.1918E+00
     -3.417  0.1706E-01  0.1706E-01  0.1936E+00  0.1936E+00
     -3.309  0.1203E-01  0.1203E-01  0.1949E+00  0.1949E+00
     -3.202  0.1350E-01  0.1350E-01  0.1963E+00  0.1963E+00
     -3.095  0.1856E-01  0.1856E-01  0.1983E+00  0.1983E+00
     -2.988  0.1732E-01  0.1732E-01  0.2002E+00  0.2002E+00
     -2.881  0.1252E-01  0.1252E-01  0.2015E+00  0.2015E+00
     -2.774  0.1254E-01  0.1254E-01  0.2029E+00  0.2029E+00
     -2.667  0.8574E-02  0.8574E-02  0.2038E+00  0.2038E+00
     -2.560  0.9582E-02  0.9582E-02  0.2048E+00  0.2048E+00
     -2.453  0.1601E-01  0.1601E-01  0.2065E+00  0.2065E+00
     -2.346  0.1751E-01  0.1751E-01  0.2084E+00  0.2084E+00
     -2.239  0.5398E-02  0.5398E-02  0.2090E+00  0.2090E+00
     -2.131  0.5323E-02  0.5323E-02  0.2096E+00  0.2096E+00
     -2.024  0.9882E-02  0.9882E-02  0.2106E+00  0.2106E+00
     -1.917  0.9175E-02  0.9175E-02  0.2116E+00  0.2116E+00
     -1.810  0.1024E-01  0.1024E-01  0.2127E+00  0.2127E+00
     -1.703  0.1075E-01  0.1075E-01  0.2138E+00  0.2138E+00
     -1.596  0.1026E-01  0.1026E-01  0.2149E+00  0.2149E+00
     -1.489  0.8874E-02  0.8874E-02  0.2159E+00  0.2159E+00
     -1.382  0.3618E-02  0.3618E-02  0.2163E+00  0.2163E+00
     -1.275  0.3922E-02  0.3922E-02  0.2167E+00  0.2167E+00
     -1.168  0.4712E-02  0.4712E-02  0.2172E+00  0.2172E+00
     -1.061  0.3014E-02  0.3014E-02  0.2175E+00  0.2175E+00
     -0.954  0.4483E-02  0.4483E-02  0.2180E+00  0.2180E+00
     -0.846  0.4568E-02  0.4568E-02  0.2185E+00  0.2185E+00
     -0.739  0.1237E-02  0.1237E-02  0.2186E+00  0.2186E+00
     -0.632  0.1044E-03  0.1044E-03  0.2186E+00  0.2186E+00
     -0.525  0.2415E-05  0.2415E-05  0.2186E+00  0.2186E+00
     -0.418  0.3792E-05  0.3792E-05  0.2186E+00  0.2186E+00
     -0.311  0.1645E-03  0.1645E-03  0.2187E+00  0.2187E+00
     -0.204  0.9492E-03  0.9492E-03  0.2188E+00  0.2188E+00
     -0.097  0.8074E-03  0.8074E-03  0.2188E+00  0.2188E+00
      0.010  0.1000E-03  0.1000E-03  0.2189E+00  0.2189E+00
      0.117  0.1609E-05  0.1609E-05  0.2189E+00  0.2189E+00
      0.224  0.8216E-06  0.8216E-06  0.2189E+00  0.2189E+00
      0.332  0.1003E-03  0.1003E-03  0.2189E+00  0.2189E+00
      0.439  0.1537E-02  0.1537E-02  0.2190E+00  0.2190E+00
      0.546  0.3327E-02  0.3327E-02  0.2194E+00  0.2194E+00
      0.653  0.1408E-02  0.1408E-02  0.2195E+00  0.2195E+00
      0.760  0.3311E-02  0.3311E-02  0.2199E+00  0.2199E+00
      0.867  0.6751E-02  0.6751E-02  0.2206E+00  0.2206E+00
      0.974  0.9649E-02  0.9649E-02  0.2217E+00  0.2217E+00
      1.081  0.2015E-01  0.2015E-01  0.2238E+00  0.2238E+00
      1.188  0.2144E-01  0.2144E-01  0.2261E+00  0.2261E+00
      1.295  0.7155E-02  0.7154E-02  0.2269E+00  0.2269E+00
      1.402  0.1940E-02  0.1940E-02  0.2271E+00  0.2271E+00
      1.510  0.4369E-02  0.4369E-02  0.2275E+00  0.2275E+00
      1.617  0.1190E-01  0.1190E-01  0.2288E+00  0.2288E+00
      1.724  0.1986E-01  0.1986E-01  0.2309E+00  0.2309E+00
      1.831  0.1488E-01  0.1488E-01  0.2325E+00  0.2325E+00
      1.938  0.9620E-02  0.9620E-02  0.2336E+00  0.2336E+00
      2.045  0.8097E-02  0.8097E-02  0.2344E+00  0.2344E+00
      2.152  0.1035E-01  0.1035E-01  0.2355E+00  0.2355E+00
      2.259  0.7762E-02  0.7762E-02  0.2364E+00  0.2364E+00
      2.366  0.8056E-02  0.8056E-02  0.2372E+00  0.2372E+00
      2.473  0.8297E-02  0.8296E-02  0.2381E+00  0.2381E+00
      2.580  0.5349E-02  0.5349E-02  0.2387E+00  0.2387E+00
      2.687  0.1053E-01  0.1053E-01  0.2398E+00  0.2398E+00
      2.795  0.1185E-01  0.1185E-01  0.2411E+00  0.2411E+00
      2.902  0.6727E-02  0.6724E-02  0.2418E+00  0.2418E+00
      3.009  0.8012E-02  0.8009E-02  0.2427E+00  0.2427E+00
      3.116  0.8733E-02  0.8735E-02  0.2436E+00  0.2436E+00
      3.223  0.1100E-01  0.1100E-01  0.2448E+00  0.2448E+00
      3.330  0.1054E-01  0.1054E-01  0.2459E+00  0.2459E+00
      3.437  0.1003E-01  0.1004E-01  0.2470E+00  0.2470E+00
      3.544  0.8185E-02  0.8182E-02  0.2479E+00  0.2479E+00
      3.651  0.1384E-01  0.1384E-01  0.2494E+00  0.2494E+00
      3.758  0.2234E-01  0.2234E-01  0.2517E+00  0.2517E+00
      3.865  0.2238E-01  0.2238E-01  0.2541E+00  0.2541E+00
      3.973  0.2013E-01  0.2013E-01  0.2563E+00  0.2563E+00
      4.080  0.2072E-01  0.2072E-01  0.2585E+00  0.2585E+00
      4.187  0.2262E-01  0.2262E-01  0.2609E+00  0.2609E+00
      4.294  0.2623E-01  0.2623E-01  0.2637E+00  0.2637E+00
      4.401  0.2499E-01  0.2500E-01  0.2664E+00  0.2664E+00
      4.508  0.2528E-01  0.2527E-01  0.2691E+00  0.2691E+00
      4.615  0.2535E-01  0.2535E-01  0.2718E+00  0.2718E+00
      4.722  0.2076E-01  0.2075E-01  0.2741E+00  0.2741E+00
      4.829  0.2248E-01  0.2248E-01  0.2765E+00  0.2765E+00
      4.936  0.2754E-01  0.2754E-01  0.2794E+00  0.2794E+00
      5.043  0.2586E-01  0.2586E-01  0.2822E+00  0.2822E+00
      5.150  0.2409E-01  0.2408E-01  0.2848E+00  0.2848E+00
      5.258  0.2460E-01  0.2462E-01  0.2874E+00  0.2874E+00
      5.365  0.1824E-01  0.1824E-01  0.2894E+00  0.2894E+00
      5.472  0.2192E-01  0.2191E-01  0.2917E+00  0.2917E+00
      5.579  0.2574E-01  0.2574E-01  0.2945E+00  0.2945E+00
      5.686  0.3100E-01  0.3100E-01  0.2978E+00  0.2978E+00
      5.793  0.2167E-01  0.2167E-01  0.3001E+00  0.3001E+00
      5.900  0.1669E-01  0.1669E-01  0.3019E+00  0.3019E+00
      6.007  0.1937E-01  0.1937E-01  0.3040E+00  0.3040E+00
      6.114  0.2247E-01  0.2248E-01  0.3064E+00  0.3064E+00
      6.221  0.2014E-01  0.2015E-01  0.3085E+00  0.3085E+00
      6.328  0.1639E-01  0.1639E-01  0.3103E+00  0.3103E+00
      6.436  0.1702E-01  0.1702E-01  0.3121E+00  0.3121E+00
      6.543  0.2435E-01  0.2435E-01  0.3147E+00  0.3147E+00
      6.650  0.2827E-01  0.2827E-01  0.3177E+00  0.3177E+00
      6.757  0.2058E-01  0.2058E-01  0.3200E+00  0.3199E+00
      6.864  0.2610E-01  0.2610E-01  0.3227E+00  0.3227E+00
      6.971  0.3145E-01  0.3144E-01  0.3261E+00  0.3261E+00
      7.078  0.2892E-01  0.2891E-01  0.3292E+00  0.3292E+00
      7.185  0.2642E-01  0.2643E-01  0.3320E+00  0.3320E+00
      7.292  0.2406E-01  0.2406E-01  0.3346E+00  0.3346E+00
      7.399  0.1759E-01  0.1761E-01  0.3365E+00  0.3365E+00
      7.506  0.1960E-01  0.1957E-01  0.3386E+00  0.3386E+00
      7.613  0.2701E-01  0.2700E-01  0.3415E+00  0.3415E+00
      7.721  0.2112E-01  0.2115E-01  0.3438E+00  0.3437E+00
      7.828  0.2183E-01  0.2182E-01  0.3461E+00  0.3461E+00
      7.935  0.2635E-01  0.2636E-01  0.3489E+00  0.3489E+00
      8.042  0.2836E-01  0.2837E-01  0.3519E+00  0.3519E+00
      8.149  0.3650E-01  0.3648E-01  0.3559E+00  0.3559E+00
      8.256  0.3264E-01  0.3265E-01  0.3594E+00  0.3593E+00
      8.363  0.2801E-01  0.2801E-01  0.3624E+00  0.3623E+00
      8.470  0.3091E-01  0.3088E-01  0.3657E+00  0.3657E+00
      8.577  0.3229E-01  0.3233E-01  0.3691E+00  0.3691E+00
      8.684  0.2621E-01  0.2624E-01  0.3719E+00  0.3719E+00
      8.791  0.1650E-01  0.1650E-01  0.3737E+00  0.3737E+00
      8.899  0.7791E-02  0.7796E-02  0.3745E+00  0.3745E+00
      9.006  0.3634E-02  0.3635E-02  0.3749E+00  0.3749E+00
      9.113  0.7414E-03  0.7416E-03  0.3750E+00  0.3750E+00
      9.220  0.2529E-04  0.2528E-04  0.3750E+00  0.3750E+00
      9.327  0.1120E-06  0.1119E-06  0.3750E+00  0.3750E+00
      9.434  0.5816E-10  0.5806E-10  0.3750E+00  0.3750E+00
      9.541  0.3340E-14  0.3332E-14  0.3750E+00  0.3750E+00
      9.648  0.0000E+00  0.0000E+00  0.3750E+00  0.3750E+00
      9.755  0.0000E+00  0.0000E+00  0.3750E+00  0.3750E+00
      9.862  0.0000E+00  0.0000E+00  0.3750E+00  0.3750E+00
      9.969  0.0000E+00  0.0000E+00  0.3750E+00  0.3750E+00
     10.076  0.0000E+00  0.0000E+00  0.3750E+00  0.3750E+00
     10.184  0.0000E+00  0.0000E+00  0.3750E+00  0.3750E+00
     10.291  0.0000E+00  0.0000E+00  0.3750E+00  0.3750E+00
     10.398  0.0000E+00  0.0000E+00  0.3750E+00  0.3750E+00
