Lattice                                 
           1
     4.174242    2.410000    0.000000
    -4.174242    2.410000    0.000000
     0.000000    0.000000   15.000000
   B    C 
     4    11
Direct configuration=     1
   0.00415361  0.00267210  0.12034134
   0.35695335  0.00285503  0.09748893
   0.00423858  0.35550699  0.09749256
   0.65142295  0.65006557  0.09747688
   0.32808646  0.32671938  0.10030508
   0.68027775  0.00278085  0.10027562
   0.00416530  0.67883808  0.10026559
   0.11111044  0.38888856  0.33726667
   0.27777744  0.22222156  0.33726667
   0.11111044  0.88888856  0.33726667
   0.27777744  0.72222156  0.33726667
   0.61111044  0.38888856  0.33726667
   0.77777744  0.22222156  0.33726667
   0.61111044  0.88888856  0.33726667
   0.77777744  0.72222156  0.33726667
Direct configuration=     2
   0.00417003  0.00270228  0.11923471
   0.35590607  0.00278911  0.09777460
   0.00418664  0.35468634  0.09783018
   0.65236025  0.65089320  0.09780087
   0.32527837  0.32374942  0.10030870
   0.68334934  0.00279533  0.10032156
   0.00422612  0.68166749  0.10027657
   0.11104130  0.38899277  0.33727789
   0.27792102  0.22235329  0.33734991
   0.11129744  0.88901259  0.33728730
   0.27796722  0.72221794  0.33720380
   0.61106964  0.38883593  0.33719903
   0.77773398  0.22226371  0.33728747
   0.61092735  0.88884358  0.33734004
   0.77741479  0.72207546  0.33728669
Direct configuration=     3
   0.00416162  0.00268684  0.11980101
   0.35644201  0.00282284  0.09762842
   0.00421322  0.35510630  0.09765741
   0.65188060  0.65046967  0.09763507
   0.32671538  0.32526926  0.10030685
   0.68177749  0.00278792  0.10029805
   0.00419500  0.68021957  0.10027095
   0.11107668  0.38893944  0.33727215
   0.27784755  0.22228588  0.33730731
   0.11120175  0.88894912  0.33727674
   0.27787011  0.72221979  0.33723597
   0.61109052  0.38886286  0.33723364
   0.77775622  0.22224214  0.33727682
   0.61102105  0.88886660  0.33730249
   0.77760037  0.72215022  0.33727644
Direct configuration=     4
   0.00417383  0.00272556  0.11877083
   0.35691627  0.00275223  0.09791119
   0.00420698  0.35558097  0.09799467
   0.65147258  0.64992646  0.09795757
   0.32683721  0.32526415  0.10028084
   0.68174665  0.00278264  0.10031440
   0.00424042  0.68014806  0.10025253
   0.11109025  0.38887707  0.33728605
   0.27767556  0.22224895  0.33738120
   0.11097543  0.88885803  0.33730104
   0.27765924  0.72226240  0.33718535
   0.61109341  0.38892328  0.33718147
   0.77773841  0.22222576  0.33729634
   0.61115338  0.88897585  0.33736911
   0.77786993  0.72232703  0.33729674
Direct configuration=     5
   0.00420790  0.00283370  0.11589434
   0.35824051  0.00255505  0.09870076
   0.00418957  0.35690637  0.09893638
   0.65033331  0.64840969  0.09885808
   0.32717741  0.32524987  0.10020822
   0.68166056  0.00276791  0.10036003
   0.00436726  0.67994839  0.10020111
   0.11112813  0.38870290  0.33732486
   0.27719534  0.22214583  0.33758750
   0.11034349  0.88860371  0.33736890
   0.27707047  0.72238138  0.33704400
   0.61110150  0.38909197  0.33703581
   0.77768866  0.22218002  0.33735083
   0.61152287  0.88928093  0.33755510
   0.77862259  0.72282072  0.33735340
Direct configuration=     6
   0.00421373  0.00283854  0.11555906
   0.35835235  0.00253798  0.09877755
   0.00419789  0.35700239  0.09902675
   0.65024894  0.64829082  0.09894471
   0.32725776  0.32530323  0.10021816
   0.68159720  0.00275744  0.10038138
   0.00437778  0.67988010  0.10021328
   0.11109325  0.38877196  0.33732922
   0.27727841  0.22216817  0.33760221
   0.11047331  0.88870605  0.33737620
   0.27718008  0.72237976  0.33703778
   0.61106892  0.38908427  0.33702993
   0.77768445  0.22221761  0.33735568
   0.61140567  0.88921890  0.33756860
   0.77841982  0.72272124  0.33735881
Direct configuration=     7
   0.00423121  0.00285305  0.11455322
   0.35868789  0.00248678  0.09900793
   0.00422287  0.35729044  0.09929788
   0.64999582  0.64793419  0.09920459
   0.32749879  0.32546329  0.10024799
   0.68140713  0.00272604  0.10044542
   0.00440937  0.67967520  0.10024977
   0.11098863  0.38897913  0.33734230
   0.27752762  0.22223520  0.33764636
   0.11086274  0.88901310  0.33739810
   0.27750890  0.72237487  0.33701910
   0.61097117  0.38906116  0.33701229
   0.77767184  0.22233039  0.33737024
   0.61105404  0.88903284  0.33760910
   0.77781153  0.72242278  0.33737505
Direct configuration=     8
   0.00426618  0.00288207  0.11254155
   0.35935896  0.00238436  0.09946869
   0.00427281  0.35786653  0.09984013
   0.64948958  0.64722094  0.09972436
   0.32798086  0.32578342  0.10030763
   0.68102699  0.00266323  0.10057349
   0.00447254  0.67926541  0.10032275
   0.11077938  0.38939349  0.33736847
   0.27802604  0.22236925  0.33773464
   0.11164162  0.88962720  0.33744190
   0.27816656  0.72236510  0.33698176
   0.61077569  0.38901493  0.33697700
   0.77764662  0.22255593  0.33739937
   0.61035079  0.88866070  0.33769009
   0.77659494  0.72182588  0.33740752
Direct configuration=     9
   0.00424878  0.00286763  0.11354231
   0.35902512  0.00243531  0.09923947
   0.00424796  0.35757993  0.09957037
   0.64974142  0.64757577  0.09946579
   0.32774104  0.32562416  0.10027796
   0.68121610  0.00269447  0.10050978
   0.00444112  0.67946927  0.10028644
   0.11088347  0.38918735  0.33735545
   0.27777809  0.22230256  0.33769072
   0.11125415  0.88932170  0.33742011
   0.27783939  0.72236996  0.33700034
   0.61087294  0.38903793  0.33699455
   0.77765917  0.22244373  0.33738488
   0.61070064  0.88884583  0.33764980
   0.77720016  0.72212283  0.33739137
Direct configuration=    10
   0.00426344  0.00284982  0.11311036
   0.35900400  0.00242936  0.09930132
   0.00428006  0.35752068  0.09963729
   0.64979624  0.64761404  0.09953108
   0.32782176  0.32570213  0.10033797
   0.68114111  0.00266296  0.10057715
   0.00444710  0.67938617  0.10034806
   0.11088406  0.38917684  0.33736046
   0.27778153  0.22239909  0.33768519
   0.11122045  0.88926728  0.33742667
   0.27783880  0.72238478  0.33701963
   0.61087157  0.38900308  0.33701579
   0.77761150  0.22243844  0.33738741
   0.61070163  0.88888745  0.33764541
   0.77718631  0.72215633  0.33739553
Direct configuration=    11
   0.00430740  0.00279640  0.11181450
   0.35894064  0.00241153  0.09948688
   0.00437636  0.35734290  0.09983804
   0.64996069  0.64772884  0.09972696
   0.32806390  0.32593602  0.10051802
   0.68091612  0.00256843  0.10077928
   0.00446504  0.67913684  0.10053292
   0.11088583  0.38914529  0.33737550
   0.27779188  0.22268867  0.33766861
   0.11111938  0.88910403  0.33744635
   0.27783703  0.72242923  0.33707749
   0.61086746  0.38889855  0.33707951
   0.77746848  0.22242257  0.33739499
   0.61070459  0.88901230  0.33763226
   0.77714477  0.72225685  0.33740801
Direct configuration=    12
   0.00439531  0.00268955  0.10922277
   0.35881392  0.00237585  0.09985799
   0.00456895  0.35698734  0.10023956
   0.65028959  0.64795845  0.10011872
   0.32854818  0.32640381  0.10087813
   0.68046616  0.00237935  0.10118354
   0.00450091  0.67863820  0.10090263
   0.11088938  0.38908219  0.33740558
   0.27781256  0.22326784  0.33763543
   0.11091722  0.88877752  0.33748570
   0.27783349  0.72251814  0.33719323
   0.61085923  0.38868948  0.33720695
   0.77718244  0.22239082  0.33741017
   0.61071053  0.88926201  0.33760596
   0.77706167  0.72245790  0.33743298
Direct configuration=    13
   0.00443379  0.00264126  0.10846151
   0.35881676  0.00237602  0.09996872
   0.00461846  0.35695233  0.10034410
   0.65031486  0.64797789  0.10022490
   0.32861011  0.32645577  0.10099341
   0.68044192  0.00233875  0.10130165
   0.00452071  0.67853660  0.10101938
   0.11080588  0.38913726  0.33741304
   0.27761259  0.22286228  0.33761440
   0.11082375  0.88899480  0.33749416
   0.27763612  0.72248012  0.33724407
   0.61083447  0.38895625  0.33725831
   0.77732920  0.22240828  0.33741536
   0.61077576  0.88928439  0.33758562
   0.77727517  0.72247644  0.33744070
Direct configuration=    14
   0.00447139  0.00259407  0.10771769
   0.35881953  0.00237619  0.10007691
   0.00466684  0.35691812  0.10044625
   0.65033955  0.64799688  0.10032865
   0.32867062  0.32650654  0.10110604
   0.68041824  0.00229908  0.10141706
   0.00454005  0.67843734  0.10113346
   0.11072430  0.38919107  0.33742032
   0.27741720  0.22246601  0.33759385
   0.11073243  0.88920710  0.33750243
   0.27744327  0.72244298  0.33729375
   0.61081028  0.38921690  0.33730848
   0.77747260  0.22242534  0.33742043
   0.61083950  0.88930626  0.33756575
   0.77748377  0.72249456  0.33744825
Direct configuration=    15
   0.00448838  0.00256905  0.10754254
   0.35893748  0.00238199  0.10012168
   0.00466110  0.35703437  0.10047283
   0.65020958  0.64788138  0.10036073
   0.32860476  0.32642084  0.10112547
   0.68052398  0.00231647  0.10142478
   0.00455653  0.67847489  0.10115210
   0.11074570  0.38918373  0.33742129
   0.27740677  0.22242667  0.33758369
   0.11078284  0.88924753  0.33750127
   0.27743529  0.72251380  0.33731629
   0.61077301  0.38921749  0.33732727
   0.77747888  0.22251255  0.33742395
   0.61078766  0.88918387  0.33755372
   0.77745759  0.72251382  0.33745173
Direct configuration=    16
   0.00452220  0.00251925  0.10719388
   0.35917230  0.00239352  0.10021081
   0.00464966  0.35726578  0.10052574
   0.64995086  0.64765148  0.10042458
   0.32847366  0.32625022  0.10116413
   0.68073447  0.00235109  0.10144014
   0.00458934  0.67854964  0.10118920
   0.11078828  0.38916912  0.33742322
   0.27738601  0.22234835  0.33756348
   0.11088319  0.88932800  0.33749897
   0.27741942  0.72265476  0.33736115
   0.61069881  0.38921866  0.33736467
   0.77749138  0.22268618  0.33743094
   0.61068447  0.88894023  0.33752977
   0.77740549  0.72255217  0.33745864
Direct configuration=    17
   0.00453876  0.00247657  0.10697817
   0.35939889  0.00239869  0.10028749
   0.00463226  0.35743728  0.10056530
   0.64973382  0.64745165  0.10047536
   0.32839409  0.32613471  0.10117730
   0.68086847  0.00238697  0.10142634
   0.00461298  0.67861830  0.10120061
   0.11079478  0.38920431  0.33742544
   0.27742708  0.22248068  0.33755018
   0.11083574  0.88927323  0.33749678
   0.27744500  0.72261489  0.33739158
   0.61069578  0.38919389  0.33738949
   0.77741667  0.22260840  0.33743700
   0.61068137  0.88906296  0.33751467
   0.77737388  0.72253592  0.33746362
Direct configuration=    18
   0.00455401  0.00243725  0.10677942
   0.35960766  0.00240345  0.10035815
   0.00461623  0.35759529  0.10060174
   0.64953384  0.64726753  0.10052214
   0.32832077  0.32602828  0.10118944
   0.68099193  0.00242002  0.10141363
   0.00463477  0.67868157  0.10121112
   0.11080076  0.38923673  0.33742749
   0.27746491  0.22260261  0.33753792
   0.11079202  0.88922277  0.33749476
   0.27746856  0.72257815  0.33741963
   0.61069299  0.38917107  0.33741236
   0.77734783  0.22253674  0.33744257
   0.61067851  0.88917604  0.33750075
   0.77734476  0.72252096  0.33746821
Direct configuration=    19
   0.00455105  0.00241792  0.10670120
   0.35965142  0.00239864  0.10040072
   0.00461362  0.35755805  0.10062218
   0.64953646  0.64725929  0.10054922
   0.32836864  0.32606153  0.10118595
   0.68095124  0.00242414  0.10139033
   0.00463730  0.67866829  0.10120659
   0.11071614  0.38922633  0.33743131
   0.27741363  0.22256218  0.33753776
   0.11075545  0.88924613  0.33749635
   0.27744045  0.72254164  0.33742306
   0.61073320  0.38920556  0.33741657
   0.77739341  0.22252504  0.33744528
   0.61072839  0.88924946  0.33750354
   0.77735916  0.72253425  0.33746928
Direct configuration=    20
   0.00454880  0.00240323  0.10664174
   0.35968468  0.00239498  0.10043309
   0.00461163  0.35752974  0.10063772
   0.64953846  0.64725304  0.10056980
   0.32840503  0.32608680  0.10118329
   0.68092030  0.00242727  0.10137262
   0.00463923  0.67865819  0.10120314
   0.11065181  0.38921842  0.33743421
   0.27737464  0.22253144  0.33753764
   0.11072765  0.88926389  0.33749756
   0.27741908  0.72251388  0.33742566
   0.61076378  0.38923179  0.33741977
   0.77742806  0.22251615  0.33744734
   0.61076631  0.88930528  0.33750566
   0.77737010  0.72254435  0.33747010
Direct configuration=    21
   0.00455115  0.00238943  0.10656636
   0.35966936  0.00238968  0.10047620
   0.00461482  0.35745780  0.10065759
   0.64959343  0.64728998  0.10059666
   0.32846026  0.32612722  0.10117931
   0.68087732  0.00242302  0.10134583
   0.00464140  0.67862286  0.10119802
   0.11065209  0.38921268  0.33743907
   0.27736451  0.22253374  0.33754108
   0.11073286  0.88926973  0.33750036
   0.27741007  0.72254732  0.33742418
   0.61074997  0.38922876  0.33742012
   0.77742414  0.22255263  0.33745042
   0.61074823  0.88926939  0.33751306
   0.77735994  0.72256422  0.33747106
Direct configuration=    22
   0.00455621  0.00235971  0.10640398
   0.35963635  0.00237824  0.10056907
   0.00462169  0.35730284  0.10070042
   0.64971185  0.64736957  0.10065451
   0.32857923  0.32621427  0.10117074
   0.68078474  0.00241388  0.10128812
   0.00464608  0.67854675  0.10118698
   0.11065267  0.38920031  0.33744954
   0.27734271  0.22253870  0.33754849
   0.11074410  0.88928231  0.33750640
   0.27739066  0.72261935  0.33742100
   0.61072022  0.38922223  0.33742089
   0.77741572  0.22263119  0.33745705
   0.61070928  0.88919207  0.33752900
   0.77733805  0.72260702  0.33747315
Direct configuration=    23
   0.00458295  0.00235588  0.10629454
   0.35956189  0.00237368  0.10061556
   0.00463675  0.35726148  0.10072018
   0.64978563  0.64741686  0.10068222
   0.32858641  0.32619732  0.10117591
   0.68082054  0.00239661  0.10126265
   0.00465838  0.67849759  0.10119051
   0.11071881  0.38926951  0.33745533
   0.27738393  0.22259014  0.33755746
   0.11073420  0.88928938  0.33751034
   0.27739991  0.72261303  0.33741730
   0.61066501  0.38923716  0.33741781
   0.77733958  0.22258553  0.33746276
   0.61065660  0.88922392  0.33754067
   0.77731896  0.72257035  0.33747610
Direct configuration=    24
   0.00459217  0.00235456  0.10625679
   0.35953621  0.00237210  0.10063159
   0.00464195  0.35724722  0.10072700
   0.64981107  0.64743318  0.10069178
   0.32858889  0.32619148  0.10117769
   0.68083290  0.00239065  0.10125387
   0.00466262  0.67848064  0.10119172
   0.11074162  0.38929339  0.33745733
   0.27739815  0.22260788  0.33756056
   0.11073078  0.88929182  0.33751170
   0.27740310  0.72261085  0.33741602
   0.61064597  0.38924231  0.33741675
   0.77731332  0.22256978  0.33746473
   0.61063842  0.88923490  0.33754470
   0.77731238  0.72255770  0.33747711
Direct configuration=    25
   0.00461985  0.00235929  0.10616980
   0.35951539  0.00236412  0.10064865
   0.00466107  0.35727908  0.10073308
   0.64981898  0.64741636  0.10070100
   0.32856226  0.32614321  0.10119343
   0.68089427  0.00236848  0.10125024
   0.00467830  0.67846383  0.10120652
   0.11069326  0.38928826  0.33746042
   0.27737147  0.22261264  0.33756978
   0.11071022  0.88930022  0.33751443
   0.27738712  0.72260553  0.33741465
   0.61065757  0.38925269  0.33741351
   0.77732489  0.22257771  0.33747027
   0.61065257  0.88927168  0.33755243
   0.77730235  0.72257534  0.33748114
Direct configuration=    26
   0.00466737  0.00236740  0.10602044
   0.35947964  0.00235042  0.10067793
   0.00469390  0.35733377  0.10074352
   0.64983256  0.64738748  0.10071684
   0.32851653  0.32606036  0.10122045
   0.68099964  0.00233042  0.10124401
   0.00470522  0.67843498  0.10123193
   0.11061023  0.38927947  0.33746572
   0.27732568  0.22262081  0.33758562
   0.11067492  0.88931465  0.33751912
   0.27735969  0.72259640  0.33741230
   0.61067748  0.38927052  0.33740794
   0.77734474  0.22259132  0.33747978
   0.61067684  0.88933481  0.33756569
   0.77728513  0.72260564  0.33748804
Direct configuration=    27
   0.00467709  0.00236531  0.10595734
   0.35951053  0.00233856  0.10068593
   0.00470713  0.35735021  0.10074739
   0.64982150  0.64735412  0.10072184
   0.32852340  0.32605120  0.10123285
   0.68100461  0.00231472  0.10124506
   0.00471493  0.67843302  0.10124394
   0.11060268  0.38927993  0.33746794
   0.27731453  0.22262483  0.33759137
   0.11067125  0.88932142  0.33752140
   0.27735140  0.72261435  0.33741257
   0.61066928  0.38927412  0.33740712
   0.77733911  0.22261162  0.33748334
   0.61066568  0.88932533  0.33757022
   0.77727644  0.72261969  0.33749102
Direct configuration=    28
   0.00470625  0.00235903  0.10576805
   0.35960318  0.00230299  0.10070994
   0.00474680  0.35739955  0.10075900
   0.64978833  0.64725405  0.10073684
   0.32854403  0.32602373  0.10127006
   0.68101950  0.00226761  0.10124821
   0.00474408  0.67842715  0.10127996
   0.11058003  0.38928131  0.33747459
   0.27728107  0.22263687  0.33760860
   0.11066025  0.88934175  0.33752825
   0.27732655  0.72266821  0.33741337
   0.61064468  0.38928493  0.33740466
   0.77732224  0.22267252  0.33749403
   0.61063218  0.88929688  0.33758381
   0.77725039  0.72266186  0.33749995
Direct configuration=    29
   0.00476458  0.00234647  0.10538947
   0.35978849  0.00223185  0.10075796
   0.00482616  0.35749824  0.10078223
   0.64972198  0.64705391  0.10076685
   0.32858528  0.32596879  0.10134446
   0.68104930  0.00217340  0.10125452
   0.00480237  0.67841539  0.10135201
   0.11053473  0.38928407  0.33748790
   0.27721417  0.22266096  0.33764307
   0.11063823  0.88938239  0.33754194
   0.27727684  0.72277592  0.33741498
   0.61059547  0.38930655  0.33739973
   0.77728848  0.22279433  0.33751540
   0.61056519  0.88923998  0.33761098
   0.77719829  0.72274618  0.33751780
Direct configuration=    30
   0.00477061  0.00234050  0.10532547
   0.35982104  0.00221871  0.10076639
   0.00483763  0.35750176  0.10078822
   0.64971713  0.64702648  0.10077346
   0.32860052  0.32596648  0.10135493
   0.68104675  0.00216042  0.10125541
   0.00481162  0.67841350  0.10136219
   0.11053558  0.38930195  0.33749046
   0.27721124  0.22266796  0.33764754
   0.11062827  0.88939268  0.33754463
   0.27726898  0.72277735  0.33741619
   0.61058127  0.38931984  0.33740063
   0.77727324  0.22279064  0.33751844
   0.61055340  0.88925486  0.33761485
   0.77719229  0.72274532  0.33752051
Direct configuration=    31
   0.00478871  0.00232259  0.10513345
   0.35991868  0.00217929  0.10079168
   0.00487204  0.35751232  0.10080618
   0.64970260  0.64694419  0.10079330
   0.32864622  0.32595954  0.10138631
   0.68103910  0.00212146  0.10125808
   0.00483937  0.67840783  0.10139275
   0.11053813  0.38935559  0.33749814
   0.27720246  0.22268893  0.33766095
   0.11059836  0.88942357  0.33755270
   0.27724542  0.72278165  0.33741985
   0.61053864  0.38935972  0.33740330
   0.77722749  0.22277956  0.33752754
   0.61051802  0.88929950  0.33762646
   0.77717429  0.72274271  0.33752864
Direct configuration=    32
   0.00482491  0.00228676  0.10474942
   0.36011395  0.00210046  0.10084226
   0.00494088  0.35753344  0.10084210
   0.64967355  0.64677960  0.10083297
   0.32873763  0.32594565  0.10144908
   0.68102381  0.00204354  0.10126343
   0.00489488  0.67839648  0.10145386
   0.11054324  0.38946286  0.33751349
   0.27718490  0.22273089  0.33768777
   0.11053856  0.88948535  0.33756884
   0.27719829  0.72279025  0.33742716
   0.61045338  0.38943949  0.33740865
   0.77713600  0.22275739  0.33754575
   0.61044727  0.88938879  0.33764968
   0.77713831  0.72273750  0.33754490
Direct configuration=    33
   0.00481228  0.00229926  0.10488340
   0.36004583  0.00212796  0.10082461
   0.00491686  0.35752607  0.10082957
   0.64968369  0.64683702  0.10081913
   0.32870574  0.32595049  0.10142718
   0.68102915  0.00207072  0.10126156
   0.00487551  0.67840044  0.10143254
   0.11054146  0.38942544  0.33750813
   0.27719103  0.22271625  0.33767841
   0.11055942  0.88946379  0.33756321
   0.27721474  0.72278725  0.33742461
   0.61048312  0.38941166  0.33740678
   0.77716792  0.22276513  0.33753939
   0.61047195  0.88935764  0.33764158
   0.77715086  0.72273931  0.33753923
Direct configuration=    34
   0.00481315  0.00228764  0.10485067
   0.36003154  0.00212273  0.10083230
   0.00491704  0.35749428  0.10084060
   0.64971182  0.64685771  0.10082910
   0.32871979  0.32595003  0.10142404
   0.68103516  0.00207362  0.10125965
   0.00488077  0.67838972  0.10142956
   0.11052785  0.38943131  0.33751039
   0.27718797  0.22273208  0.33767654
   0.11054733  0.88946307  0.33756557
   0.27720960  0.72277770  0.33742819
   0.61048302  0.38941497  0.33741241
   0.77716323  0.22275554  0.33753929
   0.61047669  0.88938754  0.33764131
   0.77714460  0.72274050  0.33753973
Direct configuration=    35
   0.00481574  0.00225278  0.10475249
   0.35998869  0.00210703  0.10085535
   0.00491755  0.35739890  0.10087370
   0.64979623  0.64691979  0.10085902
   0.32876194  0.32594863  0.10141463
   0.68105322  0.00208232  0.10125390
   0.00489652  0.67835757  0.10142064
   0.11048702  0.38944894  0.33751716
   0.27717878  0.22277958  0.33767092
   0.11051104  0.88946088  0.33757266
   0.27719421  0.72274903  0.33743892
   0.61048270  0.38942491  0.33742928
   0.77714918  0.22272677  0.33753897
   0.61049089  0.88947726  0.33764049
   0.77712584  0.72274405  0.33754121
Direct configuration=    36
   0.00482094  0.00218307  0.10455613
   0.35990297  0.00207562  0.10090144
   0.00491859  0.35720815  0.10093989
   0.64996505  0.64704396  0.10091885
   0.32884624  0.32594582  0.10139581
   0.68108932  0.00209971  0.10124240
   0.00492803  0.67829327  0.10140280
   0.11040537  0.38948418  0.33753071
   0.27716040  0.22287457  0.33765968
   0.11043848  0.88945652  0.33758683
   0.27716343  0.72269170  0.33746040
   0.61048206  0.38944479  0.33746302
   0.77712106  0.22266922  0.33753833
   0.61051930  0.88965668  0.33763886
   0.77708830  0.72275116  0.33754418
Direct configuration=    37
   0.00481900  0.00220909  0.10462942
   0.35993497  0.00208734  0.10088424
   0.00491820  0.35727935  0.10091519
   0.64990204  0.64699761  0.10089652
   0.32881478  0.32594687  0.10140284
   0.68107585  0.00209322  0.10124669
   0.00491627  0.67831727  0.10140946
   0.11043585  0.38947103  0.33752565
   0.27716726  0.22283912  0.33766387
   0.11046556  0.88945815  0.33758154
   0.27717492  0.72271310  0.33745238
   0.61048230  0.38943737  0.33745042
   0.77713156  0.22269070  0.33753857
   0.61050870  0.88958971  0.33763947
   0.77710231  0.72274851  0.33754307
Direct configuration=    38
   0.00482575  0.00219350  0.10458629
   0.35991430  0.00208302  0.10089530
   0.00491881  0.35723922  0.10093325
   0.64993614  0.64702302  0.10091243
   0.32883508  0.32594642  0.10139450
   0.68108360  0.00209984  0.10124441
   0.00492461  0.67829423  0.10140155
   0.11042802  0.38946733  0.33752843
   0.27715539  0.22284050  0.33766037
   0.11046723  0.88946605  0.33758452
   0.27717005  0.72273661  0.33745888
   0.61047625  0.38943736  0.33745931
   0.77712886  0.22271899  0.33753839
   0.61049444  0.88956831  0.33763768
   0.77709102  0.72276405  0.33754403
Direct configuration=    39
   0.00484601  0.00214671  0.10445687
   0.35985228  0.00207006  0.10092847
   0.00492062  0.35711884  0.10098743
   0.65003846  0.64709924  0.10096016
   0.32889600  0.32594506  0.10136949
   0.68110685  0.00211970  0.10123757
   0.00494964  0.67822509  0.10137782
   0.11040455  0.38945624  0.33753676
   0.27711980  0.22284466  0.33764988
   0.11047223  0.88948978  0.33759343
   0.27715544  0.72280714  0.33747838
   0.61045809  0.38943730  0.33748599
   0.77712078  0.22280386  0.33753785
   0.61045167  0.88950411  0.33763230
   0.77705714  0.72281065  0.33754692
Direct configuration=    40
   0.00485256  0.00213157  0.10441500
   0.35983222  0.00206586  0.10093921
   0.00492120  0.35707989  0.10100496
   0.65007156  0.64712390  0.10097561
   0.32891571  0.32594461  0.10136140
   0.68111438  0.00212613  0.10123536
   0.00495774  0.67820272  0.10137014
   0.11039696  0.38945265  0.33753946
   0.27710828  0.22284600  0.33764648
   0.11047385  0.88949745  0.33759632
   0.27715071  0.72282996  0.33748469
   0.61045221  0.38943729  0.33749461
   0.77711816  0.22283132  0.33753768
   0.61043783  0.88948334  0.33763056
   0.77704617  0.72282573  0.33754786
Direct configuration=    41
   0.00486822  0.00212598  0.10438513
   0.35985305  0.00206648  0.10094470
   0.00492845  0.35708847  0.10101757
   0.65005619  0.64710017  0.10098610
   0.32892517  0.32594240  0.10135416
   0.68111388  0.00212531  0.10123844
   0.00496521  0.67818545  0.10136349
   0.11041501  0.38947535  0.33753979
   0.27710463  0.22282335  0.33764609
   0.11047221  0.88951936  0.33759694
   0.27714102  0.72284122  0.33749037
   0.61043161  0.38946078  0.33749876
   0.77710485  0.22283357  0.33753925
   0.61041807  0.88946994  0.33762823
   0.77705198  0.72282061  0.33755030
Direct configuration=    42
   0.00490161  0.00211405  0.10432146
   0.35989745  0.00206781  0.10095641
   0.00494390  0.35710676  0.10104445
   0.65002344  0.64704958  0.10100847
   0.32894534  0.32593768  0.10133873
   0.68111282  0.00212356  0.10124500
   0.00498112  0.67814865  0.10134932
   0.11045347  0.38952375  0.33754052
   0.27709683  0.22277505  0.33764527
   0.11046870  0.88956606  0.33759826
   0.27712038  0.72286521  0.33750249
   0.61038770  0.38951086  0.33750760
   0.77707648  0.22283837  0.33754259
   0.61037594  0.88944136  0.33762327
   0.77706436  0.72280971  0.33755549
Direct configuration=    43
   0.00492167  0.00210574  0.10427948
   0.35995029  0.00206799  0.10096070
   0.00495863  0.35713667  0.10105931
   0.64998619  0.64699750  0.10102026
   0.32894428  0.32592447  0.10133039
   0.68112153  0.00211292  0.10125513
   0.00499023  0.67814230  0.10134199
   0.11044464  0.38952935  0.33754016
   0.27709017  0.22279497  0.33764704
   0.11045111  0.88956251  0.33759837
   0.27710764  0.72286750  0.33750931
   0.61037951  0.38951554  0.33751063
   0.77706563  0.22283632  0.33754590
   0.61037656  0.88946449  0.33762092
   0.77706145  0.72282018  0.33755977
Direct configuration=    44
   0.00498187  0.00208081  0.10415351
   0.36010881  0.00206852  0.10097357
   0.00500282  0.35722638  0.10110389
   0.64987444  0.64684126  0.10105563
   0.32894110  0.32588484  0.10130536
   0.68114767  0.00208102  0.10128551
   0.00501758  0.67812324  0.10132000
   0.11041814  0.38954616  0.33753907
   0.27707019  0.22285474  0.33765237
   0.11039835  0.88955187  0.33759870
   0.27706944  0.72287438  0.33752977
   0.61035494  0.38952959  0.33751969
   0.77703307  0.22283016  0.33755581
   0.61037842  0.88953388  0.33761388
   0.77705272  0.72285161  0.33757258
Direct configuration=    45
   0.00498161  0.00205634  0.10409223
   0.36014369  0.00205739  0.10097487
   0.00501913  0.35722151  0.10111647
   0.64988604  0.64682737  0.10106515
   0.32892123  0.32584813  0.10130148
   0.68119751  0.00205512  0.10130707
   0.00502572  0.67814916  0.10131744
   0.11036128  0.38953117  0.33754110
   0.27704833  0.22288069  0.33765619
   0.11040690  0.88956670  0.33760143
   0.27707930  0.72288890  0.33753218
   0.61037099  0.38951407  0.33752147
   0.77704300  0.22287549  0.33755887
   0.61036519  0.88953467  0.33761726
   0.77699962  0.72287173  0.33757612
Direct configuration=    46
   0.00498148  0.00204393  0.10406116
   0.36016138  0.00205175  0.10097553
   0.00502739  0.35721904  0.10112285
   0.64989193  0.64682033  0.10106997
   0.32891116  0.32582952  0.10129951
   0.68122277  0.00204200  0.10131800
   0.00502985  0.67816230  0.10131615
   0.11033246  0.38952357  0.33754213
   0.27703725  0.22289385  0.33765813
   0.11041124  0.88957422  0.33760282
   0.27708430  0.72289627  0.33753340
   0.61037913  0.38950621  0.33752238
   0.77704803  0.22289847  0.33756042
   0.61035849  0.88953507  0.33761898
   0.77697270  0.72288193  0.33757791
Direct configuration=    47
   0.00497452  0.00201996  0.10399741
   0.36015554  0.00203175  0.10097481
   0.00504197  0.35718124  0.10112848
   0.64994572  0.64684301  0.10107415
   0.32891257  0.32580751  0.10130187
   0.68126307  0.00201438  0.10134333
   0.00504126  0.67817346  0.10131970
   0.11032800  0.38955238  0.33754685
   0.27702672  0.22288711  0.33766272
   0.11040033  0.88960213  0.33760811
   0.27707162  0.72290226  0.33752973
   0.61035867  0.38953411  0.33752271
   0.77703053  0.22290029  0.33756203
   0.61033698  0.88954869  0.33762833
   0.77696204  0.72288019  0.33757911
Direct configuration=    48
   0.00496612  0.00199104  0.10392046
   0.36014850  0.00200761  0.10097394
   0.00505956  0.35713561  0.10113528
   0.65001066  0.64687038  0.10107919
   0.32891427  0.32578094  0.10130471
   0.68131171  0.00198104  0.10137390
   0.00505504  0.67818693  0.10132399
   0.11032262  0.38958714  0.33755256
   0.27701402  0.22287898  0.33766825
   0.11038715  0.88963580  0.33761450
   0.27705633  0.72290949  0.33752530
   0.61033398  0.38956779  0.33752311
   0.77700941  0.22290248  0.33756398
   0.61031103  0.88956514  0.33763962
   0.77694917  0.72287808  0.33758055
Direct configuration=    49
   0.00498149  0.00198445  0.10386340
   0.36014339  0.00198969  0.10097563
   0.00507586  0.35711264  0.10113929
   0.65004113  0.64686859  0.10108291
   0.32895078  0.32578808  0.10130767
   0.68130253  0.00196461  0.10139343
   0.00507349  0.67815351  0.10132780
   0.11032867  0.38959594  0.33755682
   0.27700367  0.22289992  0.33767284
   0.11036130  0.88962922  0.33761901
   0.27703003  0.72292934  0.33752177
   0.61031004  0.38957852  0.33752279
   0.77698626  0.22290819  0.33756585
   0.61030402  0.88957529  0.33764836
   0.77695689  0.72290043  0.33758173
Direct configuration=    50
   0.00501502  0.00197008  0.10373888
   0.36013225  0.00195059  0.10097934
   0.00511143  0.35706252  0.10114806
   0.65010762  0.64686470  0.10109105
   0.32903046  0.32580368  0.10131414
   0.68128248  0.00192874  0.10143607
   0.00511377  0.67808058  0.10133613
   0.11034188  0.38961515  0.33756613
   0.27698108  0.22294562  0.33768285
   0.11030486  0.88961487  0.33762885
   0.27697265  0.72297265  0.33751405
   0.61025780  0.38960195  0.33752210