Lattice                                 
           1
     4.366500    2.521000    0.000000
    -4.366500    2.521000    0.000000
     0.000000    0.000000   15.000000
   B    C 
     2    14
Direct configuration=     1
   0.33833034  0.66916432  0.10000000
   0.67165522  0.33584146  0.10000000
   0.16373946  0.31999962  0.10000000
   0.32250218  0.16126397  0.10000000
   0.16376430  0.84376384  0.10000000
   0.84623863  0.16123684  0.10000000
   0.68749850  0.84373000  0.10000000
   0.84626736  0.68499594  0.10000000
   0.16666600  0.33333300  0.32880000
   0.33333300  0.16666600  0.32880000
   0.16666600  0.83333300  0.32880000
   0.33333300  0.66666600  0.32880000
   0.66666600  0.33333300  0.32880000
   0.83333300  0.16666600  0.32880000
   0.66666600  0.83333300  0.32880000
   0.83333300  0.66666600  0.32880000
Direct configuration=     2
   0.33832825  0.66916295  0.10014663
   0.67167612  0.33581251  0.10014662
   0.16702224  0.32657510  0.09994658
   0.32907102  0.16454456  0.09994623
   0.16705278  0.84046524  0.09994659
   0.84294204  0.16452236  0.09994695
   0.68094732  0.84047385  0.09994714
   0.84296683  0.67844461  0.09994694
   0.16636070  0.33271879  0.32887136
   0.33271820  0.16635968  0.32887196
   0.16636074  0.83363983  0.32887135
   0.33332700  0.66666409  0.32860121
   0.66666154  0.33332976  0.32860121
   0.83363945  0.16636158  0.32887000
   0.66727835  0.83363815  0.32886925
   0.83363942  0.66727895  0.32887001
Direct configuration=     3
   0.33832978  0.66916395  0.10003974
   0.67166088  0.33583361  0.10003974
   0.16462913  0.32178165  0.09998552
   0.32428241  0.16215304  0.09998543
   0.16465551  0.84286988  0.09998553
   0.84534522  0.16212725  0.09998562
   0.68572306  0.84284755  0.09998567
   0.84537288  0.68322046  0.09998562
   0.16658326  0.33316654  0.32881934
   0.33316638  0.16658298  0.32881950
   0.16658327  0.83341615  0.32881934
   0.33333137  0.66666548  0.32874612
   0.66666479  0.33333212  0.32874613
   0.83341605  0.16658350  0.32881897
   0.66683195  0.83341570  0.32881877
   0.83341604  0.66683212  0.32881897
Direct configuration=     4
   0.33833485  0.66916457  0.10013950
   0.67166474  0.33583042  0.10013948
   0.16462296  0.32176797  0.09994912
   0.32427094  0.16214149  0.09994879
   0.16464113  0.84287293  0.09994913
   0.84536285  0.16212891  0.09994958
   0.68573166  0.84286187  0.09994972
   0.84537907  0.68323383  0.09994958
   0.16654698  0.33309578  0.32886544
   0.33309499  0.16654718  0.32886602
   0.16654697  0.83345089  0.32886544
   0.33333009  0.66666473  0.32861824
   0.66666340  0.33333152  0.32861824
   0.83345018  0.16654781  0.32886414
   0.66690101  0.83345034  0.32886342
   0.83345020  0.66690177  0.32886415
Direct configuration=     5
   0.33833661  0.66916478  0.10017422
   0.67166608  0.33582931  0.10017420
   0.16462081  0.32176320  0.09993645
   0.32426694  0.16213747  0.09993604
   0.16463613  0.84287399  0.09993646
   0.84536899  0.16212948  0.09993704
   0.68573465  0.84286685  0.09993720
   0.84538123  0.68323848  0.09993704
   0.16653435  0.33307115  0.32888149
   0.33307014  0.16653472  0.32888222
   0.16653434  0.83346297  0.32888149
   0.33332964  0.66666447  0.32857373
   0.66666291  0.33333132  0.32857373
   0.83346206  0.16653539  0.32887987
   0.66692505  0.83346240  0.32887897
   0.83346208  0.66692602  0.32887987
Direct configuration=     6
   0.33831985  0.66916566  0.10023941
   0.67166776  0.33583697  0.10023939
   0.16466133  0.32177931  0.09991188
   0.32427097  0.16214439  0.09991114
   0.16465540  0.84286610  0.09991188
   0.84534829  0.16212514  0.09991294
   0.68575330  0.84286103  0.09991323
   0.84534706  0.68323108  0.09991290
   0.16662449  0.33325343  0.32889551
   0.33325169  0.16662593  0.32889656
   0.16662450  0.83337004  0.32889551
   0.33332839  0.66666428  0.32854065
   0.66666206  0.33333054  0.32854065
   0.83336833  0.16662635  0.32889320
   0.66674028  0.83336964  0.32889195
   0.83336831  0.66674209  0.32889320
Direct configuration=     7
   0.33832982  0.66916514  0.10020064
   0.67166676  0.33583241  0.10020062
   0.16463723  0.32176973  0.09992649
   0.32426857  0.16214027  0.09992595
   0.16464394  0.84287079  0.09992650
   0.84536060  0.16212772  0.09992727
   0.68574221  0.84286449  0.09992749
   0.84536738  0.68323548  0.09992725
   0.16657089  0.33314503  0.32888717
   0.33314373  0.16657169  0.32888803
   0.16657088  0.83342531  0.32888717
   0.33332913  0.66666439  0.32856032
   0.66666256  0.33333100  0.32856032
   0.83342407  0.16657226  0.32888527
   0.66685015  0.83342480  0.32888423
   0.83342407  0.66685147  0.32888527
Direct configuration=     8
   0.33832996  0.66916513  0.10020007
   0.67166675  0.33583235  0.10020005
   0.16463687  0.32176959  0.09992671
   0.32426854  0.16214021  0.09992616
   0.16464377  0.84287086  0.09992671
   0.84536078  0.16212776  0.09992748
   0.68574204  0.84286454  0.09992770
   0.84536768  0.68323555  0.09992746
   0.16657009  0.33314343  0.32888705
   0.33314213  0.16657089  0.32888790
   0.16657009  0.83342612  0.32888705
   0.33332914  0.66666440  0.32856061
   0.66666257  0.33333101  0.32856061
   0.83342489  0.16657146  0.32888516
   0.66685178  0.83342562  0.32888411
   0.83342490  0.66685309  0.32888516
Direct configuration=     9
   0.33832989  0.66916513  0.10020035
   0.67166675  0.33583238  0.10020033
   0.16463705  0.32176966  0.09992660
   0.32426856  0.16214024  0.09992606
   0.16464385  0.84287083  0.09992661
   0.84536069  0.16212774  0.09992738
   0.68574212  0.84286452  0.09992760
   0.84536754  0.68323551  0.09992736
   0.16657048  0.33314421  0.32888711
   0.33314290  0.16657128  0.32888797
   0.16657047  0.83342573  0.32888711
   0.33332914  0.66666439  0.32856047
   0.66666257  0.33333101  0.32856047
   0.83342449  0.16657185  0.32888521
   0.66685099  0.83342522  0.32888417
   0.83342450  0.66685230  0.32888521
Direct configuration=    10
   0.33834056  0.66916793  0.10022159
   0.67166011  0.33583352  0.10022158
   0.16462005  0.32176769  0.09991750
   0.32428100  0.16213461  0.09991676
   0.16462641  0.84286735  0.09991750
   0.84538281  0.16213740  0.09991862
   0.68572529  0.84286732  0.09991902
   0.84538959  0.68323478  0.09991861
   0.16656943  0.33314408  0.32888451
   0.33314218  0.16657081  0.32888551
   0.16656944  0.83342507  0.32888451
   0.33332797  0.66666371  0.32857427
   0.66666129  0.33333051  0.32857427
   0.83342323  0.16657136  0.32888232
   0.66684943  0.83342458  0.32888113
   0.83342322  0.66685128  0.32888232
Direct configuration=    11
   0.33833980  0.66916773  0.10022008
   0.67166058  0.33583344  0.10022007
   0.16462125  0.32176783  0.09991815
   0.32428012  0.16213501  0.09991742
   0.16462765  0.84286760  0.09991814
   0.84538124  0.16213672  0.09991924
   0.68572648  0.84286712  0.09991963
   0.84538802  0.68323483  0.09991923
   0.16656950  0.33314409  0.32888469
   0.33314223  0.16657084  0.32888568
   0.16656951  0.83342511  0.32888469
   0.33332806  0.66666376  0.32857329
   0.66666138  0.33333054  0.32857329
   0.83342332  0.16657139  0.32888252
   0.66684955  0.83342463  0.32888135
   0.83342331  0.66685135  0.32888252
Direct configuration=    12
   0.33833652  0.66916779  0.10023054
   0.67166500  0.33583375  0.10023052
   0.16463189  0.32176865  0.09991338
   0.32427499  0.16213554  0.09991252
   0.16463497  0.84286868  0.09991338
   0.84537511  0.16213559  0.09991470
   0.68573414  0.84286790  0.09991519
   0.84537860  0.68323538  0.09991469
   0.16656688  0.33313999  0.32888335
   0.33313775  0.16656861  0.32888442
   0.16656689  0.83342659  0.32888335
   0.33332729  0.66666339  0.32858107
   0.66666061  0.33333016  0.32858107
   0.83342443  0.16656917  0.32888103
   0.66685251  0.83342610  0.32887978
   0.83342442  0.66685471  0.32888103
Direct configuration=    13
   0.33833472  0.66916782  0.10023629
   0.67166743  0.33583392  0.10023628
   0.16463774  0.32176910  0.09991076
   0.32427217  0.16213583  0.09990983
   0.16463900  0.84286927  0.09991076
   0.84537174  0.16213498  0.09991220
   0.68573836  0.84286832  0.09991275
   0.84537341  0.68323568  0.09991219
   0.16656544  0.33313773  0.32888260
   0.33313528  0.16656739  0.32888372
   0.16656545  0.83342740  0.32888260
   0.33332686  0.66666318  0.32858535
   0.66666019  0.33332994  0.32858535
   0.83342504  0.16656795  0.32888020
   0.66685414  0.83342692  0.32887891
   0.83342503  0.66685656  0.32888020
