       N       E                     dE             d eps       ncg     rms          rms(c)
DAV:   1     0.944530506705E+02    0.94453E+02   -0.12378E+04  5856   0.414E+02
DAV:   2    -0.674692956225E+02   -0.16192E+03   -0.16107E+03  7392   0.865E+01
DAV:   3    -0.734741731030E+02   -0.60049E+01   -0.60049E+01 10704   0.220E+01
DAV:   4    -0.734819286165E+02   -0.77555E-02   -0.77555E-02  6960   0.788E-01
DAV:   5    -0.734819410230E+02   -0.12406E-04   -0.12406E-04 10560   0.382E-02    0.132E+01
DAV:   6    -0.689961333729E+02    0.44858E+01   -0.61067E+00 10608   0.530E+00    0.746E+00
DAV:   7    -0.673420407713E+02    0.16541E+01   -0.38582E+00 10752   0.429E+00    0.219E+00
DAV:   8    -0.672543623101E+02    0.87678E-01   -0.19092E-01 10848   0.942E-01    0.609E-01
DAV:   9    -0.672349932937E+02    0.19369E-01   -0.12794E-02 10512   0.323E-01    0.170E-01
DAV:  10    -0.672255199815E+02    0.94733E-02   -0.97003E-03  9648   0.173E-01    0.969E-02
DAV:  11    -0.672240988409E+02    0.14211E-02   -0.37545E-03  8976   0.107E-01    0.572E-02
DAV:  12    -0.672241114320E+02   -0.12591E-04   -0.93314E-04  7968   0.609E-02    0.283E-02
DAV:  13    -0.672271803110E+02   -0.30689E-02   -0.55700E-04  8976   0.395E-02    0.149E-02
DAV:  14    -0.672284606933E+02   -0.12804E-02   -0.15476E-04  9936   0.184E-02    0.118E-02
DAV:  15    -0.672294804672E+02   -0.10198E-02   -0.16584E-04  8784   0.163E-02    0.322E-03
DAV:  16    -0.672296202461E+02   -0.13978E-03   -0.93322E-06  8496   0.430E-03    0.226E-03
DAV:  17    -0.672296780810E+02   -0.57835E-04   -0.25198E-06  7296   0.244E-03    0.324E-04
DAV:  18    -0.672296819473E+02   -0.38663E-05   -0.64113E-08  9120   0.490E-04    0.173E-04
DAV:  19    -0.672296833250E+02   -0.13777E-05   -0.41363E-08  6960   0.274E-04    0.247E-05
DAV:  20    -0.672296834154E+02   -0.90347E-07   -0.89355E-10  9168   0.516E-05
   1 F= -.67907720E+02 E0= -.67907720E+02  d E =-.964065E-07
