       N       E                     dE             d eps       ncg     rms          ort
SDA:   1    -0.591721267053E+02   -0.59172E+02   -0.40948E-06  7776   0.102E-05 0.000E+00
DMP:   2    -0.591721270777E+02   -0.37241E-06   -0.34967E-06  7776   0.578E-06 0.776E-06
   1 F= -.59172127E+02 E0= -.59172127E+02  d E =-.763107E-11
