    2    2  100    1
  0.4059495E+02  0.2500000E-09  0.2500000E-09  0.1500000E-08  0.5000000E-15
  1.000000000000000E-004
  CAR 
 Graphene                                
      8     19     48
 
  0.0000000E+00  0.0000000E+00  0.0000000E+00  0.6944444E-02
      1        -21.579682   1.000000
      2         -9.735911   1.000000
      3         -5.436952   1.000000
      4         -5.436896   1.000000
      5          0.988221   0.000000
      6          1.886199   0.000000
      7          2.423965   0.000000
      8          4.315547   0.000000
      9          5.077935   0.000000
     10          5.666056   0.000000
     11          5.666116   0.000000
     12          8.210818   0.000000
     13          8.543605   0.000000
     14          9.190093   0.000000
     15          9.333511   0.000000
     16         13.525837   0.000000
     17         15.057141   0.000000
     18         19.584395   0.000000
     19         20.057851   0.000000
     20         22.207178   0.000000
     21         25.224711   0.000000
     22         25.224737   0.000000
     23         26.860093   0.000000
     24         28.578333   0.000000
     25         28.578341   0.000000
     26         30.703935   0.000000
     27         31.016522   0.000000
     28         32.088134   0.000000
     29         32.088146   0.000000
     30         32.564439   0.000000
     31         32.564444   0.000000
     32         33.026980   0.000000
     33         33.309497   0.000000
     34         33.596263   0.000000
     35         34.244966   0.000000
     36         34.244985   0.000000
     37         34.331729   0.000000
     38         34.331741   0.000000
     39         34.380011   0.000000
     40         34.380020   0.000000
     41         34.499428   0.000000
     42         34.505440   0.000000
     43         34.533127   0.000000
     44         34.533139   0.000000
     45         34.753181   0.000000
     46         35.854184   0.000000
     47         36.575621   0.000000
     48         36.575638   0.000000
 
  0.8333333E-01 -0.7631424E-19  0.0000000E+00  0.4166667E-01
      1        -21.419518   1.000000
      2         -9.546479   1.000000
      3         -6.078615   1.000000
      4         -5.760731   1.000000
      5          1.205195   0.000000
      6          2.104636   0.000000
      7          2.644803   0.000000
      8          4.532464   0.000000
      9          5.285544   0.000000
     10          5.732992   0.000000
     11          6.334105   0.000000
     12          8.014245   0.000000
     13          8.421023   0.000000
     14          9.511050   0.000000
     15          9.553392   0.000000
     16         13.717041   0.000000
     17         15.270397   0.000000
     18         20.076623   0.000000
     19         20.130332   0.000000
     20         22.419941   0.000000
     21         23.648119   0.000000
     22         23.993793   0.000000
     23         26.547909   0.000000
     24         27.787744   0.000000
     25         28.953411   0.000000
     26         29.324635   0.000000
     27         29.488974   0.000000
     28         29.927815   0.000000
     29         30.156872   0.000000
     30         30.731745   0.000000
     31         30.923889   0.000000
     32         31.502427   0.000000
     33         31.814136   0.000000
     34         31.910996   0.000000
     35         32.018919   0.000000
     36         32.136561   0.000000
     37         32.176584   0.000000
     38         33.419520   0.000000
     39         34.167044   0.000000
     40         34.204080   0.000000
     41         34.529709   0.000000
     42         34.723381   0.000000
     43         35.125664   0.000000
     44         35.411954   0.000000
     45         35.693404   0.000000
     46         36.404972   0.000000
     47         37.001487   0.000000
     48         37.399920   0.000000
 
  0.1666667E+00 -0.7403051E-17  0.0000000E+00  0.4166667E-01
      1        -20.940923   1.000000
      2         -8.983850   1.000000
      3         -7.689212   1.000000
      4         -6.521139   1.000000
      5          1.855892   0.000000
      6          2.758041   0.000000
      7          3.307277   0.000000
      8          5.179166   0.000000
      9          5.591112   0.000000
     10          5.983817   0.000000
     11          6.585701   0.000000
     12          8.104868   0.000000
     13          9.046621   0.000000
     14         10.192845   0.000000
     15         10.558222   0.000000
     16         14.259887   0.000000
     17         15.901855   0.000000
     18         19.584549   0.000000
     19         21.042652   0.000000
     20         21.812906   0.000000
     21         22.231639   0.000000
     22         23.049892   0.000000
     23         23.592362   0.000000
     24         24.726352   0.000000
     25         24.760649   0.000000
     26         26.650169   0.000000
     27         27.343427   0.000000
     28         27.835275   0.000000
     29         27.956444   0.000000
     30         28.918535   0.000000
     31         29.183995   0.000000
     32         29.863380   0.000000
     33         29.911464   0.000000
     34         30.138801   0.000000
     35         30.728826   0.000000
     36         31.435937   0.000000
     37         31.489750   0.000000
     38         31.531108   0.000000
     39         32.229613   0.000000
     40         32.271268   0.000000
     41         32.914036   0.000000
     42         32.947955   0.000000
     43         33.610176   0.000000
     44         35.878698   0.000000
     45         36.239415   0.000000
     46         36.782057   0.000000
     47         36.788305   0.000000
     48         36.845202   0.000000
 
  0.2500000E+00 -0.7479365E-17  0.0000000E+00  0.4166667E-01
      1        -20.149869   1.000000
      2         -9.745458   1.000000
      3         -8.066898   1.000000
      4         -7.367436   1.000000
      5          2.937970   0.000000
      6          3.819544   0.000000
      7          4.409111   0.000000
      8          4.606102   0.000000
      9          5.293712   0.000000
     10          6.271732   0.000000
     11          7.044145   0.000000
     12         10.070919   0.000000
     13         10.552380   0.000000
     14         11.257432   0.000000
     15         12.030138   0.000000
     16         14.980512   0.000000
     17         16.929436   0.000000
     18         17.714286   0.000000
     19         19.033870   0.000000
     20         20.427099   0.000000
     21         20.450573   0.000000
     22         20.762514   0.000000
     23         22.085710   0.000000
     24         22.368826   0.000000
     25         23.640761   0.000000
     26         23.641909   0.000000
     27         24.526825   0.000000
     28         26.383957   0.000000
     29         26.402558   0.000000
     30         27.193958   0.000000
     31         27.823125   0.000000
     32         27.916534   0.000000
     33         28.337995   0.000000
     34         28.352211   0.000000
     35         28.680469   0.000000
     36         29.513604   0.000000
     37         30.221114   0.000000
     38         30.669464   0.000000
     39         30.884709   0.000000
     40         31.369033   0.000000
     41         32.471465   0.000000
     42         32.579411   0.000000
     43         33.183106   0.000000
     44         33.366104   0.000000
     45         34.659195   0.000000
     46         35.005690   0.000000
     47         35.589429   0.000000
     48         35.738004   0.000000
 
  0.3333333E+00 -0.3760198E-16  0.0000000E+00  0.4166667E-01
      1        -19.059312   1.000000
      2        -11.898850   1.000000
      3         -8.074040   1.000000
      4         -6.845311   1.000000
      5          2.352906   0.000000
      6          4.432769   0.000000
      7          4.948779   0.000000
      8          5.382839   0.000000
      9          5.963670   0.000000
     10          7.766621   0.000000
     11          8.552312   0.000000
     12         11.432749   0.000000
     13         12.704753   0.000000
     14         12.964102   0.000000
     15         13.266910   0.000000
     16         14.642047   0.000000
     17         15.962562   0.000000
     18         16.430415   0.000000
     19         16.950489   0.000000
     20         17.772997   0.000000
     21         18.312568   0.000000
     22         19.558503   0.000000
     23         19.691699   0.000000
     24         19.756808   0.000000
     25         22.734025   0.000000
     26         22.942576   0.000000
     27         24.447004   0.000000
     28         24.712381   0.000000
     29         25.264118   0.000000
     30         25.780059   0.000000
     31         26.462754   0.000000
     32         26.774040   0.000000
     33         27.232651   0.000000
     34         27.232971   0.000000
     35         27.571434   0.000000
     36         28.208901   0.000000
     37         29.501557   0.000000
     38         29.526520   0.000000
     39         29.598153   0.000000
     40         29.790055   0.000000
     41         30.398555   0.000000
     42         32.125177   0.000000
     43         32.372365   0.000000
     44         33.419238   0.000000
     45         33.988127   0.000000
     46         33.994543   0.000000
     47         34.752769   0.000000
     48         35.676862   0.000000
 
  0.4166667E+00  0.1287316E-16  0.0000000E+00  0.4166667E-01
      1        -17.704690   1.000000
      2        -13.942583   1.000000
      3         -8.529795   1.000000
      4         -5.479273   1.000000
      5          0.312385   0.000000
      6          4.670829   0.000000
      7          6.389907   0.000000
      8          7.308408   0.000000
      9          7.944822   0.000000
     10          9.649190   0.000000
     11         10.475566   0.000000
     12         11.266967   0.000000
     13         12.077737   0.000000
     14         13.168026   0.000000
     15         13.215968   0.000000
     16         14.569789   0.000000
     17         14.594077   0.000000
     18         15.140378   0.000000
     19         15.675819   0.000000
     20         16.647461   0.000000
     21         17.572011   0.000000
     22         18.887221   0.000000
     23         19.043994   0.000000
     24         19.755492   0.000000
     25         20.851399   0.000000
     26         20.939760   0.000000
     27         23.799232   0.000000
     28         24.530756   0.000000
     29         24.618013   0.000000
     30         25.419483   0.000000
     31         25.735034   0.000000
     32         26.531875   0.000000
     33         26.552056   0.000000
     34         26.567602   0.000000
     35         26.785372   0.000000
     36         27.140324   0.000000
     37         28.478431   0.000000
     38         28.579163   0.000000
     39         28.787107   0.000000
     40         29.128083   0.000000
     41         29.608357   0.000000
     42         31.258079   0.000000
     43         32.362999   0.000000
     44         32.545679   0.000000
     45         33.339029   0.000000
     46         33.343562   0.000000
     47         33.842435   0.000000
     48         34.671734   0.000000
 
  0.5000000E+00 -0.1495873E-16  0.0000000E+00  0.2083333E-01
      1        -16.522106   1.000000
      2        -15.362459   1.000000
      3         -8.686461   1.000000
      4         -4.673255   1.000000
      5         -0.733618   0.000000
      6          4.584315   0.000000
      7          8.625867   0.000000
      8          8.780225   0.000000
      9          9.475123   0.000000
     10          9.738317   0.000000
     11         10.347815   0.000000
     12         10.372625   0.000000
     13         11.659409   0.000000
     14         12.174007   0.000000
     15         12.735914   0.000000
     16         12.812633   0.000000
     17         14.458419   0.000000
     18         16.004948   0.000000
     19         16.404800   0.000000
     20         16.724954   0.000000
     21         16.742297   0.000000
     22         18.252478   0.000000
     23         18.827426   0.000000
     24         19.207888   0.000000
     25         21.307467   0.000000
     26         21.315077   0.000000
     27         23.215503   0.000000
     28         23.412298   0.000000
     29         24.252818   0.000000
     30         24.852807   0.000000
     31         25.555230   0.000000
     32         25.841300   0.000000
     33         26.319199   0.000000
     34         26.345732   0.000000
     35         26.551391   0.000000
     36         27.970179   0.000000
     37         27.986666   0.000000
     38         28.503531   0.000000
     39         28.906990   0.000000
     40         29.198108   0.000000
     41         30.200549   0.000000
     42         30.264829   0.000000
     43         31.189957   0.000000
     44         31.768392   0.000000
     45         32.333265   0.000000
     46         33.124748   0.000000
     47         33.533563   0.000000
     48         33.970493   0.000000
 
  0.8333333E-01  0.8333333E-01  0.0000000E+00  0.4166667E-01
      1        -21.100160   1.000000
      2         -9.170437   1.000000
      3         -7.099329   1.000000
      4         -6.410354   1.000000
      5          1.639206   0.000000
      6          2.540694   0.000000
      7          3.086592   0.000000
      8          4.965078   0.000000
      9          5.696776   0.000000
     10          6.048005   0.000000
     11          7.046128   0.000000
     12          7.119650   0.000000
     13          8.836568   0.000000
     14          9.984144   0.000000
     15         10.326001   0.000000
     16         14.079618   0.000000
     17         15.692491   0.000000
     18         19.756924   0.000000
     19         20.840121   0.000000
     20         21.816877   0.000000
     21         22.857744   0.000000
     22         23.317966   0.000000
     23         25.458664   0.000000
     24         25.975700   0.000000
     25         26.725557   0.000000
     26         27.088712   0.000000
     27         27.104556   0.000000
     28         27.116618   0.000000
     29         27.213422   0.000000
     30         29.141290   0.000000
     31         29.452892   0.000000
     32         29.581169   0.000000
     33         29.803736   0.000000
     34         30.595094   0.000000
     35         31.295317   0.000000
     36         32.024546   0.000000
     37         33.115345   0.000000
     38         33.209269   0.000000
     39         33.638208   0.000000
     40         33.862858   0.000000
     41         34.026308   0.000000
     42         34.323466   0.000000
     43         34.984821   0.000000
     44         35.084482   0.000000
     45         35.174938   0.000000
     46         35.250421   0.000000
     47         36.483617   0.000000
     48         37.393637   0.000000
 
  0.1666667E+00  0.8333333E-01  0.0000000E+00  0.8333333E-01
      1        -20.465318   1.000000
      2         -8.779437   1.000000
      3         -8.429489   1.000000
      4         -7.371911   1.000000
      5          2.506388   0.000000
      6          3.408376   0.000000
      7          3.969989   0.000000
      8          5.375542   0.000000
      9          5.834340   0.000000
     10          6.073122   0.000000
     11          6.630190   0.000000
     12          8.546636   0.000000
     13          9.653222   0.000000
     14         10.841725   0.000000
     15         12.020005   0.000000
     16         14.670115   0.000000
     17         16.522224   0.000000
     18         17.921118   0.000000
     19         20.749328   0.000000
     20         21.512254   0.000000
     21         21.876619   0.000000
     22         22.204510   0.000000
     23         22.882089   0.000000
     24         23.256117   0.000000
     25         23.682165   0.000000
     26         24.332115   0.000000
     27         25.243526   0.000000
     28         25.310311   0.000000
     29         25.542791   0.000000
     30         25.744570   0.000000
     31         27.251947   0.000000
     32         27.977904   0.000000
     33         28.263580   0.000000
     34         29.635992   0.000000
     35         29.650221   0.000000
     36         30.600565   0.000000
     37         31.396708   0.000000
     38         32.068298   0.000000
     39         32.495572   0.000000
     40         32.525566   0.000000
     41         33.019779   0.000000
     42         33.377340   0.000000
     43         34.361206   0.000000
     44         35.050400   0.000000
     45         35.548298   0.000000
     46         35.731827   0.000000
     47         36.649554   0.000000
     48         36.888826   0.000000
 
  0.2500000E+00  0.8333333E-01  0.0000000E+00  0.8333333E-01
      1        -19.524190   1.000000
      2        -10.806531   1.000000
      3         -8.229491   1.000000
      4         -7.353884   1.000000
      5          3.316405   0.000000
      6          3.802354   0.000000
      7          4.725946   0.000000
      8          5.289558   0.000000
      9          5.808845   0.000000
     10          7.113034   0.000000
     11          7.907159   0.000000
     12         10.609670   0.000000
     13         10.818963   0.000000
     14         12.117171   0.000000
     15         13.908339   0.000000
     16         14.679518   0.000000
     17         16.939208   0.000000
     18         17.491162   0.000000
     19         17.766207   0.000000
     20         18.583394   0.000000
     21         18.745261   0.000000
     22         20.312225   0.000000
     23         21.192810   0.000000
     24         21.916984   0.000000
     25         22.214301   0.000000
     26         23.389913   0.000000
     27         23.557723   0.000000
     28         23.938880   0.000000
     29         24.111317   0.000000
     30         25.258142   0.000000
     31         25.760818   0.000000
     32         26.140605   0.000000
     33         26.313356   0.000000
     34         26.936219   0.000000
     35         29.028621   0.000000
     36         30.047707   0.000000
     37         30.374890   0.000000
     38         30.964535   0.000000
     39         31.557081   0.000000
     40         31.614149   0.000000
     41         32.037962   0.000000
     42         32.074651   0.000000
     43         33.110696   0.000000
     44         33.499615   0.000000
     45         34.402445   0.000000
     46         34.624931   0.000000
     47         36.373728   0.000000
     48         36.380867   0.000000
 
  0.3333333E+00  0.8333333E-01  0.0000000E+00  0.8333333E-01
      1        -18.297330   1.000000
      2        -12.876508   1.000000
      3         -8.844448   1.000000
      4         -6.026727   1.000000
      5          1.211135   0.000000
      6          5.410643   0.000000
      7          5.608646   0.000000
      8          6.435005   0.000000
      9          7.064420   0.000000
     10          8.786850   0.000000
     11          9.622431   0.000000
     12         11.998262   0.000000
     13         12.005013   0.000000
     14         13.629015   0.000000
     15         13.758160   0.000000
     16         14.186873   0.000000
     17         15.058119   0.000000
     18         15.365957   0.000000
     19         16.516896   0.000000
     20         17.178950   0.000000
     21         18.391478   0.000000
     22         18.637124   0.000000
     23         19.256758   0.000000
     24         20.193848   0.000000
     25         21.397850   0.000000
     26         22.046729   0.000000
     27         22.417035   0.000000
     28         23.055259   0.000000
     29         23.062652   0.000000
     30         24.047760   0.000000
     31         25.153358   0.000000
     32         25.325540   0.000000
     33         25.678109   0.000000
     34         27.243179   0.000000
     35         27.432876   0.000000
     36         28.347461   0.000000
     37         29.091924   0.000000
     38         29.288559   0.000000
     39         30.191544   0.000000
     40         30.811623   0.000000
     41         31.109824   0.000000
     42         32.192989   0.000000
     43         32.903674   0.000000
     44         33.314577   0.000000
     45         34.280700   0.000000
     46         34.756169   0.000000
     47         35.095723   0.000000
     48         35.513177   0.000000
 
  0.4166667E+00  0.8333333E-01  0.0000000E+00  0.8333333E-01
      1        -16.873931   1.000000
      2        -14.751143   1.000000
      3         -9.162639   1.000000
      4         -4.772769   1.000000
      5         -0.476768   0.000000
      6          5.313509   0.000000
      7          7.652830   0.000000
      8          8.513138   0.000000
      9          9.261092   0.000000
     10         10.096420   0.000000
     11         10.524154   0.000000
     12         11.178366   0.000000
     13         11.729303   0.000000
     14         11.877619   0.000000
     15         12.874895   0.000000
     16         14.009512   0.000000
     17         14.241221   0.000000
     18         15.503642   0.000000
     19         15.918727   0.000000
     20         16.139556   0.000000
     21         17.884616   0.000000
     22         18.054303   0.000000
     23         19.625314   0.000000
     24         19.885702   0.000000
     25         20.804725   0.000000
     26         21.183962   0.000000
     27         21.563455   0.000000
     28         22.612368   0.000000
     29         22.620488   0.000000
     30         23.489692   0.000000
     31         24.207780   0.000000
     32         24.979277   0.000000
     33         25.046342   0.000000
     34         25.648682   0.000000
     35         27.622278   0.000000
     36         28.563921   0.000000
     37         28.648431   0.000000
     38         29.286926   0.000000
     39         29.826608   0.000000
     40         30.250960   0.000000
     41         30.643588   0.000000
     42         31.044655   0.000000
     43         32.019895   0.000000
     44         32.725762   0.000000
     45         32.785056   0.000000
     46         34.198676   0.000000
     47         34.362407   0.000000
     48         35.572694   0.000000
 
  0.1666667E+00  0.1666667E+00  0.0000000E+00  0.4166667E-01
      1        -19.680256   1.000000
      2        -10.097454   1.000000
      3         -8.682068   1.000000
      4         -7.525944   1.000000
      5          3.588443   0.000000
      6          3.741507   0.000000
      7          4.486281   0.000000
      8          5.074390   0.000000
      9          6.884156   0.000000
     10          7.255789   0.000000
     11          7.734173   0.000000
     12          8.555796   0.000000
     13         10.585305   0.000000
     14         11.904573   0.000000
     15         14.262474   0.000000
     16         14.392706   0.000000
     17         16.928402   0.000000
     18         17.521303   0.000000
     19         19.445647   0.000000
     20         19.795703   0.000000
     21         19.865393   0.000000
     22         21.020341   0.000000
     23         21.034581   0.000000
     24         21.153223   0.000000
     25         22.234779   0.000000
     26         22.747541   0.000000
     27         22.807405   0.000000
     28         23.761553   0.000000
     29         23.977121   0.000000
     30         24.283599   0.000000
     31         25.021447   0.000000
     32         25.588664   0.000000
     33         27.838698   0.000000
     34         27.908718   0.000000
     35         28.399304   0.000000
     36         28.467369   0.000000
     37         28.758084   0.000000
     38         31.873553   0.000000
     39         32.811384   0.000000
     40         33.157025   0.000000
     41         33.383483   0.000000
     42         33.654794   0.000000
     43         34.150087   0.000000
     44         35.248350   0.000000
     45         35.662638   0.000000
     46         36.353551   0.000000
     47         36.990204   0.000000
     48         37.026543   0.000000
 
  0.2500000E+00  0.1666667E+00  0.0000000E+00  0.8333333E-01
      1        -18.600664   1.000000
      2        -11.784796   1.000000
      3         -9.710266   1.000000
      4         -6.319436   1.000000
      5          1.876791   0.000000
      6          5.094074   0.000000
      7          5.969813   0.000000
      8          6.616162   0.000000
      9          7.424800   0.000000
     10          8.312959   0.000000
     11          9.191670   0.000000
     12         10.065271   0.000000
     13         11.429436   0.000000
     14         13.364119   0.000000
     15         13.576111   0.000000
     16         15.446298   0.000000
     17         16.807104   0.000000
     18         16.883354   0.000000
     19         17.602724   0.000000
     20         17.986411   0.000000
     21         18.606007   0.000000
     22         18.857098   0.000000
     23         18.895214   0.000000
     24         19.967773   0.000000
     25         20.050598   0.000000
     26         20.186331   0.000000
     27         21.650112   0.000000
     28         22.320168   0.000000
     29         23.123462   0.000000
     30         23.340162   0.000000
     31         24.220306   0.000000
     32         24.703415   0.000000
     33         25.822194   0.000000
     34         26.597317   0.000000
     35         27.118506   0.000000
     36         27.381454   0.000000
     37         29.489820   0.000000
     38         30.114535   0.000000
     39         31.115921   0.000000
     40         31.994288   0.000000
     41         32.376579   0.000000
     42         34.067408   0.000000
     43         34.403493   0.000000
     44         35.060934   0.000000
     45         35.626846   0.000000
     46         35.924790   0.000000
     47         36.476615   0.000000
     48         36.751625   0.000000
 
  0.3333333E+00  0.1666667E+00  0.0000000E+00  0.8333333E-01
      1        -17.265393   1.000000
      2        -13.637075   1.000000
      3        -10.276956   1.000000
      4         -4.948821   1.000000
      5          0.047536   0.000000
      6          6.973556   0.000000
      7          7.223776   0.000000
      8          7.774864   0.000000
      9          8.602252   0.000000
     10          9.837406   0.000000
     11         11.010495   0.000000
     12         11.243367   0.000000
     13         11.470622   0.000000
     14         13.409778   0.000000
     15         13.601209   0.000000
     16         14.260806   0.000000
     17         14.821841   0.000000
     18         15.171155   0.000000
     19         16.162454   0.000000
     20         16.618840   0.000000
     21         17.780116   0.000000
     22         18.626752   0.000000
     23         19.078049   0.000000
     24         19.305015   0.000000
     25         19.513702   0.000000
     26         19.871451   0.000000
     27         20.159498   0.000000
     28         21.347707   0.000000
     29         21.783842   0.000000
     30         21.867406   0.000000
     31         23.173013   0.000000
     32         23.834945   0.000000
     33         25.537582   0.000000
     34         26.151512   0.000000
     35         26.413654   0.000000
     36         26.924553   0.000000
     37         28.162781   0.000000
     38         28.848807   0.000000
     39         30.811685   0.000000
     40         31.616893   0.000000
     41         32.371446   0.000000
     42         33.468017   0.000000
     43         33.792276   0.000000
     44         34.719531   0.000000
     45         35.226609   0.000000
     46         35.280572   0.000000
     47         36.247805   0.000000
     48         36.681854   0.000000
 
  0.4166667E+00  0.1666667E+00  0.0000000E+00  0.4166667E-01
      1        -16.105318   1.000000
      2        -14.991093   1.000000
      3        -10.458948   1.000000
      4         -4.095710   1.000000
      5         -0.971254   0.000000
      6          7.088945   0.000000
      7          9.094842   0.000000
      8          9.162776   0.000000
      9          9.367135   0.000000
     10         10.395739   0.000000
     11         10.976239   0.000000
     12         11.017314   0.000000
     13         11.510658   0.000000
     14         12.829910   0.000000
     15         13.058807   0.000000
     16         13.355940   0.000000
     17         13.878179   0.000000
     18         15.117214   0.000000
     19         16.647687   0.000000
     20         16.896530   0.000000
     21         17.243759   0.000000
     22         17.655122   0.000000
     23         18.035266   0.000000
     24         18.931881   0.000000
     25         19.090964   0.000000
     26         20.314545   0.000000
     27         20.388524   0.000000
     28         20.766055   0.000000
     29         21.780999   0.000000
     30         21.932605   0.000000
     31         22.660563   0.000000
     32         23.918608   0.000000
     33         24.622436   0.000000
     34         25.185787   0.000000
     35         26.014284   0.000000
     36         26.346680   0.000000
     37         28.535070   0.000000
     38         30.341574   0.000000
     39         30.855168   0.000000
     40         30.949910   0.000000
     41         31.594270   0.000000
     42         31.682790   0.000000
     43         33.239201   0.000000
     44         34.711075   0.000000
     45         34.988902   0.000000
     46         35.948978   0.000000
     47         36.370430   0.000000
     48         36.398661   0.000000
 
  0.2500000E+00  0.2500000E+00  0.0000000E+00  0.4166667E-01
      1        -17.406317   1.000000
      2        -12.822832   1.000000
      3        -11.129405   1.000000
      4         -5.028113   1.000000
      5          0.321585   0.000000
      6          6.792689   0.000000
      7          7.491753   0.000000
      8          8.374366   0.000000