<?xml version="1.0" encoding="ISO-8859-1"?>
<modeling>
 <generator>
  <i name="program" type="string">vasp </i>
  <i name="version" type="string">6.3.2  </i>
  <i name="subversion" type="string">27Jun22 (build Dec 22 2022 13:13:19) complex                          parallel </i>
  <i name="platform" type="string">LinuxIFC </i>
  <i name="date" type="string">2023 10 19 </i>
  <i name="time" type="string">05:09:36 </i>
 </generator>
 <incar>
  <i type="string" name="SYSTEM">Graphene</i>
  <i type="int" name="ISTART">     0</i>
  <i type="string" name="PREC">Accurate</i>
  <i type="string" name="ALGO">Normal</i>
  <i type="int" name="ISPIN">     1</i>
  <i type="int" name="ICHARG">     2</i>
  <i type="int" name="IBRION">     2</i>
  <i name="EDIFF">      0.00000100</i>
  <i name="EDIFFG">     -0.01000000</i>
  <i type="int" name="NSW">   100</i>
  <i type="int" name="ISIF">     2</i>
  <i name="ENCUT">    450.00000000</i>
  <i type="int" name="ISMEAR">     0</i>
  <i name="SIGMA">      0.10000000</i>
  <i type="logical" name="LWAVE"> F  </i>
  <i type="logical" name="LCHARG"> F  </i>
  <i type="string" name="GGA">PE</i>
  <i type="int" name="IVDW">    12</i>
 </incar>
 <primitive_cell>
  <structure name="primitive_cell" >
   <crystal>
    <varray name="basis" >
     <v>       2.16506400       1.25000000       0.00000000 </v>
     <v>      -2.16506400       1.25000000       0.00000000 </v>
     <v>       0.00000000       0.00000000      15.00000000 </v>
    </varray>
    <i name="volume">     81.18990000 </i>
    <varray name="rec_basis" >
     <v>       0.23094006       0.40000000       0.00000000 </v>
     <v>      -0.23094006       0.40000000       0.00000000 </v>
     <v>       0.00000000       0.00000000       0.06666667 </v>
    </varray>
   </crystal>
   <varray name="positions" >
    <v>       0.33333300       0.66666600       0.10000000 </v>
    <v>       0.66666600       0.33333300       0.10000000 </v>
   </varray>
  </structure>
  <varray name="primitive_index" >
   <v type="int" >        1 </v>
   <v type="int" >        2 </v>
  </varray>
 </primitive_cell>
 <kpoints>
  <generation param="Gamma">
   <v type="int" name="divisions">      12       12        1 </v>
   <v name="usershift">      0.00000000       0.00000000       0.00000000 </v>
   <v name="genvec1">      0.08333333      -0.00000000       0.00000000 </v>
   <v name="genvec2">     -0.00000000       0.08333333       0.00000000 </v>
   <v name="genvec3">      0.00000000       0.00000000       1.00000000 </v>
   <v name="shift">      0.00000000       0.00000000       0.00000000 </v>
  </generation>
  <varray name="kpointlist" >
   <v>       0.00000000       0.00000000       0.00000000 </v>
   <v>       0.08333333      -0.00000000       0.00000000 </v>
   <v>       0.16666667      -0.00000000       0.00000000 </v>
   <v>       0.25000000      -0.00000000       0.00000000 </v>
   <v>       0.33333333      -0.00000000       0.00000000 </v>
   <v>       0.41666667       0.00000000       0.00000000 </v>
   <v>       0.50000000      -0.00000000       0.00000000 </v>
   <v>       0.08333333       0.08333333       0.00000000 </v>
   <v>       0.16666667       0.08333333       0.00000000 </v>
   <v>       0.25000000       0.08333333       0.00000000 </v>
   <v>       0.33333333       0.08333333       0.00000000 </v>
   <v>       0.41666667       0.08333333       0.00000000 </v>
   <v>       0.16666667       0.16666667       0.00000000 </v>
   <v>       0.25000000       0.16666667       0.00000000 </v>
   <v>       0.33333333       0.16666667       0.00000000 </v>
   <v>       0.41666667       0.16666667       0.00000000 </v>
   <v>       0.25000000       0.25000000       0.00000000 </v>
   <v>       0.33333333       0.25000000       0.00000000 </v>
   <v>       0.33333333       0.33333333       0.00000000 </v>
  </varray>
  <varray name="weights" >
   <v>       0.00694444 </v>
   <v>       0.04166667 </v>
   <v>       0.04166667 </v>
   <v>       0.04166667 </v>
   <v>       0.04166667 </v>
   <v>       0.04166667 </v>
   <v>       0.02083333 </v>
   <v>       0.04166667 </v>
   <v>       0.08333333 </v>
   <v>       0.08333333 </v>
   <v>       0.08333333 </v>
   <v>       0.08333333 </v>
   <v>       0.04166667 </v>
   <v>       0.08333333 </v>
   <v>       0.08333333 </v>
   <v>       0.04166667 </v>
   <v>       0.04166667 </v>
   <v>       0.08333333 </v>
   <v>       0.01388889 </v>
  </varray>
 </kpoints>
 <parameters>
  <separator name="general" >
   <i type="string" name="SYSTEM">Graphene</i>
   <i type="logical" name="LCOMPAT"> F  </i>
  </separator>
  <separator name="electronic" >
   <i type="string" name="PREC">accura</i>
   <i name="ENMAX">    450.00000000</i>
   <i name="ENAUG">    644.87300000</i>
   <i name="EDIFF">      0.00000100</i>
   <i type="int" name="IALGO">    38</i>
   <i type="int" name="IWAVPR">    11</i>
   <i type="int" name="NBANDS">    48</i>
   <i type="int" name="NBANDSLOW">    -1</i>
   <i type="int" name="NBANDSHIGH">    -1</i>
   <i name="NELECT">      8.00000000</i>
   <i type="int" name="TURBO">     0</i>
   <i type="int" name="IRESTART">     0</i>
   <i type="int" name="NREBOOT">     0</i>
   <i type="int" name="NMIN">     0</i>
   <i name="EREF">      0.00000000</i>
   <separator name="electronic smearing" >
    <i type="int" name="ISMEAR">     0</i>
    <i name="SIGMA">      0.10000000</i>
    <i name="KSPACING">      0.50000000</i>
    <i type="logical" name="KGAMMA"> T  </i>
    <i type="logical" name="KBLOWUP"> T  </i>
   </separator>
   <separator name="electronic projectors" >
    <i type="logical" name="LREAL"> F  </i>
    <v name="ROPT">      0.00000000</v>
    <i type="int" name="LMAXPAW">  -100</i>
    <i type="int" name="LMAXMIX">     2</i>
    <i type="logical" name="NLSPLINE"> F  </i>
   </separator>
   <separator name="electronic startup" >
    <i type="int" name="ISTART">     0</i>
    <i type="int" name="ICHARG">     2</i>
    <i type="int" name="INIWAV">     1</i>
   </separator>
   <separator name="electronic spin" >
    <i type="int" name="ISPIN">     1</i>
    <i type="logical" name="LNONCOLLINEAR"> F  </i>
    <v name="MAGMOM">      1.00000000      1.00000000</v>
    <i name="NUPDOWN">     -1.00000000</i>
    <i type="logical" name="LSORBIT"> F  </i>
    <v name="SAXIS">      0.00000000      0.00000000      1.00000000</v>
    <i type="logical" name="LSPIRAL"> F  </i>
    <v name="QSPIRAL">      0.00000000      0.00000000      0.00000000</v>
    <i type="logical" name="LZEROZ"> F  </i>
   </separator>
   <separator name="electronic exchange-correlation" >
    <i type="logical" name="LASPH"> F  </i>
    <i type="logical" name="LMETAGGA"> F  </i>
   </separator>
   <separator name="electronic convergence" >
    <i type="int" name="NELM">    60</i>
    <i type="int" name="NELMDL">    -5</i>
    <i type="int" name="NELMIN">     2</i>
    <i name="ENINI">    450.00000000</i>
    <separator name="electronic convergence detail" >
     <i type="logical" name="LDIAG"> T  </i>
     <i type="logical" name="LSUBROT"> F  </i>
     <i name="WEIMIN">      0.00100000</i>
     <i name="EBREAK">      0.00000001</i>
     <i name="DEPER">      0.30000000</i>
     <i type="int" name="NRMM">     4</i>
     <i name="TIME">      0.40000000</i>
    </separator>
   </separator>
   <separator name="electronic mixer" >
    <i name="AMIX">      0.40000000</i>
    <i name="BMIX">      1.00000000</i>
    <i name="AMIN">      0.10000000</i>
    <i name="AMIX_MAG">      1.60000000</i>
    <i name="BMIX_MAG">      1.00000000</i>
    <separator name="electronic mixer details" >
     <i type="int" name="IMIX">     4</i>
     <i type="logical" name="MIXFIRST"> F  </i>
     <i type="int" name="MAXMIX">   -45</i>
     <i name="WC">    100.00000000</i>
     <i type="int" name="INIMIX">     1</i>
     <i type="int" name="MIXPRE">     1</i>
     <i type="int" name="MREMOVE">     5</i>
    </separator>
   </separator>
   <separator name="electronic dipolcorrection" >
    <i type="logical" name="LDIPOL"> F  </i>
    <i type="logical" name="LMONO"> F  </i>
    <i type="int" name="IDIPOL">     0</i>
    <i name="EPSILON">      1.00000000</i>
    <v name="DIPOL">   -100.00000000   -100.00000000   -100.00000000</v>
    <i name="EFIELD">      0.00000000</i>
   </separator>
  </separator>
  <separator name="grids" >
   <i type="int" name="NGX">    18</i>
   <i type="int" name="NGY">    18</i>
   <i type="int" name="NGZ">   108</i>
   <i type="int" name="NGXF">    36</i>
   <i type="int" name="NGYF">    36</i>
   <i type="int" name="NGZF">   216</i>
   <i type="logical" name="ADDGRID"> F  </i>
  </separator>
  <separator name="ionic" >
   <i type="int" name="NSW">   100</i>
   <i type="int" name="IBRION">     2</i>
   <i type="int" name="MDALGO">     0</i>
   <i type="int" name="ISIF">     2</i>
   <i name="PSTRESS">      0.00000000</i>
   <i name="EDIFFG">     -0.01000000</i>
   <i type="int" name="NFREE">     1</i>
   <i name="POTIM">      0.50000000</i>
   <i name="SMASS">     -3.00000000</i>
   <i name="SCALEE">      1.00000000</i>
  </separator>
  <separator name="ionic md" >
   <i name="TEBEG">      0.00010000</i>
   <i name="TEEND">      0.00010000</i>
   <i type="int" name="NBLOCK">     1</i>
   <i type="int" name="KBLOCK">   100</i>
   <i type="int" name="NPACO">   256</i>
   <i name="APACO">     10.00000000</i>
  </separator>
  <separator name="symmetry" >
   <i type="int" name="ISYM">     2</i>
   <i name="SYMPREC">      0.00001000</i>
  </separator>
  <separator name="dos" >
   <i type="int" name="LORBIT">     0</i>
   <v name="RWIGS">     -1.00000000</v>
   <i type="int" name="NEDOS">   301</i>
   <i name="EMIN">     10.00000000</i>
   <i name="EMAX">    -10.00000000</i>
   <i name="EFERMI">      0.00000000</i>
  </separator>
  <separator name="writing" >
   <i type="int" name="NWRITE">     2</i>
   <i type="logical" name="LWAVE"> F  </i>
   <i type="logical" name="LDOWNSAMPLE"> F  </i>
   <i type="logical" name="LCHARG"> F  </i>
   <i type="logical" name="LPARD"> F  </i>
   <i type="logical" name="LVTOT"> F  </i>
   <i type="logical" name="LVHAR"> F  </i>
   <i type="logical" name="LELF"> F  </i>
   <i type="logical" name="LOPTICS"> F  </i>
   <v name="STM">      0.00000000      0.00000000      0.00000000      0.00000000      0.00000000      0.00000000      0.00000000</v>
  </separator>
  <separator name="performance" >
   <i type="int" name="NPAR">    48</i>
   <i type="int" name="NSIM">     4</i>
   <i type="int" name="NBLK">    -1</i>
   <i type="logical" name="LPLANE"> T  </i>
   <i type="logical" name="LSCALAPACK"> T  </i>
   <i type="logical" name="LSCAAWARE"> T  </i>
   <i type="logical" name="LSCALU"> F  </i>
   <i type="logical" name="LASYNC"> F  </i>
   <i type="logical" name="LORBITALREAL"> F  </i>
  </separator>
  <separator name="miscellaneous" >
   <i type="int" name="IDIOT">     3</i>
   <i type="int" name="PHON_NSTRUCT">    -1</i>
   <i type="logical" name="LMUSIC"> F  </i>
   <v name="POMASS">     12.01100000</v>
   <v name="DARWINR">      0.00000000</v>
   <v name="DARWINV">      1.00000000</v>
   <i type="logical" name="LCORR"> T  </i>
  </separator>
  <i type="logical" name="GGA_COMPAT"> T  </i>
  <i type="logical" name="LBERRY"> F  </i>
  <i type="int" name="ICORELEVEL">     0</i>
  <i type="logical" name="LDAU"> F  </i>
  <i type="int" name="I_CONSTRAINED_M">     0</i>
  <separator name="electronic exchange-correlation" >
   <i type="string" name="GGA">PE</i>
   <i type="int" name="VOSKOWN">     0</i>
   <i type="logical" name="LHFCALC"> F  </i>
   <i type="string" name="PRECFOCK"></i>
   <i type="logical" name="LSYMGRAD"> F  </i>
   <i type="logical" name="LHFONE"> F  </i>
   <i type="logical" name="LRHFCALC"> F  </i>
   <i type="logical" name="LTHOMAS"> F  </i>
   <i type="logical" name="LMODELHF"> F  </i>
   <i type="logical" name="LFOCKACE"> F  </i>
   <i name="ENCUT4O">     -1.00000000</i>
   <i type="int" name="EXXOEP">     0</i>
   <i type="int" name="FOURORBIT">     0</i>
   <i name="AEXX">      0.00000000</i>
   <i name="HFALPHA">      0.00000000</i>
   <i name="MCALPHA">      0.00000000</i>
   <i name="ALDAX">      1.00000000</i>
   <i name="AGGAX">      1.00000000</i>
   <i name="ALDAC">      1.00000000</i>
   <i name="AGGAC">      1.00000000</i>
   <i type="int" name="NKREDX">     1</i>
   <i type="int" name="NKREDY">     1</i>
   <i type="int" name="NKREDZ">     1</i>
   <i type="logical" name="SHIFTRED"> F  </i>
   <i type="logical" name="ODDONLY"> F  </i>
   <i type="logical" name="EVENONLY"> F  </i>
   <i type="int" name="LMAXFOCK">     0</i>
   <i type="int" name="NMAXFOCKAE">     0</i>
   <i type="logical" name="LFOCKAEDFT"> F  </i>
   <i name="HFSCREEN">      0.00000000</i>
   <i name="HFSCREENC">      0.00000000</i>
   <i type="int" name="NBANDSGWLOW">     0</i>
  </separator>
  <separator name="vdW DFT" >
   <i type="logical" name="LUSE_VDW"> F  </i>
   <i name="Zab_VDW">     -0.84910000</i>
   <i name="PARAM1">      0.12340000</i>
   <i name="PARAM2">      1.00000000</i>
   <i name="PARAM3">      0.00000000</i>
  </separator>
  <separator name="model GW" >
   <i type="int" name="MODEL_GW">     0</i>
   <i name="MODEL_EPS0">     24.35697000</i>
   <i name="MODEL_ALPHA">      1.00000000</i>
  </separator>
  <separator name="linear response parameters" >
   <i type="logical" name="LEPSILON"> F  </i>
   <i type="logical" name="LRPA"> F  </i>
   <i type="logical" name="LNABLA"> F  </i>
   <i type="logical" name="LVEL"> F  </i>
   <i name="CSHIFT">      0.10000000</i>
   <i name="OMEGAMAX">     -1.00000000</i>
   <i name="DEG_THRESHOLD">      0.00200000</i>
   <i name="RTIME">     -0.10000000</i>
   <i name="WPLASMAI">      0.00000000</i>
   <v name="DFIELD">      0.00000000      0.00000000      0.00000000</v>
   <v name="WPLASMA">      0.00000000      0.00000000      0.00000000      0.00000000      0.00000000      0.00000000      0.00000000      0.00000000      0.00000000</v>
  </separator>
  <separator name="orbital magnetization" >
   <i type="logical" name="NUCIND"> F  </i>
   <v name="MAGPOS">      0.00000000      0.00000000      0.00000000</v>
   <i type="logical" name="LNICSALL"> T  </i>
   <i type="logical" name="ORBITALMAG"> F  </i>
   <i type="logical" name="LMAGBLOCH"> F  </i>
   <i type="logical" name="LCHIMAG"> F  </i>
   <i type="logical" name="LGAUGE"> T  </i>
   <i type="int" name="MAGATOM">     0</i>
   <v name="MAGDIPOL">      0.00000000      0.00000000      0.00000000</v>
   <v name="AVECCONST">      0.00000000      0.00000000      0.00000000</v>
  </separator>
  <separator name="response functions" >
   <i type="logical" name="LFINITE_TEMPERATURE"> F  </i>
   <i type="logical" name="LADDER"> F  </i>
   <i type="logical" name="LRPAFORCE"> F  </i>
   <i type="logical" name="LFXC"> F  </i>
   <i type="logical" name="LHARTREE"> T  </i>
   <i type="int" name="IBSE">     0</i>
   <v type="int" name="KPOINT">    -1     0     0     0</v>
   <i type="logical" name="LTCTC"> F  </i>
   <i type="logical" name="LTCTE"> F  </i>
   <i type="logical" name="LTETE"> F  </i>
   <i type="logical" name="LTRIPLET"> F  </i>
   <i type="logical" name="LFXCEPS"> F  </i>
   <i type="logical" name="LFXHEG"> F  </i>
   <i type="int" name="NATURALO">     2</i>
   <i type="logical" name="LHOLEGF"> F  </i>
   <i type="logical" name="L2ORDER"> F  </i>
   <i type="logical" name="LDMP1"> F  </i>
   <i type="logical" name="LMP2LT"> F  </i>
   <i type="logical" name="LSMP2LT"> F  </i>
   <i type="logical" name="LGWLF"> F  </i>
   <i name="ENCUTGW">     -2.00000000</i>
   <i name="ENCUTGWSOFT">     -2.00000000</i>
   <i name="ENCUTLF">     -1.00000000</i>
   <i type="logical" name="LESF_SPLINES"> F  </i>
   <i type="int" name="LMAXMP2">    -1</i>
   <i name="SCISSOR">      0.00000000</i>
   <i type="int" name="NOMEGA">     0</i>
   <i type="int" name="NOMEGAR">     0</i>
   <i type="int" name="NBANDSGW">    -1</i>
   <i type="int" name="NBANDSO">    -1</i>
   <i type="int" name="NBANDSV">    -1</i>
   <i type="int" name="NELMGW">     1</i>
   <i type="int" name="NELMHF">     1</i>
   <i type="int" name="DIM">     3</i>
   <i type="int" name="IESPILON">     4</i>
   <i type="int" name="ANTIRES">     0</i>
   <i name="OMEGAMAX">    -30.00000000</i>
   <i name="OMEGAMIN">    -30.00000000</i>
   <i name="OMEGATL">   -200.00000000</i>
   <i type="int" name="OMEGAGRID">     0</i>
   <i name="CSHIFT">     -0.10000000</i>
   <i type="logical" name="LSELFENERGY"> F  </i>
   <i type="logical" name="LSPECTRAL"> F  </i>
   <i type="logical" name="LSPECTRALGW"> F  </i>
   <i type="logical" name="LSINGLES"> F  </i>
   <i type="logical" name="LFERMIGW"> F  </i>
   <i type="logical" name="ODDONLYGW"> F  </i>
   <i type="logical" name="EVENONLYGW"> F  </i>
   <i type="int" name="NKREDLFX">     1</i>
   <i type="int" name="NKREDLFY">     1</i>
   <i type="int" name="NKREDLFZ">     1</i>
   <i type="int" name="MAXMEM">  2800</i>
   <i type="int" name="TELESCOPE">     0</i>
   <i type="int" name="NTAUPAR">    -1</i>
   <i type="int" name="NOMEGAPAR">    -1</i>
   <i name="DAMP_NEWTON">      0.80000001</i>
   <i name="LAMBDA">      1.00000000</i>
  </separator>
  <separator name="External order field" >
   <i name="OFIELD_KAPPA">      0.00000000</i>
   <v name="OFIELD_K">      0.00000000      0.00000000      0.00000000</v>
   <i name="OFIELD_Q6_NEAR">      0.00000000</i>
   <i name="OFIELD_Q6_FAR">      0.00000000</i>
   <i name="OFIELD_A">      0.00000000</i>
  </separator>
  <separator name="optional k-points parameters" >
   <i type="int" name="KPOINTS_OPT_MODE">     1</i>
   <i type="logical" name="LKPOINTS_OPT"> F  </i>
  </separator>
  <separator name="solvation model" >
   <i type="logical" name="LSOL"> F  </i>
  </separator>
 </parameters>
 <atominfo>
  <atoms>       2 </atoms>
  <types>       1 </types>
  <array name="atoms" >
   <dimension dim="1">ion</dimension>
   <field type="string">element</field>
   <field type="int">atomtype</field>
   <set>
    <rc><c>C </c><c>   1</c></rc>
    <rc><c>C </c><c>   1</c></rc>
   </set>
  </array>
  <array name="atomtypes" >
   <dimension dim="1">type</dimension>
   <field type="int">atomspertype</field>
   <field type="string">element</field>
   <field>mass</field>
   <field>valence</field>
   <field type="string">pseudopotential</field>
   <set>
    <rc><c>   2</c><c>C </c><c>     12.01100000</c><c>      4.00000000</c><c>  PAW_PBE C 08Apr2002                   </c></rc>
   </set>
  </array>
 </atominfo>
 <structure name="initialpos" >
  <crystal>
   <varray name="basis" >
    <v>       2.16506400       1.25000000       0.00000000 </v>
    <v>      -2.16506400       1.25000000       0.00000000 </v>
    <v>       0.00000000       0.00000000      15.00000000 </v>
   </varray>
   <i name="volume">     81.18990000 </i>
   <varray name="rec_basis" >
    <v>       0.23094006       0.40000000       0.00000000 </v>
    <v>      -0.23094006       0.40000000       0.00000000 </v>
    <v>       0.00000000       0.00000000       0.06666667 </v>
   </varray>
  </crystal>
  <varray name="positions" >
   <v>       0.33333300       0.66666600       0.10000000 </v>
   <v>       0.66666600       0.33333300       0.10000000 </v>
  </varray>
 </structure>
 <calculation>
  <scstep>
   <time name="dav">    0.30    0.30</time>
   <time name="total">    0.31    0.31</time>
   <energy>
    <i name="alphaZ">      4.04713966 </i>
    <i name="ewald">    806.82582229 </i>
    <i name="hartreedc">  -1027.68763148 </i>
    <i name="XCdc">     26.17730135 </i>
    <i name="pawpsdc">    217.04409276 </i>
    <i name="pawaedc">   -218.18290438 </i>
    <i name="eentropy">     -0.00000040 </i>
    <i name="bandstr">   -112.38281413 </i>
    <i name="atom">    294.28875697 </i>
    <i name="e_fr_energy">     -9.87023735 </i>
    <i name="e_wo_entrp">     -9.87023695 </i>
    <i name="e_0_energy">     -9.87023715 </i>
   </energy>
  </scstep>
  <scstep>
   <time name="dav">    0.52    0.52</time>
   <time name="total">    0.52    0.52</time>
   <energy>
    <i name="e_fr_energy">    -19.53655532 </i>
    <i name="e_wo_entrp">    -19.53498821 </i>
    <i name="e_0_energy">    -19.53577176 </i>
   </energy>
  </scstep>
  <scstep>
   <time name="dav">    0.29    0.30</time>
   <time name="total">    0.29    0.30</time>
   <energy>
    <i name="e_fr_energy">    -19.54447481 </i>
    <i name="e_wo_entrp">    -19.54290762 </i>
    <i name="e_0_energy">    -19.54369121 </i>
   </energy>
  </scstep>
  <scstep>
   <time name="dav">    0.81    0.82</time>
   <time name="total">    0.81    0.82</time>
   <energy>
    <i name="e_fr_energy">    -19.54448633 </i>
    <i name="e_wo_entrp">    -19.54291913 </i>
    <i name="e_0_energy">    -19.54370273 </i>
   </energy>
  </scstep>
  <scstep>
   <time name="dav">    0.28    0.29</time>
   <time name="total">    0.29    0.30</time>
   <energy>
    <i name="e_fr_energy">    -19.54448633 </i>
    <i name="e_wo_entrp">    -19.54291913 </i>
    <i name="e_0_energy">    -19.54370273 </i>
   </energy>
  </scstep>
  <scstep>
   <time name="dav">    0.50    0.50</time>
   <time name="total">    0.51    0.52</time>
   <energy>
    <i name="e_fr_energy">    -18.74490997 </i>
    <i name="e_wo_entrp">    -18.74334278 </i>
    <i name="e_0_energy">    -18.74412638 </i>
   </energy>
  </scstep>
  <scstep>
   <time name="dav">    0.55    0.56</time>
   <time name="total">    0.57    0.57</time>
   <energy>
    <i name="e_fr_energy">    -18.43461980 </i>
    <i name="e_wo_entrp">    -18.43305261 </i>
    <i name="e_0_energy">    -18.43383621 </i>
   </energy>
  </scstep>
  <scstep>
   <time name="dav">    0.62    0.62</time>
   <time name="total">    0.64    0.65</time>
   <energy>
    <i name="e_fr_energy">    -18.42816653 </i>
    <i name="e_wo_entrp">    -18.42659934 </i>
    <i name="e_0_energy">    -18.42738294 </i>
   </energy>
  </scstep>
  <scstep>
   <time name="dav">    0.56    0.57</time>
   <time name="total">    0.58    0.59</time>
   <energy>
    <i name="e_fr_energy">    -18.42568538 </i>
    <i name="e_wo_entrp">    -18.42411819 </i>
    <i name="e_0_energy">    -18.42490179 </i>
   </energy>
  </scstep>
  <scstep>
   <time name="dav">    0.50    0.51</time>
   <time name="total">    0.52    0.52</time>
   <energy>
    <i name="e_fr_energy">    -18.42482610 </i>
    <i name="e_wo_entrp">    -18.42325891 </i>
    <i name="e_0_energy">    -18.42404251 </i>
   </energy>
  </scstep>
  <scstep>
   <time name="dav">    0.45    0.45</time>
   <time name="total">    0.46    0.47</time>
   <energy>
    <i name="e_fr_energy">    -18.42496382 </i>
    <i name="e_wo_entrp">    -18.42339663 </i>
    <i name="e_0_energy">    -18.42418023 </i>
   </energy>
  </scstep>
  <scstep>
   <time name="dav">    0.39    0.39</time>
   <time name="total">    0.40    0.41</time>
   <energy>
    <i name="e_fr_energy">    -18.42533657 </i>
    <i name="e_wo_entrp">    -18.42376937 </i>
    <i name="e_0_energy">    -18.42455297 </i>
   </energy>
  </scstep>
  <scstep>
   <time name="dav">    0.53    0.54</time>
   <time name="total">    0.55    0.55</time>
   <energy>
    <i name="e_fr_energy">    -18.42594914 </i>
    <i name="e_wo_entrp">    -18.42438195 </i>
    <i name="e_0_energy">    -18.42516554 </i>
   </energy>
  </scstep>
  <scstep>
   <time name="dav">    0.51    0.51</time>
   <time name="total">    0.52    0.53</time>
   <energy>
    <i name="e_fr_energy">    -18.42606804 </i>
    <i name="e_wo_entrp">    -18.42450084 </i>
    <i name="e_0_energy">    -18.42528444 </i>
   </energy>
  </scstep>
  <scstep>
   <time name="dav">    0.51    0.52</time>
   <time name="total">    0.53    0.53</time>
   <energy>
    <i name="e_fr_energy">    -18.42608872 </i>
    <i name="e_wo_entrp">    -18.42452152 </i>
    <i name="e_0_energy">    -18.42530512 </i>
   </energy>
  </scstep>
  <scstep>
   <time name="dav">    0.48    0.48</time>
   <time name="total">    0.50    0.50</time>
   <energy>
    <i name="e_fr_energy">    -18.42609537 </i>
    <i name="e_wo_entrp">    -18.42452817 </i>
    <i name="e_0_energy">    -18.42531177 </i>
   </energy>
  </scstep>
  <scstep>
   <time name="dav">    0.47    0.47</time>
   <time name="total">    0.48    0.48</time>
   <energy>
    <i name="alphaZ">      4.04713966 </i>
    <i name="ewald">    806.82582229 </i>
    <i name="hartreedc">  -1058.54824949 </i>
    <i name="XCdc">     27.29771507 </i>
    <i name="pawpsdc">    795.49419087 </i>
    <i name="pawaedc">   -796.83872685 </i>
    <i name="eentropy">     -0.00156719 </i>
    <i name="bandstr">    -90.99117700 </i>
    <i name="atom">    294.28875697 </i>
    <i name="e_fr_energy">    -18.42609569 </i>
    <i name="e_wo_entrp">    -18.42452849 </i>
    <i name="e_0_energy">    -18.42531209 </i>
   </energy>
  </scstep>
  <structure>
   <crystal>
    <varray name="basis" >
     <v>       2.16506400       1.25000000       0.00000000 </v>
     <v>      -2.16506400       1.25000000       0.00000000 </v>
     <v>       0.00000000       0.00000000      15.00000000 </v>
    </varray>
    <i name="volume">     81.18990000 </i>
    <varray name="rec_basis" >
     <v>       0.23094006       0.40000000       0.00000000 </v>
     <v>      -0.23094006       0.40000000       0.00000000 </v>
     <v>       0.00000000       0.00000000       0.06666667 </v>
    </varray>
   </crystal>
   <varray name="positions" >
    <v>       0.33333300       0.66666600       0.10000000 </v>
    <v>       0.66666600       0.33333300       0.10000000 </v>
   </varray>
  </structure>
  <varray name="forces" >
   <v>      -0.00000000       0.00000000      -0.00000000 </v>
   <v>       0.00000000      -0.00000000       0.00000000 </v>
  </varray>
  <varray name="stress" >
   <v>     -35.97256477       0.00000000       0.00000000 </v>
   <v>       0.00000000     -35.97254847      -0.00000000 </v>
   <v>       0.00000000      -0.00000000      -1.35523918 </v>
  </varray>
  <energy>
   <i name="e_fr_energy">    -18.60167976 </i>
   <i name="e_wo_entrp">    -18.60011257 </i>
   <i name="e_0_energy">    -18.60089617 </i>
  </energy>
  <time name="totalsc">    8.58    8.70</time>
  <eigenvalues>
   <array>
    <dimension dim="1">band</dimension>
    <dimension dim="2">kpoint</dimension>
    <dimension dim="3">spin</dimension>
    <field>eigene</field>
    <field>occ</field>
    <set>
     <set comment="spin 1">
      <set comment="kpoint 1">
       <r>  -21.5797    1.0000 </r>
       <r>   -9.7359    1.0000 </r>
       <r>   -5.4370    1.0000 </r>
       <r>   -5.4369    1.0000 </r>
       <r>    0.9882    0.0000 </r>
       <r>    1.8862    0.0000 </r>
       <r>    2.4240    0.0000 </r>
       <r>    4.3155    0.0000 </r>
       <r>    5.0779    0.0000 </r>
       <r>    5.6661    0.0000 </r>
       <r>    5.6661    0.0000 </r>
       <r>    8.2108    0.0000 </r>
       <r>    8.5436    0.0000 </r>
       <r>    9.1901    0.0000 </r>
       <r>    9.3335    0.0000 </r>
       <r>   13.5258    0.0000 </r>
       <r>   15.0571    0.0000 </r>
       <r>   19.5844    0.0000 </r>
       <r>   20.0579    0.0000 </r>
       <r>   22.2072    0.0000 </r>
       <r>   25.2247    0.0000 </r>
       <r>   25.2247    0.0000 </r>
       <r>   26.8601    0.0000 </r>
       <r>   28.5783    0.0000 </r>
       <r>   28.5783    0.0000 </r>
       <r>   30.7039    0.0000 </r>
       <r>   31.0165    0.0000 </r>
       <r>   32.0881    0.0000 </r>
       <r>   32.0881    0.0000 </r>
       <r>   32.5644    0.0000 </r>
       <r>   32.5644    0.0000 </r>
       <r>   33.0270    0.0000 </r>
       <r>   33.3095    0.0000 </r>
       <r>   33.5963    0.0000 </r>
       <r>   34.2450    0.0000 </r>
       <r>   34.2450    0.0000 </r>
       <r>   34.3317    0.0000 </r>
       <r>   34.3317    0.0000 </r>
       <r>   34.3800    0.0000 </r>
       <r>   34.3800    0.0000 </r>
       <r>   34.4994    0.0000 </r>
       <r>   34.5054    0.0000 </r>
       <r>   34.5331    0.0000 </r>
       <r>   34.5331    0.0000 </r>
       <r>   34.7532    0.0000 </r>
       <r>   35.8542    0.0000 </r>
       <r>   36.5756    0.0000 </r>
       <r>   36.5756    0.0000 </r>
      </set>
      <set comment="kpoint 2">
       <r>  -21.4195    1.0000 </r>
       <r>   -9.5465    1.0000 </r>
       <r>   -6.0786    1.0000 </r>
       <r>   -5.7607    1.0000 </r>
       <r>    1.2052    0.0000 </r>
       <r>    2.1046    0.0000 </r>
       <r>    2.6448    0.0000 </r>
       <r>    4.5325    0.0000 </r>
       <r>    5.2855    0.0000 </r>
       <r>    5.7330    0.0000 </r>
       <r>    6.3341    0.0000 </r>
       <r>    8.0142    0.0000 </r>
       <r>    8.4210    0.0000 </r>
       <r>    9.5111    0.0000 </r>
       <r>    9.5534    0.0000 </r>
       <r>   13.7170    0.0000 </r>
       <r>   15.2704    0.0000 </r>
       <r>   20.0766    0.0000 </r>
       <r>   20.1303    0.0000 </r>
       <r>   22.4199    0.0000 </r>
       <r>   23.6481    0.0000 </r>
       <r>   23.9938    0.0000 </r>
       <r>   26.5479    0.0000 </r>
       <r>   27.7877    0.0000 </r>
       <r>   28.9534    0.0000 </r>
       <r>   29.3246    0.0000 </r>
       <r>   29.4890    0.0000 </r>
       <r>   29.9278    0.0000 </r>
       <r>   30.1569    0.0000 </r>
       <r>   30.7317    0.0000 </r>
       <r>   30.9239    0.0000 </r>
       <r>   31.5024    0.0000 </r>
       <r>   31.8141    0.0000 </r>
       <r>   31.9110    0.0000 </r>
       <r>   32.0189    0.0000 </r>
       <r>   32.1366    0.0000 </r>
       <r>   32.1766    0.0000 </r>
       <r>   33.4195    0.0000 </r>
       <r>   34.1670    0.0000 </r>
       <r>   34.2041    0.0000 </r>
       <r>   34.5297    0.0000 </r>
       <r>   34.7234    0.0000 </r>
       <r>   35.1257    0.0000 </r>
       <r>   35.4120    0.0000 </r>
       <r>   35.6934    0.0000 </r>
       <r>   36.4050    0.0000 </r>
       <r>   37.0015    0.0000 </r>
       <r>   37.3999    0.0000 </r>
      </set>
      <set comment="kpoint 3">
       <r>  -20.9409    1.0000 </r>
       <r>   -8.9839    1.0000 </r>
       <r>   -7.6892    1.0000 </r>
       <r>   -6.5211    1.0000 </r>
       <r>    1.8559    0.0000 </r>
       <r>    2.7580    0.0000 </r>
       <r>    3.3073    0.0000 </r>
       <r>    5.1792    0.0000 </r>
       <r>    5.5911    0.0000 </r>
       <r>    5.9838    0.0000 </r>
       <r>    6.5857    0.0000 </r>
       <r>    8.1049    0.0000 </r>
       <r>    9.0466    0.0000 </r>
       <r>   10.1928    0.0000 </r>
       <r>   10.5582    0.0000 </r>
       <r>   14.2599    0.0000 </r>
       <r>   15.9019    0.0000 </r>
       <r>   19.5845    0.0000 </r>
       <r>   21.0427    0.0000 </r>
       <r>   21.8129    0.0000 </r>
       <r>   22.2316    0.0000 </r>
       <r>   23.0499    0.0000 </r>
       <r>   23.5924    0.0000 </r>
       <r>   24.7264    0.0000 </r>
       <r>   24.7606    0.0000 </r>
       <r>   26.6502    0.0000 </r>
       <r>   27.3434    0.0000 </r>
       <r>   27.8353    0.0000 </r>
       <r>   27.9564    0.0000 </r>
       <r>   28.9185    0.0000 </r>
       <r>   29.1840    0.0000 </r>
       <r>   29.8634    0.0000 </r>
       <r>   29.9115    0.0000 </r>
       <r>   30.1388    0.0000 </r>
       <r>   30.7288    0.0000 </r>
       <r>   31.4359    0.0000 </r>
       <r>   31.4897    0.0000 </r>
       <r>   31.5311    0.0000 </r>
       <r>   32.2296    0.0000 </r>
       <r>   32.2713    0.0000 </r>
       <r>   32.9140    0.0000 </r>
       <r>   32.9480    0.0000 </r>
       <r>   33.6102    0.0000 </r>
       <r>   35.8787    0.0000 </r>
       <r>   36.2394    0.0000 </r>
       <r>   36.7821    0.0000 </r>
       <r>   36.7883    0.0000 </r>
       <r>   36.8452    0.0000 </r>
      </set>
      <set comment="kpoint 4">
       <r>  -20.1499    1.0000 </r>
       <r>   -9.7455    1.0000 </r>
       <r>   -8.0669    1.0000 </r>
       <r>   -7.3674    1.0000 </r>
       <r>    2.9380    0.0000 </r>
       <r>    3.8195    0.0000 </r>
       <r>    4.4091    0.0000 </r>
       <r>    4.6061    0.0000 </r>
       <r>    5.2937    0.0000 </r>
       <r>    6.2717    0.0000 </r>
       <r>    7.0441    0.0000 </r>
       <r>   10.0709    0.0000 </r>
       <r>   10.5524    0.0000 </r>
       <r>   11.2574    0.0000 </r>
       <r>   12.0301    0.0000 </r>
       <r>   14.9805    0.0000 </r>
       <r>   16.9294    0.0000 </r>
       <r>   17.7143    0.0000 </r>
       <r>   19.0339    0.0000 </r>
       <r>   20.4271    0.0000 </r>
       <r>   20.4506    0.0000 </r>
       <r>   20.7625    0.0000 </r>
       <r>   22.0857    0.0000 </r>
       <r>   22.3688    0.0000 </r>
       <r>   23.6408    0.0000 </r>
       <r>   23.6419    0.0000 </r>
       <r>   24.5268    0.0000 </r>
       <r>   26.3840    0.0000 </r>
       <r>   26.4026    0.0000 </r>
       <r>   27.1940    0.0000 </r>
       <r>   27.8231    0.0000 </r>
       <r>   27.9165    0.0000 </r>
       <r>   28.3380    0.0000 </r>
       <r>   28.3522    0.0000 </r>
       <r>   28.6805    0.0000 </r>
       <r>   29.5136    0.0000 </r>
       <r>   30.2211    0.0000 </r>
       <r>   30.6695    0.0000 </r>
       <r>   30.8847    0.0000 </r>
       <r>   31.3690    0.0000 </r>
       <r>   32.4715    0.0000 </r>
       <r>   32.5794    0.0000 </r>
       <r>   33.1831    0.0000 </r>
       <r>   33.3661    0.0000 </r>
       <r>   34.6592    0.0000 </r>
       <r>   35.0057    0.0000 </r>
       <r>   35.5894    0.0000 </r>
       <r>   35.7380    0.0000 </r>
      </set>
      <set comment="kpoint 5">
       <r>  -19.0593    1.0000 </r>
       <r>  -11.8989    1.0000 </r>
       <r>   -8.0740    1.0000 </r>
       <r>   -6.8453    1.0000 </r>
       <r>    2.3529    0.0000 </r>
       <r>    4.4328    0.0000 </r>
       <r>    4.9488    0.0000 </r>
       <r>    5.3828    0.0000 </r>
       <r>    5.9637    0.0000 </r>
       <r>    7.7666    0.0000 </r>
       <r>    8.5523    0.0000 </r>
       <r>   11.4327    0.0000 </r>
       <r>   12.7048    0.0000 </r>
       <r>   12.9641    0.0000 </r>
       <r>   13.2669    0.0000 </r>
       <r>   14.6420    0.0000 </r>
       <r>   15.9626    0.0000 </r>
       <r>   16.4304    0.0000 </r>
       <r>   16.9505    0.0000 </r>
       <r>   17.7730    0.0000 </r>
       <r>   18.3126    0.0000 </r>
       <r>   19.5585    0.0000 </r>
       <r>   19.6917    0.0000 </r>
       <r>   19.7568    0.0000 </r>
       <r>   22.7340    0.0000 </r>
       <r>   22.9426    0.0000 </r>
       <r>   24.4470    0.0000 </r>
       <r>   24.7124    0.0000 </r>
       <r>   25.2641    0.0000 </r>
       <r>   25.7801    0.0000 </r>
       <r>   26.4628    0.0000 </r>
       <r>   26.7740    0.0000 </r>
       <r>   27.2327    0.0000 </r>
       <r>   27.2330    0.0000 </r>
       <r>   27.5714    0.0000 </r>
       <r>   28.2089    0.0000 </r>
       <r>   29.5016    0.0000 </r>
       <r>   29.5265    0.0000 </r>
       <r>   29.5982    0.0000 </r>
       <r>   29.7901    0.0000 </r>
       <r>   30.3986    0.0000 </r>
       <r>   32.1252    0.0000 </r>
       <r>   32.3724    0.0000 </r>
       <r>   33.4192    0.0000 </r>
       <r>   33.9881    0.0000 </r>
       <r>   33.9945    0.0000 </r>
       <r>   34.7528    0.0000 </r>
       <r>   35.6769    0.0000 </r>
      </set>
      <set comment="kpoint 6">
       <r>  -17.7047    1.0000 </r>
       <r>  -13.9426    1.0000 </r>
       <r>   -8.5298    1.0000 </r>
       <r>   -5.4793    1.0000 </r>
       <r>    0.3124    0.0000 </r>
       <r>    4.6708    0.0000 </r>
       <r>    6.3899    0.0000 </r>
       <r>    7.3084    0.0000 </r>
       <r>    7.9448    0.0000 </r>
       <r>    9.6492    0.0000 </r>
       <r>   10.4756    0.0000 </r>
       <r>   11.2670    0.0000 </r>
       <r>   12.0777    0.0000 </r>
       <r>   13.1680    0.0000 </r>
       <r>   13.2160    0.0000 </r>
       <r>   14.5698    0.0000 </r>
       <r>   14.5941    0.0000 </r>
       <r>   15.1404    0.0000 </r>
       <r>   15.6758    0.0000 </r>
       <r>   16.6475    0.0000 </r>
       <r>   17.5720    0.0000 </r>
       <r>   18.8872    0.0000 </r>
       <r>   19.0440    0.0000 </r>
       <r>   19.7555    0.0000 </r>
       <r>   20.8514    0.0000 </r>
       <r>   20.9398    0.0000 </r>
       <r>   23.7992    0.0000 </r>
       <r>   24.5308    0.0000 </r>
       <r>   24.6180    0.0000 </r>
       <r>   25.4195    0.0000 </r>
       <r>   25.7350    0.0000 </r>
       <r>   26.5319    0.0000 </r>
       <r>   26.5521    0.0000 </r>
       <r>   26.5676    0.0000 </r>
       <r>   26.7854    0.0000 </r>
       <r>   27.1403    0.0000 </r>
       <r>   28.4784    0.0000 </r>
       <r>   28.5792    0.0000 </r>
       <r>   28.7871    0.0000 </r>
       <r>   29.1281    0.0000 </r>
       <r>   29.6084    0.0000 </r>
       <r>   31.2581    0.0000 </r>
       <r>   32.3630    0.0000 </r>
       <r>   32.5457    0.0000 </r>
       <r>   33.3390    0.0000 </r>
       <r>   33.3436    0.0000 </r>
       <r>   33.8424    0.0000 </r>
       <r>   34.6717    0.0000 </r>
      </set>
      <set comment="kpoint 7">
       <r>  -16.5221    1.0000 </r>
       <r>  -15.3625    1.0000 </r>
       <r>   -8.6865    1.0000 </r>
       <r>   -4.6733    1.0000 </r>
       <r>   -0.7336    0.0000 </r>
       <r>    4.5843    0.0000 </r>
       <r>    8.6259    0.0000 </r>
       <r>    8.7802    0.0000 </r>
       <r>    9.4751    0.0000 </r>
       <r>    9.7383    0.0000 </r>
       <r>   10.3478    0.0000 </r>
       <r>   10.3726    0.0000 </r>
       <r>   11.6594    0.0000 </r>
       <r>   12.1740    0.0000 </r>
       <r>   12.7359    0.0000 </r>
       <r>   12.8126    0.0000 </r>
       <r>   14.4584    0.0000 </r>
       <r>   16.0049    0.0000 </r>
       <r>   16.4048    0.0000 </r>
       <r>   16.7250    0.0000 </r>
       <r>   16.7423    0.0000 </r>
       <r>   18.2525    0.0000 </r>
       <r>   18.8274    0.0000 </r>
       <r>   19.2079    0.0000 </r>
       <r>   21.3075    0.0000 </r>
       <r>   21.3151    0.0000 </r>
       <r>   23.2155    0.0000 </r>
       <r>   23.4123    0.0000 </r>
       <r>   24.2528    0.0000 </r>
       <r>   24.8528    0.0000 </r>
       <r>   25.5552    0.0000 </r>
       <r>   25.8413    0.0000 </r>
       <r>   26.3192    0.0000 </r>
       <r>   26.3457    0.0000 </r>
       <r>   26.5514    0.0000 </r>
       <r>   27.9702    0.0000 </r>
       <r>   27.9867    0.0000 </r>
       <r>   28.5035    0.0000 </r>
       <r>   28.9070    0.0000 </r>
       <r>   29.1981    0.0000 </r>
       <r>   30.2005    0.0000 </r>
       <r>   30.2648    0.0000 </r>
       <r>   31.1900    0.0000 </r>
       <r>   31.7684    0.0000 </r>
       <r>   32.3333    0.0000 </r>
       <r>   33.1247    0.0000 </r>
       <r>   33.5336    0.0000 </r>
       <r>   33.9705    0.0000 </r>
      </set>
      <set comment="kpoint 8">
       <r>  -21.1002    1.0000 </r>
       <r>   -9.1704    1.0000 </r>
       <r>   -7.0993    1.0000 </r>
       <r>   -6.4104    1.0000 </r>
       <r>    1.6392    0.0000 </r>
       <r>    2.5407    0.0000 </r>
       <r>    3.0866    0.0000 </r>
       <r>    4.9651    0.0000 </r>
       <r>    5.6968    0.0000 </r>
       <r>    6.0480    0.0000 </r>
       <r>    7.0461    0.0000 </r>
       <r>    7.1197    0.0000 </r>
       <r>    8.8366    0.0000 </r>
       <r>    9.9841    0.0000 </r>
       <r>   10.3260    0.0000 </r>
       <r>   14.0796    0.0000 </r>
       <r>   15.6925    0.0000 </r>
       <r>   19.7569    0.0000 </r>
       <r>   20.8401    0.0000 </r>
       <r>   21.8169    0.0000 </r>
       <r>   22.8577    0.0000 </r>
       <r>   23.3180    0.0000 </r>
       <r>   25.4587    0.0000 </r>
       <r>   25.9757    0.0000 </r>
       <r>   26.7256    0.0000 </r>
       <r>   27.0887    0.0000 </r>
       <r>   27.1046    0.0000 </r>
       <r>   27.1166    0.0000 </r>
       <r>   27.2134    0.0000 </r>
       <r>   29.1413    0.0000 </r>
       <r>   29.4529    0.0000 </r>
       <r>   29.5812    0.0000 </r>
       <r>   29.8037    0.0000 </r>
       <r>   30.5951    0.0000 </r>
       <r>   31.2953    0.0000 </r>
       <r>   32.0245    0.0000 </r>
       <r>   33.1153    0.0000 </r>
       <r>   33.2093    0.0000 </r>
       <r>   33.6382    0.0000 </r>
       <r>   33.8629    0.0000 </r>
       <r>   34.0263    0.0000 </r>
       <r>   34.3235    0.0000 </r>
       <r>   34.9848    0.0000 </r>
       <r>   35.0845    0.0000 </r>
       <r>   35.1749    0.0000 </r>
       <r>   35.2504    0.0000 </r>
       <r>   36.4836    0.0000 </r>
       <r>   37.3936    0.0000 </r>
      </set>
      <set comment="kpoint 9">
       <r>  -20.4653    1.0000 </r>
       <r>   -8.7794    1.0000 </r>
       <r>   -8.4295    1.0000 </r>
       <r>   -7.3719    1.0000 </r>
       <r>    2.5064    0.0000 </r>
       <r>    3.4084    0.0000 </r>
       <r>    3.9700    0.0000 </r>
       <r>    5.3755    0.0000 </r>
       <r>    5.8343    0.0000 </r>
       <r>    6.0731    0.0000 </r>
       <r>    6.6302    0.0000 </r>
       <r>    8.5466    0.0000 </r>
       <r>    9.6532    0.0000 </r>
       <r>   10.8417    0.0000 </r>
       <r>   12.0200    0.0000 </r>
       <r>   14.6701    0.0000 </r>
       <r>   16.5222    0.0000 </r>
       <r>   17.9211    0.0000 </r>
       <r>   20.7493    0.0000 </r>
       <r>   21.5123    0.0000 </r>
       <r>   21.8766    0.0000 </r>
       <r>   22.2045    0.0000 </r>
       <r>   22.8821    0.0000 </r>
       <r>   23.2561    0.0000 </r>
       <r>   23.6822    0.0000 </r>
       <r>   24.3321    0.0000 </r>
       <r>   25.2435    0.0000 </r>
       <r>   25.3103    0.0000 </r>
       <r>   25.5428    0.0000 </r>
       <r>   25.7446    0.0000 </r>
       <r>   27.2519    0.0000 </r>
       <r>   27.9779    0.0000 </r>
       <r>   28.2636    0.0000 </r>
       <r>   29.6360    0.0000 </r>
       <r>   29.6502    0.0000 </r>
       <r>   30.6006    0.0000 </r>
       <r>   31.3967    0.0000 </r>
       <r>   32.0683    0.0000 </r>
       <r>   32.4956    0.0000 </r>
       <r>   32.5256    0.0000 </r>
       <r>   33.0198    0.0000 </r>
       <r>   33.3773    0.0000 </r>
       <r>   34.3612    0.0000 </r>
       <r>   35.0504    0.0000 </r>
       <r>   35.5483    0.0000 </r>
       <r>   35.7318    0.0000 </r>
       <r>   36.6496    0.0000 </r>
       <r>   36.8888    0.0000 </r>
      </set>
      <set comment="kpoint 10">
       <r>  -19.5242    1.0000 </r>
       <r>  -10.8065    1.0000 </r>
       <r>   -8.2295    1.0000 </r>
       <r>   -7.3539    1.0000 </r>
       <r>    3.3164    0.0000 </r>
       <r>    3.8024    0.0000 </r>
       <r>    4.7259    0.0000 </r>
       <r>    5.2896    0.0000 </r>
       <r>    5.8088    0.0000 </r>
       <r>    7.1130    0.0000 </r>
       <r>    7.9072    0.0000 </r>
       <r>   10.6097    0.0000 </r>
       <r>   10.8190    0.0000 </r>
       <r>   12.1172    0.0000 </r>
       <r>   13.9083    0.0000 </r>
       <r>   14.6795    0.0000 </r>
       <r>   16.9392    0.0000 </r>
       <r>   17.4912    0.0000 </r>
       <r>   17.7662    0.0000 </r>
       <r>   18.5834    0.0000 </r>
       <r>   18.7453    0.0000 </r>
       <r>   20.3122    0.0000 </r>
       <r>   21.1928    0.0000 </r>
       <r>   21.9170    0.0000 </r>
       <r>   22.2143    0.0000 </r>
       <r>   23.3899    0.0000 </r>
       <r>   23.5577    0.0000 </r>
       <r>   23.9389    0.0000 </r>
       <r>   24.1113    0.0000 </r>
       <r>   25.2581    0.0000 </r>
       <r>   25.7608    0.0000 </r>
       <r>   26.1406    0.0000 </r>
       <r>   26.3134    0.0000 </r>
       <r>   26.9362    0.0000 </r>
       <r>   29.0286    0.0000 </r>
       <r>   30.0477    0.0000 </r>
       <r>   30.3749    0.0000 </r>
       <r>   30.9645    0.0000 </r>
       <r>   31.5571    0.0000 </r>
       <r>   31.6141    0.0000 </r>
       <r>   32.0380    0.0000 </r>
       <r>   32.0747    0.0000 </r>
       <r>   33.1107    0.0000 </r>
       <r>   33.4996    0.0000 </r>
       <r>   34.4024    0.0000 </r>
       <r>   34.6249    0.0000 </r>
       <r>   36.3737    0.0000 </r>
       <r>   36.3809    0.0000 </r>
      </set>
      <set comment="kpoint 11">
       <r>  -18.2973    1.0000 </r>
       <r>  -12.8765    1.0000 </r>
       <r>   -8.8444    1.0000 </r>
       <r>   -6.0267    1.0000 </r>
       <r>    1.2111    0.0000 </r>
       <r>    5.4106    0.0000 </r>
       <r>    5.6086    0.0000 </r>
       <r>    6.4350    0.0000 </r>
       <r>    7.0644    0.0000 </r>
       <r>    8.7869    0.0000 </r>
       <r>    9.6224    0.0000 </r>
       <r>   11.9983    0.0000 </r>
       <r>   12.0050    0.0000 </r>
       <r>   13.6290    0.0000 </r>
       <r>   13.7582    0.0000 </r>
       <r>   14.1869    0.0000 </r>
       <r>   15.0581    0.0000 </r>
       <r>   15.3660    0.0000 </r>
       <r>   16.5169    0.0000 </r>
       <r>   17.1790    0.0000 </r>
       <r>   18.3915    0.0000 </r>
       <r>   18.6371    0.0000 </r>
       <r>   19.2568    0.0000 </r>
       <r>   20.1938    0.0000 </r>
       <r>   21.3978    0.0000 </r>
       <r>   22.0467    0.0000 </r>
       <r>   22.4170    0.0000 </r>
       <r>   23.0553    0.0000 </r>
       <r>   23.0627    0.0000 </r>
       <r>   24.0478    0.0000 </r>
       <r>   25.1534    0.0000 </r>
       <r>   25.3255    0.0000 </r>
       <r>   25.6781    0.0000 </r>
       <r>   27.2432    0.0000 </r>
       <r>   27.4329    0.0000 </r>
       <r>   28.3475    0.0000 </r>
       <r>   29.0919    0.0000 </r>
       <r>   29.2886    0.0000 </r>
       <r>   30.1915    0.0000 </r>
       <r>   30.8116    0.0000 </r>
       <r>   31.1098    0.0000 </r>
       <r>   32.1930    0.0000 </r>
       <r>   32.9037    0.0000 </r>
       <r>   33.3146    0.0000 </r>
       <r>   34.2807    0.0000 </r>
       <r>   34.7562    0.0000 </r>
       <r>   35.0957    0.0000 </r>
       <r>   35.5132    0.0000 </r>
      </set>
      <set comment="kpoint 12">
       <r>  -16.8739    1.0000 </r>
       <r>  -14.7511    1.0000 </r>
       <r>   -9.1626    1.0000 </r>
       <r>   -4.7728    1.0000 </r>
       <r>   -0.4768    0.0000 </r>
       <r>    5.3135    0.0000 </r>
       <r>    7.6528    0.0000 </r>
       <r>    8.5131    0.0000 </r>
       <r>    9.2611    0.0000 </r>
       <r>   10.0964    0.0000 </r>
       <r>   10.5242    0.0000 </r>
       <r>   11.1784    0.0000 </r>
       <r>   11.7293    0.0000 </r>
       <r>   11.8776    0.0000 </r>
       <r>   12.8749    0.0000 </r>
       <r>   14.0095    0.0000 </r>
       <r>   14.2412    0.0000 </r>
       <r>   15.5036    0.0000 </r>
       <r>   15.9187    0.0000 </r>
       <r>   16.1396    0.0000 </r>
       <r>   17.8846    0.0000 </r>
       <r>   18.0543    0.0000 </r>
       <r>   19.6253    0.0000 </r>
       <r>   19.8857    0.0000 </r>
       <r>   20.8047    0.0000 </r>
       <r>   21.1840    0.0000 </r>
       <r>   21.5635    0.0000 </r>
       <r>   22.6124    0.0000 </r>
       <r>   22.6205    0.0000 </r>
       <r>   23.4897    0.0000 </r>
       <r>   24.2078    0.0000 </r>
       <r>   24.9793    0.0000 </r>
       <r>   25.0463    0.0000 </r>
       <r>   25.6487    0.0000 </r>
       <r>   27.6223    0.0000 </r>
       <r>   28.5639    0.0000 </r>
       <r>   28.6484    0.0000 </r>
       <r>   29.2869    0.0000 </r>
       <r>   29.8266    0.0000 </r>
       <r>   30.2510    0.0000 </r>
       <r>   30.6436    0.0000 </r>
       <r>   31.0447    0.0000 </r>
       <r>   32.0199    0.0000 </r>
       <r>   32.7258    0.0000 </r>
       <r>   32.7851    0.0000 </r>
       <r>   34.1987    0.0000 </r>
       <r>   34.3624    0.0000 </r>
       <r>   35.5727    0.0000 </r>
      </set>
      <set comment="kpoint 13">
       <r>  -19.6803    1.0000 </r>
       <r>  -10.0975    1.0000 </r>
       <r>   -8.6821    1.0000 </r>
       <r>   -7.5259    1.0000 </r>
       <r>    3.5884    0.0000 </r>
       <r>    3.7415    0.0000 </r>
       <r>    4.4863    0.0000 </r>
       <r>    5.0744    0.0000 </r>
       <r>    6.8842    0.0000 </r>
       <r>    7.2558    0.0000 </r>
       <r>    7.7342    0.0000 </r>
       <r>    8.5558    0.0000 </r>
       <r>   10.5853    0.0000 </r>
       <r>   11.9046    0.0000 </r>
       <r>   14.2625    0.0000 </r>
       <r>   14.3927    0.0000 </r>
       <r>   16.9284    0.0000 </r>
       <r>   17.5213    0.0000 </r>
       <r>   19.4456    0.0000 </r>
       <r>   19.7957    0.0000 </r>
       <r>   19.8654    0.0000 </r>
       <r>   21.0203    0.0000 </r>
       <r>   21.0346    0.0000 </r>
       <r>   21.1532    0.0000 </r>
       <r>   22.2348    0.0000 </r>
       <r>   22.7475    0.0000 </r>
       <r>   22.8074    0.0000 </r>
       <r>   23.7616    0.0000 </r>
       <r>   23.9771    0.0000 </r>
       <r>   24.2836    0.0000 </r>
       <r>   25.0214    0.0000 </r>
       <r>   25.5887    0.0000 </r>
       <r>   27.8387    0.0000 </r>
       <r>   27.9087    0.0000 </r>
       <r>   28.3993    0.0000 </r>
       <r>   28.4674    0.0000 </r>
       <r>   28.7581    0.0000 </r>
       <r>   31.8736    0.0000 </r>
       <r>   32.8114    0.0000 </r>
       <r>   33.1570    0.0000 </r>
       <r>   33.3835    0.0000 </r>
       <r>   33.6548    0.0000 </r>
       <r>   34.1501    0.0000 </r>
       <r>   35.2483    0.0000 </r>
       <r>   35.6626    0.0000 </r>
       <r>   36.3536    0.0000 </r>
       <r>   36.9902    0.0000 </r>
       <r>   37.0265    0.0000 </r>
      </set>
      <set comment="kpoint 14">
       <r>  -18.6007    1.0000 </r>
       <r>  -11.7848    1.0000 </r>
       <r>   -9.7103    1.0000 </r>
       <r>   -6.3194    1.0000 </r>
       <r>    1.8768    0.0000 </r>
       <r>    5.0941    0.0000 </r>
       <r>    5.9698    0.0000 </r>
       <r>    6.6162    0.0000 </r>
       <r>    7.4248    0.0000 </r>
       <r>    8.3130    0.0000 </r>
       <r>    9.1917    0.0000 </r>
       <r>   10.0653    0.0000 </r>
       <r>   11.4294    0.0000 </r>
       <r>   13.3641    0.0000 </r>
       <r>   13.5761    0.0000 </r>
       <r>   15.4463    0.0000 </r>
       <r>   16.8071    0.0000 </r>
       <r>   16.8834    0.0000 </r>
       <r>   17.6027    0.0000 </r>
       <r>   17.9864    0.0000 </r>
       <r>   18.6060    0.0000 </r>
       <r>   18.8571    0.0000 </r>
       <r>   18.8952    0.0000 </r>
       <r>   19.9678    0.0000 </r>
       <r>   20.0506    0.0000 </r>
       <r>   20.1863    0.0000 </r>
       <r>   21.6501    0.0000 </r>
       <r>   22.3202    0.0000 </r>
       <r>   23.1235    0.0000 </r>
       <r>   23.3402    0.0000 </r>
       <r>   24.2203    0.0000 </r>
       <r>   24.7034    0.0000 </r>
       <r>   25.8222    0.0000 </r>
       <r>   26.5973    0.0000 </r>
       <r>   27.1185    0.0000 </r>
       <r>   27.3815    0.0000 </r>
       <r>   29.4898    0.0000 </r>
       <r>   30.1145    0.0000 </r>
       <r>   31.1159    0.0000 </r>
       <r>   31.9943    0.0000 </r>
       <r>   32.3766    0.0000 </r>
       <r>   34.0674    0.0000 </r>
       <r>   34.4035    0.0000 </r>
       <r>   35.0609    0.0000 </r>
       <r>   35.6268    0.0000 </r>
       <r>   35.9248    0.0000 </r>
       <r>   36.4766    0.0000 </r>
       <r>   36.7516    0.0000 </r>
      </set>
      <set comment="kpoint 15">
       <r>  -17.2654    1.0000 </r>
       <r>  -13.6371    1.0000 </r>
       <r>  -10.2770    1.0000 </r>
       <r>   -4.9488    1.0000 </r>
       <r>    0.0475    0.0000 </r>
       <r>    6.9736    0.0000 </r>
       <r>    7.2238    0.0000 </r>
       <r>    7.7749    0.0000 </r>
       <r>    8.6023    0.0000 </r>
       <r>    9.8374    0.0000 </r>
       <r>   11.0105    0.0000 </r>
       <r>   11.2434    0.0000 </r>
       <r>   11.4706    0.0000 </r>
       <r>   13.4098    0.0000 </r>
       <r>   13.6012    0.0000 </r>
       <r>   14.2608    0.0000 </r>
       <r>   14.8218    0.0000 </r>
       <r>   15.1712    0.0000 </r>
       <r>   16.1625    0.0000 </r>
       <r>   16.6188    0.0000 </r>
       <r>   17.7801    0.0000 </r>
       <r>   18.6268    0.0000 </r>
       <r>   19.0780    0.0000 </r>
       <r>   19.3050    0.0000 </r>
       <r>   19.5137    0.0000 </r>
       <r>   19.8715    0.0000 </r>
       <r>   20.1595    0.0000 </r>
       <r>   21.3477    0.0000 </r>
       <r>   21.7838    0.0000 </r>
       <r>   21.8674    0.0000 </r>
       <r>   23.1730    0.0000 </r>
       <r>   23.8349    0.0000 </r>
       <r>   25.5376    0.0000 </r>
       <r>   26.1515    0.0000 </r>
       <r>   26.4137    0.0000 </r>
       <r>   26.9246    0.0000 </r>
       <r>   28.1628    0.0000 </r>
       <r>   28.8488    0.0000 </r>
       <r>   30.8117    0.0000 </r>
       <r>   31.6169    0.0000 </r>
       <r>   32.3714    0.0000 </r>
       <r>   33.4680    0.0000 </r>
       <r>   33.7923    0.0000 </r>
       <r>   34.7195    0.0000 </r>
       <r>   35.2266    0.0000 </r>
       <r>   35.2806    0.0000 </r>
       <r>   36.2478    0.0000 </r>
       <r>   36.6819    0.0000 </r>
      </set>
      <set comment="kpoint 16">
       <r>  -16.1053    1.0000 </r>
       <r>  -14.9911    1.0000 </r>
       <r>  -10.4589    1.0000 </r>
       <r>   -4.0957    1.0000 </r>
       <r>   -0.9713    0.0000 </r>
       <r>    7.0889    0.0000 </r>
       <r>    9.0948    0.0000 </r>
       <r>    9.1628    0.0000 </r>
       <r>    9.3671    0.0000 </r>
       <r>   10.3957    0.0000 </r>
       <r>   10.9762    0.0000 </r>
       <r>   11.0173    0.0000 </r>
       <r>   11.5107    0.0000 </r>
       <r>   12.8299    0.0000 </r>
       <r>   13.0588    0.0000 </r>
       <r>   13.3559    0.0000 </r>
       <r>   13.8782    0.0000 </r>
       <r>   15.1172    0.0000 </r>
       <r>   16.6477    0.0000 </r>
       <r>   16.8965    0.0000 </r>
       <r>   17.2438    0.0000 </r>
       <r>   17.6551    0.0000 </r>
       <r>   18.0353    0.0000 </r>
       <r>   18.9319    0.0000 </r>
       <r>   19.0910    0.0000 </r>
       <r>   20.3145    0.0000 </r>
       <r>   20.3885    0.0000 </r>
       <r>   20.7661    0.0000 </r>
       <r>   21.7810    0.0000 </r>
       <r>   21.9326    0.0000 </r>
       <r>   22.6606    0.0000 </r>
       <r>   23.9186    0.0000 </r>
       <r>   24.6224    0.0000 </r>
       <r>   25.1858    0.0000 </r>
       <r>   26.0143    0.0000 </r>
       <r>   26.3467    0.0000 </r>
       <r>   28.5351    0.0000 </r>
       <r>   30.3416    0.0000 </r>
       <r>   30.8552    0.0000 </r>
       <r>   30.9499    0.0000 </r>
       <r>   31.5943    0.0000 </r>
       <r>   31.6828    0.0000 </r>
       <r>   33.2392    0.0000 </r>
       <r>   34.7111    0.0000 </r>
       <r>   34.9889    0.0000 </r>
       <r>   35.9490    0.0000 </r>
       <r>   36.3704    0.0000 </r>
       <r>   36.3987    0.0000 </r>
      </set>
      <set comment="kpoint 17">
       <r>  -17.4063    1.0000 </r>
       <r>  -12.8228    1.0000 </r>
       <r>  -11.1294    1.0000 </r>
       <r>   -5.0281    1.0000 </r>
       <r>    0.3216    0.0000 </r>
       <r>    6.7927    0.0000 </r>
       <r>    7.4918    0.0000 </r>
       <r>    8.3744    0.0000 </r>
       <r>    9.4516    0.0000 </r>
       <r>    9.5042    0.0000 </r>
       <r>    9.6655    0.0000 </r>
       <r>   10.9099    0.0000 </r>
       <r>   11.2485    0.0000 </r>
       <r>   14.3804    0.0000 </r>
       <r>   14.8712    0.0000 </r>
       <r>   14.9715    0.0000 </r>
       <r>   15.2866    0.0000 </r>
       <r>   15.5960    0.0000 </r>
       <r>   16.4125    0.0000 </r>
       <r>   16.4647    0.0000 </r>
       <r>   16.4973    0.0000 </r>
       <r>   18.0088    0.0000 </r>
       <r>   18.5859    0.0000 </r>
       <r>   18.6596    0.0000 </r>
       <r>   18.8249    0.0000 </r>
       <r>   19.9039    0.0000 </r>
       <r>   19.9673    0.0000 </r>
       <r>   19.9995    0.0000 </r>
       <r>   21.5973    0.0000 </r>
       <r>   22.2559    0.0000 </r>
       <r>   23.2294    0.0000 </r>
       <r>   23.4028    0.0000 </r>
       <r>   23.9887    0.0000 </r>
       <r>   26.1348    0.0000 </r>
       <r>   26.2270    0.0000 </r>
       <r>   28.3933    0.0000 </r>
       <r>   28.9091    0.0000 </r>
       <r>   29.1164    0.0000 </r>
       <r>   29.4741    0.0000 </r>
       <r>   30.5530    0.0000 </r>
       <r>   31.8965    0.0000 </r>
       <r>   34.7101    0.0000 </r>
       <r>   35.2838    0.0000 </r>
       <r>   35.5747    0.0000 </r>
       <r>   36.1205    0.0000 </r>
       <r>   36.8301    0.0000 </r>
       <r>   37.0070    0.0000 </r>
       <r>   38.0577    0.0000 </r>
      </set>
      <set comment="kpoint 18">
       <r>  -16.0352    1.0000 </r>
       <r>  -14.1925    1.0000 </r>
       <r>  -11.8221    1.0000 </r>
       <r>   -3.6977    1.0000 </r>
       <r>   -1.1381    0.0000 </r>
       <r>    8.4043    0.0000 </r>
       <r>    8.8084    0.0000 </r>
       <r>    9.3455    0.0000 </r>
       <r>   10.5070    0.0000 </r>
       <r>   10.5093    0.0000 </r>
       <r>   10.6930    0.0000 </r>
       <r>   12.4695    0.0000 </r>
       <r>   12.6913    0.0000 </r>
       <r>   12.9946    0.0000 </r>
       <r>   13.2059    0.0000 </r>
       <r>   13.7822    0.0000 </r>
       <r>   14.7258    0.0000 </r>
       <r>   15.0682    0.0000 </r>
       <r>   15.6400    0.0000 </r>
       <r>   15.8164    0.0000 </r>
       <r>   16.0434    0.0000 </r>
       <r>   16.7484    0.0000 </r>
       <r>   16.7505    0.0000 </r>
       <r>   17.9840    0.0000 </r>
       <r>   18.5098    0.0000 </r>
       <r>   19.1343    0.0000 </r>
       <r>   19.4330    0.0000 </r>
       <r>   20.4565    0.0000 </r>
       <r>   21.1144    0.0000 </r>
       <r>   21.3461    0.0000 </r>
       <r>   22.5543    0.0000 </r>
       <r>   22.9147    0.0000 </r>
       <r>   23.8302    0.0000 </r>
       <r>   24.6352    0.0000 </r>
       <r>   26.1581    0.0000 </r>
       <r>   26.8974    0.0000 </r>
       <r>   28.5864    0.0000 </r>
       <r>   28.8467    0.0000 </r>
       <r>   30.0022    0.0000 </r>
       <r>   30.6106    0.0000 </r>
       <r>   32.7266    0.0000 </r>
       <r>   33.0862    0.0000 </r>
       <r>   34.5762    0.0000 </r>
       <r>   35.3201    0.0000 </r>
       <r>   35.4196    0.0000 </r>
       <r>   37.7227    0.0000 </r>
       <r>   38.3731    0.0000 </r>
       <r>   38.8327    0.0000 </r>
      </set>
      <set comment="kpoint 19">
       <r>  -14.8618    1.0000 </r>
       <r>  -14.8618    1.0000 </r>
       <r>  -12.6417    1.0000 </r>
       <r>   -2.3929    0.5001 </r>
       <r>   -2.3928    0.4999 </r>
       <r>    8.1663    0.0000 </r>
       <r>   10.2018    0.0000 </r>
       <r>   10.2018    0.0000 </r>
       <r>   10.9193    0.0000 </r>
       <r>   12.3609    0.0000 </r>
       <r>   12.3609    0.0000 </r>
       <r>   12.5396    0.0000 </r>
       <r>   12.5396    0.0000 </r>
       <r>   12.8820    0.0000 </r>
       <r>   13.2464    0.0000 </r>
       <r>   13.4543    0.0000 </r>
       <r>   13.4543    0.0000 </r>
       <r>   14.5308    0.0000 </r>
       <r>   14.7894    0.0000 </r>
       <r>   14.7894    0.0000 </r>
       <r>   15.9260    0.0000 </r>
       <r>   15.9871    0.0000 </r>
       <r>   15.9871    0.0000 </r>
       <r>   17.1492    0.0000 </r>
       <r>   18.5546    0.0000 </r>
       <r>   18.5546    0.0000 </r>
       <r>   20.0594    0.0000 </r>
       <r>   20.0594    0.0000 </r>
       <r>   20.2636    0.0000 </r>
       <r>   20.9315    0.0000 </r>
       <r>   21.3534    0.0000 </r>
       <r>   23.7234    0.0000 </r>
       <r>   23.7234    0.0000 </r>
       <r>   25.6487    0.0000 </r>
       <r>   25.6487    0.0000 </r>
       <r>   26.0383    0.0000 </r>
       <r>   26.3378    0.0000 </r>
       <r>   29.8967    0.0000 </r>
       <r>   29.8968    0.0000 </r>
       <r>   32.6526    0.0000 </r>
       <r>   32.6526    0.0000 </r>
       <r>   33.0516    0.0000 </r>
       <r>   33.2899    0.0000 </r>
       <r>   35.0667    0.0000 </r>
       <r>   35.0667    0.0000 </r>
       <r>   37.8639    0.0000 </r>
       <r>   40.1548    0.0000 </r>
       <r>   40.1548    0.0000 </r>
      </set>
     </set>
    </set>
   </array>
  </eigenvalues>
  <separator name="orbital magnetization" >
   <v name="MAGDIPOLOUT">      0.00000000      0.00000000      0.00000000</v>
  </separator>
  <dos>
   <i name="efermi">     -2.39284181 </i>
   <total>
    <array>
     <dimension dim="1">gridpoints</dimension>
     <dimension dim="2">spin</dimension>
     <field>energy</field>
     <field>total</field>
     <field>integrated</field>
     <set>
      <set comment="spin 1">
       <r>   -24.6664     0.0000     0.0000 </r>
       <r>   -24.4400     0.0000     0.0000 </r>
       <r>   -24.2137     0.0000     0.0000 </r>
       <r>   -23.9873     0.0000     0.0000 </r>
       <r>   -23.7610     0.0000     0.0000 </r>
       <r>   -23.5346     0.0000     0.0000 </r>
       <r>   -23.3082     0.0000     0.0000 </r>
       <r>   -23.0819     0.0000     0.0000 </r>
       <r>   -22.8555     0.0000     0.0000 </r>
       <r>   -22.6292     0.0000     0.0000 </r>
       <r>   -22.4028     0.0000     0.0000 </r>
       <r>   -22.1764     0.0000     0.0000 </r>
       <r>   -21.9501     0.0000     0.0000 </r>
       <r>   -21.7237     0.0013     0.0003 </r>
       <r>   -21.4974     0.1024     0.0235 </r>
       <r>   -21.2710     0.3221     0.0964 </r>
       <r>   -21.0446     0.3184     0.1685 </r>
       <r>   -20.8183     0.4063     0.2604 </r>
       <r>   -20.5919     0.0423     0.2700 </r>
       <r>   -20.3656     0.6514     0.4175 </r>
       <r>   -20.1392     0.2640     0.4772 </r>
       <r>   -19.9128     0.1621     0.5139 </r>
       <r>   -19.6865     0.1791     0.5544 </r>
       <r>   -19.4601     0.7906     0.7334 </r>
       <r>   -19.2338     0.1372     0.7645 </r>
       <r>   -19.0074     0.2804     0.8279 </r>
       <r>   -18.7811     0.0892     0.8481 </r>
       <r>   -18.5547     0.5426     0.9709 </r>
       <r>   -18.3283     0.4330     1.0690 </r>
       <r>   -18.1020     0.4908     1.1801 </r>
       <r>   -17.8756     0.0050     1.1812 </r>
       <r>   -17.6493     0.2857     1.2459 </r>
       <r>   -17.4229     0.2391     1.3000 </r>
       <r>   -17.1965     0.8229     1.4863 </r>
       <r>   -16.9702     0.1859     1.5283 </r>
       <r>   -16.7438     0.6484     1.6751 </r>
       <r>   -16.5175     0.1209     1.7025 </r>
       <r>   -16.2911     0.0888     1.7226 </r>
       <r>   -16.0647     0.5112     1.8383 </r>
       <r>   -15.8384     0.5896     1.9718 </r>
       <r>   -15.6120     0.0020     1.9722 </r>
       <r>   -15.3857     0.0683     1.9877 </r>
       <r>   -15.1593     0.1185     2.0145 </r>
       <r>   -14.9329     0.3320     2.0897 </r>
       <r>   -14.7066     0.8170     2.2746 </r>
       <r>   -14.4802     0.1980     2.3194 </r>
       <r>   -14.2539     0.1419     2.3516 </r>
       <r>   -14.0275     0.6295     2.4941 </r>
       <r>   -13.8011     0.3322     2.5692 </r>
       <r>   -13.5748     0.5979     2.7046 </r>
       <r>   -13.3484     0.1392     2.7361 </r>
       <r>   -13.1221     0.0002     2.7362 </r>
       <r>   -12.8957     0.3450     2.8142 </r>
       <r>   -12.6693     0.7952     2.9943 </r>
       <r>   -12.4430     0.0864     3.0138 </r>
       <r>   -12.2166     0.0003     3.0139 </r>
       <r>   -11.9903     0.0439     3.0238 </r>
       <r>   -11.7639     1.3528     3.3300 </r>
       <r>   -11.5375     0.4438     3.4305 </r>
       <r>   -11.3112     0.0021     3.4310 </r>
       <r>   -11.0848     0.2691     3.4919 </r>
       <r>   -10.8585     0.2676     3.5524 </r>
       <r>   -10.6321     0.5636     3.6800 </r>
       <r>   -10.4057     0.3126     3.7508 </r>
       <r>   -10.1794     0.7779     3.9269 </r>
       <r>    -9.9530     0.3778     4.0124 </r>
       <r>    -9.7267     0.5659     4.1405 </r>
       <r>    -9.5003     0.8790     4.3394 </r>
       <r>    -9.2739     0.1647     4.3767 </r>
       <r>    -9.0476     1.0514     4.6147 </r>
       <r>    -8.8212     1.0297     4.8478 </r>
       <r>    -8.5949     1.3588     5.1554 </r>
       <r>    -8.3685     0.9640     5.3736 </r>
       <r>    -8.1421     0.9001     5.5773 </r>
       <r>    -7.9158     0.6910     5.7338 </r>
       <r>    -7.6894     0.1979     5.7785 </r>
       <r>    -7.4631     0.6300     5.9212 </r>
       <r>    -7.2367     1.7008     6.3062 </r>
       <r>    -7.0103     0.3922     6.3949 </r>
       <r>    -6.7840     0.3319     6.4700 </r>
       <r>    -6.5576     0.1896     6.5130 </r>
       <r>    -6.3313     0.8872     6.7138 </r>
       <r>    -6.1049     0.6956     6.8712 </r>
       <r>    -5.8785     0.8791     7.0702 </r>
       <r>    -5.6522     0.3445     7.1482 </r>
       <r>    -5.4258     0.3745     7.2330 </r>
       <r>    -5.1995     0.1394     7.2645 </r>
       <r>    -4.9731     0.5558     7.3904 </r>
       <r>    -4.7467     1.0455     7.6270 </r>
       <r>    -4.5204     0.4176     7.7216 </r>
       <r>    -4.2940     0.0039     7.7224 </r>
       <r>    -4.0677     0.2399     7.7767 </r>
       <r>    -3.8413     0.1428     7.8091 </r>
       <r>    -3.6149     0.6318     7.9521 </r>
       <r>    -3.3886     0.0889     7.9722 </r>
       <r>    -3.1622     0.0000     7.9722 </r>
       <r>    -2.9359     0.0000     7.9722 </r>
       <r>    -2.7095     0.0000     7.9722 </r>
       <r>    -2.4831     0.0247     7.9778 </r>
       <r>    -2.2568     0.2140     8.0263 </r>
       <r>    -2.0304     0.0067     8.0278 </r>
       <r>    -1.8041     0.0000     8.0278 </r>
       <r>    -1.5777     0.0000     8.0278 </r>
       <r>    -1.3513     0.0009     8.0280 </r>
       <r>    -1.1250     0.4269     8.1246 </r>
       <r>    -0.8986     0.6222     8.2654 </r>
       <r>    -0.6723     0.2052     8.3119 </r>
       <r>    -0.4459     0.5258     8.4309 </r>
       <r>    -0.2195     0.2438     8.4861 </r>
       <r>     0.0068     0.2080     8.5332 </r>
       <r>     0.2332     0.6124     8.6718 </r>
       <r>     0.4595     0.6360     8.8158 </r>
       <r>     0.6859     0.0163     8.8194 </r>
       <r>     0.9123     0.0087     8.8214 </r>
       <r>     1.1386     0.2278     8.8730 </r>
       <r>     1.3650     0.9141     9.0799 </r>
       <r>     1.5913     0.1071     9.1041 </r>
       <r>     1.8177     0.5414     9.2267 </r>
       <r>     2.0441     0.9640     9.4449 </r>
       <r>     2.2704     0.3475     9.5235 </r>
       <r>     2.4968     0.8034     9.7054 </r>
       <r>     2.7231     1.1190     9.9587 </r>
       <r>     2.9495     0.5216    10.0767 </r>
       <r>     3.1759     0.5110    10.1924 </r>
       <r>     3.4022     1.3418    10.4961 </r>
       <r>     3.6286     0.7971    10.6766 </r>
       <r>     3.8549     1.2879    10.9681 </r>
       <r>     4.0813     0.9574    11.1848 </r>
       <r>     4.3077     0.1149    11.2108 </r>
       <r>     4.5340     1.2593    11.4959 </r>
       <r>     4.7604     1.5859    11.8549 </r>
       <r>     4.9867     0.8550    12.0484 </r>
       <r>     5.2131     1.8032    12.4566 </r>
       <r>     5.4395     3.4297    13.2329 </r>
       <r>     5.6658     1.6697    13.6109 </r>
       <r>     5.8922     2.2281    14.1152 </r>
       <r>     6.1185     2.3471    14.6465 </r>
       <r>     6.3449     0.9635    14.8646 </r>
       <r>     6.5713     1.6254    15.2325 </r>
       <r>     6.7976     1.5947    15.5935 </r>
       <r>     7.0240     1.7266    15.9843 </r>
       <r>     7.2503     3.1519    16.6978 </r>
       <r>     7.4767     1.5028    17.0380 </r>
       <r>     7.7031     1.2494    17.3208 </r>
       <r>     7.9294     1.9846    17.7700 </r>
       <r>     8.1558     1.1820    18.0376 </r>
       <r>     8.3821     1.4400    18.3635 </r>
       <r>     8.6085     3.3347    19.1184 </r>
       <r>     8.8349     2.1798    19.6118 </r>
       <r>     9.0612     1.0580    19.8513 </r>
       <r>     9.2876     2.1274    20.3328 </r>
       <r>     9.5139     2.2867    20.8504 </r>
       <r>     9.7403     2.8190    21.4886 </r>
       <r>     9.9667     1.2048    21.7613 </r>
       <r>    10.1930     2.1801    22.2548 </r>
       <r>    10.4194     1.5766    22.6116 </r>
       <r>    10.6457     4.1032    23.5405 </r>
       <r>    10.8721     2.2351    24.0464 </r>
       <r>    11.0985     2.1694    24.5375 </r>
       <r>    11.3248     2.3898    25.0784 </r>
       <r>    11.5512     2.1839    25.5728 </r>
       <r>    11.7775     1.0326    25.8065 </r>
       <r>    12.0039     2.4500    26.3611 </r>
       <r>    12.2303     2.5585    26.9402 </r>
       <r>    12.4566     0.6488    27.0871 </r>
       <r>    12.6830     1.1829    27.3549 </r>
       <r>    12.9093     2.0061    27.8090 </r>
       <r>    13.1357     1.8750    28.2334 </r>
       <r>    13.3621     2.4385    28.7853 </r>
       <r>    13.5884     2.3791    29.3239 </r>
       <r>    13.8148     2.8199    29.9622 </r>
       <r>    14.0411     1.9887    30.4124 </r>
       <r>    14.2675     2.4512    30.9672 </r>
       <r>    14.4939     1.9512    31.4089 </r>
       <r>    14.7202     2.6653    32.0122 </r>
       <r>    14.9466     2.3396    32.5418 </r>
       <r>    15.1729     2.8966    33.1975 </r>
       <r>    15.3993     2.0438    33.6601 </r>
       <r>    15.6257     2.1733    34.1521 </r>
       <r>    15.8520     1.9389    34.5910 </r>
       <r>    16.0784     2.6440    35.1895 </r>
       <r>    16.3047     1.5916    35.5497 </r>
       <r>    16.5311     2.3377    36.0789 </r>
       <r>    16.7575     3.4251    36.8542 </r>
       <r>    16.9838     3.7536    37.7039 </r>
       <r>    17.2102     1.2814    37.9939 </r>
       <r>    17.4365     0.7383    38.1610 </r>
       <r>    17.6629     2.1903    38.6568 </r>
       <r>    17.8893     3.0661    39.3509 </r>
       <r>    18.1156     3.4688    40.1361 </r>
       <r>    18.3420     0.8519    40.3289 </r>
       <r>    18.5683     2.4034    40.8729 </r>
       <r>    18.7947     3.9049    41.7568 </r>
       <r>    19.0211     3.0114    42.4385 </r>
       <r>    19.2474     2.6773    43.0445 </r>
       <r>    19.4738     2.1449    43.5301 </r>
       <r>    19.7001     2.6639    44.1331 </r>
       <r>    19.9265     3.5199    44.9298 </r>
       <r>    20.1529     3.9579    45.8258 </r>
       <r>    20.3792     3.1271    46.5336 </r>
       <r>    20.6056     1.6369    46.9041 </r>
       <r>    20.8319     2.0781    47.3745 </r>
       <r>    21.0583     2.2765    47.8899 </r>
       <r>    21.2847     3.0809    48.5872 </r>
       <r>    21.5110     2.9088    49.2457 </r>
       <r>    21.7374     2.3846    49.7854 </r>
       <r>    21.9637     3.7102    50.6253 </r>
       <r>    22.1901     2.3243    51.1514 </r>
       <r>    22.4165     3.2885    51.8958 </r>
       <r>    22.6428     2.5277    52.4680 </r>
       <r>    22.8692     2.5385    53.0426 </r>
       <r>    23.0955     3.2024    53.7675 </r>
       <r>    23.3219     3.4180    54.5412 </r>
       <r>    23.5483     3.0163    55.2240 </r>
       <r>    23.7746     3.3143    55.9742 </r>
       <r>    24.0010     3.4892    56.7640 </r>
       <r>    24.2273     2.9015    57.4208 </r>
       <r>    24.4537     2.0407    57.8827 </r>
       <r>    24.6801     2.4798    58.4440 </r>
       <r>    24.9064     1.9377    58.8827 </r>
       <r>    25.1328     2.1005    59.3581 </r>
       <r>    25.3591     3.7472    60.2064 </r>
       <r>    25.5855     2.8198    60.8446 </r>
       <r>    25.8119     4.1963    61.7945 </r>
       <r>    26.0382     1.7827    62.1981 </r>
       <r>    26.2646     3.1594    62.9132 </r>
       <r>    26.4909     3.4115    63.6855 </r>
       <r>    26.7173     2.8794    64.3372 </r>
       <r>    26.9437     2.3624    64.8720 </r>
       <r>    27.1700     3.1068    65.5752 </r>
       <r>    27.3964     3.7618    66.4268 </r>
       <r>    27.6227     1.5916    66.7870 </r>
       <r>    27.8491     1.5994    67.1491 </r>
       <r>    28.0755     2.5069    67.7165 </r>
       <r>    28.3018     2.0603    68.1829 </r>
       <r>    28.5282     3.3781    68.9476 </r>
       <r>    28.7545     3.3229    69.6997 </r>
       <r>    28.9809     3.0885    70.3989 </r>
       <r>    29.2073     3.0027    71.0786 </r>
       <r>    29.4336     2.6395    71.6760 </r>
       <r>    29.6600     4.1196    72.6085 </r>
       <r>    29.8863     2.6787    73.2149 </r>
       <r>    30.1127     2.9986    73.8937 </r>
       <r>    30.3391     3.4422    74.6728 </r>
       <r>    30.5654     2.0209    75.1303 </r>
       <r>    30.7918     3.7419    75.9773 </r>
       <r>    31.0181     3.3168    76.7281 </r>
       <r>    31.2445     2.4873    77.2911 </r>
       <r>    31.4708     2.2399    77.7981 </r>
       <r>    31.6972     3.5012    78.5907 </r>
       <r>    31.9236     1.9017    79.0211 </r>
       <r>    32.1499     5.1508    80.1871 </r>
       <r>    32.3763     3.3972    80.9560 </r>
       <r>    32.6026     3.4629    81.7399 </r>
       <r>    32.8290     2.8281    82.3801 </r>
       <r>    33.0554     2.8818    83.0324 </r>
       <r>    33.2817     3.6966    83.8692 </r>
       <r>    33.5081     4.3775    84.8601 </r>
       <r>    33.7344     1.9986    85.3125 </r>
       <r>    33.9608     1.7699    85.7131 </r>
       <r>    34.1872     2.6670    86.3168 </r>
       <r>    34.4135     4.1658    87.2598 </r>
       <r>    34.6399     3.2532    87.9962 </r>
       <r>    34.8662     3.5839    88.8074 </r>
       <r>    35.0926     3.0091    89.4886 </r>
       <r>    35.3190     4.2119    90.4420 </r>
       <r>    35.5453     3.3388    91.1977 </r>
       <r>    35.7717     4.0564    92.1160 </r>
       <r>    35.9980     1.7391    92.5096 </r>
       <r>    36.2244     1.0178    92.7400 </r>
       <r>    36.4508     3.5104    93.5346 </r>
       <r>    36.6771     2.3000    94.0552 </r>
       <r>    36.9035     3.0644    94.7489 </r>
       <r>    37.1298     1.7821    95.1523 </r>
       <r>    37.3562     0.2721    95.2139 </r>
       <r>    37.5826     0.5421    95.3366 </r>
       <r>    37.8089     0.6670    95.4875 </r>
       <r>    38.0353     0.3151    95.5589 </r>
       <r>    38.2616     0.2723    95.6205 </r>
       <r>    38.4880     0.6563    95.7691 </r>
       <r>    38.7144     0.0731    95.7856 </r>
       <r>    38.9407     0.6550    95.9339 </r>
       <r>    39.1671     0.0466    95.9444 </r>
       <r>    39.3934     0.0000    95.9444 </r>
       <r>    39.6198     0.0000    95.9444 </r>
       <r>    39.8462     0.0000    95.9444 </r>
       <r>    40.0725     0.0300    95.9512 </r>
       <r>    40.2989     0.2103    95.9988 </r>
       <r>    40.5252     0.0051    96.0000 </r>
       <r>    40.7516     0.0000    96.0000 </r>
       <r>    40.9780     0.0000    96.0000 </r>
       <r>    41.2043     0.0000    96.0000 </r>
       <r>    41.4307     0.0000    96.0000 </r>
       <r>    41.6570     0.0000    96.0000 </r>
       <r>    41.8834     0.0000    96.0000 </r>
       <r>    42.1098     0.0000    96.0000 </r>
       <r>    42.3361     0.0000    96.0000 </r>
       <r>    42.5625     0.0000    96.0000 </r>
       <r>    42.7888     0.0000    96.0000 </r>
       <r>    43.0152     0.0000    96.0000 </r>
       <r>    43.2416     0.0000    96.0000 </r>
      </set>
     </set>
    </array>
   </total>
  </dos>
 </calculation>
 <structure name="finalpos" >
  <crystal>
   <varray name="basis" >
    <v>       2.16506400       1.25000000       0.00000000 </v>
    <v>      -2.16506400       1.25000000       0.00000000 </v>
    <v>       0.00000000       0.00000000      15.00000000 </v>
   </varray>
   <i name="volume">     81.18990000 </i>
   <varray name="rec_basis" >
    <v>       0.23094006       0.40000000       0.00000000 </v>
    <v>      -0.23094006       0.40000000       0.00000000 </v>
    <v>       0.00000000       0.00000000       0.06666667 </v>
   </varray>
  </crystal>
  <varray name="positions" >
   <v>       0.33333300       0.66666600       0.10000000 </v>
   <v>       0.66666600       0.33333300       0.10000000 </v>
  </varray>
 </structure>
</modeling>
