  16  16   0   4
  0.2033809E+02  0.5005000E-09  0.5005000E-09  0.1500000E-08  0.5000000E-15
  1.000000000000000E-004
  CAR 
 Lattice                                 
      9.85453066    -21.41130848  301     -0.90722121      1.00000000
    -21.411  0.0000E+00  0.0000E+00  0.0000E+00  0.0000E+00
    -21.307  0.0000E+00  0.0000E+00  0.0000E+00  0.0000E+00
    -21.203  0.0000E+00  0.0000E+00  0.0000E+00  0.0000E+00
    -21.099  0.0000E+00  0.0000E+00  0.0000E+00  0.0000E+00
    -20.994  0.0000E+00  0.0000E+00  0.0000E+00  0.0000E+00
    -20.890  0.0000E+00  0.0000E+00  0.0000E+00  0.0000E+00
    -20.786  0.0000E+00  0.0000E+00  0.0000E+00  0.0000E+00
    -20.682  0.0000E+00  0.0000E+00  0.0000E+00  0.0000E+00
    -20.578  0.2890E-19  0.2890E-19  0.3012E-20  0.3012E-20
    -20.473  0.2371E-14  0.2371E-14  0.2471E-15  0.2471E-15
    -20.369  0.2658E-10  0.2658E-10  0.2770E-11  0.2770E-11
    -20.265  0.3989E-07  0.3989E-07  0.4160E-08  0.4160E-08
    -20.161  0.8696E-05  0.8696E-05  0.9104E-06  0.9104E-06
    -20.056  0.3044E-03  0.3044E-03  0.3264E-04  0.3264E-04
    -19.952  0.2096E-02  0.2096E-02  0.2511E-03  0.2511E-03
    -19.848  0.4354E-02  0.4354E-02  0.7048E-03  0.7048E-03
    -19.744  0.4827E-02  0.4827E-02  0.1208E-02  0.1208E-02
    -19.640  0.5120E-02  0.5120E-02  0.1742E-02  0.1742E-02
    -19.535  0.4543E-02  0.4543E-02  0.2215E-02  0.2215E-02
    -19.431  0.5631E-02  0.5631E-02  0.2802E-02  0.2802E-02
    -19.327  0.4235E-02  0.4235E-02  0.3243E-02  0.3243E-02
    -19.223  0.5073E-02  0.5073E-02  0.3772E-02  0.3772E-02
    -19.118  0.5954E-02  0.5954E-02  0.4392E-02  0.4392E-02
    -19.014  0.3623E-02  0.3623E-02  0.4770E-02  0.4770E-02
    -18.910  0.5061E-02  0.5061E-02  0.5297E-02  0.5297E-02
    -18.806  0.6352E-02  0.6352E-02  0.5959E-02  0.5959E-02
    -18.702  0.4587E-02  0.4587E-02  0.6438E-02  0.6438E-02
    -18.597  0.3157E-02  0.3157E-02  0.6767E-02  0.6767E-02
    -18.493  0.6420E-02  0.6420E-02  0.7436E-02  0.7436E-02
    -18.389  0.6224E-02  0.6224E-02  0.8084E-02  0.8084E-02
    -18.285  0.4246E-02  0.4246E-02  0.8527E-02  0.8527E-02
    -18.181  0.3388E-02  0.3388E-02  0.8880E-02  0.8880E-02
    -18.076  0.6095E-02  0.6095E-02  0.9515E-02  0.9515E-02
    -17.972  0.1146E-01  0.1146E-01  0.1071E-01  0.1071E-01
    -17.868  0.1125E-01  0.1125E-01  0.1188E-01  0.1188E-01
    -17.764  0.1064E-01  0.1064E-01  0.1299E-01  0.1299E-01
    -17.659  0.1245E-01  0.1245E-01  0.1429E-01  0.1429E-01
    -17.555  0.1535E-01  0.1535E-01  0.1589E-01  0.1589E-01
    -17.451  0.1949E-01  0.1949E-01  0.1792E-01  0.1792E-01
    -17.347  0.2052E-01  0.2052E-01  0.2006E-01  0.2006E-01
    -17.243  0.1231E-01  0.1231E-01  0.2134E-01  0.2134E-01
    -17.138  0.5183E-02  0.5183E-02  0.2188E-01  0.2188E-01
    -17.034  0.6897E-02  0.6897E-02  0.2260E-01  0.2260E-01
    -16.930  0.6925E-02  0.6925E-02  0.2332E-01  0.2332E-01
    -16.826  0.5741E-02  0.5741E-02  0.2392E-01  0.2392E-01
    -16.721  0.4701E-02  0.4701E-02  0.2441E-01  0.2441E-01
    -16.617  0.3246E-02  0.3246E-02  0.2475E-01  0.2475E-01
    -16.513  0.2962E-02  0.2962E-02  0.2506E-01  0.2506E-01
    -16.409  0.8570E-02  0.8570E-02  0.2595E-01  0.2595E-01
    -16.305  0.7336E-02  0.7336E-02  0.2671E-01  0.2671E-01
    -16.200  0.4809E-02  0.4809E-02  0.2722E-01  0.2722E-01
    -16.096  0.4285E-02  0.4285E-02  0.2766E-01  0.2766E-01
    -15.992  0.4326E-02  0.4326E-02  0.2811E-01  0.2811E-01
    -15.888  0.3422E-02  0.3422E-02  0.2847E-01  0.2847E-01
    -15.783  0.6727E-02  0.6727E-02  0.2917E-01  0.2917E-01
    -15.679  0.1214E-01  0.1214E-01  0.3044E-01  0.3044E-01
    -15.575  0.1320E-01  0.1320E-01  0.3181E-01  0.3181E-01
    -15.471  0.1510E-01  0.1510E-01  0.3339E-01  0.3339E-01
    -15.367  0.1525E-01  0.1525E-01  0.3497E-01  0.3497E-01
    -15.262  0.1231E-01  0.1231E-01  0.3626E-01  0.3626E-01
    -15.158  0.1236E-01  0.1236E-01  0.3755E-01  0.3755E-01
    -15.054  0.1667E-01  0.1667E-01  0.3928E-01  0.3928E-01
    -14.950  0.1663E-01  0.1663E-01  0.4102E-01  0.4102E-01
    -14.845  0.1360E-01  0.1360E-01  0.4243E-01  0.4243E-01
    -14.741  0.1187E-01  0.1187E-01  0.4367E-01  0.4367E-01
    -14.637  0.8870E-02  0.8870E-02  0.4459E-01  0.4459E-01
    -14.533  0.1209E-01  0.1209E-01  0.4586E-01  0.4586E-01
    -14.429  0.1873E-01  0.1873E-01  0.4781E-01  0.4781E-01
    -14.324  0.1789E-01  0.1789E-01  0.4967E-01  0.4967E-01
    -14.220  0.1144E-01  0.1144E-01  0.5086E-01  0.5086E-01
    -14.116  0.8489E-02  0.8489E-02  0.5175E-01  0.5175E-01
    -14.012  0.7255E-02  0.7255E-02  0.5250E-01  0.5250E-01
    -13.908  0.8263E-02  0.8263E-02  0.5337E-01  0.5337E-01
    -13.803  0.8284E-02  0.8284E-02  0.5423E-01  0.5423E-01
    -13.699  0.5686E-02  0.5686E-02  0.5482E-01  0.5482E-01
    -13.595  0.4853E-02  0.4853E-02  0.5533E-01  0.5533E-01
    -13.491  0.4278E-02  0.4278E-02  0.5577E-01  0.5577E-01
    -13.386  0.5393E-02  0.5393E-02  0.5634E-01  0.5634E-01
    -13.282  0.5661E-02  0.5661E-02  0.5692E-01  0.5692E-01
    -13.178  0.5957E-02  0.5957E-02  0.5755E-01  0.5755E-01
    -13.074  0.7663E-02  0.7663E-02  0.5834E-01  0.5834E-01
    -12.970  0.6558E-02  0.6558E-02  0.5903E-01  0.5903E-01
    -12.865  0.8359E-02  0.8359E-02  0.5990E-01  0.5990E-01
    -12.761  0.7249E-02  0.7249E-02  0.6065E-01  0.6065E-01
    -12.657  0.5555E-02  0.5555E-02  0.6123E-01  0.6123E-01
    -12.553  0.6597E-02  0.6597E-02  0.6192E-01  0.6192E-01
    -12.448  0.3148E-02  0.3148E-02  0.6225E-01  0.6225E-01
    -12.344  0.7134E-02  0.7134E-02  0.6299E-01  0.6299E-01
    -12.240  0.8530E-02  0.8530E-02  0.6388E-01  0.6388E-01
    -12.136  0.5836E-02  0.5836E-02  0.6449E-01  0.6449E-01
    -12.032  0.9183E-02  0.9183E-02  0.6545E-01  0.6545E-01
    -11.927  0.1449E-01  0.1449E-01  0.6696E-01  0.6696E-01
    -11.823  0.1660E-01  0.1660E-01  0.6869E-01  0.6869E-01
    -11.719  0.1469E-01  0.1469E-01  0.7022E-01  0.7022E-01
    -11.615  0.1391E-01  0.1391E-01  0.7167E-01  0.7167E-01
    -11.510  0.1626E-01  0.1626E-01  0.7336E-01  0.7336E-01
    -11.406  0.1215E-01  0.1215E-01  0.7463E-01  0.7463E-01
    -11.302  0.7948E-02  0.7948E-02  0.7546E-01  0.7546E-01
    -11.198  0.9879E-02  0.9879E-02  0.7649E-01  0.7649E-01
    -11.094  0.1260E-01  0.1260E-01  0.7780E-01  0.7780E-01
    -10.989  0.9891E-02  0.9891E-02  0.7883E-01  0.7883E-01
    -10.885  0.5329E-02  0.5329E-02  0.7939E-01  0.7939E-01
    -10.781  0.1080E-01  0.1080E-01  0.8051E-01  0.8051E-01
    -10.677  0.1637E-01  0.1637E-01  0.8222E-01  0.8222E-01
    -10.572  0.1413E-01  0.1413E-01  0.8369E-01  0.8369E-01
    -10.468  0.6805E-02  0.6805E-02  0.8440E-01  0.8440E-01
    -10.364  0.6486E-02  0.6486E-02  0.8507E-01  0.8507E-01
    -10.260  0.1650E-01  0.1650E-01  0.8679E-01  0.8679E-01
    -10.156  0.1942E-01  0.1942E-01  0.8882E-01  0.8882E-01
    -10.051  0.1139E-01  0.1139E-01  0.9001E-01  0.9001E-01
     -9.947  0.8624E-02  0.8624E-02  0.9090E-01  0.9090E-01
     -9.843  0.6698E-02  0.6698E-02  0.9160E-01  0.9160E-01
     -9.739  0.1068E-01  0.1068E-01  0.9272E-01  0.9272E-01
     -9.635  0.1255E-01  0.1255E-01  0.9402E-01  0.9402E-01
     -9.530  0.1193E-01  0.1193E-01  0.9527E-01  0.9527E-01
     -9.426  0.8946E-02  0.8946E-02  0.9620E-01  0.9620E-01
     -9.322  0.7882E-02  0.7882E-02  0.9702E-01  0.9702E-01
     -9.218  0.1092E-01  0.1092E-01  0.9816E-01  0.9816E-01
     -9.113  0.5260E-02  0.5260E-02  0.9871E-01  0.9871E-01
     -9.009  0.2901E-02  0.2901E-02  0.9901E-01  0.9901E-01
     -8.905  0.1068E-01  0.1068E-01  0.1001E+00  0.1001E+00
     -8.801  0.1706E-01  0.1706E-01  0.1019E+00  0.1019E+00
     -8.697  0.1818E-01  0.1818E-01  0.1038E+00  0.1038E+00
     -8.592  0.1014E-01  0.1014E-01  0.1049E+00  0.1049E+00
     -8.488  0.8322E-02  0.8322E-02  0.1057E+00  0.1057E+00
     -8.384  0.9324E-02  0.9324E-02  0.1067E+00  0.1067E+00
     -8.280  0.1400E-01  0.1400E-01  0.1081E+00  0.1081E+00
     -8.175  0.2497E-01  0.2497E-01  0.1108E+00  0.1108E+00
     -8.071  0.2443E-01  0.2443E-01  0.1133E+00  0.1133E+00
     -7.967  0.1772E-01  0.1772E-01  0.1151E+00  0.1151E+00
     -7.863  0.1361E-01  0.1361E-01  0.1166E+00  0.1166E+00
     -7.759  0.1243E-01  0.1243E-01  0.1179E+00  0.1179E+00
     -7.654  0.2252E-01  0.2252E-01  0.1202E+00  0.1202E+00
     -7.550  0.2623E-01  0.2623E-01  0.1229E+00  0.1229E+00
     -7.446  0.2146E-01  0.2146E-01  0.1252E+00  0.1252E+00
     -7.342  0.2218E-01  0.2218E-01  0.1275E+00  0.1275E+00
     -7.237  0.2346E-01  0.2346E-01  0.1299E+00  0.1299E+00
     -7.133  0.2217E-01  0.2217E-01  0.1322E+00  0.1322E+00
     -7.029  0.2624E-01  0.2624E-01  0.1350E+00  0.1350E+00
     -6.925  0.2668E-01  0.2668E-01  0.1378E+00  0.1378E+00
     -6.821  0.1706E-01  0.1706E-01  0.1395E+00  0.1395E+00
     -6.716  0.2073E-01  0.2073E-01  0.1417E+00  0.1417E+00
     -6.612  0.2809E-01  0.2809E-01  0.1446E+00  0.1446E+00
     -6.508  0.2638E-01  0.2638E-01  0.1474E+00  0.1474E+00
     -6.404  0.2374E-01  0.2374E-01  0.1498E+00  0.1498E+00
     -6.299  0.2165E-01  0.2165E-01  0.1521E+00  0.1521E+00
     -6.195  0.2408E-01  0.2408E-01  0.1546E+00  0.1546E+00
     -6.091  0.2146E-01  0.2146E-01  0.1569E+00  0.1569E+00
     -5.987  0.1818E-01  0.1818E-01  0.1587E+00  0.1587E+00
     -5.883  0.1830E-01  0.1830E-01  0.1607E+00  0.1607E+00
     -5.778  0.2290E-01  0.2290E-01  0.1630E+00  0.1630E+00
     -5.674  0.2107E-01  0.2107E-01  0.1652E+00  0.1652E+00
     -5.570  0.2067E-01  0.2067E-01  0.1674E+00  0.1674E+00
     -5.466  0.2243E-01  0.2243E-01  0.1697E+00  0.1697E+00
     -5.362  0.2508E-01  0.2508E-01  0.1723E+00  0.1723E+00
     -5.257  0.2696E-01  0.2696E-01  0.1751E+00  0.1751E+00
     -5.153  0.2139E-01  0.2139E-01  0.1774E+00  0.1774E+00
     -5.049  0.1004E-01  0.1004E-01  0.1784E+00  0.1784E+00
     -4.945  0.1250E-01  0.1250E-01  0.1797E+00  0.1797E+00
     -4.840  0.1923E-01  0.1923E-01  0.1817E+00  0.1817E+00
     -4.736  0.1955E-01  0.1955E-01  0.1838E+00  0.1838E+00
     -4.632  0.1538E-01  0.1538E-01  0.1854E+00  0.1854E+00
     -4.528  0.1558E-01  0.1558E-01  0.1870E+00  0.1870E+00
     -4.424  0.1832E-01  0.1832E-01  0.1889E+00  0.1889E+00
     -4.319  0.2115E-01  0.2115E-01  0.1911E+00  0.1911E+00
     -4.215  0.2327E-01  0.2327E-01  0.1935E+00  0.1935E+00
     -4.111  0.3294E-01  0.3294E-01  0.1970E+00  0.1970E+00
     -4.007  0.3844E-01  0.3844E-01  0.2010E+00  0.2010E+00
     -3.902  0.3244E-01  0.3244E-01  0.2044E+00  0.2044E+00
     -3.798  0.2041E-01  0.2041E-01  0.2065E+00  0.2065E+00
     -3.694  0.1541E-01  0.1541E-01  0.2081E+00  0.2081E+00
     -3.590  0.1676E-01  0.1676E-01  0.2098E+00  0.2098E+00
     -3.486  0.1543E-01  0.1543E-01  0.2114E+00  0.2114E+00
     -3.381  0.1989E-01  0.1989E-01  0.2135E+00  0.2135E+00
     -3.277  0.1817E-01  0.1817E-01  0.2154E+00  0.2154E+00
     -3.173  0.1531E-01  0.1531E-01  0.2170E+00  0.2170E+00
     -3.069  0.1523E-01  0.1523E-01  0.2186E+00  0.2186E+00
     -2.964  0.1576E-01  0.1576E-01  0.2202E+00  0.2202E+00
     -2.860  0.2477E-01  0.2477E-01  0.2228E+00  0.2228E+00
     -2.756  0.1977E-01  0.1977E-01  0.2249E+00  0.2249E+00
     -2.652  0.1217E-01  0.1217E-01  0.2261E+00  0.2261E+00
     -2.548  0.1768E-01  0.1768E-01  0.2280E+00  0.2280E+00
     -2.443  0.2229E-01  0.2229E-01  0.2303E+00  0.2303E+00
     -2.339  0.2080E-01  0.2080E-01  0.2325E+00  0.2325E+00
     -2.235  0.1863E-01  0.1863E-01  0.2344E+00  0.2344E+00
     -2.131  0.1868E-01  0.1868E-01  0.2364E+00  0.2364E+00
     -2.026  0.1330E-01  0.1330E-01  0.2378E+00  0.2378E+00
     -1.922  0.3426E-02  0.3426E-02  0.2381E+00  0.2381E+00
     -1.818  0.4293E-02  0.4293E-02  0.2386E+00  0.2386E+00
     -1.714  0.7579E-02  0.7579E-02  0.2393E+00  0.2393E+00
     -1.610  0.5470E-02  0.5470E-02  0.2399E+00  0.2399E+00
     -1.505  0.5851E-02  0.5851E-02  0.2405E+00  0.2405E+00
     -1.401  0.6815E-02  0.6815E-02  0.2412E+00  0.2412E+00
     -1.297  0.4507E-02  0.4507E-02  0.2417E+00  0.2417E+00
     -1.193  0.2728E-02  0.2728E-02  0.2420E+00  0.2420E+00
     -1.089  0.7708E-03  0.7708E-03  0.2421E+00  0.2421E+00
     -0.984  0.2015E-03  0.2015E-03  0.2421E+00  0.2421E+00
     -0.880  0.1596E-02  0.1596E-02  0.2423E+00  0.2423E+00
     -0.776  0.3921E-02  0.3921E-02  0.2427E+00  0.2427E+00
     -0.672  0.4026E-02  0.4026E-02  0.2431E+00  0.2431E+00
     -0.567  0.7884E-02  0.7884E-02  0.2439E+00  0.2439E+00
     -0.463  0.1112E-01  0.1112E-01  0.2451E+00  0.2451E+00
     -0.359  0.8752E-02  0.8752E-02  0.2460E+00  0.2460E+00
     -0.255  0.1076E-01  0.1076E-01  0.2471E+00  0.2471E+00
     -0.151  0.1243E-01  0.1243E-01  0.2484E+00  0.2484E+00
     -0.046  0.9280E-02  0.9280E-02  0.2494E+00  0.2494E+00
      0.058  0.4307E-02  0.4307E-02  0.2498E+00  0.2498E+00
      0.162  0.1456E-02  0.1456E-02  0.2500E+00  0.2500E+00
      0.266  0.4472E-03  0.4472E-03  0.2500E+00  0.2500E+00
      0.371  0.2202E-02  0.2202E-02  0.2502E+00  0.2502E+00
      0.475  0.7795E-02  0.7795E-02  0.2511E+00  0.2511E+00
      0.579  0.1029E-01  0.1029E-01  0.2521E+00  0.2521E+00
      0.683  0.5753E-02  0.5753E-02  0.2527E+00  0.2527E+00
      0.787  0.3404E-02  0.3404E-02  0.2531E+00  0.2531E+00
      0.892  0.8574E-02  0.8574E-02  0.2540E+00  0.2540E+00
      0.996  0.1231E-01  0.1231E-01  0.2553E+00  0.2553E+00
      1.100  0.1288E-01  0.1288E-01  0.2566E+00  0.2566E+00
      1.204  0.9749E-02  0.9749E-02  0.2576E+00  0.2576E+00
      1.309  0.4177E-02  0.4177E-02  0.2581E+00  0.2581E+00
      1.413  0.5115E-02  0.5115E-02  0.2586E+00  0.2586E+00
      1.517  0.5123E-02  0.5123E-02  0.2591E+00  0.2591E+00
      1.621  0.4940E-02  0.4940E-02  0.2596E+00  0.2596E+00
      1.725  0.7032E-02  0.7032E-02  0.2604E+00  0.2604E+00
      1.830  0.1091E-01  0.1091E-01  0.2615E+00  0.2615E+00
      1.934  0.8708E-02  0.8708E-02  0.2624E+00  0.2624E+00
      2.038  0.3071E-02  0.3071E-02  0.2627E+00  0.2627E+00
      2.142  0.2790E-02  0.2790E-02  0.2630E+00  0.2630E+00
      2.247  0.9790E-02  0.9790E-02  0.2640E+00  0.2640E+00
      2.351  0.1731E-01  0.1731E-01  0.2658E+00  0.2658E+00
      2.455  0.1301E-01  0.1301E-01  0.2672E+00  0.2672E+00
      2.559  0.1080E-01  0.1080E-01  0.2683E+00  0.2683E+00
      2.663  0.1127E-01  0.1127E-01  0.2695E+00  0.2695E+00
      2.768  0.1155E-01  0.1155E-01  0.2707E+00  0.2707E+00
      2.872  0.1151E-01  0.1151E-01  0.2719E+00  0.2719E+00
      2.976  0.8927E-02  0.8927E-02  0.2728E+00  0.2728E+00
      3.080  0.9264E-02  0.9264E-02  0.2738E+00  0.2738E+00
      3.184  0.1313E-01  0.1313E-01  0.2752E+00  0.2752E+00
      3.289  0.1269E-01  0.1269E-01  0.2765E+00  0.2765E+00
      3.393  0.1330E-01  0.1330E-01  0.2779E+00  0.2779E+00
      3.497  0.1083E-01  0.1083E-01  0.2790E+00  0.2790E+00
      3.601  0.1080E-01  0.1080E-01  0.2801E+00  0.2801E+00
      3.706  0.1052E-01  0.1052E-01  0.2812E+00  0.2812E+00
      3.810  0.1071E-01  0.1071E-01  0.2823E+00  0.2823E+00
      3.914  0.1232E-01  0.1232E-01  0.2836E+00  0.2836E+00
      4.018  0.1545E-01  0.1546E-01  0.2852E+00  0.2852E+00
      4.122  0.1564E-01  0.1564E-01  0.2869E+00  0.2869E+00
      4.227  0.1236E-01  0.1235E-01  0.2882E+00  0.2882E+00
      4.331  0.1127E-01  0.1127E-01  0.2893E+00  0.2893E+00
      4.435  0.2093E-01  0.2094E-01  0.2915E+00  0.2915E+00
      4.539  0.1888E-01  0.1888E-01  0.2935E+00  0.2935E+00
      4.644  0.1020E-01  0.1020E-01  0.2945E+00  0.2945E+00
      4.748  0.8843E-02  0.8847E-02  0.2955E+00  0.2955E+00
      4.852  0.1823E-01  0.1824E-01  0.2974E+00  0.2974E+00
      4.956  0.2175E-01  0.2175E-01  0.2996E+00  0.2996E+00
      5.060  0.1755E-01  0.1755E-01  0.3015E+00  0.3015E+00
      5.165  0.1467E-01  0.1466E-01  0.3030E+00  0.3030E+00
      5.269  0.1715E-01  0.1715E-01  0.3048E+00  0.3048E+00
      5.373  0.1509E-01  0.1509E-01  0.3063E+00  0.3063E+00
      5.477  0.1738E-01  0.1739E-01  0.3082E+00  0.3082E+00
      5.582  0.2381E-01  0.2381E-01  0.3106E+00  0.3106E+00
      5.686  0.1505E-01  0.1504E-01  0.3122E+00  0.3122E+00
      5.790  0.1080E-01  0.1080E-01  0.3133E+00  0.3133E+00
      5.894  0.1455E-01  0.1455E-01  0.3149E+00  0.3149E+00
      5.998  0.1717E-01  0.1716E-01  0.3166E+00  0.3166E+00
      6.103  0.1669E-01  0.1670E-01  0.3184E+00  0.3184E+00
      6.207  0.2620E-01  0.2621E-01  0.3211E+00  0.3211E+00
      6.311  0.2824E-01  0.2824E-01  0.3241E+00  0.3241E+00
      6.415  0.2698E-01  0.2697E-01  0.3269E+00  0.3269E+00
      6.520  0.2174E-01  0.2173E-01  0.3291E+00  0.3291E+00
      6.624  0.1811E-01  0.1811E-01  0.3310E+00  0.3310E+00
      6.728  0.1645E-01  0.1647E-01  0.3327E+00  0.3327E+00
      6.832  0.2654E-01  0.2654E-01  0.3355E+00  0.3355E+00
      6.936  0.3429E-01  0.3428E-01  0.3391E+00  0.3391E+00
      7.041  0.2996E-01  0.2997E-01  0.3422E+00  0.3422E+00
      7.145  0.2877E-01  0.2877E-01  0.3452E+00  0.3452E+00
      7.249  0.3328E-01  0.3328E-01  0.3487E+00  0.3487E+00
      7.353  0.3677E-01  0.3677E-01  0.3525E+00  0.3525E+00
      7.457  0.2821E-01  0.2821E-01  0.3554E+00  0.3554E+00
      7.562  0.3030E-01  0.3031E-01  0.3586E+00  0.3586E+00
      7.666  0.3683E-01  0.3683E-01  0.3624E+00  0.3624E+00
      7.770  0.3579E-01  0.3580E-01  0.3662E+00  0.3662E+00
      7.874  0.3229E-01  0.3229E-01  0.3695E+00  0.3695E+00
      7.979  0.2331E-01  0.2330E-01  0.3720E+00  0.3720E+00
      8.083  0.1399E-01  0.1397E-01  0.3734E+00  0.3734E+00
      8.187  0.8188E-02  0.8182E-02  0.3743E+00  0.3743E+00
      8.291  0.2363E-02  0.2357E-02  0.3745E+00  0.3745E+00
      8.395  0.1573E-02  0.1572E-02  0.3747E+00  0.3747E+00
      8.500  0.2400E-02  0.2400E-02  0.3749E+00  0.3749E+00
      8.604  0.6704E-03  0.6703E-03  0.3750E+00  0.3750E+00
      8.708  0.2917E-04  0.2916E-04  0.3750E+00  0.3750E+00
      8.812  0.1774E-06  0.1773E-06  0.3750E+00  0.3750E+00
      8.917  0.1393E-09  0.1393E-09  0.3750E+00  0.3750E+00
      9.021  0.1349E-13  0.1348E-13  0.3750E+00  0.3750E+00
      9.125  0.0000E+00  0.0000E+00  0.3750E+00  0.3750E+00
      9.229  0.0000E+00  0.0000E+00  0.3750E+00  0.3750E+00
      9.333  0.0000E+00  0.0000E+00  0.3750E+00  0.3750E+00
      9.438  0.0000E+00  0.0000E+00  0.3750E+00  0.3750E+00
      9.542  0.0000E+00  0.0000E+00  0.3750E+00  0.3750E+00
      9.646  0.0000E+00  0.0000E+00  0.3750E+00  0.3750E+00
      9.750  0.0000E+00  0.0000E+00  0.3750E+00  0.3750E+00
      9.855  0.0000E+00  0.0000E+00  0.3750E+00  0.3750E+00
