<?xml version="1.0" encoding="ISO-8859-1"?>
<modeling>
 <generator>
  <i name="program" type="string">vasp </i>
  <i name="version" type="string">6.3.2  </i>
  <i name="subversion" type="string">27Jun22 (build Dec 22 2022 13:13:19) complex                          parallel </i>
  <i name="platform" type="string">LinuxIFC </i>
  <i name="date" type="string">2023 08 24 </i>
  <i name="time" type="string">18:09:31 </i>
 </generator>
 <incar>
  <i type="string" name="SYSTEM">Lattice</i>
  <i type="int" name="ISTART">     0</i>
  <i type="string" name="PREC">Accurate</i>
  <i type="string" name="ALGO">Normal</i>
  <i type="int" name="ISPIN">     2</i>
  <i type="int" name="ICHARG">     2</i>
  <i type="int" name="NELM">    64</i>
  <i type="int" name="IBRION">     2</i>
  <i name="EDIFF">      0.00000100</i>
  <i name="EDIFFG">     -0.00100000</i>
  <i type="int" name="NSW">   128</i>
  <i type="int" name="ISIF">     2</i>
  <i name="ENCUT">    450.00000000</i>
  <i name="POTIM">      0.50000000</i>
  <i type="int" name="ISMEAR">     0</i>
  <i name="SIGMA">      0.10000000</i>
  <i type="logical" name="LWAVE"> F  </i>
  <i type="logical" name="LCHARG"> F  </i>
  <i type="string" name="GGA">PE</i>
  <i type="int" name="IVDW">    12</i>
 </incar>
 <primitive_cell>
  <structure name="primitive_cell" >
   <crystal>
    <varray name="basis" >
     <v>       4.33445715       2.50250000       0.00000000 </v>
     <v>      -4.33445715       2.50250000       0.00000000 </v>
     <v>       0.00000000       0.00000000      15.00000000 </v>
    </varray>
    <i name="volume">    325.40937023 </i>
    <varray name="rec_basis" >
     <v>       0.11535470       0.19980020       0.00000000 </v>
     <v>      -0.11535470       0.19980020       0.00000000 </v>
     <v>       0.00000000       0.00000000       0.06666667 </v>
    </varray>
   </crystal>
   <varray name="positions" >
    <v>       0.33833034       0.66916432       0.10000000 </v>
    <v>       0.67165522       0.33584146       0.10000000 </v>
    <v>       0.16373946       0.31999962       0.10000000 </v>
    <v>       0.32250218       0.16126397       0.10000000 </v>
    <v>       0.16376430       0.84376384       0.10000000 </v>
    <v>       0.84623863       0.16123684       0.10000000 </v>
    <v>       0.68749850       0.84373000       0.10000000 </v>
    <v>       0.84626736       0.68499594       0.10000000 </v>
    <v>       0.33333267       0.16666633       0.32553333 </v>
    <v>       0.49999967       0.99999933       0.32553333 </v>
    <v>       0.33333267       0.66666633       0.32553333 </v>
    <v>       0.49999967       0.49999933       0.32553333 </v>
    <v>       0.83333267       0.16666633       0.32553333 </v>
    <v>       0.99999967       0.99999933       0.32553333 </v>
    <v>       0.83333267       0.66666633       0.32553333 </v>
    <v>       0.99999967       0.49999933       0.32553333 </v>
   </varray>
  </structure>
  <varray name="primitive_index" >
   <v type="int" >        1 </v>
   <v type="int" >        2 </v>
   <v type="int" >        3 </v>
   <v type="int" >        4 </v>
   <v type="int" >        5 </v>
   <v type="int" >        6 </v>
   <v type="int" >        7 </v>
   <v type="int" >        8 </v>
   <v type="int" >        9 </v>
   <v type="int" >       10 </v>
   <v type="int" >       11 </v>
   <v type="int" >       12 </v>
   <v type="int" >       13 </v>
   <v type="int" >       14 </v>
   <v type="int" >       15 </v>
   <v type="int" >       16 </v>
  </varray>
 </primitive_cell>
 <kpoints>
  <generation param="Gamma">
   <v type="int" name="divisions">      12       12        1 </v>
   <v name="usershift">      0.00000000       0.00000000       0.00000000 </v>
   <v name="genvec1">      0.08333333       0.00000000       0.00000000 </v>
   <v name="genvec2">      0.00000000       0.08333333       0.00000000 </v>
   <v name="genvec3">      0.00000000       0.00000000       1.00000000 </v>
   <v name="shift">      0.00000000       0.00000000       0.00000000 </v>
  </generation>
  <varray name="kpointlist" >
   <v>       0.00000000       0.00000000       0.00000000 </v>
   <v>       0.08333333      -0.00000000       0.00000000 </v>
   <v>      -0.00000000       0.08333333       0.00000000 </v>
   <v>      -0.08333333       0.08333333       0.00000000 </v>
   <v>       0.16666667      -0.00000000       0.00000000 </v>
   <v>      -0.00000000       0.16666667       0.00000000 </v>
   <v>      -0.16666667       0.16666667       0.00000000 </v>
   <v>       0.25000000      -0.00000000       0.00000000 </v>
   <v>      -0.00000000       0.25000000       0.00000000 </v>
   <v>      -0.25000000       0.25000000       0.00000000 </v>
   <v>       0.33333333      -0.00000000       0.00000000 </v>
   <v>      -0.00000000       0.33333333       0.00000000 </v>
   <v>      -0.33333333       0.33333333       0.00000000 </v>
   <v>       0.41666667      -0.00000000       0.00000000 </v>
   <v>       0.00000000       0.41666667       0.00000000 </v>
   <v>      -0.41666667       0.41666667       0.00000000 </v>
   <v>       0.50000000      -0.00000000       0.00000000 </v>
   <v>      -0.00000000       0.50000000       0.00000000 </v>
   <v>       0.50000000       0.50000000       0.00000000 </v>
   <v>       0.08333333       0.08333333       0.00000000 </v>
   <v>      -0.08333333       0.16666667       0.00000000 </v>
   <v>      -0.16666667       0.08333333       0.00000000 </v>
   <v>       0.16666667       0.08333333       0.00000000 </v>
   <v>      -0.08333333       0.25000000       0.00000000 </v>
   <v>      -0.25000000       0.16666667       0.00000000 </v>
   <v>      -0.16666667       0.25000000       0.00000000 </v>
   <v>       0.08333333       0.16666667       0.00000000 </v>
   <v>       0.25000000      -0.08333333       0.00000000 </v>
   <v>       0.25000000       0.08333333       0.00000000 </v>
   <v>      -0.08333333       0.33333333       0.00000000 </v>
   <v>      -0.33333333       0.25000000       0.00000000 </v>
   <v>      -0.25000000       0.33333333       0.00000000 </v>
   <v>       0.08333333       0.25000000       0.00000000 </v>
   <v>       0.33333333      -0.08333333       0.00000000 </v>
   <v>       0.33333333       0.08333333       0.00000000 </v>
   <v>      -0.08333333       0.41666667       0.00000000 </v>
   <v>      -0.41666667       0.33333333       0.00000000 </v>
   <v>      -0.33333333       0.41666667       0.00000000 </v>
   <v>       0.08333333       0.33333333       0.00000000 </v>
   <v>       0.41666667      -0.08333333       0.00000000 </v>
   <v>       0.41666667       0.08333333       0.00000000 </v>
   <v>      -0.08333333       0.50000000       0.00000000 </v>
   <v>       0.50000000       0.41666667       0.00000000 </v>
   <v>      -0.41666667       0.50000000       0.00000000 </v>
   <v>       0.08333333       0.41666667       0.00000000 </v>
   <v>       0.50000000      -0.08333333       0.00000000 </v>
   <v>       0.16666667       0.16666667       0.00000000 </v>
   <v>      -0.16666667       0.33333333       0.00000000 </v>
   <v>      -0.33333333       0.16666667       0.00000000 </v>
   <v>       0.25000000       0.16666667       0.00000000 </v>
   <v>      -0.16666667       0.41666667       0.00000000 </v>
   <v>      -0.41666667       0.25000000       0.00000000 </v>
   <v>      -0.25000000       0.41666667       0.00000000 </v>
   <v>       0.16666667       0.25000000       0.00000000 </v>
   <v>       0.41666667      -0.16666667       0.00000000 </v>
   <v>       0.33333333       0.16666667       0.00000000 </v>
   <v>      -0.16666667       0.50000000       0.00000000 </v>
   <v>       0.50000000       0.33333333       0.00000000 </v>
   <v>      -0.33333333       0.50000000       0.00000000 </v>
   <v>       0.16666667       0.33333333       0.00000000 </v>
   <v>       0.50000000      -0.16666667       0.00000000 </v>
   <v>       0.41666667       0.16666667       0.00000000 </v>
   <v>      -0.16666667      -0.41666667       0.00000000 </v>
   <v>       0.41666667       0.41666667       0.00000000 </v>
   <v>       0.25000000       0.25000000       0.00000000 </v>
   <v>      -0.25000000       0.50000000       0.00000000 </v>
   <v>       0.50000000       0.25000000       0.00000000 </v>
   <v>       0.33333333       0.25000000       0.00000000 </v>
   <v>      -0.25000000      -0.41666667       0.00000000 </v>
   <v>       0.41666667       0.33333333       0.00000000 </v>
   <v>      -0.33333333      -0.41666667       0.00000000 </v>
   <v>       0.25000000       0.33333333       0.00000000 </v>
   <v>      -0.41666667      -0.25000000       0.00000000 </v>
   <v>       0.33333333       0.33333333       0.00000000 </v>
  </varray>
  <varray name="weights" >
   <v>       0.00694444 </v>
   <v>       0.01388889 </v>
   <v>       0.01388889 </v>
   <v>       0.01388889 </v>
   <v>       0.01388889 </v>
   <v>       0.01388889 </v>
   <v>       0.01388889 </v>
   <v>       0.01388889 </v>
   <v>       0.01388889 </v>
   <v>       0.01388889 </v>
   <v>       0.01388889 </v>
   <v>       0.01388889 </v>
   <v>       0.01388889 </v>
   <v>       0.01388889 </v>
   <v>       0.01388889 </v>
   <v>       0.01388889 </v>
   <v>       0.00694444 </v>
   <v>       0.00694444 </v>
   <v>       0.00694444 </v>
   <v>       0.01388889 </v>
   <v>       0.01388889 </v>
   <v>       0.01388889 </v>
   <v>       0.01388889 </v>
   <v>       0.01388889 </v>
   <v>       0.01388889 </v>
   <v>       0.01388889 </v>
   <v>       0.01388889 </v>
   <v>       0.01388889 </v>
   <v>       0.01388889 </v>
   <v>       0.01388889 </v>
   <v>       0.01388889 </v>
   <v>       0.01388889 </v>
   <v>       0.01388889 </v>
   <v>       0.01388889 </v>
   <v>       0.01388889 </v>
   <v>       0.01388889 </v>
   <v>       0.01388889 </v>
   <v>       0.01388889 </v>
   <v>       0.01388889 </v>
   <v>       0.01388889 </v>
   <v>       0.01388889 </v>
   <v>       0.01388889 </v>
   <v>       0.01388889 </v>
   <v>       0.01388889 </v>
   <v>       0.01388889 </v>
   <v>       0.01388889 </v>
   <v>       0.01388889 </v>
   <v>       0.01388889 </v>
   <v>       0.01388889 </v>
   <v>       0.01388889 </v>
   <v>       0.01388889 </v>
   <v>       0.01388889 </v>
   <v>       0.01388889 </v>
   <v>       0.01388889 </v>
   <v>       0.01388889 </v>
   <v>       0.01388889 </v>
   <v>       0.01388889 </v>
   <v>       0.01388889 </v>
   <v>       0.01388889 </v>
   <v>       0.01388889 </v>
   <v>       0.01388889 </v>
   <v>       0.01388889 </v>
   <v>       0.01388889 </v>
   <v>       0.01388889 </v>
   <v>       0.01388889 </v>
   <v>       0.01388889 </v>
   <v>       0.01388889 </v>
   <v>       0.01388889 </v>
   <v>       0.01388889 </v>
   <v>       0.01388889 </v>
   <v>       0.01388889 </v>
   <v>       0.01388889 </v>
   <v>       0.01388889 </v>
   <v>       0.01388889 </v>
  </varray>
 </kpoints>
 <parameters>
  <separator name="general" >
   <i type="string" name="SYSTEM">Lattice</i>
   <i type="logical" name="LCOMPAT"> F  </i>
  </separator>
  <separator name="electronic" >
   <i type="string" name="PREC">accura</i>
   <i name="ENMAX">    450.00000000</i>
   <i name="ENAUG">    644.87300000</i>
   <i name="EDIFF">      0.00000100</i>
   <i type="int" name="IALGO">    38</i>
   <i type="int" name="IWAVPR">    11</i>
   <i type="int" name="NBANDS">    48</i>
   <i type="int" name="NBANDSLOW">    -1</i>
   <i type="int" name="NBANDSHIGH">    -1</i>
   <i name="NELECT">     62.00000000</i>
   <i type="int" name="TURBO">     0</i>
   <i type="int" name="IRESTART">     0</i>
   <i type="int" name="NREBOOT">     0</i>
   <i type="int" name="NMIN">     0</i>
   <i name="EREF">      0.00000000</i>
   <separator name="electronic smearing" >
    <i type="int" name="ISMEAR">     0</i>
    <i name="SIGMA">      0.10000000</i>
    <i name="KSPACING">      0.50000000</i>
    <i type="logical" name="KGAMMA"> T  </i>
    <i type="logical" name="KBLOWUP"> T  </i>
   </separator>
   <separator name="electronic projectors" >
    <i type="logical" name="LREAL"> F  </i>
    <v name="ROPT">      0.00000000      0.00000000</v>
    <i type="int" name="LMAXPAW">  -100</i>
    <i type="int" name="LMAXMIX">     2</i>
    <i type="logical" name="NLSPLINE"> F  </i>
   </separator>
   <separator name="electronic startup" >
    <i type="int" name="ISTART">     0</i>
    <i type="int" name="ICHARG">     2</i>
    <i type="int" name="INIWAV">     1</i>
   </separator>
   <separator name="electronic spin" >
    <i type="int" name="ISPIN">     2</i>
    <i type="logical" name="LNONCOLLINEAR"> F  </i>
    <v name="MAGMOM">      1.00000000      1.00000000      1.00000000      1.00000000      1.00000000      1.00000000      1.00000000      1.00000000      1.00000000      1.00000000      1.00000000      1.00000000      1.00000000      1.00000000      1.00000000      1.00000000</v>
    <i name="NUPDOWN">     -1.00000000</i>
    <i type="logical" name="LSORBIT"> F  </i>
    <v name="SAXIS">      0.00000000      0.00000000      1.00000000</v>
    <i type="logical" name="LSPIRAL"> F  </i>
    <v name="QSPIRAL">      0.00000000      0.00000000      0.00000000</v>
    <i type="logical" name="LZEROZ"> F  </i>
   </separator>
   <separator name="electronic exchange-correlation" >
    <i type="logical" name="LASPH"> F  </i>
    <i type="logical" name="LMETAGGA"> F  </i>
   </separator>
   <separator name="electronic convergence" >
    <i type="int" name="NELM">    64</i>
    <i type="int" name="NELMDL">    -5</i>
    <i type="int" name="NELMIN">     2</i>
    <i name="ENINI">    450.00000000</i>
    <separator name="electronic convergence detail" >
     <i type="logical" name="LDIAG"> T  </i>
     <i type="logical" name="LSUBROT"> F  </i>
     <i name="WEIMIN">      0.00100000</i>
     <i name="EBREAK">      0.00000001</i>
     <i name="DEPER">      0.30000000</i>
     <i type="int" name="NRMM">     4</i>
     <i name="TIME">      0.40000000</i>
    </separator>
   </separator>
   <separator name="electronic mixer" >
    <i name="AMIX">      0.40000000</i>
    <i name="BMIX">      1.00000000</i>
    <i name="AMIN">      0.10000000</i>
    <i name="AMIX_MAG">      1.60000000</i>
    <i name="BMIX_MAG">      1.00000000</i>
    <separator name="electronic mixer details" >
     <i type="int" name="IMIX">     4</i>
     <i type="logical" name="MIXFIRST"> F  </i>
     <i type="int" name="MAXMIX">   -45</i>
     <i name="WC">    100.00000000</i>
     <i type="int" name="INIMIX">     1</i>
     <i type="int" name="MIXPRE">     1</i>
     <i type="int" name="MREMOVE">     5</i>
    </separator>
   </separator>
   <separator name="electronic dipolcorrection" >
    <i type="logical" name="LDIPOL"> F  </i>
    <i type="logical" name="LMONO"> F  </i>
    <i type="int" name="IDIPOL">     0</i>
    <i name="EPSILON">      1.00000000</i>
    <v name="DIPOL">   -100.00000000   -100.00000000   -100.00000000</v>
    <i name="EFIELD">      0.00000000</i>
   </separator>
  </separator>
  <separator name="grids" >
   <i type="int" name="NGX">    36</i>
   <i type="int" name="NGY">    36</i>
   <i type="int" name="NGZ">   108</i>
   <i type="int" name="NGXF">    72</i>
   <i type="int" name="NGYF">    72</i>
   <i type="int" name="NGZF">   216</i>
   <i type="logical" name="ADDGRID"> F  </i>
  </separator>
  <separator name="ionic" >
   <i type="int" name="NSW">   128</i>
   <i type="int" name="IBRION">     2</i>
   <i type="int" name="MDALGO">     0</i>
   <i type="int" name="ISIF">     2</i>
   <i name="PSTRESS">      0.00000000</i>
   <i name="EDIFFG">     -0.00100000</i>
   <i type="int" name="NFREE">     1</i>
   <i name="POTIM">      0.50000000</i>
   <i name="SMASS">     -3.00000000</i>
   <i name="SCALEE">      1.00000000</i>
  </separator>
  <separator name="ionic md" >
   <i name="TEBEG">      0.00010000</i>
   <i name="TEEND">      0.00010000</i>
   <i type="int" name="NBLOCK">     1</i>
   <i type="int" name="KBLOCK">   128</i>
   <i type="int" name="NPACO">   256</i>
   <i name="APACO">     10.00000000</i>
  </separator>
  <separator name="symmetry" >
   <i type="int" name="ISYM">     2</i>
   <i name="SYMPREC">      0.00001000</i>
  </separator>
  <separator name="dos" >
   <i type="int" name="LORBIT">     0</i>
   <v name="RWIGS">     -1.00000000     -1.00000000</v>
   <i type="int" name="NEDOS">   301</i>
   <i name="EMIN">     10.00000000</i>
   <i name="EMAX">    -10.00000000</i>
   <i name="EFERMI">      0.00000000</i>
  </separator>
  <separator name="writing" >
   <i type="int" name="NWRITE">     2</i>
   <i type="logical" name="LWAVE"> F  </i>
   <i type="logical" name="LDOWNSAMPLE"> F  </i>
   <i type="logical" name="LCHARG"> F  </i>
   <i type="logical" name="LPARD"> F  </i>
   <i type="logical" name="LVTOT"> F  </i>
   <i type="logical" name="LVHAR"> F  </i>
   <i type="logical" name="LELF"> F  </i>
   <i type="logical" name="LOPTICS"> F  </i>
   <v name="STM">      0.00000000      0.00000000      0.00000000      0.00000000      0.00000000      0.00000000      0.00000000</v>
  </separator>
  <separator name="performance" >
   <i type="int" name="NPAR">    48</i>
   <i type="int" name="NSIM">     4</i>
   <i type="int" name="NBLK">    -1</i>
   <i type="logical" name="LPLANE"> T  </i>
   <i type="logical" name="LSCALAPACK"> T  </i>
   <i type="logical" name="LSCAAWARE"> F  </i>
   <i type="logical" name="LSCALU"> F  </i>
   <i type="logical" name="LASYNC"> F  </i>
   <i type="logical" name="LORBITALREAL"> F  </i>
  </separator>
  <separator name="miscellaneous" >
   <i type="int" name="IDIOT">     3</i>
   <i type="int" name="PHON_NSTRUCT">    -1</i>
   <i type="logical" name="LMUSIC"> F  </i>
   <v name="POMASS">     10.81100000     12.01100000</v>
   <v name="DARWINR">      0.00000000      0.00000000</v>
   <v name="DARWINV">      1.00000000      1.00000000</v>
   <i type="logical" name="LCORR"> T  </i>
  </separator>
  <i type="logical" name="GGA_COMPAT"> T  </i>
  <i type="logical" name="LBERRY"> F  </i>
  <i type="int" name="ICORELEVEL">     0</i>
  <i type="logical" name="LDAU"> F  </i>
  <i type="int" name="I_CONSTRAINED_M">     0</i>
  <separator name="electronic exchange-correlation" >
   <i type="string" name="GGA">PE</i>
   <i type="int" name="VOSKOWN">     0</i>
   <i type="logical" name="LHFCALC"> F  </i>
   <i type="string" name="PRECFOCK"></i>
   <i type="logical" name="LSYMGRAD"> F  </i>
   <i type="logical" name="LHFONE"> F  </i>
   <i type="logical" name="LRHFCALC"> F  </i>
   <i type="logical" name="LTHOMAS"> F  </i>
   <i type="logical" name="LMODELHF"> F  </i>
   <i type="logical" name="LFOCKACE"> F  </i>
   <i name="ENCUT4O">     -1.00000000</i>
   <i type="int" name="EXXOEP">     0</i>
   <i type="int" name="FOURORBIT">     0</i>
   <i name="AEXX">      0.00000000</i>
   <i name="HFALPHA">      0.00000000</i>
   <i name="MCALPHA">      0.00000000</i>
   <i name="ALDAX">      1.00000000</i>
   <i name="AGGAX">      1.00000000</i>
   <i name="ALDAC">      1.00000000</i>
   <i name="AGGAC">      1.00000000</i>
   <i type="int" name="NKREDX">     1</i>
   <i type="int" name="NKREDY">     1</i>
   <i type="int" name="NKREDZ">     1</i>
   <i type="logical" name="SHIFTRED"> F  </i>
   <i type="logical" name="ODDONLY"> F  </i>
   <i type="logical" name="EVENONLY"> F  </i>
   <i type="int" name="LMAXFOCK">     0</i>
   <i type="int" name="NMAXFOCKAE">     0</i>
   <i type="logical" name="LFOCKAEDFT"> F  </i>
   <i name="HFSCREEN">      0.00000000</i>
   <i name="HFSCREENC">      0.00000000</i>
   <i type="int" name="NBANDSGWLOW">     0</i>
  </separator>
  <separator name="vdW DFT" >
   <i type="logical" name="LUSE_VDW"> F  </i>
   <i name="Zab_VDW">     -0.84910000</i>
   <i name="PARAM1">      0.12340000</i>
   <i name="PARAM2">      1.00000000</i>
   <i name="PARAM3">      0.00000000</i>
  </separator>
  <separator name="model GW" >
   <i type="int" name="MODEL_GW">     0</i>
   <i name="MODEL_EPS0">     12.20285138</i>
   <i name="MODEL_ALPHA">      1.00000000</i>
  </separator>
  <separator name="linear response parameters" >
   <i type="logical" name="LEPSILON"> F  </i>
   <i type="logical" name="LRPA"> F  </i>
   <i type="logical" name="LNABLA"> F  </i>
   <i type="logical" name="LVEL"> F  </i>
   <i name="CSHIFT">      0.10000000</i>
   <i name="OMEGAMAX">     -1.00000000</i>
   <i name="DEG_THRESHOLD">      0.00200000</i>
   <i name="RTIME">     -0.10000000</i>
   <i name="WPLASMAI">      0.00000000</i>
   <v name="DFIELD">      0.00000000      0.00000000      0.00000000</v>
   <v name="WPLASMA">      0.00000000      0.00000000      0.00000000      0.00000000      0.00000000      0.00000000      0.00000000      0.00000000      0.00000000</v>
  </separator>
  <separator name="orbital magnetization" >
   <i type="logical" name="NUCIND"> F  </i>
   <v name="MAGPOS">      0.00000000      0.00000000      0.00000000</v>
   <i type="logical" name="LNICSALL"> T  </i>
   <i type="logical" name="ORBITALMAG"> F  </i>
   <i type="logical" name="LMAGBLOCH"> F  </i>
   <i type="logical" name="LCHIMAG"> F  </i>
   <i type="logical" name="LGAUGE"> T  </i>
   <i type="int" name="MAGATOM">     0</i>
   <v name="MAGDIPOL">      0.00000000      0.00000000      0.00000000</v>
   <v name="AVECCONST">      0.00000000      0.00000000      0.00000000</v>
  </separator>
  <separator name="response functions" >
   <i type="logical" name="LFINITE_TEMPERATURE"> F  </i>
   <i type="logical" name="LADDER"> F  </i>
   <i type="logical" name="LRPAFORCE"> F  </i>
   <i type="logical" name="LFXC"> F  </i>
   <i type="logical" name="LHARTREE"> T  </i>
   <i type="int" name="IBSE">     0</i>
   <v type="int" name="KPOINT">    -1     0     0     0</v>
   <i type="logical" name="LTCTC"> F  </i>
   <i type="logical" name="LTCTE"> F  </i>
   <i type="logical" name="LTETE"> F  </i>
   <i type="logical" name="LTRIPLET"> F  </i>
   <i type="logical" name="LFXCEPS"> F  </i>
   <i type="logical" name="LFXHEG"> F  </i>
   <i type="int" name="NATURALO">     2</i>
   <i type="logical" name="LHOLEGF"> F  </i>
   <i type="logical" name="L2ORDER"> F  </i>
   <i type="logical" name="LDMP1"> F  </i>
   <i type="logical" name="LMP2LT"> F  </i>
   <i type="logical" name="LSMP2LT"> F  </i>
   <i type="logical" name="LGWLF"> F  </i>
   <i name="ENCUTGW">     -2.00000000</i>
   <i name="ENCUTGWSOFT">     -2.00000000</i>
   <i name="ENCUTLF">     -1.00000000</i>
   <i type="logical" name="LESF_SPLINES"> F  </i>
   <i type="int" name="LMAXMP2">    -1</i>
   <i name="SCISSOR">      0.00000000</i>
   <i type="int" name="NOMEGA">     0</i>
   <i type="int" name="NOMEGAR">     0</i>
   <i type="int" name="NBANDSGW">    -1</i>
   <i type="int" name="NBANDSO">    -1</i>
   <i type="int" name="NBANDSV">    -1</i>
   <i type="int" name="NELMGW">     1</i>
   <i type="int" name="NELMHF">     1</i>
   <i type="int" name="DIM">     3</i>
   <i type="int" name="IESPILON">     4</i>
   <i type="int" name="ANTIRES">     0</i>
   <i name="OMEGAMAX">    -30.00000000</i>
   <i name="OMEGAMIN">    -30.00000000</i>
   <i name="OMEGATL">   -200.00000000</i>
   <i type="int" name="OMEGAGRID">     0</i>
   <i name="CSHIFT">     -0.10000000</i>
   <i type="logical" name="LSELFENERGY"> F  </i>
   <i type="logical" name="LSPECTRAL"> F  </i>
   <i type="logical" name="LSPECTRALGW"> F  </i>
   <i type="logical" name="LSINGLES"> F  </i>
   <i type="logical" name="LFERMIGW"> F  </i>
   <i type="logical" name="ODDONLYGW"> F  </i>
   <i type="logical" name="EVENONLYGW"> F  </i>
   <i type="int" name="NKREDLFX">     1</i>
   <i type="int" name="NKREDLFY">     1</i>
   <i type="int" name="NKREDLFZ">     1</i>
   <i type="int" name="MAXMEM">  2800</i>
   <i type="int" name="TELESCOPE">     0</i>
   <i type="int" name="NTAUPAR">    -1</i>
   <i type="int" name="NOMEGAPAR">    -1</i>
   <i name="DAMP_NEWTON">      0.80000001</i>
   <i name="LAMBDA">      1.00000000</i>
  </separator>
  <separator name="External order field" >
   <i name="OFIELD_KAPPA">      0.00000000</i>
   <v name="OFIELD_K">      0.00000000      0.00000000      0.00000000</v>
   <i name="OFIELD_Q6_NEAR">      0.00000000</i>
   <i name="OFIELD_Q6_FAR">      0.00000000</i>
   <i name="OFIELD_A">      0.00000000</i>
  </separator>
  <separator name="optional k-points parameters" >
   <i type="int" name="KPOINTS_OPT_MODE">     1</i>
   <i type="logical" name="LKPOINTS_OPT"> F  </i>
  </separator>
  <separator name="solvation model" >
   <i type="logical" name="LSOL"> F  </i>
  </separator>
 </parameters>
 <atominfo>
  <atoms>      16 </atoms>
  <types>       2 </types>
  <array name="atoms" >
   <dimension dim="1">ion</dimension>
   <field type="string">element</field>
   <field type="int">atomtype</field>
   <set>
    <rc><c>B </c><c>   1</c></rc>
    <rc><c>B </c><c>   1</c></rc>
    <rc><c>C </c><c>   2</c></rc>
    <rc><c>C </c><c>   2</c></rc>
    <rc><c>C </c><c>   2</c></rc>
    <rc><c>C </c><c>   2</c></rc>
    <rc><c>C </c><c>   2</c></rc>
    <rc><c>C </c><c>   2</c></rc>
    <rc><c>C </c><c>   2</c></rc>
    <rc><c>C </c><c>   2</c></rc>
    <rc><c>C </c><c>   2</c></rc>
    <rc><c>C </c><c>   2</c></rc>
    <rc><c>C </c><c>   2</c></rc>
    <rc><c>C </c><c>   2</c></rc>
    <rc><c>C </c><c>   2</c></rc>
    <rc><c>C </c><c>   2</c></rc>
   </set>
  </array>
  <array name="atomtypes" >
   <dimension dim="1">type</dimension>
   <field type="int">atomspertype</field>
   <field type="string">element</field>
   <field>mass</field>
   <field>valence</field>
   <field type="string">pseudopotential</field>
   <set>
    <rc><c>   2</c><c>B </c><c>     10.81100000</c><c>      3.00000000</c><c>  PAW_PBE B 06Sep2000                   </c></rc>
    <rc><c>  14</c><c>C </c><c>     12.01100000</c><c>      4.00000000</c><c>  PAW_PBE C 08Apr2002                   </c></rc>
   </set>
  </array>
 </atominfo>
 <structure name="initialpos" >
  <crystal>
   <varray name="basis" >
    <v>       4.33445715       2.50250000       0.00000000 </v>
    <v>      -4.33445715       2.50250000       0.00000000 </v>
    <v>       0.00000000       0.00000000      15.00000000 </v>
   </varray>
   <i name="volume">    325.40937023 </i>
   <varray name="rec_basis" >
    <v>       0.11535470       0.19980020       0.00000000 </v>
    <v>      -0.11535470       0.19980020       0.00000000 </v>
    <v>       0.00000000       0.00000000       0.06666667 </v>
   </varray>
  </crystal>
  <varray name="positions" >
   <v>       0.33833034       0.66916432       0.10000000 </v>
   <v>       0.67165522       0.33584146       0.10000000 </v>
   <v>       0.16373946       0.31999962       0.10000000 </v>
   <v>       0.32250218       0.16126397       0.10000000 </v>
   <v>       0.16376430       0.84376384       0.10000000 </v>
   <v>       0.84623863       0.16123684       0.10000000 </v>
   <v>       0.68749850       0.84373000       0.10000000 </v>
   <v>       0.84626736       0.68499594       0.10000000 </v>
   <v>       0.33333267       0.16666633       0.32553333 </v>
   <v>       0.49999967       0.99999933       0.32553333 </v>
   <v>       0.33333267       0.66666633       0.32553333 </v>
   <v>       0.49999967       0.49999933       0.32553333 </v>
   <v>       0.83333267       0.16666633       0.32553333 </v>
   <v>       0.99999967       0.99999933       0.32553333 </v>
   <v>       0.83333267       0.66666633       0.32553333 </v>
   <v>       0.99999967       0.49999933       0.32553333 </v>
  </varray>
 </structure>
 <calculation>
  <scstep>
   <time name="dav">    5.65    5.71</time>
   <time name="total">    5.69    5.76</time>
   <energy>
    <i name="alphaZ">     63.51804815 </i>
    <i name="ewald">   5575.79772116 </i>
    <i name="hartreedc">  -7387.64614374 </i>
    <i name="XCdc">    200.59976282 </i>
    <i name="pawpsdc">   1604.28699987 </i>
    <i name="pawaedc">  -1610.37247880 </i>
    <i name="eentropy">     -0.01892139 </i>
    <i name="bandstr">   -387.65653341 </i>
    <i name="atom">   2202.35892741 </i>
    <i name="e_fr_energy">    260.86738207 </i>
    <i name="e_wo_entrp">    260.88630346 </i>
    <i name="e_0_energy">    260.87684277 </i>
   </energy>
  </scstep>
  <scstep>
   <time name="dav">    8.79    8.86</time>
   <time name="total">    8.79    8.86</time>
   <energy>
    <i name="e_fr_energy">   -130.98688040 </i>
    <i name="e_wo_entrp">   -130.97824465 </i>
    <i name="e_0_energy">   -130.98256252 </i>
   </energy>
  </scstep>
  <scstep>
   <time name="dav">   10.69   10.78</time>
   <time name="total">   10.69   10.78</time>
   <energy>
    <i name="e_fr_energy">   -146.34408645 </i>
    <i name="e_wo_entrp">   -146.33787129 </i>
    <i name="e_0_energy">   -146.34097887 </i>
   </energy>
  </scstep>
  <scstep>
   <time name="dav">    9.44    9.52</time>
   <time name="total">    9.44    9.52</time>
   <energy>
    <i name="e_fr_energy">   -146.39661187 </i>
    <i name="e_wo_entrp">   -146.39028110 </i>
    <i name="e_0_energy">   -146.39344649 </i>
   </energy>
  </scstep>
  <scstep>
   <time name="dav">   10.02   10.10</time>
   <time name="total">   10.28   10.37</time>
   <energy>
    <i name="e_fr_energy">   -146.39667749 </i>
    <i name="e_wo_entrp">   -146.39034672 </i>
    <i name="e_0_energy">   -146.39351211 </i>
   </energy>
  </scstep>
  <scstep>
   <time name="dav">    9.98   10.05</time>
   <time name="total">   10.27   10.36</time>
   <energy>
    <i name="e_fr_energy">   -107.48435844 </i>
    <i name="e_wo_entrp">   -107.46303468 </i>
    <i name="e_0_energy">   -107.47369656 </i>
   </energy>
  </scstep>
  <scstep>
   <time name="dav">    9.71    9.78</time>
   <time name="total">   10.00   10.08</time>
   <energy>
    <i name="e_fr_energy">   -114.61079438 </i>
    <i name="e_wo_entrp">   -114.59236287 </i>
    <i name="e_0_energy">   -114.60157862 </i>
   </energy>
  </scstep>
  <scstep>
   <time name="dav">   10.67   10.75</time>
   <time name="total">   10.96   11.05</time>
   <energy>
    <i name="e_fr_energy">   -123.57360774 </i>
    <i name="e_wo_entrp">   -123.56420721 </i>
    <i name="e_0_energy">   -123.56890747 </i>
   </energy>
  </scstep>
  <scstep>
   <time name="dav">    7.71    7.78</time>
   <time name="total">    8.00    8.08</time>
   <energy>
    <i name="e_fr_energy">   -131.55058204 </i>
    <i name="e_wo_entrp">   -131.54500814 </i>
    <i name="e_0_energy">   -131.54779509 </i>
   </energy>
  </scstep>
  <scstep>
   <time name="dav">    8.42    8.48</time>
   <time name="total">    8.71    8.77</time>
   <energy>
    <i name="e_fr_energy">   -138.59008654 </i>
    <i name="e_wo_entrp">   -138.58750420 </i>
    <i name="e_0_energy">   -138.58879537 </i>
   </energy>
  </scstep>
  <scstep>
   <time name="dav">    8.48    8.55</time>
   <time name="total">    8.78    8.86</time>
   <energy>
    <i name="e_fr_energy">   -139.94577665 </i>
    <i name="e_wo_entrp">   -139.94343995 </i>
    <i name="e_0_energy">   -139.94460830 </i>
   </energy>
  </scstep>
  <scstep>
   <time name="dav">    8.48    8.53</time>
   <time name="total">    8.77    8.84</time>
   <energy>
    <i name="e_fr_energy">   -140.19514113 </i>
    <i name="e_wo_entrp">   -140.19302060 </i>
    <i name="e_0_energy">   -140.19408087 </i>
   </energy>
  </scstep>
  <scstep>
   <time name="dav">    6.94    6.99</time>
   <time name="total">    7.23    7.29</time>
   <energy>
    <i name="e_fr_energy">   -140.25714765 </i>
    <i name="e_wo_entrp">   -140.25468972 </i>
    <i name="e_0_energy">   -140.25591868 </i>
   </energy>
  </scstep>
  <scstep>
   <time name="dav">    7.02    7.07</time>
   <time name="total">    7.31    7.37</time>
   <energy>
    <i name="e_fr_energy">   -140.28279615 </i>
    <i name="e_wo_entrp">   -140.28014234 </i>
    <i name="e_0_energy">   -140.28146924 </i>
   </energy>
  </scstep>
  <scstep>
   <time name="dav">    7.58    7.63</time>
   <time name="total">    7.87    7.93</time>
   <energy>
    <i name="e_fr_energy">   -140.29271235 </i>
    <i name="e_wo_entrp">   -140.28998978 </i>
    <i name="e_0_energy">   -140.29135107 </i>
   </energy>
  </scstep>
  <scstep>
   <time name="dav">    6.11    6.15</time>
   <time name="total">    6.40    6.45</time>
   <energy>
    <i name="e_fr_energy">   -140.29461749 </i>
    <i name="e_wo_entrp">   -140.29188353 </i>
    <i name="e_0_energy">   -140.29325051 </i>
   </energy>
  </scstep>
  <scstep>
   <time name="dav">    6.01    6.06</time>
   <time name="total">    6.30    6.36</time>
   <energy>
    <i name="e_fr_energy">   -140.29650430 </i>
    <i name="e_wo_entrp">   -140.29377981 </i>
    <i name="e_0_energy">   -140.29514205 </i>
   </energy>
  </scstep>
  <scstep>
   <time name="dav">    6.40    6.45</time>
   <time name="total">    6.69    6.75</time>
   <energy>
    <i name="e_fr_energy">   -140.29765534 </i>
    <i name="e_wo_entrp">   -140.29494163 </i>
    <i name="e_0_energy">   -140.29629848 </i>
   </energy>
  </scstep>
  <scstep>
   <time name="dav">    7.52    7.58</time>
   <time name="total">    7.81    7.88</time>
   <energy>
    <i name="e_fr_energy">   -140.29822121 </i>
    <i name="e_wo_entrp">   -140.29550734 </i>
    <i name="e_0_energy">   -140.29686427 </i>
   </energy>
  </scstep>
  <scstep>
   <time name="dav">    6.65    6.69</time>
   <time name="total">    6.94    7.00</time>
   <energy>
    <i name="e_fr_energy">   -140.29841282 </i>
    <i name="e_wo_entrp">   -140.29569217 </i>
    <i name="e_0_energy">   -140.29705250 </i>
   </energy>
  </scstep>
  <scstep>
   <time name="dav">    7.77    7.82</time>
   <time name="total">    8.06    8.12</time>
   <energy>
    <i name="e_fr_energy">   -140.29844776 </i>
    <i name="e_wo_entrp">   -140.29572435 </i>
    <i name="e_0_energy">   -140.29708606 </i>
   </energy>
  </scstep>
  <scstep>
   <time name="dav">    8.37    8.42</time>
   <time name="total">    8.66    8.72</time>
   <energy>
    <i name="e_fr_energy">   -140.29847914 </i>
    <i name="e_wo_entrp">   -140.29575582 </i>
    <i name="e_0_energy">   -140.29711748 </i>
   </energy>
  </scstep>
  <scstep>
   <time name="dav">    9.15    9.21</time>
   <time name="total">    9.44    9.51</time>
   <energy>
    <i name="e_fr_energy">   -140.29849344 </i>
    <i name="e_wo_entrp">   -140.29576984 </i>
    <i name="e_0_energy">   -140.29713164 </i>
   </energy>
  </scstep>
  <scstep>
   <time name="dav">    8.77    8.83</time>
   <time name="total">    9.06    9.13</time>
   <energy>
    <i name="e_fr_energy">   -140.29849738 </i>
    <i name="e_wo_entrp">   -140.29577401 </i>
    <i name="e_0_energy">   -140.29713569 </i>
   </energy>
  </scstep>
  <scstep>
   <time name="dav">    8.84    8.90</time>
   <time name="total">    9.13    9.20</time>
   <energy>
    <i name="e_fr_energy">   -140.29849947 </i>
    <i name="e_wo_entrp">   -140.29577647 </i>
    <i name="e_0_energy">   -140.29713797 </i>
   </energy>
  </scstep>
  <scstep>
   <time name="dav">    7.48    7.53</time>
   <time name="total">    7.77    7.83</time>
   <energy>
    <i name="e_fr_energy">   -140.29850060 </i>
    <i name="e_wo_entrp">   -140.29577767 </i>
    <i name="e_0_energy">   -140.29713914 </i>
   </energy>
  </scstep>
  <scstep>
   <time name="dav">    8.15    8.20</time>
   <time name="total">    8.18    8.24</time>
   <energy>
    <i name="alphaZ">     63.51804815 </i>
    <i name="ewald">   5575.79772116 </i>
    <i name="hartreedc">  -7628.21391798 </i>
    <i name="XCdc">    207.46683445 </i>
    <i name="pawpsdc">   6541.66192058 </i>
    <i name="pawaedc">  -6549.76776040 </i>
    <i name="eentropy">     -0.00272294 </i>
    <i name="bandstr">   -553.11755147 </i>
    <i name="atom">   2202.35892741 </i>
    <i name="e_fr_energy">   -140.29850105 </i>
    <i name="e_wo_entrp">   -140.29577811 </i>
    <i name="e_0_energy">   -140.29713958 </i>
   </energy>
  </scstep>
  <structure>
   <crystal>
    <varray name="basis" >
     <v>       4.33445715       2.50250000       0.00000000 </v>
     <v>      -4.33445715       2.50250000       0.00000000 </v>
     <v>       0.00000000       0.00000000      15.00000000 </v>
    </varray>
    <i name="volume">    325.40937023 </i>
    <varray name="rec_basis" >
     <v>       0.11535470       0.19980020       0.00000000 </v>
     <v>      -0.11535470       0.19980020       0.00000000 </v>
     <v>       0.00000000       0.00000000       0.06666667 </v>
    </varray>
   </crystal>
   <varray name="positions" >
    <v>       0.33833034       0.66916432       0.10000000 </v>
    <v>       0.67165522       0.33584146       0.10000000 </v>
    <v>       0.16373946       0.31999962       0.10000000 </v>
    <v>       0.32250218       0.16126397       0.10000000 </v>
    <v>       0.16376430       0.84376384       0.10000000 </v>
    <v>       0.84623863       0.16123684       0.10000000 </v>
    <v>       0.68749850       0.84373000       0.10000000 </v>
    <v>       0.84626736       0.68499594       0.10000000 </v>
    <v>       0.33333267       0.16666633       0.32553333 </v>
    <v>       0.49999967       0.99999933       0.32553333 </v>
    <v>       0.33333267       0.66666633       0.32553333 </v>
    <v>       0.49999967       0.49999933       0.32553333 </v>
    <v>       0.83333267       0.16666633       0.32553333 </v>
    <v>       0.99999967       0.99999933       0.32553333 </v>
    <v>       0.83333267       0.66666633       0.32553333 </v>
    <v>       0.99999967       0.49999933       0.32553333 </v>
   </varray>
  </structure>
  <varray name="forces" >
   <v>       0.00067079       0.00109695       0.05132567 </v>
   <v>       0.00547861       0.00090414      -0.00658591 </v>
   <v>      -0.39478944       0.68301225      -0.01595272 </v>
   <v>       0.38284635       0.66230732       0.00572651 </v>
   <v>       0.78996114      -0.00030770      -0.01595234 </v>
   <v>      -0.76830695      -0.00102792       0.00556419 </v>
   <v>      -0.39632641      -0.68232405      -0.01601908 </v>
   <v>       0.38008828      -0.66433035       0.00556015 </v>
   <v>       0.00215968       0.00350109       0.00255066 </v>
   <v>      -0.01285264       0.02049162       0.01507221 </v>
   <v>      -0.00007623      -0.00036027      -0.06335557 </v>
   <v>       0.02396648      -0.00076579       0.01506920 </v>
   <v>      -0.00353232       0.00061189       0.00148555 </v>
   <v>       0.00013591       0.00047275      -0.00147083 </v>
   <v>       0.00250037      -0.00286714       0.00149253 </v>
   <v>      -0.01192362      -0.02041480       0.01548978 </v>
  </varray>
  <varray name="stress" >
   <v>      41.96975871      -0.00523810       0.00380262 </v>
   <v>      -0.00523811      41.97024108       0.00651253 </v>
   <v>       0.00380264       0.00651252      -2.61387163 </v>
  </varray>
  <energy>
   <i name="e_fr_energy">   -142.20637117 </i>
   <i name="e_wo_entrp">   -142.20364823 </i>
   <i name="e_0_energy">   -142.20500970 </i>
  </energy>
  <time name="totalsc">  232.45  234.39</time>
 </calculation>
 <calculation>
  <scstep>
   <time name="dav">    5.67    5.71</time>
   <time name="total">    5.96    6.01</time>
   <energy>
    <i name="alphaZ">     63.51804815 </i>
    <i name="ewald">   5564.95401141 </i>
    <i name="hartreedc">  -7620.42261983 </i>
    <i name="XCdc">    207.28091011 </i>
    <i name="pawpsdc">   6541.66218507 </i>
    <i name="pawaedc">  -6549.76802947 </i>
    <i name="eentropy">     -0.00342900 </i>
    <i name="bandstr">   -549.78931063 </i>
    <i name="atom">   2202.35892741 </i>
    <i name="e_fr_energy">   -140.20930679 </i>
    <i name="e_wo_entrp">   -140.20587779 </i>
    <i name="e_0_energy">   -140.20759229 </i>
   </energy>
  </scstep>
  <scstep>
   <time name="dav">    9.20    9.27</time>
   <time name="total">    9.49    9.57</time>
   <energy>
    <i name="e_fr_energy">   -140.13248718 </i>
    <i name="e_wo_entrp">   -140.12972716 </i>
    <i name="e_0_energy">   -140.13110717 </i>
   </energy>
  </scstep>
  <scstep>
   <time name="dav">   10.25   10.32</time>
   <time name="total">   10.54   10.62</time>
   <energy>
    <i name="e_fr_energy">   -140.12636340 </i>
    <i name="e_wo_entrp">   -140.12359002 </i>
    <i name="e_0_energy">   -140.12497671 </i>
   </energy>
  </scstep>
  <scstep>
   <time name="dav">    9.72    9.78</time>
   <time name="total">   10.00   10.08</time>
   <energy>
    <i name="e_fr_energy">   -140.12613868 </i>
    <i name="e_wo_entrp">   -140.12330634 </i>
    <i name="e_0_energy">   -140.12472251 </i>
   </energy>
  </scstep>
  <scstep>
   <time name="dav">    7.42    7.48</time>
   <time name="total">    7.71    7.78</time>
   <energy>
    <i name="e_fr_energy">   -140.12611853 </i>
    <i name="e_wo_entrp">   -140.12323972 </i>
    <i name="e_0_energy">   -140.12467912 </i>
   </energy>
  </scstep>
  <scstep>
   <time name="dav">    9.29    9.36</time>
   <time name="total">    9.58    9.65</time>
   <energy>
    <i name="e_fr_energy">   -140.12611448 </i>
    <i name="e_wo_entrp">   -140.12323236 </i>
    <i name="e_0_energy">   -140.12467342 </i>
   </energy>
  </scstep>
  <scstep>
   <time name="dav">    9.12    9.18</time>
   <time name="total">    9.41    9.48</time>
   <energy>
    <i name="e_fr_energy">   -140.12612360 </i>
    <i name="e_wo_entrp">   -140.12323486 </i>
    <i name="e_0_energy">   -140.12467923 </i>
   </energy>
  </scstep>
  <scstep>
   <time name="dav">    7.61    7.67</time>
   <time name="total">    7.91    7.98</time>
   <energy>
    <i name="e_fr_energy">   -140.12613519 </i>
    <i name="e_wo_entrp">   -140.12324110 </i>
    <i name="e_0_energy">   -140.12468815 </i>
   </energy>
  </scstep>
  <scstep>
   <time name="dav">    7.60    7.64</time>
   <time name="total">    7.88    7.94</time>
   <energy>
    <i name="e_fr_energy">   -140.12615499 </i>
    <i name="e_wo_entrp">   -140.12325683 </i>
    <i name="e_0_energy">   -140.12470591 </i>
   </energy>
  </scstep>
  <scstep>
   <time name="dav">    8.22    8.28</time>
   <time name="total">    8.51    8.58</time>
   <energy>
    <i name="e_fr_energy">   -140.12616293 </i>
    <i name="e_wo_entrp">   -140.12326415 </i>
    <i name="e_0_energy">   -140.12471354 </i>
   </energy>
  </scstep>
  <scstep>
   <time name="dav">    7.26    7.31</time>
   <time name="total">    7.54    7.61</time>
   <energy>
    <i name="e_fr_energy">   -140.12617133 </i>
    <i name="e_wo_entrp">   -140.12327256 </i>
    <i name="e_0_energy">   -140.12472195 </i>
   </energy>
  </scstep>
  <scstep>
   <time name="dav">    7.07    7.12</time>
   <time name="total">    7.36    7.42</time>
   <energy>
    <i name="e_fr_energy">   -140.12617672 </i>
    <i name="e_wo_entrp">   -140.12327818 </i>
    <i name="e_0_energy">   -140.12472745 </i>
   </energy>
  </scstep>
  <scstep>
   <time name="dav">    8.22    8.28</time>
   <time name="total">    8.51    8.58</time>
   <energy>
    <i name="e_fr_energy">   -140.12617785 </i>
    <i name="e_wo_entrp">   -140.12327931 </i>
    <i name="e_0_energy">   -140.12472858 </i>
   </energy>
  </scstep>
  <scstep>
   <time name="dav">    6.21    6.26</time>
   <time name="total">    6.25    6.29</time>
   <energy>
    <i name="alphaZ">     63.51804815 </i>
    <i name="ewald">   5564.95401141 </i>
    <i name="hartreedc">  -7616.96366381 </i>
    <i name="XCdc">    207.14279810 </i>
    <i name="pawpsdc">   6490.67886263 </i>
    <i name="pawaedc">  -6498.76781953 </i>
    <i name="eentropy">     -0.00289853 </i>
    <i name="bandstr">   -553.04444425 </i>
    <i name="atom">   2202.35892741 </i>
    <i name="e_fr_energy">   -140.12617841 </i>
    <i name="e_wo_entrp">   -140.12327988 </i>
    <i name="e_0_energy">   -140.12472915 </i>
   </energy>
  </scstep>
  <structure>
   <crystal>
    <varray name="basis" >
     <v>       4.33445715       2.50250000       0.00000000 </v>
     <v>      -4.33445715       2.50250000       0.00000000 </v>
     <v>       0.00000000       0.00000000      15.00000000 </v>
    </varray>
    <i name="volume">    325.40937023 </i>
    <varray name="rec_basis" >
     <v>       0.11535470       0.19980020       0.00000000 </v>
     <v>      -0.11535470       0.19980020       0.00000000 </v>
     <v>       0.00000000       0.00000000       0.06666667 </v>
    </varray>
   </crystal>
   <varray name="positions" >
    <v>       0.33834465       0.66917116       0.10016507 </v>
    <v>       0.67169442       0.33581969       0.09997882 </v>
    <v>       0.16812593       0.32878011       0.09994869 </v>
    <v>       0.33101664       0.16551733       0.10001842 </v>
    <v>       0.16815748       0.83936473       0.09994869 </v>
    <v>       0.84195309       0.16550257       0.10001790 </v>
    <v>       0.67871609       0.83935872       0.09994848 </v>
    <v>       0.84197914       0.67647734       0.10001788 </v>
    <v>       0.33337843       0.16668806       0.32554154 </v>
    <v>       0.50012566       0.00026837       0.32558181 </v>
    <v>       0.33332877       0.66666328       0.32532957 </v>
    <v>       0.50012566       0.49985858       0.32558180 </v>
    <v>       0.83331891       0.16669189       0.32553811 </v>
    <v>       0.00000498       0.00000313       0.32552860 </v>
    <v>       0.83331895       0.66662478       0.32553813 </v>
    <v>       0.99973654       0.49986891       0.32558315 </v>
   </varray>
  </structure>
  <varray name="forces" >
   <v>      -0.00025741      -0.00248713       0.00701003 </v>
   <v>      -0.01486454      -0.00279351      -0.00675229 </v>
   <v>       1.12438789      -1.94757557       0.01113617 </v>
   <v>      -1.08903039      -1.88918192      -0.00909016 </v>
   <v>      -2.25338212      -0.00279265       0.01113340 </v>
   <v>       2.19511208       0.00520981      -0.00909266 </v>
   <v>       1.12424348       1.94516028       0.01093261 </v>
   <v>      -1.08653119       1.89386834      -0.00908310 </v>
   <v>      -0.00426284      -0.00648369       0.00751204 </v>
   <v>       0.03379001      -0.05242673      -0.00780963 </v>
   <v>      -0.00004467       0.00074786       0.00039024 </v>
   <v>      -0.06155941       0.00261938      -0.00779619 </v>
   <v>       0.00575012      -0.00157830       0.00741215 </v>
   <v>       0.00023280      -0.00044195      -0.00543943 </v>
   <v>      -0.00499850       0.00460262       0.00738766 </v>
   <v>       0.03141467       0.05355317      -0.00785084 </v>
  </varray>
  <varray name="stress" >
   <v>      32.24658121      -0.03379254       0.00319036 </v>
   <v>      -0.03379252      32.16783893       0.00546223 </v>
   <v>       0.00319036       0.00546222      -2.50815336 </v>
  </varray>
  <energy>
   <i name="e_fr_energy">   -142.04132913 </i>
   <i name="e_wo_entrp">   -142.03843060 </i>
   <i name="e_0_energy">   -142.03987987 </i>
  </energy>
  <time name="totalsc">  121.84  122.80</time>
 </calculation>
 <calculation>
  <scstep>
   <time name="dav">    5.66    5.70</time>
   <time name="total">    5.94    5.99</time>
   <energy>
    <i name="alphaZ">     63.51804815 </i>
    <i name="ewald">   5572.61869793 </i>
    <i name="hartreedc">  -7622.24777785 </i>
    <i name="XCdc">    207.26657780 </i>
    <i name="pawpsdc">   6490.68182601 </i>
    <i name="pawaedc">  -6498.77078314 </i>
    <i name="eentropy">     -0.00196514 </i>
    <i name="bandstr">   -555.78783682 </i>
    <i name="atom">   2202.35892741 </i>
    <i name="e_fr_energy">   -140.36428565 </i>
    <i name="e_wo_entrp">   -140.36232051 </i>
    <i name="e_0_energy">   -140.36330308 </i>
   </energy>
  </scstep>
  <scstep>
   <time name="dav">    9.93    9.99</time>
   <time name="total">   10.22   10.29</time>
   <energy>
    <i name="e_fr_energy">   -140.32226422 </i>
    <i name="e_wo_entrp">   -140.31964565 </i>
    <i name="e_0_energy">   -140.32095494 </i>
   </energy>
  </scstep>
  <scstep>
   <time name="dav">    9.56    9.63</time>
   <time name="total">    9.84    9.92</time>
   <energy>
    <i name="e_fr_energy">   -140.31839487 </i>
    <i name="e_wo_entrp">   -140.31553235 </i>
    <i name="e_0_energy">   -140.31696361 </i>
   </energy>
  </scstep>
  <scstep>
   <time name="dav">    8.93    8.99</time>
   <time name="total">    9.21    9.29</time>
   <energy>
    <i name="e_fr_energy">   -140.31828175 </i>
    <i name="e_wo_entrp">   -140.31541457 </i>
    <i name="e_0_energy">   -140.31684816 </i>
   </energy>
  </scstep>
  <scstep>
   <time name="dav">    7.52    7.57</time>
   <time name="total">    7.80    7.87</time>
   <energy>
    <i name="e_fr_energy">   -140.31827876 </i>
    <i name="e_wo_entrp">   -140.31538338 </i>
    <i name="e_0_energy">   -140.31683107 </i>
   </energy>
  </scstep>
  <scstep>
   <time name="dav">    8.51    8.56</time>
   <time name="total">    8.79    8.86</time>
   <energy>
    <i name="e_fr_energy">   -140.31827588 </i>
    <i name="e_wo_entrp">   -140.31538559 </i>
    <i name="e_0_energy">   -140.31683074 </i>
   </energy>
  </scstep>
  <scstep>
   <time name="dav">    8.49    8.54</time>
   <time name="total">    8.78    8.84</time>
   <energy>
    <i name="e_fr_energy">   -140.31828315 </i>
    <i name="e_wo_entrp">   -140.31539288 </i>
    <i name="e_0_energy">   -140.31683801 </i>
   </energy>
  </scstep>
  <scstep>
   <time name="dav">    9.44    9.49</time>
   <time name="total">    9.72    9.79</time>
   <energy>
    <i name="e_fr_energy">   -140.31828825 </i>
    <i name="e_wo_entrp">   -140.31539725 </i>
    <i name="e_0_energy">   -140.31684275 </i>
   </energy>
  </scstep>
  <scstep>
   <time name="dav">    7.30    7.35</time>
   <time name="total">    7.58    7.65</time>
   <energy>
    <i name="e_fr_energy">   -140.31829931 </i>
    <i name="e_wo_entrp">   -140.31540695 </i>
    <i name="e_0_energy">   -140.31685313 </i>
   </energy>
  </scstep>
  <scstep>
   <time name="dav">    6.76    6.81</time>
   <time name="total">    7.05    7.10</time>
   <energy>
    <i name="e_fr_energy">   -140.31830651 </i>
    <i name="e_wo_entrp">   -140.31541387 </i>
    <i name="e_0_energy">   -140.31686019 </i>
   </energy>
  </scstep>
  <scstep>
   <time name="dav">    6.00    6.04</time>
   <time name="total">    6.29    6.34</time>
   <energy>
    <i name="e_fr_energy">   -140.31831159 </i>
    <i name="e_wo_entrp">   -140.31541886 </i>
    <i name="e_0_energy">   -140.31686522 </i>
   </energy>
  </scstep>
  <scstep>
   <time name="dav">    9.22    9.28</time>
   <time name="total">    9.25    9.32</time>
   <energy>
    <i name="alphaZ">     63.51804815 </i>
    <i name="ewald">   5572.61869793 </i>
    <i name="hartreedc">  -7624.99920787 </i>
    <i name="XCdc">    207.37521685 </i>
    <i name="pawpsdc">   6523.64385305 </i>
    <i name="pawaedc">  -6531.74337206 </i>
    <i name="eentropy">     -0.00289280 </i>
    <i name="bandstr">   -553.08758312 </i>
    <i name="atom">   2202.35892741 </i>
    <i name="e_fr_energy">   -140.31831245 </i>
    <i name="e_wo_entrp">   -140.31541966 </i>
    <i name="e_0_energy">   -140.31686605 </i>
   </energy>
  </scstep>
  <structure>
   <crystal>
    <varray name="basis" >
     <v>       4.33445715       2.50250000       0.00000000 </v>
     <v>      -4.33445715       2.50250000       0.00000000 </v>
     <v>       0.00000000       0.00000000      15.00000000 </v>
    </varray>
    <i name="volume">    325.40937023 </i>
    <varray name="rec_basis" >
     <v>       0.11535470       0.19980020       0.00000000 </v>
     <v>      -0.11535470       0.19980020       0.00000000 </v>
     <v>       0.00000000       0.00000000       0.06666667 </v>
    </varray>
   </crystal>
   <varray name="positions" >
    <v>       0.33833399       0.66916607       0.10004209 </v>
    <v>       0.67166521       0.33583591       0.09999460 </v>
    <v>       0.16485796       0.32223854       0.09998692 </v>
    <v>       0.32467327       0.16234852       0.10000470 </v>
    <v>       0.16488451       0.84264212       0.09998692 </v>
    <v>       0.84514587       0.16232455       0.10000456 </v>
    <v>       0.68525909       0.84261538       0.09998686 </v>
    <v>       0.84517391       0.68282380       0.10000456 </v>
    <v>       0.33334434       0.16667187       0.32553543 </v>
    <v>       0.50003179       0.00006794       0.32554569 </v>
    <v>       0.33333167       0.66666556       0.32548138 </v>
    <v>       0.50003179       0.49996344       0.32554569 </v>
    <v>       0.83332916       0.16667285       0.32553455 </v>
    <v>       0.00000102       0.00000030       0.32553213 </v>
    <v>       0.83332917       0.66665574       0.32553456 </v>
    <v>       0.99993257       0.49996608       0.32554604 </v>
   </varray>
  </structure>
  <varray name="forces" >
   <v>       0.00043308       0.00026598       0.03831985 </v>
   <v>       0.00078818       0.00001990      -0.00680304 </v>
   <v>       0.00020432      -0.00121949      -0.00876392 </v>
   <v>      -0.00088464      -0.00286552       0.00215464 </v>
   <v>      -0.00150634      -0.00117112      -0.00876348 </v>
   <v>       0.00355672       0.00074968       0.00205825 </v>
   <v>      -0.00085564       0.00099809      -0.00887474 </v>
   <v>      -0.00208275       0.00260110       0.00205945 </v>
   <v>       0.00052664       0.00095340       0.00385369 </v>
   <v>      -0.00095977       0.00183178       0.00930369 </v>
   <v>      -0.00005223      -0.00005659      -0.04705193 </v>
   <v>       0.00209456       0.00006881       0.00930348 </v>
   <v>      -0.00112680       0.00007517       0.00303394 </v>
   <v>       0.00014223       0.00021487      -0.00247067 </v>
   <v>       0.00059553      -0.00092192       0.00303378 </v>
   <v>      -0.00087310      -0.00154414       0.00960701 </v>
  </varray>
  <varray name="stress" >
   <v>      38.54670484      -0.01348960       0.00369946 </v>
   <v>      -0.01348956      38.52938994       0.00638774 </v>
   <v>       0.00369946       0.00638777      -2.57902327 </v>
  </varray>
  <energy>
   <i name="e_fr_energy">   -142.22867716 </i>
   <i name="e_wo_entrp">   -142.22578436 </i>
   <i name="e_0_energy">   -142.22723076 </i>
  </energy>
  <time name="totalsc">  105.67  106.50</time>
 </calculation>
 <calculation>
  <scstep>
   <time name="dav">    7.03    7.07</time>
   <time name="total">    7.32    7.38</time>
   <energy>
    <i name="alphaZ">     63.51804815 </i>
    <i name="ewald">   5572.62192558 </i>
    <i name="hartreedc">  -7625.00320790 </i>
    <i name="XCdc">    207.37526700 </i>
    <i name="pawpsdc">   6523.65161212 </i>
    <i name="pawaedc">  -6531.75112146 </i>
    <i name="eentropy">     -0.00289254 </i>
    <i name="bandstr">   -553.08687373 </i>
    <i name="atom">   2202.35892741 </i>
    <i name="e_fr_energy">   -140.31831534 </i>
    <i name="e_wo_entrp">   -140.31542281 </i>
    <i name="e_0_energy">   -140.31686907 </i>
   </energy>
  </scstep>
  <scstep>
   <time name="dav">   10.83   10.90</time>
   <time name="total">   10.86   10.93</time>
   <energy>
    <i name="alphaZ">     63.51804815 </i>
    <i name="ewald">   5572.62192558 </i>
    <i name="hartreedc">  -7625.00446249 </i>
    <i name="XCdc">    207.37530361 </i>
    <i name="pawpsdc">   6523.66233686 </i>
    <i name="pawaedc">  -6531.76185018 </i>
    <i name="eentropy">     -0.00289262 </i>
    <i name="bandstr">   -553.08565176 </i>
    <i name="atom">   2202.35892741 </i>
    <i name="e_fr_energy">   -140.31831543 </i>
    <i name="e_wo_entrp">   -140.31542281 </i>
    <i name="e_0_energy">   -140.31686912 </i>
   </energy>
  </scstep>
  <structure>
   <crystal>
    <varray name="basis" >
     <v>       4.33445715       2.50250000       0.00000000 </v>
     <v>      -4.33445715       2.50250000       0.00000000 </v>
     <v>       0.00000000       0.00000000      15.00000000 </v>
    </varray>
    <i name="volume">    325.40937023 </i>
    <varray name="rec_basis" >
     <v>       0.11535470       0.19980020       0.00000000 </v>
     <v>      -0.11535470       0.19980020       0.00000000 </v>
     <v>       0.00000000       0.00000000       0.06666667 </v>
    </varray>
   </crystal>
   <varray name="positions" >
    <v>       0.33833399       0.66916606       0.10004205 </v>
    <v>       0.67166520       0.33583591       0.09999460 </v>
    <v>       0.16485677       0.32223616       0.09998693 </v>
    <v>       0.32467096       0.16234737       0.10000469 </v>
    <v>       0.16488332       0.84264331       0.09998693 </v>
    <v>       0.84514703       0.16232340       0.10000456 </v>
    <v>       0.68526147       0.84261656       0.09998688 </v>
    <v>       0.84517508       0.68282611       0.10000455 </v>
    <v>       0.33334432       0.16667187       0.32553542 </v>
    <v>       0.50003176       0.00006786       0.32554568 </v>
    <v>       0.33333167       0.66666556       0.32548143 </v>
    <v>       0.50003176       0.49996348       0.32554568 </v>
    <v>       0.83332916       0.16667284       0.32553455 </v>
    <v>       0.00000102       0.00000030       0.32553213 </v>
    <v>       0.83332917       0.66665575       0.32553456 </v>
    <v>       0.99993264       0.49996611       0.32554602 </v>
   </varray>
  </structure>
  <varray name="forces" >
   <v>       0.00043339       0.00026682       0.03833160 </v>
   <v>       0.00079302       0.00002084      -0.00680479 </v>
   <v>      -0.00016002      -0.00058817      -0.00877144 </v>
   <v>      -0.00053242      -0.00225489       0.00215846 </v>
   <v>      -0.00077620      -0.00117033      -0.00877100 </v>
   <v>       0.00284767       0.00074797       0.00206204 </v>
   <v>      -0.00122042       0.00036765      -0.00888225 </v>
   <v>      -0.00173209       0.00198871       0.00206322 </v>
   <v>       0.00052612       0.00095220       0.00385299 </v>
   <v>      -0.00097068       0.00184883       0.00931091 </v>
   <v>      -0.00005221      -0.00005680      -0.04706862 </v>
   <v>       0.00211455       0.00006801       0.00931073 </v>
   <v>      -0.00112489       0.00007568       0.00303282 </v>
   <v>       0.00014219       0.00021510      -0.00247175 </v>
   <v>       0.00059525      -0.00092012       0.00303267 </v>
   <v>      -0.00088326      -0.00156149       0.00961440 </v>
  </varray>
  <varray name="stress" >
   <v>      38.55081065      -0.01348430       0.00369950 </v>
   <v>      -0.01348430      38.53350100       0.00638805 </v>
   <v>       0.00369950       0.00638806      -2.57703925 </v>
  </varray>
  <energy>
   <i name="e_fr_energy">   -142.22867775 </i>
   <i name="e_wo_entrp">   -142.22578512 </i>
   <i name="e_0_energy">   -142.22723144 </i>
  </energy>
  <time name="totalsc">   23.40   23.56</time>
 </calculation>
 <calculation>
  <scstep>
   <time name="dav">    5.64    5.68</time>
   <time name="total">    5.93    5.98</time>
   <energy>
    <i name="alphaZ">     63.51804815 </i>
    <i name="ewald">   5572.79462160 </i>
    <i name="hartreedc">  -7625.17648655 </i>
    <i name="XCdc">    207.37557511 </i>
    <i name="pawpsdc">   6523.66629043 </i>
    <i name="pawaedc">  -6531.76580606 </i>
    <i name="eentropy">     -0.00288964 </i>
    <i name="bandstr">   -553.08665662 </i>
    <i name="atom">   2202.35892741 </i>
    <i name="e_fr_energy">   -140.31837617 </i>
    <i name="e_wo_entrp">   -140.31548652 </i>
    <i name="e_0_energy">   -140.31693135 </i>
   </energy>
  </scstep>
  <scstep>
   <time name="dav">   10.12   10.19</time>
   <time name="total">   10.41   10.49</time>
   <energy>
    <i name="e_fr_energy">   -140.31837646 </i>
    <i name="e_wo_entrp">   -140.31548753 </i>
    <i name="e_0_energy">   -140.31693199 </i>
   </energy>
  </scstep>
  <scstep>
   <time name="dav">    6.14    6.19</time>
   <time name="total">    6.43    6.49</time>
   <energy>
    <i name="e_fr_energy">   -140.31837940 </i>
    <i name="e_wo_entrp">   -140.31549140 </i>
    <i name="e_0_energy">   -140.31693540 </i>
   </energy>
  </scstep>
  <scstep>
   <time name="dav">   10.89   10.95</time>
   <time name="total">   10.92   10.99</time>
   <energy>
    <i name="alphaZ">     63.51804815 </i>
    <i name="ewald">   5572.79462160 </i>
    <i name="hartreedc">  -7625.17080852 </i>
    <i name="XCdc">    207.37552505 </i>
    <i name="pawpsdc">   6523.67372371 </i>
    <i name="pawaedc">  -6531.77323671 </i>
    <i name="eentropy">     -0.00288786 </i>
    <i name="bandstr">   -553.09229227 </i>
    <i name="atom">   2202.35892741 </i>
    <i name="e_fr_energy">   -140.31837944 </i>
    <i name="e_wo_entrp">   -140.31549158 </i>
    <i name="e_0_energy">   -140.31693551 </i>
   </energy>
  </scstep>
  <structure>
   <crystal>
    <varray name="basis" >
     <v>       4.33445715       2.50250000       0.00000000 </v>
     <v>      -4.33445715       2.50250000       0.00000000 </v>
     <v>       0.00000000       0.00000000      15.00000000 </v>
    </varray>
    <i name="volume">    325.40937023 </i>
    <varray name="rec_basis" >
     <v>       0.11535470       0.19980020       0.00000000 </v>
     <v>      -0.11535470       0.19980020       0.00000000 </v>
     <v>       0.00000000       0.00000000       0.06666667 </v>
    </varray>
   </crystal>
   <varray name="positions" >
    <v>       0.33833824       0.66916621       0.10014714 </v>
    <v>       0.67166917       0.33583231       0.09997596 </v>
    <v>       0.16485616       0.32224204       0.09996287 </v>
    <v>       0.32465958       0.16233621       0.10001062 </v>
    <v>       0.16487502       0.84263241       0.09996287 </v>
    <v>       0.84516180       0.16232088       0.10001022 </v>
    <v>       0.68524877       0.84262041       0.09996251 </v>
    <v>       0.84517833       0.68284098       0.10001022 </v>
    <v>       0.33335468       0.16667721       0.32554598 </v>
    <v>       0.50004247       0.00008793       0.32557122 </v>
    <v>       0.33333096       0.66666533       0.32535238 </v>
    <v>       0.50004247       0.49995387       0.32557121 </v>
    <v>       0.83332444       0.16667882       0.32554286 </v>
    <v>       0.00000346       0.00000140       0.32552536 </v>
    <v>       0.83332443       0.66664534       0.32554286 </v>
    <v>       0.99991535       0.49995734       0.32557239 </v>
   </varray>
  </structure>
  <varray name="forces" >
   <v>      -0.00161121      -0.00116848       0.01751016 </v>
   <v>      -0.00066082       0.00025843       0.00090074 </v>
   <v>       0.00418052      -0.00015276       0.00391168 </v>
   <v>       0.00013781       0.00089255      -0.00593110 </v>
   <v>      -0.00151480       0.00116572       0.00391177 </v>
   <v>      -0.00318349      -0.00086572      -0.00603579 </v>
   <v>       0.00308383       0.00268978       0.00381091 </v>
   <v>      -0.00078636      -0.00345348      -0.00603887 </v>
   <v>      -0.00075355      -0.00140470       0.00627942 </v>
   <v>       0.00188168      -0.00327221      -0.00517529 </v>
   <v>       0.00028577       0.00040070      -0.01287912 </v>
   <v>      -0.00386387       0.00004177      -0.00517151 </v>
   <v>       0.00218846       0.00014524       0.00600322 </v>
   <v>      -0.00020010      -0.00024743      -0.00190521 </v>
   <v>      -0.00088682       0.00192500       0.00599933 </v>
   <v>       0.00170295       0.00304559      -0.00519033 </v>
  </varray>
  <varray name="stress" >
   <v>      38.54455736      -0.00323184       0.00374054 </v>
   <v>      -0.00323186      38.55374415       0.00657088 </v>
   <v>       0.00374052       0.00657089      -2.59519607 </v>
  </varray>
  <energy>
   <i name="e_fr_energy">   -142.22878737 </i>
   <i name="e_wo_entrp">   -142.22589951 </i>
   <i name="e_0_energy">   -142.22734344 </i>
  </energy>
  <time name="totalsc">   38.90   39.19</time>
 </calculation>
 <calculation>
  <scstep>
   <time name="dav">    6.02    6.07</time>
   <time name="total">    6.31    6.37</time>
   <energy>
    <i name="alphaZ">     63.51804815 </i>
    <i name="ewald">   5572.84596898 </i>
    <i name="hartreedc">  -7625.21981127 </i>
    <i name="XCdc">    207.37557556 </i>
    <i name="pawpsdc">   6523.67538632 </i>
    <i name="pawaedc">  -6531.77489758 </i>
    <i name="eentropy">     -0.00288685 </i>
    <i name="bandstr">   -553.09468238 </i>
    <i name="atom">   2202.35892741 </i>
    <i name="e_fr_energy">   -140.31837166 </i>
    <i name="e_wo_entrp">   -140.31548481 </i>
    <i name="e_0_energy">   -140.31692823 </i>
   </energy>
  </scstep>
  <scstep>
   <time name="dav">    8.59    8.64</time>
   <time name="total">    8.63    8.68</time>
   <energy>
    <i name="alphaZ">     63.51804815 </i>
    <i name="ewald">   5572.84596898 </i>
    <i name="hartreedc">  -7625.21917168 </i>
    <i name="XCdc">    207.37556278 </i>
    <i name="pawpsdc">   6523.67267857 </i>
    <i name="pawaedc">  -6531.77219377 </i>
    <i name="eentropy">     -0.00288661 </i>
    <i name="bandstr">   -553.09530538 </i>
    <i name="atom">   2202.35892741 </i>
    <i name="e_fr_energy">   -140.31837156 </i>
    <i name="e_wo_entrp">   -140.31548495 </i>
    <i name="e_0_energy">   -140.31692826 </i>
   </energy>
  </scstep>
  <structure>
   <crystal>
    <varray name="basis" >
     <v>       4.33445715       2.50250000       0.00000000 </v>
     <v>      -4.33445715       2.50250000       0.00000000 </v>
     <v>       0.00000000       0.00000000      15.00000000 </v>
    </varray>
    <i name="volume">    325.40937023 </i>
    <varray name="rec_basis" >
     <v>       0.11535470       0.19980020       0.00000000 </v>
     <v>      -0.11535470       0.19980020       0.00000000 </v>
     <v>       0.00000000       0.00000000       0.06666667 </v>
    </varray>
   </crystal>
   <varray name="positions" >
    <v>       0.33833952       0.66916625       0.10017872 </v>
    <v>       0.67167036       0.33583122       0.09997035 </v>
    <v>       0.16485597       0.32224380       0.09995564 </v>
    <v>       0.32465616       0.16233286       0.10001240 </v>
    <v>       0.16487252       0.84262913       0.09995564 </v>
    <v>       0.84516624       0.16232012       0.10001192 </v>
    <v>       0.68524495       0.84262157       0.09995519 </v>
    <v>       0.84517931       0.68284545       0.10001192 </v>
    <v>       0.33335779       0.16667882       0.32554915 </v>
    <v>       0.50004569       0.00009396       0.32557889 </v>
    <v>       0.33333074       0.66666527       0.32531361 </v>
    <v>       0.50004569       0.49995098       0.32557889 </v>
    <v>       0.83332302       0.16668062       0.32554535 </v>
    <v>       0.00000420       0.00000173       0.32552332 </v>
    <v>       0.83332300       0.66664221       0.32554536 </v>
    <v>       0.99991016       0.49995470       0.32558032 </v>
   </varray>
  </structure>
  <varray name="forces" >
   <v>      -0.00219600      -0.00157630       0.01154665 </v>
   <v>      -0.00103872       0.00034742       0.00327644 </v>
   <v>       0.00541888      -0.00014250       0.00785951 </v>
   <v>       0.00029333       0.00174822      -0.00850906 </v>
   <v>      -0.00181198       0.00184433       0.00786036 </v>
   <v>      -0.00487540      -0.00134557      -0.00861879 </v>
   <v>       0.00435936       0.00345511       0.00775371 </v>
   <v>      -0.00049602      -0.00495436      -0.00861749 </v>
   <v>      -0.00108910      -0.00202499       0.00713406 </v>
   <v>       0.00269478      -0.00473628      -0.00961353 </v>
   <v>       0.00037711       0.00052426      -0.00314421 </v>
   <v>      -0.00557149       0.00003255      -0.00960972 </v>
   <v>       0.00306677       0.00016649       0.00701399 </v>
   <v>      -0.00029608      -0.00037645      -0.00161510 </v>
   <v>      -0.00127489       0.00267899       0.00700722 </v>
   <v>       0.00243945       0.00435906      -0.00972404 </v>
  </varray>
  <varray name="stress" >
   <v>      38.54492385      -0.00147549       0.00377520 </v>
   <v>      -0.00147549      38.55891126       0.00657965 </v>
   <v>       0.00377523       0.00657963      -2.59876443 </v>
  </varray>
  <energy>
   <i name="e_fr_energy">   -142.22879324 </i>
   <i name="e_wo_entrp">   -142.22590663 </i>
   <i name="e_0_energy">   -142.22734994 </i>
  </energy>
  <time name="totalsc">   20.15   20.29</time>
 </calculation>
 <calculation>
  <scstep>
   <time name="dav">    5.64    5.67</time>
   <time name="total">    5.93    5.98</time>
   <energy>
    <i name="alphaZ">     63.51804815 </i>
    <i name="ewald">   5573.15619387 </i>
    <i name="hartreedc">  -7625.52625962 </i>
    <i name="XCdc">    207.37574120 </i>
    <i name="pawpsdc">   6523.66993286 </i>
    <i name="pawaedc">  -6531.76944519 </i>
    <i name="eentropy">     -0.00288585 </i>
    <i name="bandstr">   -553.09857347 </i>
    <i name="atom">   2202.35892741 </i>
    <i name="e_fr_energy">   -140.31832064 </i>
    <i name="e_wo_entrp">   -140.31543479 </i>
    <i name="e_0_energy">   -140.31687771 </i>
   </energy>
  </scstep>
  <scstep>
   <time name="dav">    8.58    8.64</time>
   <time name="total">    8.87    8.94</time>
   <energy>
    <i name="e_fr_energy">   -140.31831939 </i>
    <i name="e_wo_entrp">   -140.31543385 </i>
    <i name="e_0_energy">   -140.31687662 </i>
   </energy>
  </scstep>
  <scstep>
   <time name="dav">    7.50    7.54</time>
   <time name="total">    7.53    7.58</time>
   <energy>
    <i name="alphaZ">     63.51804815 </i>
    <i name="ewald">   5573.15619387 </i>
    <i name="hartreedc">  -7625.52193336 </i>
    <i name="XCdc">    207.37563168 </i>
    <i name="pawpsdc">   6523.66651840 </i>
    <i name="pawaedc">  -6531.76602940 </i>
    <i name="eentropy">     -0.00288463 </i>
    <i name="bandstr">   -553.10279247 </i>
    <i name="atom">   2202.35892741 </i>
    <i name="e_fr_energy">   -140.31832035 </i>
    <i name="e_wo_entrp">   -140.31543572 </i>
    <i name="e_0_energy">   -140.31687803 </i>
   </energy>
  </scstep>
  <structure>
   <crystal>
    <varray name="basis" >
     <v>       4.33445715       2.50250000       0.00000000 </v>
     <v>      -4.33445715       2.50250000       0.00000000 </v>
     <v>       0.00000000       0.00000000      15.00000000 </v>
    </varray>
    <i name="volume">    325.40937023 </i>
    <varray name="rec_basis" >
     <v>       0.11535470       0.19980020       0.00000000 </v>
     <v>      -0.11535470       0.19980020       0.00000000 </v>
     <v>       0.00000000       0.00000000       0.06666667 </v>
    </varray>
   </crystal>
   <varray name="positions" >
    <v>       0.33831604       0.66916361       0.10024305 </v>
    <v>       0.67166934       0.33583840       0.09997439 </v>
    <v>       0.16488175       0.32221708       0.09997138 </v>
    <v>       0.32466950       0.16234331       0.09998945 </v>
    <v>       0.16487703       0.84265107       0.09997138 </v>
    <v>       0.84513440       0.16233215       0.09998858 </v>
    <v>       0.68529315       0.84263085       0.09997053 </v>
    <v>       0.84513469       0.68280922       0.09998859 </v>
    <v>       0.33333775       0.16666824       0.32557294 </v>
    <v>       0.50002118       0.00004513       0.32555849 </v>
    <v>       0.33333698       0.66666787       0.32526662 </v>
    <v>       0.50002115       0.49997641       0.32555850 </v>
    <v>       0.83333848       0.16666842       0.32556814 </v>
    <v>       0.00000016       0.00000026       0.32551665 </v>
    <v>       0.83333850       0.66666885       0.32556812 </v>
    <v>       0.99995524       0.49997779       0.32555984 </v>
   </varray>
  </structure>
  <varray name="forces" >
   <v>       0.00546688       0.00425325       0.00447017 </v>
   <v>      -0.00074372      -0.00274173       0.00008937 </v>
   <v>      -0.01590118      -0.00347395       0.00272086 </v>
   <v>       0.00491227      -0.00153684      -0.00031368 </v>
   <v>      -0.00002217      -0.00868785       0.00273954 </v>
   <v>       0.01286024       0.00746498      -0.00053309 </v>
   <v>      -0.01371999      -0.00908313       0.00271462 </v>
   <v>       0.00676849       0.01311809      -0.00052038 </v>
   <v>       0.00207870       0.00399591      -0.00235470 </v>
   <v>      -0.00497173       0.00973337      -0.00394219 </v>
   <v>      -0.00081578      -0.00101831       0.00272905 </v>
   <v>       0.01125766       0.00038302      -0.00395072 </v>
   <v>      -0.00605701      -0.00030976      -0.00226437 </v>
   <v>       0.00091233       0.00119389       0.00476062 </v>
   <v>       0.00243019      -0.00522089      -0.00225175 </v>
   <v>      -0.00445517      -0.00807005      -0.00409335 </v>
  </varray>
  <varray name="stress" >
   <v>      38.61269544      -0.05376667       0.00394212 </v>
   <v>      -0.05376671      38.48831801       0.00661590 </v>
   <v>       0.00394211       0.00661587      -2.60163832 </v>
  </varray>
  <energy>
   <i name="e_fr_energy">   -142.22881274 </i>
   <i name="e_wo_entrp">   -142.22592811 </i>
   <i name="e_0_energy">   -142.22737043 </i>
  </energy>
  <time name="totalsc">   27.55   27.76</time>
 </calculation>
 <calculation>
  <scstep>
   <time name="dav">    7.16    7.21</time>
   <time name="total">    7.45    7.50</time>
   <energy>
    <i name="alphaZ">     63.51804815 </i>
    <i name="ewald">   5573.08136577 </i>
    <i name="hartreedc">  -7625.44391501 </i>
    <i name="XCdc">    207.37558992 </i>
    <i name="pawpsdc">   6523.66832975 </i>
    <i name="pawaedc">  -6531.76783768 </i>
    <i name="eentropy">     -0.00288473 </i>
    <i name="bandstr">   -553.10596275 </i>
    <i name="atom">   2202.35892741 </i>
    <i name="e_fr_energy">   -140.31833916 </i>
    <i name="e_wo_entrp">   -140.31545443 </i>
    <i name="e_0_energy">   -140.31689679 </i>
   </energy>
  </scstep>
  <scstep>
   <time name="dav">    6.62    6.67</time>
   <time name="total">    6.66    6.71</time>
   <energy>
    <i name="alphaZ">     63.51804815 </i>
    <i name="ewald">   5573.08136577 </i>
    <i name="hartreedc">  -7625.44194830 </i>
    <i name="XCdc">    207.37559694 </i>
    <i name="pawpsdc">   6523.67110553 </i>
    <i name="pawaedc">  -6531.77061077 </i>
    <i name="eentropy">     -0.00288475 </i>
    <i name="bandstr">   -553.10793912 </i>
    <i name="atom">   2202.35892741 </i>
    <i name="e_fr_energy">   -140.31833914 </i>
    <i name="e_wo_entrp">   -140.31545438 </i>
    <i name="e_0_energy">   -140.31689676 </i>
   </energy>
  </scstep>
  <structure>
   <crystal>
    <varray name="basis" >
     <v>       4.33445715       2.50250000       0.00000000 </v>
     <v>      -4.33445715       2.50250000       0.00000000 </v>
     <v>       0.00000000       0.00000000      15.00000000 </v>
    </varray>
    <i name="volume">    325.40937023 </i>
    <varray name="rec_basis" >
     <v>       0.11535470       0.19980020       0.00000000 </v>
     <v>      -0.11535470       0.19980020       0.00000000 </v>
     <v>       0.00000000       0.00000000       0.06666667 </v>
    </varray>
   </crystal>
   <varray name="positions" >
    <v>       0.33832171       0.66916425       0.10022752 </v>
    <v>       0.67166958       0.33583666       0.09997342 </v>
    <v>       0.16487553       0.32222353       0.09996758 </v>
    <v>       0.32466628       0.16234079       0.09999499 </v>
    <v>       0.16487594       0.84264577       0.09996758 </v>
    <v>       0.84514208       0.16232925       0.09999422 </v>
    <v>       0.68528151       0.84262861       0.09996683 </v>
    <v>       0.84514547       0.68281797       0.09999422 </v>
    <v>       0.33334259       0.16667080       0.32556720 </v>
    <v>       0.50002709       0.00005692       0.32556342 </v>
    <v>       0.33333548       0.66666724       0.32527797 </v>
    <v>       0.50002707       0.49997027       0.32556342 </v>
    <v>       0.83333475       0.16667136       0.32556264 </v>
    <v>       0.00000113       0.00000061       0.32551826 </v>
    <v>       0.83333476       0.66666242       0.32556263 </v>
    <v>       0.99994435       0.49997221       0.32556478 </v>
   </varray>
  </structure>
  <varray name="forces" >
   <v>       0.00377296       0.00294279       0.00612597 </v>
   <v>      -0.00115009      -0.00214281       0.00086892 </v>
   <v>      -0.01040942      -0.00266247       0.00403657 </v>
   <v>       0.00386259      -0.00047020      -0.00229780 </v>
   <v>      -0.00073113      -0.00607684       0.00405994 </v>
   <v>       0.00847954       0.00533911      -0.00240540 </v>
   <v>      -0.00920014      -0.00609669       0.00395448 </v>
   <v>       0.00502575       0.00853424      -0.00240265 </v>
   <v>       0.00109087       0.00214815       0.00002679 </v>
   <v>      -0.00282458       0.00577277      -0.00540488 </v>
   <v>      -0.00051774      -0.00062602       0.00098337 </v>
   <v>       0.00664114       0.00031992      -0.00541073 </v>
   <v>      -0.00341542      -0.00021905       0.00005524 </v>
   <v>       0.00059900       0.00078476       0.00329089 </v>
   <v>       0.00129705      -0.00294255       0.00006448 </v>
   <v>      -0.00252036      -0.00460509      -0.00554516 </v>
  </varray>
  <varray name="stress" >
   <v>      38.60315045      -0.04642408       0.00390230 </v>
   <v>      -0.04642406      38.49874656       0.00674661 </v>
   <v>       0.00390230       0.00674662      -2.59647822 </v>
  </varray>
  <energy>
   <i name="e_fr_energy">   -142.22881447 </i>
   <i name="e_wo_entrp">   -142.22592972 </i>
   <i name="e_0_energy">   -142.22737209 </i>
  </energy>
  <time name="totalsc">   19.32   19.46</time>
 </calculation>
 <calculation>
  <scstep>
   <time name="dav">    6.00    6.04</time>
   <time name="total">    6.28    6.34</time>
   <energy>
    <i name="alphaZ">     63.51804815 </i>
    <i name="ewald">   5573.52487514 </i>
    <i name="hartreedc">  -7625.88322636 </i>
    <i name="XCdc">    207.37583279 </i>
    <i name="pawpsdc">   6523.66911503 </i>
    <i name="pawaedc">  -6531.76862405 </i>
    <i name="eentropy">     -0.00288427 </i>
    <i name="bandstr">   -553.11030481 </i>
    <i name="atom">   2202.35892741 </i>
    <i name="e_fr_energy">   -140.31824096 </i>
    <i name="e_wo_entrp">   -140.31535670 </i>
    <i name="e_0_energy">   -140.31679883 </i>
   </energy>
  </scstep>
  <scstep>
   <time name="dav">    5.63    5.66</time>
   <time name="total">    5.92    5.97</time>
   <energy>
    <i name="e_fr_energy">   -140.31823957 </i>
    <i name="e_wo_entrp">   -140.31535573 </i>
    <i name="e_0_energy">   -140.31679765 </i>
   </energy>
  </scstep>
  <scstep>
   <time name="dav">    6.54    6.58</time>
   <time name="total">    6.57    6.62</time>
   <energy>
    <i name="alphaZ">     63.51804815 </i>
    <i name="ewald">   5573.52487514 </i>
    <i name="hartreedc">  -7625.88210267 </i>
    <i name="XCdc">    207.37568495 </i>
    <i name="pawpsdc">   6523.65987052 </i>
    <i name="pawaedc">  -6531.75937049 </i>
    <i name="eentropy">     -0.00288338 </i>
    <i name="bandstr">   -553.11128952 </i>
    <i name="atom">   2202.35892741 </i>
    <i name="e_fr_energy">   -140.31823988 </i>
    <i name="e_wo_entrp">   -140.31535650 </i>
    <i name="e_0_energy">   -140.31679819 </i>
   </energy>
  </scstep>
  <structure>
   <crystal>
    <varray name="basis" >
     <v>       4.33445715       2.50250000       0.00000000 </v>
     <v>      -4.33445715       2.50250000       0.00000000 </v>
     <v>       0.00000000       0.00000000      15.00000000 </v>
    </varray>
    <i name="volume">    325.40937023 </i>
    <varray name="rec_basis" >
     <v>       0.11535470       0.19980020       0.00000000 </v>
     <v>      -0.11535470       0.19980020       0.00000000 </v>
     <v>       0.00000000       0.00000000       0.06666667 </v>
    </varray>
   </crystal>
   <varray name="positions" >
    <v>       0.33834778       0.66916868       0.10028424 </v>
    <v>       0.67164656       0.33582939       0.09997826 </v>
    <v>       0.16482260       0.32223342       0.09998821 </v>
    <v>       0.32468869       0.16232583       0.09997446 </v>
[...]
       <r>     2.5592     1.3825    34.3458 </r>
       <r>     2.6634     1.4424    34.4961 </r>
       <r>     2.7676     1.4785    34.6502 </r>
       <r>     2.8718     1.4730    34.8037 </r>
       <r>     2.9760     1.1426    34.9228 </r>
       <r>     3.0803     1.1857    35.0464 </r>
       <r>     3.1845     1.6805    35.2215 </r>
       <r>     3.2887     1.6239    35.3908 </r>
       <r>     3.3929     1.7028    35.5682 </r>
       <r>     3.4971     1.3856    35.7127 </r>
       <r>     3.6014     1.3821    35.8567 </r>
       <r>     3.7056     1.3468    35.9970 </r>
       <r>     3.8098     1.3703    36.1399 </r>
       <r>     3.9140     1.5765    36.3042 </r>
       <r>     4.0182     1.9779    36.5103 </r>
       <r>     4.1225     2.0022    36.7190 </r>
       <r>     4.2267     1.5818    36.8838 </r>
       <r>     4.3309     1.4428    37.0342 </r>
       <r>     4.4351     2.6791    37.3134 </r>
       <r>     4.5393     2.4160    37.5652 </r>
       <r>     4.6436     1.3059    37.7013 </r>
       <r>     4.7478     1.1318    37.8193 </r>
       <r>     4.8520     2.3334    38.0624 </r>
       <r>     4.9562     2.7835    38.3525 </r>
       <r>     5.0604     2.2466    38.5867 </r>
       <r>     5.1647     1.8775    38.7824 </r>
       <r>     5.2689     2.1957    39.0112 </r>
       <r>     5.3731     1.9316    39.2125 </r>
       <r>     5.4773     2.2245    39.4443 </r>
       <r>     5.5815     3.0481    39.7620 </r>
       <r>     5.6858     1.9265    39.9628 </r>
       <r>     5.7900     1.3819    40.1068 </r>
       <r>     5.8942     1.8619    40.3009 </r>
       <r>     5.9984     2.1977    40.5299 </r>
       <r>     6.1026     2.1368    40.7526 </r>
       <r>     6.2068     3.3537    41.1021 </r>
       <r>     6.3111     3.6148    41.4788 </r>
       <r>     6.4153     3.4535    41.8388 </r>
       <r>     6.5195     2.7830    42.1288 </r>
       <r>     6.6237     2.3176    42.3704 </r>
       <r>     6.7279     2.1061    42.5899 </r>
       <r>     6.8322     3.3968    42.9439 </r>
       <r>     6.9364     4.3894    43.4013 </r>
       <r>     7.0406     3.8352    43.8010 </r>
       <r>     7.1448     3.6828    44.1849 </r>
       <r>     7.2490     4.2600    44.6288 </r>
       <r>     7.3533     4.7064    45.1193 </r>
       <r>     7.4575     3.6115    45.4957 </r>
       <r>     7.5617     3.8784    45.8999 </r>
       <r>     7.6659     4.7146    46.3913 </r>
       <r>     7.7701     4.5811    46.8687 </r>
       <r>     7.8744     4.1328    47.2994 </r>
       <r>     7.9786     2.9830    47.6103 </r>
       <r>     8.0828     1.7904    47.7969 </r>
       <r>     8.1870     1.0480    47.9061 </r>
       <r>     8.2912     0.3025    47.9377 </r>
       <r>     8.3955     0.2014    47.9587 </r>
       <r>     8.4997     0.3072    47.9907 </r>
       <r>     8.6039     0.0858    47.9996 </r>
       <r>     8.7081     0.0037    48.0000 </r>
       <r>     8.8123     0.0000    48.0000 </r>
       <r>     8.9166     0.0000    48.0000 </r>
       <r>     9.0208     0.0000    48.0000 </r>
       <r>     9.1250     0.0000    48.0000 </r>
       <r>     9.2292     0.0000    48.0000 </r>
       <r>     9.3334     0.0000    48.0000 </r>
       <r>     9.4377     0.0000    48.0000 </r>
       <r>     9.5419     0.0000    48.0000 </r>
       <r>     9.6461     0.0000    48.0000 </r>
       <r>     9.7503     0.0000    48.0000 </r>
       <r>     9.8545     0.0000    48.0000 </r>
      </set>
      <set comment="spin 2">
       <r>   -21.4113     0.0000     0.0000 </r>
       <r>   -21.3071     0.0000     0.0000 </r>
       <r>   -21.2029     0.0000     0.0000 </r>
       <r>   -21.0987     0.0000     0.0000 </r>
       <r>   -20.9944     0.0000     0.0000 </r>
       <r>   -20.8902     0.0000     0.0000 </r>
       <r>   -20.7860     0.0000     0.0000 </r>
       <r>   -20.6818     0.0000     0.0000 </r>
       <r>   -20.5776     0.0000     0.0000 </r>
       <r>   -20.4733     0.0000     0.0000 </r>
       <r>   -20.3691     0.0000     0.0000 </r>
       <r>   -20.2649     0.0000     0.0000 </r>
       <r>   -20.1607     0.0011     0.0001 </r>
       <r>   -20.0565     0.0390     0.0042 </r>
       <r>   -19.9522     0.2683     0.0321 </r>
       <r>   -19.8480     0.5573     0.0902 </r>
       <r>   -19.7438     0.6179     0.1546 </r>
       <r>   -19.6396     0.6554     0.2229 </r>
       <r>   -19.5354     0.5815     0.2835 </r>
       <r>   -19.4311     0.7207     0.3586 </r>
       <r>   -19.3269     0.5421     0.4151 </r>
       <r>   -19.2227     0.6493     0.4828 </r>
       <r>   -19.1185     0.7621     0.5622 </r>
       <r>   -19.0143     0.4638     0.6106 </r>
       <r>   -18.9100     0.6479     0.6781 </r>
       <r>   -18.8058     0.8130     0.7628 </r>
       <r>   -18.7016     0.5871     0.8240 </r>
       <r>   -18.5974     0.4041     0.8661 </r>
       <r>   -18.4932     0.8217     0.9518 </r>
       <r>   -18.3889     0.7967     1.0348 </r>
       <r>   -18.2847     0.5434     1.0914 </r>
       <r>   -18.1805     0.4337     1.1366 </r>
       <r>   -18.0763     0.7802     1.2179 </r>
       <r>   -17.9721     1.4665     1.3708 </r>
       <r>   -17.8678     1.4401     1.5209 </r>
       <r>   -17.7636     1.3615     1.6627 </r>
       <r>   -17.6594     1.5933     1.8288 </r>
       <r>   -17.5552     1.9650     2.0336 </r>
       <r>   -17.4510     2.4950     2.2936 </r>
       <r>   -17.3467     2.6261     2.5673 </r>
       <r>   -17.2425     1.5763     2.7316 </r>
       <r>   -17.1383     0.6635     2.8007 </r>
       <r>   -17.0341     0.8829     2.8928 </r>
       <r>   -16.9299     0.8864     2.9851 </r>
       <r>   -16.8257     0.7348     3.0617 </r>
       <r>   -16.7214     0.6018     3.1244 </r>
       <r>   -16.6172     0.4155     3.1677 </r>
       <r>   -16.5130     0.3791     3.2073 </r>
       <r>   -16.4088     1.0970     3.3216 </r>
       <r>   -16.3046     0.9390     3.4194 </r>
       <r>   -16.2003     0.6155     3.4836 </r>
       <r>   -16.0961     0.5485     3.5408 </r>
       <r>   -15.9919     0.5538     3.5985 </r>
       <r>   -15.8877     0.4380     3.6441 </r>
       <r>   -15.7835     0.8611     3.7339 </r>
       <r>   -15.6792     1.5544     3.8959 </r>
       <r>   -15.5750     1.6893     4.0719 </r>
       <r>   -15.4708     1.9333     4.2734 </r>
       <r>   -15.3666     1.9514     4.4768 </r>
       <r>   -15.2624     1.5761     4.6410 </r>
       <r>   -15.1581     1.5826     4.8060 </r>
       <r>   -15.0539     2.1331     5.0283 </r>
       <r>   -14.9497     2.1286     5.2501 </r>
       <r>   -14.8455     1.7404     5.4315 </r>
       <r>   -14.7413     1.5191     5.5898 </r>
       <r>   -14.6370     1.1354     5.7082 </r>
       <r>   -14.5328     1.5477     5.8695 </r>
       <r>   -14.4286     2.3968     6.1192 </r>
       <r>   -14.3244     2.2900     6.3579 </r>
       <r>   -14.2202     1.4641     6.5105 </r>
       <r>   -14.1159     1.0866     6.6237 </r>
       <r>   -14.0117     0.9286     6.7205 </r>
       <r>   -13.9075     1.0577     6.8308 </r>
       <r>   -13.8033     1.0604     6.9413 </r>
       <r>   -13.6991     0.7278     7.0171 </r>
       <r>   -13.5948     0.6211     7.0819 </r>
       <r>   -13.4906     0.5476     7.1389 </r>
       <r>   -13.3864     0.6904     7.2109 </r>
       <r>   -13.2822     0.7246     7.2864 </r>
       <r>   -13.1780     0.7625     7.3659 </r>
       <r>   -13.0738     0.9808     7.4681 </r>
       <r>   -12.9695     0.8395     7.5556 </r>
       <r>   -12.8653     1.0700     7.6671 </r>
       <r>   -12.7611     0.9279     7.7638 </r>
       <r>   -12.6569     0.7111     7.8379 </r>
       <r>   -12.5527     0.8444     7.9259 </r>
       <r>   -12.4484     0.4030     7.9679 </r>
       <r>   -12.3442     0.9131     8.0631 </r>
       <r>   -12.2400     1.0918     8.1769 </r>
       <r>   -12.1358     0.7470     8.2547 </r>
       <r>   -12.0316     1.1754     8.3772 </r>
       <r>   -11.9273     1.8547     8.5705 </r>
       <r>   -11.8231     2.1242     8.7919 </r>
       <r>   -11.7189     1.8804     8.9879 </r>
       <r>   -11.6147     1.7806     9.1734 </r>
       <r>   -11.5105     2.0815     9.3904 </r>
       <r>   -11.4062     1.5547     9.5524 </r>
       <r>   -11.3020     1.0173     9.6584 </r>
       <r>   -11.1978     1.2645     9.7902 </r>
       <r>   -11.0936     1.6126     9.9583 </r>
       <r>   -10.9894     1.2660    10.0902 </r>
       <r>   -10.8851     0.6821    10.1613 </r>
       <r>   -10.7809     1.3818    10.3053 </r>
       <r>   -10.6767     2.0960    10.5238 </r>
       <r>   -10.5725     1.8084    10.7122 </r>
       <r>   -10.4683     0.8711    10.8030 </r>
       <r>   -10.3640     0.8302    10.8895 </r>
       <r>   -10.2598     2.1121    11.1097 </r>
       <r>   -10.1556     2.4857    11.3687 </r>
       <r>   -10.0514     1.4578    11.5207 </r>
       <r>    -9.9472     1.1039    11.6357 </r>
       <r>    -9.8429     0.8574    11.7251 </r>
       <r>    -9.7387     1.3672    11.8675 </r>
       <r>    -9.6345     1.6058    12.0349 </r>
       <r>    -9.5303     1.5273    12.1941 </r>
       <r>    -9.4261     1.1451    12.3134 </r>
       <r>    -9.3219     1.0089    12.4186 </r>
       <r>    -9.2176     1.3977    12.5642 </r>
       <r>    -9.1134     0.6733    12.6344 </r>
       <r>    -9.0092     0.3713    12.6731 </r>
       <r>    -8.9050     1.3665    12.8155 </r>
       <r>    -8.8008     2.1836    13.0431 </r>
       <r>    -8.6965     2.3275    13.2857 </r>
       <r>    -8.5923     1.2975    13.4209 </r>
       <r>    -8.4881     1.0652    13.5319 </r>
       <r>    -8.3839     1.1934    13.6563 </r>
       <r>    -8.2797     1.7919    13.8430 </r>
       <r>    -8.1754     3.1961    14.1761 </r>
       <r>    -8.0712     3.1274    14.5021 </r>
       <r>    -7.9670     2.2685    14.7385 </r>
       <r>    -7.8628     1.7418    14.9200 </r>
       <r>    -7.7586     1.5909    15.0858 </r>
       <r>    -7.6543     2.8819    15.3862 </r>
       <r>    -7.5501     3.3578    15.7361 </r>
       <r>    -7.4459     2.7470    16.0224 </r>
       <r>    -7.3417     2.8391    16.3183 </r>
       <r>    -7.2375     3.0028    16.6313 </r>
       <r>    -7.1332     2.8384    16.9271 </r>
       <r>    -7.0290     3.3589    17.2772 </r>
       <r>    -6.9248     3.4153    17.6331 </r>
       <r>    -6.8206     2.1834    17.8606 </r>
       <r>    -6.7164     2.6539    18.1372 </r>
       <r>    -6.6121     3.5962    18.5120 </r>
       <r>    -6.5079     3.3770    18.8640 </r>
       <r>    -6.4037     3.0387    19.1807 </r>
       <r>    -6.2995     2.7708    19.4694 </r>
       <r>    -6.1953     3.0828    19.7907 </r>
       <r>    -6.0910     2.7465    20.0770 </r>
       <r>    -5.9868     2.3265    20.3194 </r>
       <r>    -5.8826     2.3425    20.5636 </r>
       <r>    -5.7784     2.9308    20.8690 </r>
       <r>    -5.6742     2.6965    21.1500 </r>
       <r>    -5.5699     2.6452    21.4257 </r>
       <r>    -5.4657     2.8715    21.7250 </r>
       <r>    -5.3615     3.2098    22.0595 </r>
       <r>    -5.2573     3.4510    22.4192 </r>
       <r>    -5.1531     2.7380    22.7045 </r>
       <r>    -5.0489     1.2856    22.8385 </r>
       <r>    -4.9446     1.5994    23.0052 </r>
       <r>    -4.8404     2.4618    23.2618 </r>
       <r>    -4.7362     2.5022    23.5226 </r>
       <r>    -4.6320     1.9688    23.7278 </r>
       <r>    -4.5278     1.9948    23.9357 </r>
       <r>    -4.4235     2.3452    24.1801 </r>
       <r>    -4.3193     2.7077    24.4623 </r>
       <r>    -4.2151     2.9789    24.7727 </r>
       <r>    -4.1109     4.2160    25.2121 </r>
       <r>    -4.0067     4.9207    25.7249 </r>
       <r>    -3.9024     4.1517    26.1576 </r>
       <r>    -3.7982     2.6124    26.4299 </r>
       <r>    -3.6940     1.9722    26.6354 </r>
       <r>    -3.5898     2.1453    26.8590 </r>
       <r>    -3.4856     1.9752    27.0649 </r>
       <r>    -3.3813     2.5460    27.3302 </r>
       <r>    -3.2771     2.3256    27.5726 </r>
       <r>    -3.1729     1.9597    27.7768 </r>
       <r>    -3.0687     1.9500    27.9801 </r>
       <r>    -2.9645     2.0176    28.1903 </r>
       <r>    -2.8602     3.1711    28.5208 </r>
       <r>    -2.7560     2.5302    28.7845 </r>
       <r>    -2.6518     1.5571    28.9468 </r>
       <r>    -2.5476     2.2625    29.1826 </r>
       <r>    -2.4434     2.8527    29.4799 </r>
       <r>    -2.3391     2.6627    29.7574 </r>
       <r>    -2.2349     2.3841    30.0059 </r>
       <r>    -2.1307     2.3909    30.2550 </r>
       <r>    -2.0265     1.7023    30.4325 </r>
       <r>    -1.9223     0.4385    30.4782 </r>
       <r>    -1.8180     0.5494    30.5354 </r>
       <r>    -1.7138     0.9702    30.6365 </r>
       <r>    -1.6096     0.7001    30.7095 </r>
       <r>    -1.5054     0.7489    30.7876 </r>
       <r>    -1.4012     0.8723    30.8785 </r>
       <r>    -1.2970     0.5768    30.9386 </r>
       <r>    -1.1927     0.3492    30.9750 </r>
       <r>    -1.0885     0.0987    30.9853 </r>
       <r>    -0.9843     0.0258    30.9879 </r>
       <r>    -0.8801     0.2043    31.0092 </r>
       <r>    -0.7759     0.5019    31.0615 </r>
       <r>    -0.6716     0.5154    31.1153 </r>
       <r>    -0.5674     1.0092    31.2204 </r>
       <r>    -0.4632     1.4239    31.3688 </r>
       <r>    -0.3590     1.1203    31.4856 </r>
       <r>    -0.2548     1.3776    31.6292 </r>
       <r>    -0.1505     1.5911    31.7950 </r>
       <r>    -0.0463     1.1879    31.9188 </r>
       <r>     0.0579     0.5513    31.9762 </r>
       <r>     0.1621     0.1864    31.9957 </r>
       <r>     0.2663     0.0572    32.0016 </r>
       <r>     0.3706     0.2819    32.0310 </r>
       <r>     0.4748     0.9977    32.1350 </r>
       <r>     0.5790     1.3166    32.2722 </r>
       <r>     0.6832     0.7364    32.3490 </r>
       <r>     0.7874     0.4358    32.3944 </r>
       <r>     0.8917     1.0975    32.5088 </r>
       <r>     0.9959     1.5751    32.6729 </r>
       <r>     1.1001     1.6490    32.8448 </r>
       <r>     1.2043     1.2479    32.9748 </r>
       <r>     1.3085     0.5346    33.0305 </r>
       <r>     1.4128     0.6547    33.0988 </r>
       <r>     1.5170     0.6557    33.1671 </r>
       <r>     1.6212     0.6324    33.2330 </r>
       <r>     1.7254     0.9000    33.3268 </r>
       <r>     1.8296     1.3962    33.4723 </r>
       <r>     1.9339     1.1146    33.5885 </r>
       <r>     2.0381     0.3930    33.6295 </r>
       <r>     2.1423     0.3571    33.6667 </r>
       <r>     2.2465     1.2531    33.7973 </r>
       <r>     2.3507     2.2151    34.0281 </r>
       <r>     2.4549     1.6657    34.2017 </r>
       <r>     2.5592     1.3825    34.3458 </r>
       <r>     2.6634     1.4424    34.4961 </r>
       <r>     2.7676     1.4785    34.6502 </r>
       <r>     2.8718     1.4730    34.8037 </r>
       <r>     2.9760     1.1427    34.9228 </r>
       <r>     3.0803     1.1858    35.0464 </r>
       <r>     3.1845     1.6805    35.2216 </r>
       <r>     3.2887     1.6239    35.3908 </r>
       <r>     3.3929     1.7028    35.5683 </r>
       <r>     3.4971     1.3856    35.7127 </r>
       <r>     3.6014     1.3824    35.8567 </r>
       <r>     3.7056     1.3469    35.9971 </r>
       <r>     3.8098     1.3703    36.1399 </r>
       <r>     3.9140     1.5768    36.3043 </r>
       <r>     4.0182     1.9784    36.5104 </r>
       <r>     4.1225     2.0021    36.7191 </r>
       <r>     4.2267     1.5810    36.8839 </r>
       <r>     4.3309     1.4428    37.0342 </r>
       <r>     4.4351     2.6800    37.3135 </r>
       <r>     4.5393     2.4163    37.5654 </r>
       <r>     4.6436     1.3050    37.7014 </r>
       <r>     4.7478     1.1324    37.8194 </r>
       <r>     4.8520     2.3347    38.0627 </r>
       <r>     4.9562     2.7842    38.3529 </r>
       <r>     5.0604     2.2464    38.5870 </r>
       <r>     5.1647     1.8769    38.7826 </r>
       <r>     5.2689     2.1952    39.0114 </r>
       <r>     5.3731     1.9320    39.2128 </r>
       <r>     5.4773     2.2260    39.4448 </r>
       <r>     5.5815     3.0472    39.7623 </r>
       <r>     5.6858     1.9254    39.9630 </r>
       <r>     5.7900     1.3824    40.1071 </r>
       <r>     5.8942     1.8627    40.3012 </r>
       <r>     5.9984     2.1964    40.5301 </r>
       <r>     6.1026     2.1374    40.7529 </r>
       <r>     6.2068     3.3547    41.1025 </r>
       <r>     6.3111     3.6149    41.4792 </r>
       <r>     6.4153     3.4528    41.8391 </r>
       <r>     6.5195     2.7810    42.1289 </r>
       <r>     6.6237     2.3184    42.3705 </r>
       <r>     6.7279     2.1081    42.5902 </r>
       <r>     6.8322     3.3969    42.9443 </r>
       <r>     6.9364     4.3876    43.4015 </r>
       <r>     7.0406     3.8357    43.8013 </r>
       <r>     7.1448     3.6827    44.1851 </r>
       <r>     7.2490     4.2602    44.6291 </r>
       <r>     7.3533     4.7072    45.1197 </r>
       <r>     7.4575     3.6114    45.4961 </r>
       <r>     7.5617     3.8797    45.9004 </r>
       <r>     7.6659     4.7139    46.3917 </r>
       <r>     7.7701     4.5819    46.8692 </r>
       <r>     7.8744     4.1325    47.2999 </r>
       <r>     7.9786     2.9825    47.6107 </r>
       <r>     8.0828     1.7882    47.7971 </r>
       <r>     8.1870     1.0472    47.9062 </r>
       <r>     8.2912     0.3017    47.9377 </r>
       <r>     8.3955     0.2013    47.9587 </r>
       <r>     8.4997     0.3071    47.9907 </r>
       <r>     8.6039     0.0858    47.9996 </r>
       <r>     8.7081     0.0037    48.0000 </r>
       <r>     8.8123     0.0000    48.0000 </r>
       <r>     8.9166     0.0000    48.0000 </r>
       <r>     9.0208     0.0000    48.0000 </r>
       <r>     9.1250     0.0000    48.0000 </r>
       <r>     9.2292     0.0000    48.0000 </r>
       <r>     9.3334     0.0000    48.0000 </r>
       <r>     9.4377     0.0000    48.0000 </r>
       <r>     9.5419     0.0000    48.0000 </r>
       <r>     9.6461     0.0000    48.0000 </r>
       <r>     9.7503     0.0000    48.0000 </r>
       <r>     9.8545     0.0000    48.0000 </r>
      </set>
     </set>
    </array>
   </total>
  </dos>
 </calculation>
 <structure name="finalpos" >
  <crystal>
   <varray name="basis" >
    <v>       4.33445715       2.50250000       0.00000000 </v>
    <v>      -4.33445715       2.50250000       0.00000000 </v>
    <v>       0.00000000       0.00000000      15.00000000 </v>
   </varray>
   <i name="volume">    325.40937023 </i>
   <varray name="rec_basis" >
    <v>       0.11535470       0.19980020       0.00000000 </v>
    <v>      -0.11535470       0.19980020       0.00000000 </v>
    <v>       0.00000000       0.00000000       0.06666667 </v>
   </varray>
  </crystal>
  <varray name="positions" >
   <v>       0.33821837       0.66910828       0.10063378 </v>
   <v>       0.67155363       0.33577551       0.10030429 </v>
   <v>       0.16475241       0.32217526       0.10033823 </v>
   <v>       0.32454970       0.16227339       0.10035865 </v>
   <v>       0.16475192       0.84257344       0.10033769 </v>
   <v>       0.84504942       0.16227083       0.10031079 </v>
   <v>       0.68514602       0.84257075       0.10029076 </v>
   <v>       0.84505069       0.68277486       0.10031028 </v>
   <v>       0.33346402       0.16673320       0.32522245 </v>
   <v>       0.50015093       0.00013518       0.32520209 </v>
   <v>       0.33344691       0.66672463       0.32491927 </v>
   <v>       0.50015093       0.50001824       0.32520208 </v>
   <v>       0.83344224       0.16673446       0.32521742 </v>
   <v>       0.00011637       0.00005945       0.32519899 </v>
   <v>       0.83344226       0.66671019       0.32521742 </v>
   <v>       0.00003953       0.50002101       0.32520249 </v>
  </varray>
 </structure>
</modeling>
