Lattice                                 
           1
     4.334457    2.502500    0.000000
    -4.334457    2.502500    0.000000
     0.000000    0.000000   15.000000
   B    C 
     2    14
Direct configuration=     1
   0.33833034  0.66916432  0.10000000
   0.67165522  0.33584146  0.10000000
   0.16373946  0.31999962  0.10000000
   0.32250218  0.16126397  0.10000000
   0.16376430  0.84376384  0.10000000
   0.84623863  0.16123684  0.10000000
   0.68749850  0.84373000  0.10000000
   0.84626736  0.68499594  0.10000000
   0.33333267  0.16666633  0.32553333
   0.49999967  0.99999933  0.32553333
   0.33333267  0.66666633  0.32553333
   0.49999967  0.49999933  0.32553333
   0.83333267  0.16666633  0.32553333
   0.99999967  0.99999933  0.32553333
   0.83333267  0.66666633  0.32553333
   0.99999967  0.49999933  0.32553333
Direct configuration=     2
   0.33834465  0.66917116  0.10016507
   0.67169442  0.33581969  0.09997882
   0.16812593  0.32878011  0.09994869
   0.33101664  0.16551733  0.10001842
   0.16815748  0.83936473  0.09994869
   0.84195309  0.16550257  0.10001790
   0.67871609  0.83935872  0.09994848
   0.84197914  0.67647734  0.10001788
   0.33337843  0.16668806  0.32554154
   0.50012566  0.00026837  0.32558181
   0.33332877  0.66666328  0.32532957
   0.50012566  0.49985858  0.32558180
   0.83331891  0.16669189  0.32553811
   0.00000498  0.00000313  0.32552860
   0.83331895  0.66662478  0.32553813
   0.99973654  0.49986891  0.32558315
Direct configuration=     3
   0.33833399  0.66916607  0.10004209
   0.67166521  0.33583591  0.09999460
   0.16485796  0.32223854  0.09998692
   0.32467327  0.16234852  0.10000470
   0.16488451  0.84264212  0.09998692
   0.84514587  0.16232455  0.10000456
   0.68525909  0.84261538  0.09998686
   0.84517391  0.68282380  0.10000456
   0.33334434  0.16667187  0.32553543
   0.50003179  0.00006794  0.32554569
   0.33333167  0.66666556  0.32548138
   0.50003179  0.49996344  0.32554569
   0.83332916  0.16667285  0.32553455
   0.00000102  0.00000030  0.32553213
   0.83332917  0.66665574  0.32553456
   0.99993257  0.49996608  0.32554604
Direct configuration=     4
   0.33833399  0.66916606  0.10004205
   0.67166520  0.33583591  0.09999460
   0.16485677  0.32223616  0.09998693
   0.32467096  0.16234737  0.10000469
   0.16488332  0.84264331  0.09998693
   0.84514703  0.16232340  0.10000456
   0.68526147  0.84261656  0.09998688
   0.84517508  0.68282611  0.10000455
   0.33334432  0.16667187  0.32553542
   0.50003176  0.00006786  0.32554568
   0.33333167  0.66666556  0.32548143
   0.50003176  0.49996348  0.32554568
   0.83332916  0.16667284  0.32553455
   0.00000102  0.00000030  0.32553213
   0.83332917  0.66665575  0.32553456
   0.99993264  0.49996611  0.32554602
Direct configuration=     5
   0.33833824  0.66916621  0.10014714
   0.67166917  0.33583231  0.09997596
   0.16485616  0.32224204  0.09996287
   0.32465958  0.16233621  0.10001062
   0.16487502  0.84263241  0.09996287
   0.84516180  0.16232088  0.10001022
   0.68524877  0.84262041  0.09996251
   0.84517833  0.68284098  0.10001022
   0.33335468  0.16667721  0.32554598
   0.50004247  0.00008793  0.32557122
   0.33333096  0.66666533  0.32535238
   0.50004247  0.49995387  0.32557121
   0.83332444  0.16667882  0.32554286
   0.00000346  0.00000140  0.32552536
   0.83332443  0.66664534  0.32554286
   0.99991535  0.49995734  0.32557239
Direct configuration=     6
   0.33833952  0.66916625  0.10017872
   0.67167036  0.33583122  0.09997035
   0.16485597  0.32224380  0.09995564
   0.32465616  0.16233286  0.10001240
   0.16487252  0.84262913  0.09995564
   0.84516624  0.16232012  0.10001192
   0.68524495  0.84262157  0.09995519
   0.84517931  0.68284545  0.10001192
   0.33335779  0.16667882  0.32554915
   0.50004569  0.00009396  0.32557889
   0.33333074  0.66666527  0.32531361
   0.50004569  0.49995098  0.32557889
   0.83332302  0.16668062  0.32554535
   0.00000420  0.00000173  0.32552332
   0.83332300  0.66664221  0.32554536
   0.99991016  0.49995470  0.32558032
Direct configuration=     7
   0.33831604  0.66916361  0.10024305
   0.67166934  0.33583840  0.09997439
   0.16488175  0.32221708  0.09997138
   0.32466950  0.16234331  0.09998945
   0.16487703  0.84265107  0.09997138
   0.84513440  0.16233215  0.09998858
   0.68529315  0.84263085  0.09997053
   0.84513469  0.68280922  0.09998859
   0.33333775  0.16666824  0.32557294
   0.50002118  0.00004513  0.32555849
   0.33333698  0.66666787  0.32526662
   0.50002115  0.49997641  0.32555850
   0.83333848  0.16666842  0.32556814
   0.00000016  0.00000026  0.32551665
   0.83333850  0.66666885  0.32556812
   0.99995524  0.49997779  0.32555984
Direct configuration=     8
   0.33832171  0.66916425  0.10022752
   0.67166958  0.33583666  0.09997342
   0.16487553  0.32222353  0.09996758
   0.32466628  0.16234079  0.09999499
   0.16487594  0.84264577  0.09996758
   0.84514208  0.16232925  0.09999422
   0.68528151  0.84262861  0.09996683
   0.84514547  0.68281797  0.09999422
   0.33334259  0.16667080  0.32556720
   0.50002709  0.00005692  0.32556342
   0.33333548  0.66666724  0.32527797
   0.50002707  0.49997027  0.32556342
   0.83333475  0.16667136  0.32556264
   0.00000113  0.00000061  0.32551826
   0.83333476  0.66666242  0.32556263
   0.99994435  0.49997221  0.32556478
Direct configuration=     9
   0.33834778  0.66916868  0.10028424
   0.67164656  0.33582939  0.09997826
   0.16482260  0.32223342  0.09998821
   0.32468869  0.16232583  0.09997446
   0.16482696  0.84261448  0.09998828
   0.84520366  0.16234035  0.09997315
   0.68522086  0.84262819  0.09998699
   0.84520859  0.68284010  0.09997316
   0.33335214  0.16667626  0.32558222
   0.50004471  0.00008525  0.32553622
   0.33333202  0.66666627  0.32525106
   0.50004476  0.49995824  0.32553622
   0.83332700  0.16667767  0.32557710
   0.00000760  0.00000319  0.32552282
   0.83332702  0.66664973  0.32557711
   0.99992437  0.49996161  0.32553717
Direct configuration=    10
   0.33833213  0.66916602  0.10025019
   0.67166038  0.33583376  0.09997535
   0.16485437  0.32222749  0.09997583
   0.32467524  0.16233481  0.09998678
   0.16485636  0.84263326  0.09997586
   0.84516670  0.16233368  0.09998579
   0.68525727  0.84262844  0.09997489
   0.84517070  0.68282682  0.09998580
   0.33334641  0.16667298  0.32557320
   0.50003413  0.00006825  0.32555254
   0.33333410  0.66666685  0.32526721
   0.50003415  0.49996546  0.32555255
   0.83333165  0.16667389  0.32556842
   0.00000372  0.00000164  0.32552009
   0.83333167  0.66665735  0.32556842
   0.99993637  0.49996798  0.32555374
Direct configuration=    11
   0.33833278  0.66916613  0.10025162
   0.67165980  0.33583357  0.09997547
   0.16485304  0.32222773  0.09997634
   0.32467580  0.16233444  0.09998627
   0.16485513  0.84263248  0.09997637
   0.84516824  0.16233396  0.09998526
   0.68525575  0.84262843  0.09997540
   0.84517228  0.68282737  0.09998527
   0.33334665  0.16667312  0.32557358
   0.50003458  0.00006896  0.32555186
   0.33333401  0.66666683  0.32526653
   0.50003459  0.49996516  0.32555186
   0.83333145  0.16667404  0.32556878
   0.00000388  0.00000171  0.32552020
   0.83333147  0.66665703  0.32556878
   0.99993587  0.49996771  0.32555305
Direct configuration=    12
   0.33832896  0.66916468  0.10028403
   0.67167487  0.33582995  0.09997571
   0.16487740  0.32224728  0.09998839
   0.32463929  0.16232363  0.09998118
   0.16487868  0.84262423  0.09998842
   0.84515817  0.16231831  0.09997970
   0.68524856  0.84262403  0.09998700
   0.84515617  0.68284650  0.09997972
   0.33336206  0.16668106  0.32557161
   0.50005189  0.00010171  0.32553553
   0.33333309  0.66666654  0.32525752
   0.50005188  0.49994936  0.32553553
   0.83332464  0.16668303  0.32556679
   0.00000763  0.00000342  0.32553247
   0.83332462  0.66664163  0.32556679
   0.99990742  0.49995330  0.32553627
Direct configuration=    13
   0.33833079  0.66916537  0.10026849
   0.67166765  0.33583169  0.09997560
   0.16486572  0.32223791  0.09998261
   0.32465679  0.16232881  0.09998362
   0.16486739  0.84262819  0.09998265
   0.84516300  0.16232581  0.09998237
   0.68525200  0.84262614  0.09998144
   0.84516390  0.68283733  0.09998238
   0.33335467  0.16667725  0.32557255
   0.50004359  0.00008601  0.32554336
   0.33333353  0.66666668  0.32526184
   0.50004359  0.49995694  0.32554336
   0.83332791  0.16667872  0.32556775
   0.00000583  0.00000260  0.32552659
   0.83332791  0.66664901  0.32556774
   0.99992106  0.49996021  0.32554431
Direct configuration=    14
   0.33832820  0.66916350  0.10028414
   0.67166728  0.33583226  0.09997379
   0.16486576  0.32223193  0.09998712
   0.32465942  0.16233077  0.09998822
   0.16486444  0.84263069  0.09998711
   0.84515737  0.16232828  0.09998660
   0.68525992  0.84262885  0.09998565
   0.84515550  0.68283017  0.09998665
   0.33335355  0.16667641  0.32556368
   0.50003853  0.00007654  0.32553656
   0.33333680  0.66666801  0.32525871
   0.50003852  0.49996199  0.32553656
   0.83333280  0.16667758  0.32555902
   0.00000480  0.00000241  0.32553663
   0.83333279  0.66665446  0.32555901
   0.99992965  0.49996483  0.32553721
Direct configuration=    15
   0.33832614  0.66916200  0.10029663
   0.67166699  0.33583271  0.09997235
   0.16486578  0.32222716  0.09999072
   0.32466151  0.16233233  0.09999190
   0.16486208  0.84263269  0.09999067
   0.84515288  0.16233026  0.09998999
   0.68526625  0.84263102  0.09998902
   0.84514880  0.68282446  0.09999005
   0.33335265  0.16667573  0.32555660
   0.50003448  0.00006897  0.32553113
   0.33333940  0.66666908  0.32525621
   0.50003448  0.49996604  0.32553113
   0.83333671  0.16667666  0.32555205
   0.00000398  0.00000225  0.32554466
   0.83333668  0.66665881  0.32555204
   0.99993651  0.49996852  0.32553154
Direct configuration=    16
   0.33832823  0.66916273  0.10030536
   0.67166204  0.33583166  0.09997246
   0.16485920  0.32222745  0.09999487
   0.32466394  0.16233020  0.09999623
   0.16485618  0.84262925  0.09999480
   0.84515943  0.16233157  0.09999402
   0.68525799  0.84262990  0.09999292
   0.84515636  0.68282622  0.09999409
   0.33335244  0.16667594  0.32555080
   0.50003834  0.00007252  0.32552605
   0.33333837  0.66666890  0.32525341
   0.50003834  0.49996576  0.32552605
   0.83333547  0.16667688  0.32554631
   0.00000679  0.00000336  0.32554664
   0.83333545  0.66665799  0.32554631
   0.99993676  0.49996834  0.32552634
Direct configuration=    17
   0.33832972  0.66916326  0.10031159
   0.67165851  0.33583091  0.09997254
   0.16485450  0.32222766  0.09999784
   0.32466568  0.16232868  0.09999932
   0.16485197  0.84262680  0.09999775
   0.84516411  0.16233250  0.09999689
   0.68525209  0.84262910  0.09999570
   0.84516176  0.68282748  0.09999698
   0.33335229  0.16667608  0.32554667
   0.50004110  0.00007506  0.32552242
   0.33333764  0.66666878  0.32525141
   0.50004110  0.49996556  0.32552243
   0.83333458  0.16667704  0.32554222
   0.00000878  0.00000414  0.32554806
   0.83333457  0.66665740  0.32554222
   0.99993693  0.49996822  0.32552263
Direct configuration=    18
   0.33832698  0.66916341  0.10031820
   0.67165871  0.33582991  0.09997504
   0.16485913  0.32223160  0.10000390
   0.32465771  0.16232550  0.10000482
   0.16485697  0.84262499  0.10000378
   0.84516166  0.16232866  0.10000201
   0.68524866  0.84262661  0.10000140
   0.84515991  0.68283128  0.10000211
   0.33335557  0.16667791  0.32554153
   0.50004666  0.00008327  0.32551641
   0.33333750  0.66666890  0.32524709
   0.50004665  0.49996258  0.32551642
   0.83333306  0.16667910  0.32553709
   0.00001123  0.00000520  0.32554316
   0.83333307  0.66665423  0.32553710
   0.99993186  0.49996553  0.32551659
Direct configuration=    19
   0.33831891  0.66916384  0.10033769
   0.67165930  0.33582697  0.09998240
   0.16487276  0.32224320  0.10002177
   0.32463422  0.16231613  0.10002100
   0.16487172  0.84261965  0.10002157
   0.84515444  0.16231735  0.10001710
   0.68523855  0.84261928  0.10001820
   0.84515444  0.68284246  0.10001724
   0.33336526  0.16668330  0.32552640
   0.50006303  0.00010747  0.32549870
   0.33333709  0.66666926  0.32523437
   0.50006299  0.49995379  0.32549871
   0.83332859  0.16668520  0.32552198
   0.00001843  0.00000833  0.32552873
   0.83332866  0.66664486  0.32552199
   0.99991695  0.49995758  0.32549882
Direct configuration=    20
   0.33832164  0.66916369  0.10033109
   0.67165910  0.33582796  0.09997991
   0.16486814  0.32223927  0.10001572
   0.32464217  0.16231931  0.10001552
   0.16486673  0.84262145  0.10001555
   0.84515688  0.16232118  0.10001199
   0.68524197  0.84262176  0.10001252
   0.84515629  0.68283868  0.10001212
   0.33336198  0.16668148  0.32553152
   0.50005749  0.00009928  0.32550469
   0.33333723  0.66666914  0.32523867
   0.50005746  0.49995677  0.32550470
   0.83333010  0.16668314  0.32552710
   0.00001599  0.00000727  0.32553362
   0.83333016  0.66664803  0.32552710
   0.99992200  0.49996027  0.32550483
Direct configuration=    21
   0.33832097  0.66916276  0.10033479
   0.67165835  0.33582765  0.09998314
   0.16486593  0.32223774  0.10002073
   0.32464269  0.16231963  0.10001990
   0.16486446  0.84262142  0.10002055
   0.84515582  0.16232124  0.10001607
   0.68524229  0.84262180  0.10001724
   0.84515508  0.68283729  0.10001619
   0.33336362  0.16668210  0.32552797
   0.50005636  0.00009764  0.32550034
   0.33333944  0.66667004  0.32523451
   0.50005633  0.49995772  0.32550035
   0.83333252  0.16668374  0.32552353
   0.00001560  0.00000730  0.32552730
   0.83333256  0.66664944  0.32552353
   0.99992333  0.49996116  0.32550052
Direct configuration=    22
   0.33831898  0.66915995  0.10034588
   0.67165608  0.33582672  0.09999284
   0.16485930  0.32223313  0.10003578
   0.32464422  0.16232061  0.10003301
   0.16485764  0.84262132  0.10003555
   0.84515263  0.16232143  0.10002830
   0.68524322  0.84262189  0.10003140
   0.84515146  0.68283312  0.10002842
   0.33336854  0.16668398  0.32551733
   0.50005295  0.00009274  0.32548729
   0.33334607  0.66667274  0.32522201
   0.50005295  0.49996058  0.32548730
   0.83333976  0.16668554  0.32551281
   0.00001442  0.00000740  0.32550833
   0.83333977  0.66665368  0.32551282
   0.99992733  0.49996385  0.32548758
Direct configuration=    23
   0.33831500  0.66915432  0.10036806
   0.67165155  0.33582484  0.10001222
   0.16484603  0.32222391  0.10006586
   0.32464729  0.16232257  0.10005925
   0.16484401  0.84262113  0.10006556
   0.84514626  0.16232182  0.10005276
   0.68524508  0.84262207  0.10005973
   0.84514422  0.68282479  0.10005288
   0.33337839  0.16668774  0.32549604
   0.50004615  0.00008294  0.32546119
   0.33335933  0.66667814  0.32519700
   0.50004619  0.49996631  0.32546121
   0.83335424  0.16668913  0.32549139
   0.00001206  0.00000759  0.32547040
   0.83335420  0.66666215  0.32549140
   0.99993533  0.49996922  0.32546170
Direct configuration=    24
   0.33830703  0.66914307  0.10041242
   0.67164249  0.33582110  0.10005100
   0.16481950  0.32220548  0.10012603
   0.32465343  0.16232648  0.10011172
   0.16481675  0.84262074  0.10012557
   0.84513351  0.16232258  0.10010168
   0.68524881  0.84262244  0.10011639
   0.84512974  0.68280812  0.10010181
   0.33339808  0.16669526  0.32545347
   0.50003254  0.00006333  0.32540899
   0.33338585  0.66668894  0.32514700
   0.50003267  0.49997776  0.32540902
   0.83338321  0.16669633  0.32544854
   0.00000735  0.00000798  0.32539454
   0.83338305  0.66667908  0.32544856
   0.99995134  0.49997996  0.32540994
Direct configuration=    25
   0.33830980  0.66914698  0.10039700
   0.67164564  0.33582240  0.10003752
   0.16482872  0.32221188  0.10010512
   0.32465129  0.16232512  0.10009348
   0.16482622  0.84262087  0.10010471
   0.84513794  0.16232231  0.10008468
   0.68524751  0.84262231  0.10009670
   0.84513477  0.68281392  0.10008481
   0.33339123  0.16669265  0.32546827
   0.50003727  0.00007014  0.32542713
   0.33337663  0.66668518  0.32516438
   0.50003737  0.49997378  0.32542716
   0.83337314  0.16669383  0.32546343
   0.00000899  0.00000785  0.32542090
   0.83337302  0.66667320  0.32546345
   0.99994578  0.49997623  0.32542792
Direct configuration=    26
   0.33830846  0.66914510  0.10040445
   0.67164412  0.33582177  0.10004403
   0.16482427  0.32220879  0.10011521
   0.32465232  0.16232578  0.10010229
   0.16482165  0.84262081  0.10011478
   0.84513580  0.16232244  0.10009289
   0.68524814  0.84262238  0.10010621
   0.84513234  0.68281112  0.10009301
   0.33339454  0.16669391  0.32546112
   0.50003498  0.00006685  0.32541838
   0.33338108  0.66668700  0.32515599
   0.50003510  0.49997570  0.32541840
   0.83337800  0.16669504  0.32545624
   0.00000820  0.00000791  0.32540818
   0.83337786  0.66667604  0.32545626
   0.99994846  0.49997803  0.32541924
Direct configuration=    27
   0.33830754  0.66914476  0.10040799
   0.67164335  0.33582139  0.10004748
   0.16482359  0.32220819  0.10011974
   0.32465132  0.16232545  0.10010660
   0.16482119  0.84262062  0.10011930
   0.84513467  0.16232192  0.10009692
   0.68524721  0.84262186  0.10011045
   0.84513130  0.68281040  0.10009704
   0.33339419  0.16669392  0.32545733
   0.50003677  0.00006745  0.32541455
   0.33338097  0.66668712  0.32515172
   0.50003689  0.49997658  0.32541457
   0.83337797  0.16669503  0.32545243
   0.00001003  0.00000868  0.32540266
   0.83337784  0.66667639  0.32545245
   0.99995051  0.49997890  0.32541544
Direct configuration=    28
   0.33830476  0.66914375  0.10041861
   0.67164102  0.33582022  0.10005784
   0.16482155  0.32220639  0.10013333
   0.32464829  0.16232448  0.10011952
   0.16481984  0.84262007  0.10013287
   0.84513126  0.16232037  0.10010899
   0.68524441  0.84262033  0.10012320
   0.84512817  0.68280824  0.10010910
   0.33339316  0.16669395  0.32544593
   0.50004213  0.00006924  0.32540307
   0.33338062  0.66668751  0.32513894
   0.50004225  0.49997920  0.32540310
   0.83337788  0.16669501  0.32544099
   0.00001555  0.00001097  0.32538610
   0.83337776  0.66667742  0.32544102
   0.99995667  0.49998151  0.32540405
Direct configuration=    29
   0.33829922  0.66914172  0.10043986
   0.67163636  0.33581790  0.10007856
   0.16481747  0.32220278  0.10016052
   0.32464223  0.16232253  0.10014537
   0.16481713  0.84261897  0.10016000
   0.84512446  0.16231726  0.10013313
   0.68523882  0.84261727  0.10014868
   0.84512192  0.68280392  0.10013323
   0.33339110  0.16669401  0.32542315
   0.50005286  0.00007282  0.32538012
   0.33337994  0.66668827  0.32511336
   0.50005297  0.49998445  0.32538015
   0.83337769  0.16669498  0.32541812
   0.00002658  0.00001555  0.32535299
   0.83337761  0.66667950  0.32541814
   0.99996899  0.49998672  0.32538127
Direct configuration=    30
   0.33828813  0.66913767  0.10048236
   0.67162704  0.33581325  0.10012001
   0.16480932  0.32219557  0.10021489
   0.32463012  0.16231864  0.10019708
   0.16481170  0.84261676  0.10021426
   0.84511084  0.16231104  0.10018143
   0.68522763  0.84261114  0.10019965
   0.84510941  0.68279529  0.10018149
   0.33338698  0.16669414  0.32537759
   0.50007431  0.00007999  0.32533421
   0.33337858  0.66668981  0.32506221
   0.50007441  0.49999495  0.32533425
   0.83337732  0.16669490  0.32537236
   0.00004863  0.00002471  0.32528678
   0.83337729  0.66668366  0.32537239
   0.99999362  0.49999715  0.32533571
Direct configuration=    31
   0.33828582  0.66913878  0.10048897
   0.67162399  0.33581135  0.10012777
   0.16481186  0.32220053  0.10021952
   0.32462347  0.16231432  0.10020451
   0.16481488  0.84261324  0.10021890
   0.84511141  0.16230742  0.10018842
   0.68521981  0.84260736  0.10020382
   0.84511203  0.68280073  0.10018846
   0.33339045  0.16669604  0.32536868
   0.50008086  0.00008985  0.32533005
   0.33337870  0.66669008  0.32505474
   0.50008094  0.49999133  0.32533008
   0.83337617  0.16669703  0.32536350
   0.00005140  0.00002593  0.32528421
   0.83337619  0.66668080  0.32536352
   0.99998735  0.49999386  0.32533151
Direct configuration=    32
   0.33827891  0.66914211  0.10050881
   0.67161486  0.33580564  0.10015104
   0.16481951  0.32221542  0.10023342
   0.32460351  0.16230138  0.10022683
   0.16482441  0.84260267  0.10023282
   0.84511313  0.16229657  0.10020940
   0.68519633  0.84259604  0.10021633
   0.84511987  0.68281703  0.10020937
   0.33340084  0.16670175  0.32534197
   0.50010051  0.00011945  0.32531757
   0.33337906  0.66669092  0.32503231
   0.50010053  0.49998046  0.32531760
   0.83337271  0.16670340  0.32533689
   0.00005973  0.00002960  0.32527649
   0.83337286  0.66667222  0.32533692
   0.99996855  0.49998400  0.32531890
Direct configuration=    33
   0.33827882  0.66914013  0.10051266
   0.67161462  0.33580625  0.10015791
   0.16481526  0.32221131  0.10023307
   0.32460701  0.16230296  0.10022994
   0.16481901  0.84260405  0.10023248
   0.84511249  0.16229854  0.10021231
   0.68520071  0.84259810  0.10021573
   0.84511742  0.68281290  0.10021224
   0.33340376  0.16670258  0.32533678
   0.50009449  0.00011254  0.32531597
   0.33338366  0.66669256  0.32502999
   0.50009452  0.49998268  0.32531600
   0.83337798  0.16670410  0.32533178
   0.00005635  0.00002857  0.32528082
   0.83337807  0.66667544  0.32533180
   0.99997116  0.49998596  0.32531719
Direct configuration=    34
   0.33827857  0.66913488  0.10052281
   0.67161398  0.33580788  0.10017608
   0.16480403  0.32220044  0.10023215
   0.32461624  0.16230713  0.10023817
   0.16480475  0.84260769  0.10023158
   0.84511078  0.16230373  0.10021999
   0.68521228  0.84260353  0.10021416
   0.84511096  0.68280198  0.10021983
   0.33341146  0.16670479  0.32532306
   0.50007858  0.00009428  0.32531175
   0.33339580  0.66669688  0.32502384
   0.50007864  0.49998854  0.32531177
   0.83339191  0.16670595  0.32531826
   0.00004742  0.00002584  0.32529227
   0.83339185  0.66668397  0.32531828
   0.99997808  0.49999116  0.32531265
Direct configuration=    35
   0.33827861  0.66913576  0.10052112
   0.67161409  0.33580761  0.10017304
   0.16480591  0.32220226  0.10023230
   0.32461469  0.16230643  0.10023680
   0.16480714  0.84260708  0.10023173
   0.84511107  0.16230286  0.10021870
   0.68521034  0.84260262  0.10021443
   0.84511204  0.68280380  0.10021856
   0.33341017  0.16670442  0.32532536
   0.50008124  0.00009733  0.32531245
   0.33339377  0.66669616  0.32502487
   0.50008130  0.49998756  0.32531247
   0.83338958  0.16670564  0.32532052
   0.00004891  0.00002630  0.32529036
   0.83338955  0.66668255  0.32532054
   0.99997692  0.49999029  0.32531341
Direct configuration=    36
   0.33827761  0.66913627  0.10052545
   0.67161474  0.33580671  0.10018430
   0.16480849  0.32220177  0.10023168
   0.32461142  0.16230644  0.10023957
   0.16480931  0.84260664  0.10023114
   0.84510753  0.16230235  0.10022119
   0.68520993  0.84260215  0.10021344
   0.84510756  0.68280238  0.10022097
   0.33340558  0.16670304  0.32532089
   0.50008762  0.00009972  0.32530848
   0.33338934  0.66669487  0.32502368
   0.50008765  0.49998974  0.32530849
   0.83338522  0.16670420  0.32531617
   0.00005516  0.00002851  0.32529578
   0.83338519  0.66668146  0.32531618
   0.99998299  0.49999242  0.32530925
Direct configuration=    37
   0.33827669  0.66913675  0.10052945
   0.67161534  0.33580588  0.10019465
   0.16481086  0.32220132  0.10023110
   0.32460841  0.16230645  0.10024213
   0.16481131  0.84260622  0.10023060
   0.84510427  0.16230188  0.10022347
   0.68520955  0.84260171  0.10021254
   0.84510343  0.68280107  0.10022320
   0.33340135  0.16670177  0.32531679
   0.50009349  0.00010193  0.32530482
   0.33338527  0.66669368  0.32502258
   0.50009350  0.49999175  0.32530483
   0.83338121  0.16670287  0.32531216
   0.00006090  0.00003055  0.32530076
   0.83338117  0.66668045  0.32531217
   0.99998858  0.49999438  0.32530541
Direct configuration=    38
   0.33827727  0.66913776  0.10053179
   0.67161123  0.33580410  0.10020486
   0.16480878  0.32220569  0.10023198
   0.32460657  0.16230227  0.10024338
   0.16480989  0.84260233  0.10023152
   0.84510863  0.16229986  0.10022440
   0.68520068  0.84259992  0.10021305
   0.84510977  0.68280585  0.10022407
   0.33340462  0.16670326  0.32531622
   0.50009675  0.00010873  0.32529950
   0.33338670  0.66669429  0.32502201
   0.50009676  0.49998844  0.32529950
   0.83338192  0.16670451  0.32531162
   0.00006142  0.00003090  0.32530114
   0.83338195  0.66667935  0.32531163
   0.99998238  0.49999140  0.32529999
Direct configuration=    39
   0.33827756  0.66913826  0.10053295
   0.67160921  0.33580323  0.10020990
   0.16480775  0.32220784  0.10023241
   0.32460566  0.16230021  0.10024400
   0.16480919  0.84260041  0.10023197
   0.84511079  0.16229887  0.10022486
   0.68519630  0.84259903  0.10021331
   0.84511291  0.68280821  0.10022450
   0.33340623  0.16670400  0.32531594
   0.50009837  0.00011208  0.32529687
   0.33338740  0.66669460  0.32502173
   0.50009836  0.49998681  0.32529687
   0.83338228  0.16670532  0.32531136
   0.00006167  0.00003107  0.32530133
   0.83338234  0.66667880  0.32531136
   0.99997931  0.49998992  0.32529731
Direct configuration=    40
   0.33827414  0.66913690  0.10053376
   0.67161022  0.33580355  0.10021597
   0.16481056  0.32220616  0.10023426
   0.32460268  0.16230047  0.10024478
   0.16481051  0.84260162  0.10023384
   0.84510682  0.16229859  0.10022533
   0.68520111  0.84259869  0.10021480
   0.84510723  0.68280703  0.10022493
   0.33341030  0.16670547  0.32531685
   0.50009505  0.00010977  0.32529311
   0.33339147  0.66669606  0.32501983
   0.50009506  0.49998695  0.32529311
   0.83338648  0.16670675  0.32531222
   0.00005893  0.00003029  0.32529814
   0.83338651  0.66668040  0.32531222
   0.99997826  0.49998996  0.32529354
Direct configuration=    41
   0.33827356  0.66913667  0.10053389
   0.67161039  0.33580361  0.10021699
   0.16481103  0.32220588  0.10023457
   0.32460218  0.16230052  0.10024491
   0.16481073  0.84260182  0.10023415
   0.84510616  0.16229854  0.10022541
   0.68520192  0.84259863  0.10021505
   0.84510628  0.68280683  0.10022500
   0.33341098  0.16670571  0.32531700
   0.50009450  0.00010939  0.32529247
   0.33339215  0.66669631  0.32501951
   0.50009450  0.49998697  0.32529248
   0.83338719  0.16670699  0.32531236
   0.00005847  0.00003016  0.32529761
   0.83338721  0.66668066  0.32531236
   0.99997808  0.49998997  0.32529291
Direct configuration=    42
   0.33827391  0.66913570  0.10053430
   0.67160953  0.33580398  0.10021968
   0.16480701  0.32220280  0.10023646
   0.32460468  0.16230136  0.10024613
   0.16480660  0.84260225  0.10023605
   0.84510652  0.16230002  0.10022630
   0.68520231  0.84259973  0.10021659
   0.84510584  0.68280371  0.10022588
   0.33340905  0.16670505  0.32531719
   0.50009524  0.00010676  0.32529083
   0.33339127  0.66669616  0.32501620
   0.50009526  0.49998978  0.32529083
   0.83338673  0.16670624  0.32531248
   0.00006072  0.00003102  0.32529397
   0.83338671  0.66668151  0.32531247
   0.99998394  0.49999261  0.32529131
Direct configuration=    43
   0.33827409  0.66913518  0.10053452
   0.67160907  0.33580417  0.10022109
   0.16480489  0.32220118  0.10023745
   0.32460599  0.16230181  0.10024678
   0.16480444  0.84260247  0.10023704
   0.84510672  0.16230080  0.10022678
   0.68520252  0.84260031  0.10021740
   0.84510561  0.68280207  0.10022634
   0.33340803  0.16670470  0.32531729
   0.50009564  0.00010538  0.32528996
   0.33339080  0.66669607  0.32501446
   0.50009566  0.49999125  0.32528996
   0.83338649  0.16670584  0.32531254
   0.00006190  0.00003147  0.32529206
   0.83338646  0.66668196  0.32531253
   0.99998702  0.49999400  0.32529047
Direct configuration=    44
   0.33827320  0.66913504  0.10053534
   0.67160843  0.33580331  0.10022251
   0.16480516  0.32220172  0.10023955
   0.32460421  0.16230110  0.10024903
   0.16480478  0.84260143  0.10023916
   0.84510496  0.16229958  0.10022859
   0.68520061  0.84259953  0.10021905
   0.84510437  0.68280242  0.10022814
   0.33340839  0.16670498  0.32531619
   0.50009764  0.00010704  0.32528913
   0.33339116  0.66669636  0.32500992
   0.50009764  0.49999141  0.32528913
   0.83338682  0.16670615  0.32531137
   0.00006356  0.00003218  0.32528849
   0.83338680  0.66668221  0.32531136
   0.99998758  0.49999420  0.32528970
Direct configuration=    45
   0.33827055  0.66913462  0.10053780
   0.67160651  0.33580073  0.10022675
   0.16480597  0.32220335  0.10024582
   0.32459892  0.16229898  0.10025576
   0.16480582  0.84259832  0.10024545
   0.84509973  0.16229596  0.10023400
   0.68519491  0.84259722  0.10022397
   0.84510067  0.68280348  0.10023351
   0.33340945  0.16670581  0.32531294
   0.50010362  0.00011198  0.32528665
   0.33339224  0.66669723  0.32499639
   0.50010357  0.49999189  0.32528665
   0.83338779  0.16670705  0.32530787
   0.00006849  0.00003432  0.32527784
   0.83338783  0.66668297  0.32530787
   0.99998927  0.49999477  0.32528739
Direct configuration=    46
   0.33826973  0.66913400  0.10053901
   0.67160517  0.33580054  0.10022762
   0.16480417  0.32220272  0.10024756
   0.32459853  0.16229818  0.10025802
   0.16480414  0.84259801  0.10024718
   0.84510033  0.16229597  0.10023583
   0.68519403  0.84259677  0.10022526
   0.84510100  0.68280342  0.10023533
   0.33341226  0.16670695  0.32531133
   0.50010295  0.00011218  0.32528561
   0.33339453  0.66669811  0.32499367
   0.50010291  0.49999156  0.32528561
   0.83338992  0.16670818  0.32530623
   0.00006767  0.00003419  0.32527581
   0.83338994  0.66668343  0.32530623
   0.99998808  0.49999445  0.32528637
Direct configuration=    47
   0.33826826  0.66913290  0.10054118
   0.67160278  0.33580020  0.10022916
   0.16480097  0.32220158  0.10025064
   0.32459783  0.16229677  0.10026203
   0.16480115  0.84259747  0.10025027
   0.84510140  0.16229599  0.10023908
   0.68519247  0.84259597  0.10022756
   0.84510159  0.68280331  0.10023857
   0.33341725  0.16670899  0.32530846
   0.50010175  0.00011255  0.32528376
   0.33339859  0.66669970  0.32498883
   0.50010172  0.49999097  0.32528375
   0.83339371  0.16671019  0.32530332