Lattice                                 
           1
     4.373428    2.525000    0.000000
    -4.373428    2.525000    0.000000
     0.000000    0.000000   15.000000
   B    C 
     8     8
Direct configuration=     1
   0.66888689  0.00000000  0.10000000
   0.33111211  0.00000000  0.10000000
   0.00000000  0.33111211  0.10000000
   0.00000000  0.66888689  0.10000000
   0.33111211  0.33111211  0.10000000
   0.66888689  0.66888689  0.10000000
   0.66666600  0.33333300  0.09922189
   0.33333300  0.66666600  0.10077811
   0.16666600  0.33333300  0.46773333
   0.33333300  0.16666600  0.46773333
   0.16666600  0.83333300  0.46773333
   0.33333300  0.66666600  0.46773333
   0.66666600  0.33333300  0.46773333
   0.83333300  0.16666600  0.46773333
   0.66666600  0.83333300  0.46773333
   0.83333300  0.66666600  0.46773333
Direct configuration=     2
   0.66888134 -0.00000006  0.10002632
   0.33111761 -0.00000006  0.10002632
   0.00000006  0.33111766  0.10002632
   0.00000006  0.66888139  0.10002632
   0.33111761  0.33111766  0.10002632
   0.66888134  0.66888139  0.10002632
   0.66666600  0.33333300  0.09926261
   0.33333300  0.66666600  0.10079839
   0.16666379  0.33332859  0.46770595
   0.33332871  0.16666385  0.46770597
   0.16666379  0.83333521  0.46770595
   0.33333300  0.66666600  0.46770595
   0.66666600  0.33333300  0.46770604
   0.83333515  0.16666385  0.46770597
   0.66667041  0.83333521  0.46770595
   0.83333515  0.66667029  0.46770597
Direct configuration=     3
   0.66886468 -0.00000022  0.10010528
   0.33113410 -0.00000022  0.10010528
   0.00000022  0.33113432  0.10010528
   0.00000022  0.66886490  0.10010528
   0.33113410  0.33113432  0.10010528
   0.66886468  0.66886490  0.10010528
   0.66666600  0.33333300  0.09938478
   0.33333300  0.66666600  0.10085921
   0.16665717  0.33331534  0.46762380
   0.33331583  0.16665742  0.46762389
   0.16665717  0.83334183  0.46762380
   0.33333300  0.66666600  0.46762381
   0.66666600  0.33333300  0.46762415
   0.83334158  0.16665742  0.46762389
   0.66668366  0.83334183  0.46762380
   0.83334158  0.66668317  0.46762389
Direct configuration=     4
   0.66883137 -0.00000055  0.10026319
   0.33116708 -0.00000055  0.10026319
   0.00000055  0.33116763  0.10026319
   0.00000055  0.66883192  0.10026319
   0.33116708  0.33116763  0.10026319
   0.66883137  0.66883192  0.10026319
   0.66666600  0.33333300  0.09962912
   0.33333300  0.66666600  0.10098087
   0.16664393  0.33328886  0.46745950
   0.33329009  0.16664454  0.46745971
   0.16664393  0.83335507  0.46745950
   0.33333300  0.66666600  0.46745952
   0.66666600  0.33333300  0.46746039
   0.83335446  0.16664454  0.46745971
   0.66671014  0.83335507  0.46745950
   0.83335446  0.66670891  0.46745971
Direct configuration=     5
   0.66876474 -0.00000122  0.10057901
   0.33123304 -0.00000122  0.10057901
   0.00000122  0.33123426  0.10057901
   0.00000122  0.66876596  0.10057901
   0.33123304  0.33123426  0.10057901
   0.66876474  0.66876596  0.10057901
   0.66666600  0.33333300  0.10011780
   0.33333300  0.66666600  0.10122417
   0.16661745  0.33323589  0.46713090
   0.33323859  0.16661880  0.46713137
   0.16661745  0.83338155  0.46713090
   0.33333300  0.66666600  0.46713095
   0.66666600  0.33333300  0.46713285
   0.83338020  0.16661880  0.46713137
   0.66676311  0.83338155  0.46713090
   0.83338020  0.66676041  0.46713137
Direct configuration=     6
   0.66863148 -0.00000255  0.10121066
   0.33136496 -0.00000255  0.10121066
   0.00000255  0.33136752  0.10121066
   0.00000255  0.66863404  0.10121066
   0.33136496  0.33136752  0.10121066
   0.66863148  0.66863404  0.10121066
   0.66666600  0.33333300  0.10109516
   0.33333300  0.66666600  0.10171077
   0.16656448  0.33312995  0.46647371
   0.33313560  0.16656730  0.46647468
   0.16656448  0.83343452  0.46647371
   0.33333300  0.66666600  0.46647380
   0.66666600  0.33333300  0.46647778
   0.83343170  0.16656730  0.46647468
   0.66686905  0.83343452  0.46647371
   0.83343170  0.66686340  0.46647468
Direct configuration=     7
   0.66836498 -0.00000521  0.10247397
   0.33162881 -0.00000521  0.10247397
   0.00000521  0.33163402  0.10247397
   0.00000521  0.66837019  0.10247397
   0.33162881  0.33163402  0.10247397
   0.66836498  0.66837019  0.10247397
   0.66666600  0.33333300  0.10304988
   0.33333300  0.66666600  0.10268398
   0.16645854  0.33291808  0.46515931
   0.33292961  0.16646431  0.46516131
   0.16645854  0.83354046  0.46515931
   0.33333300  0.66666600  0.46515951
   0.66666600  0.33333300  0.46516763
   0.83353469  0.16646431  0.46516131
   0.66708092  0.83354046  0.46515931
   0.83353469  0.66706939  0.46516131
Direct configuration=     8
   0.66783196 -0.00001054  0.10500057
   0.33215650 -0.00001054  0.10500057
   0.00001054  0.33216704  0.10500057
   0.00001054  0.66784250  0.10500057
   0.33215650  0.33216704  0.10500057
   0.66783196  0.66784250  0.10500057
   0.66666600  0.33333300  0.10695932
   0.33333300  0.66666600  0.10463041
   0.16624667  0.33249433  0.46253053
   0.33251764  0.16625832  0.46253456
   0.16624667  0.83375233  0.46253053
   0.33333300  0.66666600  0.46253092
   0.66666600  0.33333300  0.46254734
   0.83374068  0.16625832  0.46253456
   0.66750467  0.83375233  0.46253053
   0.83374068  0.66748136  0.46253456
Direct configuration=     9
   0.66783182 -0.00001054  0.10500277
   0.33215664 -0.00001054  0.10500277
   0.00001054  0.33216718  0.10500277
   0.00001054  0.66784236  0.10500277
   0.33215664  0.33216718  0.10500277
   0.66783182  0.66784236  0.10500277
   0.66666600  0.33333300  0.10696269
   0.33333300  0.66666600  0.10463209
   0.16624672  0.33249444  0.46252825
   0.33251775  0.16625837  0.46253228
   0.16624672  0.83375228  0.46252825
   0.33333300  0.66666600  0.46252864
   0.66666600  0.33333300  0.46254506
   0.83374063  0.16625837  0.46253228
   0.66750456  0.83375228  0.46252825
   0.83374063  0.66748125  0.46253228
Direct configuration=    10
   0.66783141 -0.00001052  0.10500935
   0.33215707 -0.00001052  0.10500935
   0.00001052  0.33216759  0.10500935
   0.00001052  0.66784193  0.10500935
   0.33215707  0.33216759  0.10500935
   0.66783141  0.66784193  0.10500935
   0.66666600  0.33333300  0.10697282
   0.33333300  0.66666600  0.10463713
   0.16624688  0.33249477  0.46252141
   0.33251806  0.16625853  0.46252544
   0.16624688  0.83375212  0.46252141
   0.33333300  0.66666600  0.46252180
   0.66666600  0.33333300  0.46253824
   0.83374047  0.16625853  0.46252544
   0.66750423  0.83375212  0.46252141
   0.83374047  0.66748094  0.46252544
Direct configuration=    11
   0.66783058 -0.00001049  0.10502252
   0.33215793 -0.00001049  0.10502252
   0.00001049  0.33216842  0.10502252
   0.00001049  0.66784107  0.10502252
   0.33215793  0.33216842  0.10502252
   0.66783058  0.66784107  0.10502252
   0.66666600  0.33333300  0.10699308
   0.33333300  0.66666600  0.10464722
   0.16624721  0.33249541  0.46250773
   0.33251868  0.16625884  0.46251177
   0.16624721  0.83375179  0.46250773
   0.33333300  0.66666600  0.46250812
   0.66666600  0.33333300  0.46252459
   0.83374016  0.16625884  0.46251177
   0.66750359  0.83375179  0.46250773
   0.83374016  0.66748032  0.46251177
Direct configuration=    12
   0.66782892 -0.00001043  0.10504887
   0.33215964 -0.00001043  0.10504887
   0.00001043  0.33217008  0.10504887
   0.00001043  0.66783936  0.10504887
   0.33215964  0.33217008  0.10504887
   0.66782892  0.66783936  0.10504887
   0.66666600  0.33333300  0.10703360
   0.33333300  0.66666600  0.10466739
   0.16624785  0.33249671  0.46248037
   0.33251993  0.16625947  0.46248443
   0.16624785  0.83375115  0.46248037
   0.33333300  0.66666600  0.46248076
   0.66666600  0.33333300  0.46249730
   0.83373953  0.16625947  0.46248443
   0.66750229  0.83375115  0.46248037
   0.83373953  0.66747907  0.46248443
Direct configuration=    13
   0.66782561 -0.00001032  0.10510156
   0.33216307 -0.00001032  0.10510156
   0.00001032  0.33217339  0.10510156
   0.00001032  0.66783593  0.10510156
   0.33216307  0.33217339  0.10510156
   0.66782561  0.66783593  0.10510156
   0.66666600  0.33333300  0.10711464
   0.33333300  0.66666600  0.10470773
   0.16624915  0.33249929  0.46242565
   0.33252243  0.16626072  0.46242976
   0.16624915  0.83374985  0.46242565
   0.33333300  0.66666600  0.46242604
   0.66666600  0.33333300  0.46244271
   0.83373828  0.16626072  0.46242976
   0.66749971  0.83374985  0.46242565
   0.83373828  0.66747657  0.46242976
Direct configuration=    14
   0.66781899 -0.00001008  0.10520693
   0.33216992 -0.00001008  0.10520693
   0.00001008  0.33218001  0.10520693
   0.00001008  0.66782908  0.10520693
   0.33216992  0.33218001  0.10520693
   0.66781899  0.66782908  0.10520693
   0.66666600  0.33333300  0.10727671
   0.33333300  0.66666600  0.10478842
   0.16625173  0.33250447  0.46231622
   0.33252743  0.16626321  0.46232040
   0.16625173  0.83374727  0.46231622
   0.33333300  0.66666600  0.46231660
   0.66666600  0.33333300  0.46233352
   0.83373579  0.16626321  0.46232040
   0.66749453  0.83374727  0.46231622
   0.83373579  0.66747157  0.46232040
Direct configuration=    15
   0.66780575 -0.00000961  0.10541768
   0.33218364 -0.00000961  0.10541768
   0.00000961  0.33219325  0.10541768
   0.00000961  0.66781536  0.10541768
   0.33218364  0.33219325  0.10541768
   0.66780575  0.66781536  0.10541768
   0.66666600  0.33333300  0.10760086
   0.33333300  0.66666600  0.10494980
   0.16625691  0.33251482  0.46209734
   0.33253742  0.16626821  0.46210168
   0.16625691  0.83374209  0.46209734
   0.33333300  0.66666600  0.46209771
   0.66666600  0.33333300  0.46211516
   0.83373079  0.16626821  0.46210168
   0.66748418  0.83374209  0.46209734
   0.83373079  0.66746158  0.46210168
Direct configuration=    16
   0.66777928 -0.00000867  0.10583918
   0.33221106 -0.00000867  0.10583918
   0.00000867  0.33221972  0.10583918
   0.00000867  0.66778794  0.10583918
   0.33221106  0.33221972  0.10583918
   0.66777928  0.66778794  0.10583918
   0.66666600  0.33333300  0.10824915
   0.33333300  0.66666600  0.10527255
   0.16626726  0.33253552  0.46165960
   0.33255740  0.16627820  0.46166424
   0.16626726  0.83373174  0.46165960
   0.33333300  0.66666600  0.46165994
   0.66666600  0.33333300  0.46167844
   0.83372080  0.16627820  0.46166424
   0.66746348  0.83373174  0.46165960
   0.83372080  0.66744160  0.46166424
Direct configuration=    17
   0.66772632 -0.00000679  0.10668218
   0.33226590 -0.00000679  0.10668218
   0.00000679  0.33227268  0.10668218
   0.00000679  0.66773310  0.10668218
   0.33226590  0.33227268  0.10668218
   0.66772632  0.66773310  0.10668218
   0.66666600  0.33333300  0.10954573
   0.33333300  0.66666600  0.10591806
   0.16628796  0.33257692  0.46078411
   0.33259736  0.16629818  0.46078937
   0.16628796  0.83371104  0.46078411
   0.33333300  0.66666600  0.46078439
   0.66666600  0.33333300  0.46080498
   0.83370082  0.16629818  0.46078937
   0.66742208  0.83371104  0.46078411
   0.83370082  0.66740164  0.46078937
Direct configuration=    18
   0.66762040 -0.00000303  0.10836817
   0.33237558 -0.00000303  0.10836817
   0.00000303  0.33237860  0.10836817
   0.00000303  0.66762342  0.10836817
   0.33237558  0.33237860  0.10836817
   0.66762040  0.66762342  0.10836817
   0.66666600  0.33333300  0.11213889
   0.33333300  0.66666600  0.10720908
   0.16632936  0.33265973  0.45903313
   0.33267728  0.16633814  0.45903963
   0.16632936  0.83366964  0.45903313
   0.33333300  0.66666600  0.45903330
   0.66666600  0.33333300  0.45905808
   0.83366086  0.16633814  0.45903963
   0.66733927  0.83366964  0.45903313
   0.83366086  0.66732172  0.45903963
Direct configuration=    19
   0.66740856  0.00000450  0.11174016
   0.33259494  0.00000450  0.11174016
  -0.00000450  0.33259044  0.11174016
  -0.00000450  0.66740406  0.11174016
   0.33259494  0.33259044  0.11174016
   0.66740856  0.66740406  0.11174016
   0.66666600  0.33333300  0.11732522
   0.33333300  0.66666600  0.10979111
   0.16641217  0.33282534  0.45553117
   0.33283713  0.16641807  0.45554015
   0.16641217  0.83358683  0.45553117
   0.33333300  0.66666600  0.45553112
   0.66666600  0.33333300  0.45556428
   0.83358093  0.16641807  0.45554015
   0.66717366  0.83358683  0.45553117
   0.83358093  0.66716187  0.45554015
Direct configuration=    20
   0.66698488  0.00001955  0.11848415
   0.33303367  0.00001955  0.11848415
  -0.00001955  0.33301412  0.11848415
  -0.00001955  0.66696533  0.11848415
   0.33303367  0.33301412  0.11848415
   0.66698488  0.66696533  0.11848415
   0.66666600  0.33333300  0.12769788
   0.33333300  0.66666600  0.11495517
   0.16657778  0.33315656  0.44852725
   0.33315682  0.16657791  0.44854119
   0.16657778  0.83342122  0.44852725
   0.33333300  0.66666600  0.44852675
   0.66666600  0.33333300  0.44857667
   0.83342109  0.16657791  0.44854119
   0.66684244  0.83342122  0.44852725
   0.83342109  0.66684218  0.44854119
Direct configuration=    21
   0.66613753  0.00004965  0.13197212
   0.33391112  0.00004965  0.13197212
  -0.00004965  0.33386147  0.13197212
  -0.00004965  0.66608788  0.13197212
   0.33391112  0.33386147  0.13197212
   0.66613753  0.66608788  0.13197212
   0.66666600  0.33333300  0.14844319
   0.33333300  0.66666600  0.12528330
   0.16690900  0.33381900  0.43451941
   0.33379621  0.16689761  0.43454326
   0.16690900  0.83309000  0.43451941
   0.33333300  0.66666600  0.43451802
   0.66666600  0.33333300  0.43460145
   0.83310139  0.16689761  0.43454326
   0.66618000  0.83309000  0.43451941
   0.83310139  0.66620279  0.43454326
Direct configuration=    22
   0.66444283  0.00010986  0.15894805
   0.33566603  0.00010986  0.15894805
  -0.00010986  0.33555617  0.15894805
  -0.00010986  0.66433297  0.15894805
   0.33566603  0.33555617  0.15894805
   0.66444283  0.66433297  0.15894805
   0.66666600  0.33333300  0.18993382
   0.33333300  0.66666600  0.14593956
   0.16757144  0.33514389  0.40650373
   0.33507499  0.16753700  0.40654741
   0.16757144  0.83242756  0.40650373
   0.33333300  0.66666600  0.40650056
   0.66666600  0.33333300  0.40665102
   0.83246200  0.16753700  0.40654741
   0.66485511  0.83242756  0.40650373
   0.83246200  0.66492401  0.40654741
Direct configuration=    23
   0.66558051  0.00006944  0.14083859
   0.33448793  0.00006944  0.14083859
  -0.00006944  0.33441849  0.14083859
  -0.00006944  0.66551107  0.14083859
   0.33448793  0.33441849  0.14083859
   0.66558051  0.66551107  0.14083859
   0.66666600  0.33333300  0.16208037
   0.33333300  0.66666600  0.13207262
   0.16712673  0.33425447  0.42531119
   0.33421652  0.16710776  0.42534156
   0.16712673  0.83287227  0.42531119
   0.33333300  0.66666600  0.42530921
   0.66666600  0.33333300  0.42541468
   0.83289124  0.16710776  0.42534156
   0.66574453  0.83287227  0.42531119
   0.83289124  0.66578248  0.42534156
Direct configuration=    24
   0.66479324  0.00009741  0.15337026
   0.33530317  0.00009741  0.15337026
  -0.00009741  0.33520576  0.15337026
  -0.00009741  0.66469583  0.15337026
   0.33530317  0.33520576  0.15337026
   0.66479324  0.66469583  0.15337026
   0.66666600  0.33333300  0.18135483
   0.33333300  0.66666600  0.14166848
   0.16743447  0.33486994  0.41229651
   0.33481058  0.16740479  0.41233609
   0.16743447  0.83256453  0.41229651
   0.33333300  0.66666600  0.41229371
   0.66666600  0.33333300  0.41243031
   0.83259421  0.16740479  0.41233609
   0.66512906  0.83256453  0.41229651
   0.83259421  0.66518842  0.41233609
Direct configuration=    25
   0.66521473  0.00008244  0.14666103
   0.33486670  0.00008244  0.14666103
  -0.00008244  0.33478427  0.14666103
  -0.00008244  0.66513230  0.14666103
   0.33486670  0.33478427  0.14666103
   0.66521473  0.66513230  0.14666103
   0.66666600  0.33333300  0.17103564
   0.33333300  0.66666600  0.13653103
   0.16726971  0.33454043  0.41926433
   0.33449253  0.16724577  0.41929898
   0.16726971  0.83272929  0.41926433
   0.33333300  0.66666600  0.41926197
   0.66666600  0.33333300  0.41938190
   0.83275323  0.16724577  0.41929898
   0.66545857  0.83272929  0.41926433
   0.83275323  0.66550647  0.41929898
Direct configuration=    26
   0.66510313  0.00008640  0.14843758
   0.33498227  0.00008640  0.14843758
  -0.00008640  0.33489587  0.14843758
  -0.00008640  0.66501673  0.14843758
   0.33498227  0.33489587  0.14843758
   0.66510313  0.66501673  0.14843758
   0.66666600  0.33333300  0.17376807
   0.33333300  0.66666600  0.13789138
   0.16731334  0.33462768  0.41741931
   0.33457675  0.16728787  0.41745527
   0.16731334  0.83268566  0.41741931
   0.33333300  0.66666600  0.41741684
   0.66666600  0.33333300  0.41754118
   0.83271113  0.16728787  0.41745527
   0.66537132  0.83268566  0.41741931
   0.83271113  0.66542225  0.41745527
Direct configuration=    27
   0.66514089  0.00017173  0.15006820
   0.33502985  0.00017173  0.15006820
  -0.00017173  0.33485811  0.15006820
  -0.00017173  0.66496915  0.15006820
   0.33502985  0.33485811  0.15006820
   0.66514089  0.66496915  0.15006820
   0.66666600  0.33333300  0.17621125
   0.33333300  0.66666600  0.13913185
   0.16730240  0.33460579  0.41573519
   0.33455384  0.16727642  0.41577242
   0.16730240  0.83269660  0.41573519
   0.33333300  0.66666600  0.41573244
   0.66666600  0.33333300  0.41585910
   0.83272258  0.16727642  0.41577242
   0.66539321  0.83269660  0.41573519
   0.83272258  0.66544516  0.41577242
Direct configuration=    28
   0.66521739  0.00034462  0.15337182
   0.33512623  0.00034462  0.15337182
  -0.00034462  0.33478161  0.15337182
  -0.00034462  0.66487277  0.15337182
   0.33512623  0.33478161  0.15337182
   0.66521739  0.66487277  0.15337182
   0.66666600  0.33333300  0.18116112
   0.33333300  0.66666600  0.14164504
   0.16728023  0.33456145  0.41232316
   0.33450743  0.16725322  0.41236300
   0.16728023  0.83271877  0.41232316
   0.33333300  0.66666600  0.41231987
   0.66666600  0.33333300  0.41245123
   0.83274578  0.16725322  0.41236300
   0.66543755  0.83271877  0.41232316
   0.83274578  0.66549157  0.41236300
Direct configuration=    29
   0.66540520  0.00045897  0.15342917
   0.33505278  0.00045897  0.15342917
  -0.00045897  0.33459380  0.15342917
  -0.00045897  0.66494622  0.15342917
   0.33505278  0.33459380  0.15342917
   0.66540520  0.66494622  0.15342917
   0.66666600  0.33333300  0.18113467
   0.33333300  0.66666600  0.14168337
   0.16721231  0.33442562  0.41227877
   0.33437172  0.16718536  0.41231925
   0.16721231  0.83278669  0.41227877
   0.33333300  0.66666600  0.41227537
   0.66666600  0.33333300  0.41240416
   0.83281364  0.16718536  0.41231925
   0.66557338  0.83278669  0.41227877
   0.83281364  0.66562728  0.41231925
Direct configuration=    30
   0.66596861  0.00080204  0.15360122
   0.33483243  0.00080204  0.15360122
  -0.00080204  0.33403039  0.15360122
  -0.00080204  0.66516657  0.15360122
   0.33483243  0.33403039  0.15360122
   0.66596861  0.66516657  0.15360122
   0.66666600  0.33333300  0.18105533
   0.33333300  0.66666600  0.14179835
   0.16700855  0.33401811  0.41214562
   0.33396458  0.16698179  0.41218800
   0.16700855  0.83299045  0.41214562
   0.33333300  0.66666600  0.41214187
   0.66666600  0.33333300  0.41226296
   0.83301721  0.16698179  0.41218800
   0.66598089  0.83299045  0.41214562
   0.83301721  0.66603442  0.41218800
Direct configuration=    31
   0.66709543  0.00148816  0.15394531
   0.33439174  0.00148816  0.15394531
  -0.00148816  0.33290357  0.15394531
  -0.00148816  0.66560726  0.15394531
   0.33439174  0.33290357  0.15394531
   0.66709543  0.66560726  0.15394531
   0.66666600  0.33333300  0.18089664
   0.33333300  0.66666600  0.14202832
   0.16660104  0.33320309  0.41187932
   0.33315031  0.16657465  0.41192549
   0.16660104  0.83339796  0.41187932
   0.33333300  0.66666600  0.41187486
   0.66666600  0.33333300  0.41198056
   0.83342435  0.16657465  0.41192549
   0.66679591  0.83339796  0.41187932
   0.83342435  0.66684869  0.41192549
Direct configuration=    32
   0.66934906  0.00286041  0.15463349
   0.33351035  0.00286041  0.15463349
  -0.00286041  0.33064994  0.15463349
  -0.00286041  0.66648865  0.15463349
   0.33351035  0.33064994  0.15463349
   0.66934906  0.66648865  0.15463349
   0.66666600  0.33333300  0.18057925
   0.33333300  0.66666600  0.14248826
   0.16578603  0.33157305  0.41134672
   0.33152175  0.16576038  0.41140049
   0.16578603  0.83421297  0.41134672
   0.33333300  0.66666600  0.41134084
   0.66666600  0.33333300  0.41141576
   0.83423862  0.16576038  0.41140049
   0.66842595  0.83421297  0.41134672
   0.83423862  0.66847725  0.41140049
Direct configuration=    33
   0.66800539  0.00204225  0.15422318
   0.33403585  0.00204225  0.15422318
  -0.00204225  0.33199361  0.15422318
  -0.00204225  0.66596315  0.15422318
   0.33403585  0.33199361  0.15422318
   0.66800539  0.66596315  0.15422318
   0.66666600  0.33333300  0.18076848
   0.33333300  0.66666600  0.14221403
   0.16627196  0.33254492  0.41166427
   0.33249273  0.16624587  0.41171351
   0.16627196  0.83372704  0.41166427
   0.33333300  0.66666600  0.41165924
   0.66666600  0.33333300  0.41175251
   0.83375313  0.16624587  0.41171351
   0.66745408  0.83372704  0.41166427
   0.83375313  0.66750627  0.41171351
Direct configuration=    34
   0.66816213  0.00201922  0.15433621
   0.33385609  0.00201922  0.15433621
  -0.00201922  0.33183687  0.15433621
  -0.00201922  0.66614291  0.15433621
   0.33385609  0.33183687  0.15433621
   0.66816213  0.66614291  0.15433621
   0.66666600  0.33333300  0.18046656
   0.33333300  0.66666600  0.14231415
   0.16635660  0.33271419  0.41160614
   0.33266164  0.16633032  0.41165554
   0.16635660  0.83364240  0.41160614
   0.33333300  0.66666600  0.41159945
   0.66666600  0.33333300  0.41168421
   0.83366868  0.16633032  0.41165554
   0.66728481  0.83364240  0.41160614
   0.83366868  0.66733736  0.41165554
Direct configuration=    35
   0.66863235  0.00195013  0.15467531
   0.33331678  0.00195013  0.15467531
  -0.00195013  0.33136665  0.15467531
  -0.00195013  0.66668222  0.15467531
   0.33331678  0.33136665  0.15467531
   0.66863235  0.66668222  0.15467531
   0.66666600  0.33333300  0.17956079
   0.33333300  0.66666600  0.14261450
   0.16661050  0.33322201  0.41143176
   0.33316836  0.16658368  0.41148162
   0.16661050  0.83338850  0.41143176
   0.33333300  0.66666600  0.41142008
   0.66666600  0.33333300  0.41147931
   0.83341532  0.16658368  0.41148162
   0.66677699  0.83338850  0.41143176
   0.83341532  0.66683064  0.41148162
Direct configuration=    36
   0.66957280  0.00181197  0.15535350
   0.33223817  0.00181197  0.15535350
  -0.00181197  0.33042620  0.15535350
  -0.00181197  0.66776083  0.15535350
   0.33223817  0.33042620  0.15535350
   0.66957280  0.66776083  0.15535350
   0.66666600  0.33333300  0.17774926
   0.33333300  0.66666600  0.14321520
   0.16711832  0.33423764  0.41108300
   0.33418179  0.16709040  0.41113379
   0.16711832  0.83288068  0.41108300
   0.33333300  0.66666600  0.41106134
   0.66666600  0.33333300  0.41106952
   0.83290860  0.16709040  0.41113379
   0.66576136  0.83288068  0.41108300
   0.83290860  0.66581721  0.41113379
Direct configuration=    37
   0.66932038  0.00151953  0.15553352
   0.33219815  0.00151953  0.15553352
  -0.00151953  0.33067862  0.15553352
  -0.00151953  0.66780085  0.15553352
   0.33219815  0.33067862  0.15553352
   0.66932038  0.66780085  0.15553352
   0.66666600  0.33333300  0.17717686
   0.33333300  0.66666600  0.14340177
   0.16703728  0.33407556  0.41099910
   0.33402668  0.16701284  0.41104596
   0.16703728  0.83296172  0.41099910
   0.33333300  0.66666600  0.41097475
   0.66666600  0.33333300  0.41097697
   0.83298616  0.16701284  0.41104596
   0.66592344  0.83296172  0.41099910
   0.83298616  0.66597232  0.41104596
Direct configuration=    38
   0.66856312  0.00064221  0.15607359
   0.33207810  0.00064221  0.15607359
  -0.00064221  0.33143588  0.15607359
  -0.00064221  0.66792090  0.15607359
   0.33207810  0.33143588  0.15607359
   0.66856312  0.66792090  0.15607359
   0.66666600  0.33333300  0.17545967
   0.33333300  0.66666600  0.14396150
   0.16679416  0.33358932  0.41074739
   0.33356133  0.16678017  0.41078249
   0.16679416  0.83320484  0.41074739
   0.33333300  0.66666600  0.41071498
   0.66666600  0.33333300  0.41069932
   0.83321883  0.16678017  0.41078249
   0.66640968  0.83320484  0.41074739
   0.83321883  0.66643767  0.41078249
Direct configuration=    39
   0.66704859 -0.00111242  0.15715374
   0.33183798 -0.00111242  0.15715374
   0.00111242  0.33295041  0.15715374
   0.00111242  0.66816102  0.15715374
   0.33183798  0.33295041  0.15715374
   0.66704859  0.66816102  0.15715374
   0.66666600  0.33333300  0.17202529
   0.33333300  0.66666600  0.14508095
   0.16630792  0.33261684  0.41024396
   0.33263064  0.16631482  0.41025556
   0.16630792  0.83369108  0.41024396
   0.33333300  0.66666600  0.41019544
   0.66666600  0.33333300  0.41014402
   0.83368418  0.16631482  0.41025556
   0.66738216  0.83369108  0.41024396
   0.83368418  0.66736836  0.41025556
Direct configuration=    40
   0.66693806 -0.00087563  0.15762350
   0.33218532 -0.00087563  0.15762350
   0.00087563  0.33306094  0.15762350
   0.00087563  0.66781368  0.15762350
   0.33218532  0.33306094  0.15762350
   0.66693806  0.66781368  0.15762350
   0.66666600  0.33333300  0.17053865
   0.33333300  0.66666600  0.14554341
   0.16644932  0.33289964  0.41002054
   0.33289630  0.16644765  0.41002425
   0.16644932  0.83354968  0.41002054
   0.33333300  0.66666600  0.40997810
   0.66666600  0.33333300  0.40993112
   0.83355135  0.16644765  0.41002425
   0.66709936  0.83354968  0.41002054
   0.83355135  0.66710270  0.41002425
Direct configuration=    41
   0.66676141 -0.00049723  0.15837419
   0.33274036 -0.00049723  0.15837419
   0.00049723  0.33323759  0.15837419
   0.00049723  0.66725864  0.15837419
   0.33274036  0.33323759  0.15837419
   0.66676141  0.66725864  0.15837419
   0.66666600  0.33333300  0.16816299
   0.33333300  0.66666600  0.14628243
   0.16667528  0.33335157  0.40966352
   0.33332083  0.16665992  0.40965463
   0.16667528  0.83332372  0.40966352
   0.33333300  0.66666600  0.40963079
   0.66666600  0.33333300  0.40959089
   0.83333908  0.16665992  0.40965463
   0.66664743  0.83332372  0.40966352
   0.83333908  0.66667817  0.40965463
Direct configuration=    42
   0.66747111 -0.00017810  0.15843589
   0.33234979 -0.00017810  0.15843589
   0.00017810  0.33252789  0.15843589
   0.00017810  0.66764921  0.15843589
   0.33234979  0.33252789  0.15843589
   0.66747111  0.66764921  0.15843589
   0.66666600  0.33333300  0.16806608
   0.33333300  0.66666600  0.14639356
   0.16667549  0.33335198  0.40960498
   0.33334531  0.16667215  0.40960710
   0.16667549  0.83332351  0.40960498
   0.33333300  0.66666600  0.40958934
   0.66666600  0.33333300  0.40956616
   0.83332685  0.16667215  0.40960710
   0.66664702  0.83332351  0.40960498
   0.83332685  0.66665369  0.40960710
Direct configuration=    43
   0.66784947 -0.00000797  0.15846878
   0.33214156 -0.00000797  0.15846878
   0.00000797  0.33214953  0.15846878
   0.00000797  0.66785744  0.15846878
   0.33214156  0.33214953  0.15846878
   0.66784947  0.66785744  0.15846878
   0.66666600  0.33333300  0.16801441
   0.33333300  0.66666600  0.14645280
   0.16667560  0.33335220  0.40957377
   0.33335836  0.16667868  0.40958176
   0.16667560  0.83332340  0.40957377
   0.33333300  0.66666600  0.40956725
   0.66666600  0.33333300  0.40955297
   0.83332032  0.16667868  0.40958176
   0.66664680  0.83332340  0.40957377
   0.83332032  0.66664064  0.40958176
Direct configuration=    44
   0.66787414 -0.00013740  0.15848648
   0.33198746 -0.00013740  0.15848648
   0.00013740  0.33212486  0.15848648
   0.00013740  0.66801154  0.15848648
   0.33198746  0.33212486  0.15848648
   0.66787414  0.66801154  0.15848648
   0.66666600  0.33333300  0.16805803
   0.33333300  0.66666600  0.14658058
   0.16666117  0.33332335  0.40953257
   0.33330783  0.16665342  0.40954796
   0.16666117  0.83333783  0.40953257
   0.33333300  0.66666600  0.40953226
   0.66666600  0.33333300  0.40953532
   0.83334558  0.16665342  0.40954796
   0.66667565  0.83333783  0.40953257
   0.83334558  0.66669117  0.40954796
Direct configuration=    45
   0.66791354 -0.00034410  0.15851475
   0.33174136 -0.00034410  0.15851475
   0.00034410  0.33208546  0.15851475
   0.00034410  0.66825764  0.15851475
   0.33174136  0.33208546  0.15851475
   0.66791354  0.66825764  0.15851475
   0.66666600  0.33333300  0.16812769
   0.33333300  0.66666600  0.14678464
   0.16663813  0.33327727  0.40946677
   0.33322713  0.16661307  0.40949400
   0.16663813  0.83336087  0.40946677
   0.33333300  0.66666600  0.40947639
   0.66666600  0.33333300  0.40950713
   0.83338593  0.16661307  0.40949400
   0.66672173  0.83336087  0.40946677
   0.83338593  0.66677187  0.40949400
Direct configuration=    46
   0.66791319 -0.00034030  0.15853114
   0.33174551 -0.00034030  0.15853114
   0.00034030  0.33208581  0.15853114
   0.00034030  0.66825349  0.15853114
   0.33174551  0.33208581  0.15853114
   0.66791319  0.66825349  0.15853114
   0.66666600  0.33333300  0.16816560
   0.33333300  0.66666600  0.14689495
   0.16664351  0.33328801  0.40943239
   0.33324750  0.16662325  0.40946406
   0.16664351  0.83335549  0.40943239
   0.33333300  0.66666600  0.40944332
   0.66666600  0.33333300  0.40948662
   0.83337575  0.16662325  0.40946406
   0.66671099  0.83335549  0.40943239
   0.83337575  0.66675150  0.40946406
Direct configuration=    47
   0.66791212 -0.00032891  0.15858028
   0.33175797 -0.00032891  0.15858028
   0.00032891  0.33208688  0.15858028
   0.00032891  0.66824103  0.15858028
   0.33175797  0.33208688  0.15858028
   0.66791212  0.66824103  0.15858028
   0.66666600  0.33333300  0.16827933
   0.33333300  0.66666600  0.14722590
   0.16665963  0.33332025  0.40932925
   0.33330859  0.16665379  0.40937427
   0.16665963  0.83333937  0.40932925
   0.33333300  0.66666600  0.40934410
   0.66666600  0.33333300  0.40942510