  16  16   1  16
  0.2012733E+02  0.4979000E-09  0.4979000E-09  0.1500000E-08  0.5000000E-15
  1.000000000000000E-004
  CAR 
 BS                                      
      9.76802775    -21.09479463  301     -0.25441785      1.00000000
    -21.095  0.0000E+00  0.0000E+00
    -20.992  0.0000E+00  0.0000E+00
    -20.889  0.0000E+00  0.0000E+00
    -20.786  0.0000E+00  0.0000E+00
    -20.683  0.0000E+00  0.0000E+00
    -20.580  0.0000E+00  0.0000E+00
    -20.478  0.0000E+00  0.0000E+00
    -20.375  0.0000E+00  0.0000E+00
    -20.272  0.1012E-15  0.1041E-16
    -20.169  0.7497E-11  0.7713E-12
    -20.066  0.6624E-07  0.6815E-08
    -19.963  0.7719E-04  0.7948E-05
    -19.860  0.1255E-01  0.1299E-02
    -19.757  0.3157E+00  0.3378E-01
    -19.655  0.1480E+01  0.1860E+00
    -19.552  0.1838E+01  0.3751E+00
    -19.449  0.1271E+01  0.5059E+00
    -19.346  0.9674E+00  0.6054E+00
    -19.243  0.8209E+00  0.6899E+00
    -19.140  0.7280E+00  0.7648E+00
    -19.037  0.6617E+00  0.8328E+00
    -18.934  0.6111E+00  0.8957E+00
    -18.832  0.5709E+00  0.9544E+00
    -18.729  0.5379E+00  0.1010E+01
    -18.626  0.5102E+00  0.1062E+01
    -18.523  0.4866E+00  0.1112E+01
    -18.420  0.4886E+00  0.1163E+01
    -18.317  0.1027E+01  0.1268E+01
    -18.214  0.3189E+01  0.1596E+01
    -18.111  0.3879E+01  0.1995E+01
    -18.009  0.2801E+01  0.2284E+01
    -17.906  0.2218E+01  0.2512E+01
    -17.803  0.1933E+01  0.2711E+01
    -17.700  0.1572E+01  0.2872E+01
    -17.597  0.1216E+01  0.2997E+01
    -17.494  0.1097E+01  0.3110E+01
    -17.391  0.1046E+01  0.3218E+01
    -17.288  0.1005E+01  0.3321E+01
    -17.186  0.9694E+00  0.3421E+01
    -17.083  0.9383E+00  0.3518E+01
    -16.980  0.9107E+00  0.3611E+01
    -16.877  0.8861E+00  0.3702E+01
    -16.774  0.8639E+00  0.3791E+01
    -16.671  0.8439E+00  0.3878E+01
    -16.568  0.8256E+00  0.3963E+01
    -16.465  0.8090E+00  0.4046E+01
    -16.362  0.7937E+00  0.4128E+01
    -16.260  0.7799E+00  0.4208E+01
    -16.157  0.7840E+00  0.4289E+01
    -16.054  0.1147E+01  0.4407E+01
    -15.951  0.2458E+01  0.4660E+01
    -15.848  0.2775E+01  0.4945E+01
    -15.745  0.2145E+01  0.5166E+01
    -15.642  0.1855E+01  0.5357E+01
    -15.539  0.2139E+01  0.5577E+01
    -15.437  0.3438E+01  0.5930E+01
    -15.334  0.3639E+01  0.6305E+01
    -15.231  0.3223E+01  0.6636E+01
    -15.128  0.3930E+01  0.7041E+01
    -15.025  0.4167E+01  0.7469E+01
    -14.922  0.3396E+01  0.7819E+01
    -14.819  0.3052E+01  0.8133E+01
    -14.716  0.3167E+01  0.8459E+01
    -14.614  0.3859E+01  0.8856E+01
    -14.511  0.4168E+01  0.9284E+01
    -14.408  0.3675E+01  0.9662E+01
    -14.305  0.3451E+01  0.1002E+02
    -14.202  0.2008E+01  0.1022E+02
    -14.099  0.1279E+01  0.1036E+02
    -13.996  0.1140E+01  0.1047E+02
    -13.893  0.1076E+01  0.1058E+02
    -13.791  0.1030E+01  0.1069E+02
    -13.688  0.9969E+00  0.1079E+02
    -13.585  0.1038E+01  0.1090E+02
    -13.482  0.1876E+01  0.1109E+02
    -13.379  0.3516E+01  0.1145E+02
    -13.276  0.3321E+01  0.1180E+02
    -13.173  0.2664E+01  0.1207E+02
    -13.070  0.2414E+01  0.1232E+02
    -12.968  0.2348E+01  0.1256E+02
    -12.865  0.2396E+01  0.1281E+02
    -12.762  0.2570E+01  0.1307E+02
    -12.659  0.3528E+01  0.1343E+02
    -12.556  0.3865E+01  0.1383E+02
    -12.453  0.3033E+01  0.1414E+02
    -12.350  0.2627E+01  0.1441E+02
    -12.247  0.2502E+01  0.1467E+02
    -12.145  0.2538E+01  0.1493E+02
    -12.042  0.3098E+01  0.1525E+02
    -11.939  0.3860E+01  0.1565E+02
    -11.836  0.3542E+01  0.1601E+02
    -11.733  0.3406E+01  0.1636E+02
    -11.630  0.3505E+01  0.1672E+02
    -11.527  0.2412E+01  0.1697E+02
    -11.424  0.1522E+01  0.1713E+02
    -11.322  0.1417E+01  0.1727E+02
    -11.219  0.1434E+01  0.1742E+02
    -11.116  0.1478E+01  0.1757E+02
    -11.013  0.1581E+01  0.1774E+02
    -10.910  0.1869E+01  0.1793E+02
    -10.807  0.2565E+01  0.1819E+02
    -10.704  0.4177E+01  0.1862E+02
    -10.601  0.4193E+01  0.1905E+02
    -10.499  0.2541E+01  0.1931E+02
    -10.396  0.1877E+01  0.1951E+02
    -10.293  0.1754E+01  0.1969E+02
    -10.190  0.1698E+01  0.1986E+02
    -10.087  0.1656E+01  0.2003E+02
     -9.984  0.1635E+01  0.2020E+02
     -9.881  0.1616E+01  0.2037E+02
     -9.778  0.1607E+01  0.2053E+02
     -9.676  0.1844E+01  0.2072E+02
     -9.573  0.3199E+01  0.2105E+02
     -9.470  0.4975E+01  0.2156E+02
     -9.367  0.5039E+01  0.2208E+02
     -9.264  0.3897E+01  0.2248E+02
     -9.161  0.3852E+01  0.2288E+02
     -9.058  0.4024E+01  0.2329E+02
     -8.955  0.3636E+01  0.2367E+02
     -8.853  0.2982E+01  0.2397E+02
     -8.750  0.2747E+01  0.2426E+02
     -8.647  0.2725E+01  0.2454E+02
     -8.544  0.2750E+01  0.2482E+02
     -8.441  0.2823E+01  0.2511E+02
     -8.338  0.3000E+01  0.2542E+02
     -8.235  0.3323E+01  0.2576E+02
     -8.132  0.3206E+01  0.2609E+02
     -8.030  0.3627E+01  0.2646E+02
     -7.927  0.5686E+01  0.2705E+02
     -7.824  0.7973E+01  0.2787E+02
     -7.721  0.8958E+01  0.2879E+02
     -7.618  0.6354E+01  0.2944E+02
     -7.515  0.4848E+01  0.2994E+02
     -7.412  0.3780E+01  0.3033E+02
     -7.309  0.3310E+01  0.3067E+02
     -7.207  0.2976E+01  0.3098E+02
     -7.104  0.2947E+01  0.3128E+02
     -7.001  0.4060E+01  0.3170E+02
     -6.898  0.6534E+01  0.3237E+02
     -6.795  0.7874E+01  0.3318E+02
     -6.692  0.8920E+01  0.3410E+02
     -6.589  0.7414E+01  0.3486E+02
     -6.486  0.5675E+01  0.3545E+02
     -6.384  0.5234E+01  0.3598E+02
     -6.281  0.5303E+01  0.3653E+02
     -6.178  0.5577E+01  0.3710E+02
     -6.075  0.5099E+01  0.3763E+02
     -5.972  0.4311E+01  0.3807E+02
     -5.869  0.3982E+01  0.3848E+02
     -5.766  0.3738E+01  0.3887E+02
     -5.663  0.3339E+01  0.3921E+02
     -5.561  0.3184E+01  0.3954E+02
     -5.458  0.3654E+01  0.3991E+02
     -5.355  0.3978E+01  0.4032E+02
     -5.252  0.3190E+01  0.4065E+02
     -5.149  0.3454E+01  0.4100E+02
     -5.046  0.3698E+01  0.4139E+02
     -4.943  0.3926E+01  0.4179E+02
     -4.840  0.3507E+01  0.4215E+02
     -4.737  0.3230E+01  0.4248E+02
     -4.635  0.3081E+01  0.4280E+02
     -4.532  0.3137E+01  0.4312E+02
     -4.429  0.3772E+01  0.4351E+02
     -4.326  0.4672E+01  0.4399E+02
     -4.223  0.4226E+01  0.4443E+02
     -4.120  0.4274E+01  0.4487E+02
     -4.017  0.5238E+01  0.4540E+02
     -3.914  0.5339E+01  0.4595E+02
     -3.812  0.4851E+01  0.4645E+02
     -3.709  0.5609E+01  0.4703E+02
     -3.606  0.5605E+01  0.4761E+02
     -3.503  0.4461E+01  0.4806E+02
     -3.400  0.3963E+01  0.4847E+02
     -3.297  0.2497E+01  0.4873E+02
     -3.194  0.2322E+01  0.4897E+02
     -3.091  0.3904E+01  0.4937E+02
     -2.989  0.4709E+01  0.4985E+02
     -2.886  0.4546E+01  0.5032E+02
     -2.783  0.5616E+01  0.5090E+02
     -2.680  0.5755E+01  0.5149E+02
     -2.577  0.3498E+01  0.5185E+02
     -2.474  0.2420E+01  0.5210E+02
     -2.371  0.2157E+01  0.5232E+02
     -2.268  0.2045E+01  0.5253E+02
     -2.166  0.2016E+01  0.5274E+02
     -2.063  0.1977E+01  0.5294E+02
     -1.960  0.1707E+01  0.5312E+02
     -1.857  0.1692E+01  0.5329E+02
     -1.754  0.2149E+01  0.5351E+02
     -1.651  0.2510E+01  0.5377E+02
     -1.548  0.1936E+01  0.5397E+02
     -1.445  0.1294E+01  0.5411E+02
     -1.343  0.1299E+01  0.5424E+02
     -1.240  0.1785E+01  0.5442E+02
     -1.137  0.2042E+01  0.5463E+02
     -1.034  0.1630E+01  0.5480E+02
     -0.931  0.1400E+01  0.5494E+02
     -0.828  0.1323E+01  0.5508E+02
     -0.725  0.1292E+01  0.5521E+02
     -0.622  0.1291E+01  0.5535E+02
     -0.520  0.1352E+01  0.5549E+02
     -0.417  0.1557E+01  0.5565E+02
     -0.314  0.1895E+01  0.5584E+02
     -0.211  0.2924E+01  0.5614E+02
     -0.108  0.3058E+01  0.5646E+02
     -0.005  0.2195E+01  0.5668E+02
      0.098  0.1888E+01  0.5688E+02
      0.201  0.1980E+01  0.5708E+02
      0.303  0.1950E+01  0.5728E+02
      0.406  0.1445E+01  0.5743E+02
      0.509  0.1281E+01  0.5756E+02
      0.612  0.1664E+01  0.5773E+02
      0.715  0.2798E+01  0.5802E+02
      0.818  0.2894E+01  0.5832E+02
      0.921  0.1800E+01  0.5850E+02
      1.024  0.1262E+01  0.5863E+02
      1.126  0.1788E+01  0.5882E+02
      1.229  0.2922E+01  0.5912E+02
      1.332  0.3637E+01  0.5949E+02
      1.435  0.4403E+01  0.5994E+02
      1.538  0.4594E+01  0.6042E+02
      1.641  0.3896E+01  0.6082E+02
      1.744  0.3596E+01  0.6119E+02
      1.847  0.3272E+01  0.6152E+02
      1.949  0.3113E+01  0.6184E+02
      2.052  0.3084E+01  0.6216E+02
      2.155  0.3195E+01  0.6249E+02
      2.258  0.3563E+01  0.6286E+02
      2.361  0.3408E+01  0.6321E+02
      2.464  0.2431E+01  0.6346E+02
      2.567  0.2107E+01  0.6367E+02
      2.670  0.2112E+01  0.6389E+02
      2.772  0.2189E+01  0.6412E+02
      2.875  0.2458E+01  0.6437E+02
      2.978  0.3433E+01  0.6472E+02
      3.081  0.3812E+01  0.6511E+02
      3.184  0.3021E+01  0.6543E+02
      3.287  0.2661E+01  0.6570E+02
      3.390  0.2585E+01  0.6597E+02
      3.493  0.2792E+01  0.6625E+02
      3.595  0.4362E+01  0.6670E+02
      3.698  0.5924E+01  0.6731E+02
      3.801  0.5033E+01  0.6783E+02
      3.904  0.4516E+01  0.6829E+02
      4.007  0.5358E+01  0.6884E+02
      4.110  0.5442E+01  0.6940E+02
      4.213  0.3988E+01  0.6981E+02
      4.316  0.4100E+01  0.7024E+02
      4.418  0.5123E+01  0.7076E+02
      4.521  0.6074E+01  0.7139E+02
      4.624  0.6286E+01  0.7203E+02
      4.727  0.7256E+01  0.7278E+02
      4.830  0.6430E+01  0.7344E+02
      4.933  0.5380E+01  0.7400E+02
      5.036  0.6093E+01  0.7462E+02
      5.139  0.7392E+01  0.7538E+02
      5.241  0.7207E+01  0.7612E+02
      5.344  0.6540E+01  0.7680E+02
      5.447  0.4943E+01  0.7731E+02
      5.550  0.5408E+01  0.7786E+02
      5.653  0.6932E+01  0.7858E+02
      5.756  0.6553E+01  0.7925E+02
      5.859  0.5816E+01  0.7985E+02
      5.962  0.5857E+01  0.8045E+02
      6.064  0.5383E+01  0.8100E+02
      6.167  0.5510E+01  0.8157E+02
      6.270  0.6553E+01  0.8225E+02
      6.373  0.6904E+01  0.8296E+02
      6.476  0.6632E+01  0.8364E+02
      6.579  0.6923E+01  0.8435E+02
      6.682  0.8633E+01  0.8524E+02
      6.785  0.9344E+01  0.8620E+02
      6.887  0.8850E+01  0.8711E+02
      6.990  0.9335E+01  0.8807E+02
      7.093  0.9812E+01  0.8908E+02
      7.196  0.7770E+01  0.8988E+02
      7.299  0.7223E+01  0.9062E+02
      7.402  0.7250E+01  0.9137E+02
      7.505  0.6285E+01  0.9201E+02
      7.608  0.5332E+01  0.9256E+02
      7.711  0.7505E+01  0.9334E+02
      7.813  0.9372E+01  0.9430E+02
      7.916  0.6498E+01  0.9497E+02
      8.019  0.4167E+01  0.9540E+02
      8.122  0.2999E+01  0.9571E+02
      8.225  0.1756E+01  0.9589E+02
      8.328  0.8695E+00  0.9598E+02
      8.431  0.2158E+00  0.9600E+02
      8.534  0.2404E-01  0.9600E+02
      8.636  0.9227E-03  0.9600E+02
      8.739  0.6405E-05  0.9600E+02
      8.842  0.6188E-08  0.9600E+02
      8.945  0.7730E-12  0.9600E+02
      9.048  0.1124E-16  0.9600E+02
      9.151  0.0000E+00  0.9600E+02
      9.254  0.0000E+00  0.9600E+02
      9.357  0.0000E+00  0.9600E+02
      9.459  0.0000E+00  0.9600E+02
      9.562  0.0000E+00  0.9600E+02
      9.665  0.0000E+00  0.9600E+02
      9.768  0.0000E+00  0.9600E+02
      9.76802775    -21.09479463  301     -0.25441785      1.00000000
    -21.095  0.0000E+00  0.0000E+00  0.0000E+00  0.0000E+00  0.0000E+00  0.0000E+00  0.0000E+00  0.0000E+00  0.0000E+00
    -20.992  0.0000E+00  0.0000E+00  0.0000E+00  0.0000E+00  0.0000E+00  0.0000E+00  0.0000E+00  0.0000E+00  0.0000E+00
    -20.889  0.0000E+00  0.0000E+00  0.0000E+00  0.0000E+00  0.0000E+00  0.0000E+00  0.0000E+00  0.0000E+00  0.0000E+00
    -20.786  0.0000E+00  0.0000E+00  0.0000E+00  0.0000E+00  0.0000E+00  0.0000E+00  0.0000E+00  0.0000E+00  0.0000E+00
    -20.683  0.0000E+00  0.0000E+00  0.0000E+00  0.0000E+00  0.0000E+00  0.0000E+00  0.0000E+00  0.0000E+00  0.0000E+00
    -20.580  0.0000E+00  0.0000E+00  0.0000E+00  0.0000E+00  0.0000E+00  0.0000E+00  0.0000E+00  0.0000E+00  0.0000E+00
    -20.478  0.0000E+00  0.0000E+00  0.0000E+00  0.0000E+00  0.0000E+00  0.0000E+00  0.0000E+00  0.0000E+00  0.0000E+00
    -20.375  0.0000E+00  0.0000E+00  0.0000E+00  0.0000E+00  0.0000E+00  0.0000E+00  0.0000E+00  0.0000E+00  0.0000E+00
    -20.272  0.1862E-20  0.2383E-22  0.2058E-21  0.3704E-22  0.0000E+00  0.0000E+00  0.0000E+00  0.0000E+00  0.0000E+00
    -20.169  0.1380E-15  0.1790E-17  0.1524E-16  0.2749E-17  0.0000E+00  0.0000E+00  0.0000E+00  0.0000E+00  0.0000E+00
    -20.066  0.1219E-11  0.1596E-13  0.1346E-12  0.2431E-13  0.0000E+00  0.0000E+00  0.0000E+00  0.0000E+00  0.0000E+00
    -19.963  0.1420E-08  0.1888E-10  0.1568E-09  0.2836E-10  0.0000E+00  0.0000E+00  0.0000E+00  0.0000E+00  0.0000E+00
    -19.860  0.2306E-06  0.3148E-08  0.2548E-07  0.4621E-08  0.0000E+00  0.0000E+00  0.0000E+00  0.0000E+00  0.0000E+00
    -19.757  0.5794E-05  0.8317E-07  0.6403E-06  0.1168E-06  0.0000E+00  0.0000E+00  0.0000E+00  0.0000E+00  0.0000E+00
    -19.655  0.2707E-04  0.4344E-06  0.2993E-05  0.5541E-06  0.0000E+00  0.0000E+00  0.0000E+00  0.0000E+00  0.0000E+00
    -19.552  0.3332E-04  0.6954E-06  0.3687E-05  0.7111E-06  0.0000E+00  0.0000E+00  0.0000E+00  0.0000E+00  0.0000E+00
    -19.449  0.2256E-04  0.7190E-06  0.2499E-05  0.5267E-06  0.0000E+00  0.0000E+00  0.0000E+00  0.0000E+00  0.0000E+00
    -19.346  0.1675E-04  0.7561E-06  0.1857E-05  0.4317E-06  0.0000E+00  0.0000E+00  0.0000E+00  0.0000E+00  0.0000E+00
    -19.243  0.1388E-04  0.8077E-06  0.1540E-05  0.3911E-06  0.0000E+00  0.0000E+00  0.0000E+00  0.0000E+00  0.0000E+00
    -19.140  0.1202E-04  0.8600E-06  0.1336E-05  0.3685E-06  0.0000E+00  0.0000E+00  0.0000E+00  0.0000E+00  0.0000E+00
    -19.037  0.1066E-04  0.9103E-06  0.1187E-05  0.3541E-06  0.0000E+00  0.0000E+00  0.0000E+00  0.0000E+00  0.0000E+00
    -18.934  0.9603E-05  0.9580E-06  0.1072E-05  0.3441E-06  0.0000E+00  0.0000E+00  0.0000E+00  0.0000E+00  0.0000E+00
    -18.832  0.8745E-05  0.1003E-05  0.9785E-06  0.3373E-06  0.0000E+00  0.0000E+00  0.0000E+00  0.0000E+00  0.0000E+00
    -18.729  0.8025E-05  0.1046E-05  0.9013E-06  0.3324E-06  0.0000E+00  0.0000E+00  0.0000E+00  0.0000E+00  0.0000E+00
    -18.626  0.7406E-05  0.1086E-05  0.8357E-06  0.3287E-06  0.0000E+00  0.0000E+00  0.0000E+00  0.0000E+00  0.0000E+00
    -18.523  0.6865E-05  0.1126E-05  0.7789E-06  0.3261E-06  0.0000E+00  0.0000E+00  0.0000E+00  0.0000E+00  0.0000E+00
    -18.420  0.6629E-05  0.1234E-05  0.7585E-06  0.3468E-06  0.0000E+00  0.0000E+00  0.0000E+00  0.0000E+00  0.0000E+00
    -18.317  0.1269E-04  0.2884E-05  0.1503E-05  0.9206E-06  0.0000E+00  0.0000E+00  0.0000E+00  0.0000E+00  0.0000E+00
    -18.214  0.3889E-04  0.8919E-05  0.4681E-05  0.3215E-05  0.0000E+00  0.0000E+00  0.0000E+00  0.0000E+00  0.0000E+00
    -18.111  0.4804E-04  0.1068E-04  0.5760E-05  0.4069E-05  0.0000E+00  0.0000E+00  0.0000E+00  0.0000E+00  0.0000E+00
    -18.009  0.3465E-04  0.7846E-05  0.4097E-05  0.3073E-05  0.0000E+00  0.0000E+00  0.0000E+00  0.0000E+00  0.0000E+00
    -17.906  0.2735E-04  0.6375E-05  0.3175E-05  0.2569E-05  0.0000E+00  0.0000E+00  0.0000E+00  0.0000E+00  0.0000E+00
    -17.803  0.2458E-04  0.5357E-05  0.2745E-05  0.2494E-05  0.0000E+00  0.0000E+00  0.0000E+00  0.0000E+00  0.0000E+00
    -17.700  0.2146E-04  0.3515E-05  0.2236E-05  0.2466E-05  0.0000E+00  0.0000E+00  0.0000E+00  0.0000E+00  0.0000E+00
    -17.597  0.1728E-04  0.2239E-05  0.1697E-05  0.2202E-05  0.0000E+00  0.0000E+00  0.0000E+00  0.0000E+00  0.0000E+00
    -17.494  0.1552E-04  0.2126E-05  0.1495E-05  0.2057E-05  0.0000E+00  0.0000E+00  0.0000E+00  0.0000E+00  0.0000E+00
    -17.391  0.1458E-04  0.2211E-05  0.1394E-05  0.1980E-05  0.0000E+00  0.0000E+00  0.0000E+00  0.0000E+00  0.0000E+00
    -17.288  0.1379E-04  0.2299E-05  0.1311E-05  0.1919E-05  0.0000E+00  0.0000E+00  0.0000E+00  0.0000E+00  0.0000E+00
    -17.186  0.1310E-04  0.2390E-05  0.1236E-05  0.1871E-05  0.0000E+00  0.0000E+00  0.0000E+00  0.0000E+00  0.0000E+00
    -17.083  0.1249E-04  0.2484E-05  0.1170E-05  0.1833E-05  0.0000E+00  0.0000E+00  0.0000E+00  0.0000E+00  0.0000E+00
    -16.980  0.1197E-04  0.2585E-05  0.1109E-05  0.1802E-05  0.0000E+00  0.0000E+00  0.0000E+00  0.0000E+00  0.0000E+00
    -16.877  0.1151E-04  0.2695E-05  0.1053E-05  0.1778E-05  0.0000E+00  0.0000E+00  0.0000E+00  0.0000E+00  0.0000E+00
    -16.774  0.1113E-04  0.2818E-05  0.1001E-05  0.1761E-05  0.0000E+00  0.0000E+00  0.0000E+00  0.0000E+00  0.0000E+00
    -16.671  0.1084E-04  0.2960E-05  0.9535E-06  0.1750E-05  0.0000E+00  0.0000E+00  0.0000E+00  0.0000E+00  0.0000E+00
    -16.568  0.1066E-04  0.3130E-05  0.9092E-06  0.1748E-05  0.0000E+00  0.0000E+00  0.0000E+00  0.0000E+00  0.0000E+00
    -16.465  0.1067E-04  0.3343E-05  0.8679E-06  0.1758E-05  0.0000E+00  0.0000E+00  0.0000E+00  0.0000E+00  0.0000E+00
    -16.362  0.1101E-04  0.3629E-05  0.8292E-06  0.1790E-05  0.0000E+00  0.0000E+00  0.0000E+00  0.0000E+00  0.0000E+00
    -16.260  0.2113E-04  0.4220E-05  0.7933E-06  0.2344E-05  0.0000E+00  0.0000E+00  0.0000E+00  0.0000E+00  0.0000E+00
    -16.157  0.1367E-02  0.3167E-04  0.7689E-06  0.7340E-04  0.0000E+00  0.0000E+00  0.0000E+00  0.0000E+00  0.0000E+00
    -16.054  0.3131E-01  0.6685E-03  0.9678E-06  0.1665E-02  0.0000E+00  0.0000E+00  0.0000E+00  0.0000E+00  0.0000E+00
    -15.951  0.1362E+00  0.3308E-02  0.2065E-05  0.7350E-02  0.0000E+00  0.0000E+00  0.0000E+00  0.0000E+00  0.0000E+00
    -15.848  0.1591E+00  0.5284E-02  0.3398E-05  0.8980E-02  0.0000E+00  0.0000E+00  0.0000E+00  0.0000E+00  0.0000E+00
    -15.745  0.1057E+00  0.5724E-02  0.4227E-05  0.6591E-02  0.0000E+00  0.0000E+00  0.0000E+00  0.0000E+00  0.0000E+00
    -15.642  0.7802E-01  0.6380E-02  0.5113E-05  0.5476E-02  0.0000E+00  0.0000E+00  0.0000E+00  0.0000E+00  0.0000E+00
    -15.539  0.6317E-01  0.7210E-02  0.6557E-05  0.5021E-02  0.0000E+00  0.0000E+00  0.0000E+00  0.0000E+00  0.0000E+00
    -15.437  0.5265E-01  0.8204E-02  0.9037E-05  0.4826E-02  0.0000E+00  0.0000E+00  0.0000E+00  0.0000E+00  0.0000E+00
    -15.334  0.4384E-01  0.9687E-02  0.1091E-04  0.4873E-02  0.0000E+00  0.0000E+00  0.0000E+00  0.0000E+00  0.0000E+00
    -15.231  0.3551E-01  0.1570E-01  0.1721E-04  0.6422E-02  0.0000E+00  0.0000E+00  0.0000E+00  0.0000E+00  0.0000E+00
    -15.128  0.2613E-01  0.3675E-01  0.4113E-04  0.1284E-01  0.0000E+00  0.0000E+00  0.0000E+00  0.0000E+00  0.0000E+00
    -15.025  0.1880E-01  0.4531E-01  0.5169E-04  0.1525E-01  0.0000E+00  0.0000E+00  0.0000E+00  0.0000E+00  0.0000E+00
    -14.922  0.1596E-01  0.3253E-01  0.3838E-04  0.1091E-01  0.0000E+00  0.0000E+00  0.0000E+00  0.0000E+00  0.0000E+00
    -14.819  0.1846E-01  0.2576E-01  0.3145E-04  0.9053E-02  0.0000E+00  0.0000E+00  0.0000E+00  0.0000E+00  0.0000E+00
    -14.716  0.5363E-01  0.2036E-01  0.2416E-04  0.1129E-01  0.0000E+00  0.0000E+00  0.0000E+00  0.0000E+00  0.0000E+00
    -14.614  0.1282E+00  0.1198E-01  0.1082E-04  0.1688E-01  0.0000E+00  0.0000E+00  0.0000E+00  0.0000E+00  0.0000E+00
    -14.511  0.2000E+00  0.9610E-02  0.4782E-05  0.2285E-01  0.0000E+00  0.0000E+00  0.0000E+00  0.0000E+00  0.0000E+00
    -14.408  0.3474E+00  0.1418E-01  0.5314E-05  0.3647E-01  0.0000E+00  0.0000E+00  0.0000E+00  0.0000E+00  0.0000E+00
    -14.305  0.4248E+00  0.1704E-01  0.6760E-05  0.4285E-01  0.0000E+00  0.0000E+00  0.0000E+00  0.0000E+00  0.0000E+00
    -14.202  0.1992E+00  0.1082E-01  0.7193E-05  0.2101E-01  0.0000E+00  0.0000E+00  0.0000E+00  0.0000E+00  0.0000E+00
    -14.099  0.8068E-01  0.8013E-02  0.8082E-05  0.9982E-02  0.0000E+00  0.0000E+00  0.0000E+00  0.0000E+00  0.0000E+00
    -13.996  0.6219E-01  0.8161E-02  0.9296E-05  0.8464E-02  0.0000E+00  0.0000E+00  0.0000E+00  0.0000E+00  0.0000E+00
    -13.893  0.5515E-01  0.8557E-02  0.1050E-04  0.7993E-02  0.0000E+00  0.0000E+00  0.0000E+00  0.0000E+00  0.0000E+00
    -13.791  0.5028E-01  0.8956E-02  0.1172E-04  0.7709E-02  0.0000E+00  0.0000E+00  0.0000E+00  0.0000E+00  0.0000E+00
    -13.688  0.4652E-01  0.9348E-02  0.1297E-04  0.7521E-02  0.0000E+00  0.0000E+00  0.0000E+00  0.0000E+00  0.0000E+00
    -13.585  0.4344E-01  0.9728E-02  0.1437E-04  0.7391E-02  0.0000E+00  0.0000E+00  0.0000E+00  0.0000E+00  0.0000E+00
    -13.482  0.4083E-01  0.1010E-01  0.1715E-04  0.7302E-02  0.0000E+00  0.0000E+00  0.0000E+00  0.0000E+00  0.0000E+00
    -13.379  0.3857E-01  0.1047E-01  0.2129E-04  0.7244E-02  0.0000E+00  0.0000E+00  0.0000E+00  0.0000E+00  0.0000E+00
    -13.276  0.3653E-01  0.1082E-01  0.2252E-04  0.7205E-02  0.0000E+00  0.0000E+00  0.0000E+00  0.0000E+00  0.0000E+00
    -13.173  0.3463E-01  0.1114E-01  0.2269E-04  0.7171E-02  0.0000E+00  0.0000E+00  0.0000E+00  0.0000E+00  0.0000E+00
    -13.070  0.3302E-01  0.1148E-01  0.2337E-04  0.7171E-02  0.0000E+00  0.0000E+00  0.0000E+00  0.0000E+00  0.0000E+00
    -12.968  0.3151E-01  0.1183E-01  0.2508E-04  0.7184E-02  0.0000E+00  0.0000E+00  0.0000E+00  0.0000E+00  0.0000E+00
    -12.865  0.3031E-01  0.1216E-01  0.2708E-04  0.7217E-02  0.0000E+00  0.0000E+00  0.0000E+00  0.0000E+00  0.0000E+00
    -12.762  0.4017E-01  0.1275E-01  0.2909E-04  0.8268E-02  0.0000E+00  0.0000E+00  0.0000E+00  0.0000E+00  0.0000E+00
    -12.659  0.1144E+00  0.1482E-01  0.3191E-04  0.1528E-01  0.0000E+00  0.0000E+00  0.0000E+00  0.0000E+00  0.0000E+00
    -12.556  0.1741E+00  0.1604E-01  0.3498E-04  0.2100E-01  0.0000E+00  0.0000E+00  0.0000E+00  0.0000E+00  0.0000E+00
    -12.453  0.1283E+00  0.1507E-01  0.3792E-04  0.1726E-01  0.0000E+00  0.0000E+00  0.0000E+00  0.0000E+00  0.0000E+00
    -12.350  0.9551E-01  0.1501E-01  0.4176E-04  0.1487E-01  0.0000E+00  0.0000E+00  0.0000E+00  0.0000E+00  0.0000E+00
    -12.247  0.8328E-01  0.1553E-01  0.4629E-04  0.1435E-01  0.0000E+00  0.0000E+00  0.0000E+00  0.0000E+00  0.0000E+00
    -12.145  0.8151E-01  0.1639E-01  0.5186E-04  0.1476E-01  0.0000E+00  0.0000E+00  0.0000E+00  0.0000E+00  0.0000E+00
    -12.042  0.1066E+00  0.1860E-01  0.6085E-04  0.1725E-01  0.0000E+00  0.0000E+00  0.0000E+00  0.0000E+00  0.0000E+00
    -11.939  0.1363E+00  0.2454E-01  0.8241E-04  0.2160E-01  0.0000E+00  0.0000E+00  0.0000E+00  0.0000E+00  0.0000E+00
    -11.836  0.9917E-01  0.3485E-01  0.1261E-03  0.2488E-01  0.0000E+00  0.0000E+00  0.0000E+00  0.0000E+00  0.0000E+00
    -11.733  0.6771E-01  0.4373E-01  0.1563E-03  0.3228E-01  0.0000E+00  0.0000E+00  0.0000E+00  0.0000E+00  0.0000E+00
    -11.630  0.6938E-01  0.4677E-01  0.1480E-03  0.4255E-01  0.0000E+00  0.0000E+00  0.0000E+00  0.0000E+00  0.0000E+00
    -11.527  0.5489E-01  0.3031E-01  0.9409E-04  0.2760E-01  0.0000E+00  0.0000E+00  0.0000E+00  0.0000E+00  0.0000E+00
    -11.424  0.3122E-01  0.1539E-01  0.5789E-04  0.1135E-01  0.0000E+00  0.0000E+00  0.0000E+00  0.0000E+00  0.0000E+00
    -11.322  0.2455E-01  0.1365E-01  0.6086E-04  0.8868E-02  0.0000E+00  0.0000E+00  0.0000E+00  0.0000E+00  0.0000E+00
    -11.219  0.2267E-01  0.1371E-01  0.6794E-04  0.8619E-02  0.0000E+00  0.0000E+00  0.0000E+00  0.0000E+00  0.0000E+00
    -11.116  0.2177E-01  0.1371E-01  0.7481E-04  0.8520E-02  0.0000E+00  0.0000E+00  0.0000E+00  0.0000E+00  0.0000E+00
    -11.013  0.2146E-01  0.1362E-01  0.8182E-04  0.8448E-02  0.0000E+00  0.0000E+00  0.0000E+00  0.0000E+00  0.0000E+00
    -10.910  0.2208E-01  0.1346E-01  0.8935E-04  0.8484E-02  0.0000E+00  0.0000E+00  0.0000E+00  0.0000E+00  0.0000E+00
    -10.807  0.2906E-01  0.1383E-01  0.9943E-04  0.1016E-01  0.0000E+00  0.0000E+00  0.0000E+00  0.0000E+00  0.0000E+00
    -10.704  0.4862E-01  0.1494E-01  0.1183E-03  0.1366E-01  0.0000E+00  0.0000E+00  0.0000E+00  0.0000E+00  0.0000E+00
    -10.601  0.5002E-01  0.1270E-01  0.1197E-03  0.1108E-01  0.0000E+00  0.0000E+00  0.0000E+00  0.0000E+00  0.0000E+00
    -10.499  0.2681E-01  0.8100E-02  0.8049E-04  0.7073E-02  0.0000E+00  0.0000E+00  0.0000E+00  0.0000E+00  0.0000E+00
    -10.396  0.1782E-01  0.6171E-02  0.6471E-04  0.6164E-02  0.0000E+00  0.0000E+00  0.0000E+00  0.0000E+00  0.0000E+00
    -10.293  0.1802E-01  0.5493E-02  0.6540E-04  0.6151E-02  0.0000E+00  0.0000E+00  0.0000E+00  0.0000E+00  0.0000E+00
    -10.190  0.1894E-01  0.4908E-02  0.6660E-04  0.6179E-02  0.0000E+00  0.0000E+00  0.0000E+00  0.0000E+00  0.0000E+00
    -10.087  0.1982E-01  0.4372E-02  0.6701E-04  0.6177E-02  0.0000E+00  0.0000E+00  0.0000E+00  0.0000E+00  0.0000E+00
     -9.984  0.2072E-01  0.3920E-02  0.6678E-04  0.6151E-02  0.0000E+00  0.0000E+00  0.0000E+00  0.0000E+00  0.0000E+00
     -9.881  0.2151E-01  0.3566E-02  0.6623E-04  0.6086E-02  0.0000E+00  0.0000E+00  0.0000E+00  0.0000E+00  0.0000E+00
     -9.778  0.2233E-01  0.3486E-02  0.6735E-04  0.6402E-02  0.0000E+00  0.0000E+00  0.0000E+00  0.0000E+00  0.0000E+00
     -9.676  0.2715E-01  0.8869E-02  0.1282E-03  0.1756E-01  0.0000E+00  0.0000E+00  0.0000E+00  0.0000E+00  0.0000E+00
     -9.573  0.4986E-01  0.4833E-01  0.5112E-03  0.7220E-01  0.0000E+00  0.0000E+00  0.0000E+00  0.0000E+00  0.0000E+00
     -9.470  0.1095E+00  0.1129E+00  0.1017E-02  0.1180E+00  0.0000E+00  0.0000E+00  0.0000E+00  0.0000E+00  0.0000E+00
     -9.367  0.1931E+00  0.1083E+00  0.8930E-03  0.9272E-01  0.0000E+00  0.0000E+00  0.0000E+00  0.0000E+00  0.0000E+00
     -9.264  0.1659E+00  0.6857E-01  0.5866E-03  0.5766E-01  0.0000E+00  0.0000E+00  0.0000E+00  0.0000E+00  0.0000E+00
     -9.161  0.1198E+00  0.6289E-01  0.5904E-03  0.4861E-01  0.0000E+00  0.0000E+00  0.0000E+00  0.0000E+00  0.0000E+00
     -9.058  0.9374E-01  0.9538E-01  0.9311E-03  0.5451E-01  0.0000E+00  0.0000E+00  0.0000E+00  0.0000E+00  0.0000E+00
     -8.955  0.6445E-01  0.1242E+00  0.1230E-02  0.5555E-01  0.0000E+00  0.0000E+00  0.0000E+00  0.0000E+00  0.0000E+00
     -8.853  0.4737E-01  0.1078E+00  0.1089E-02  0.4133E-01  0.0000E+00  0.0000E+00  0.0000E+00  0.0000E+00  0.0000E+00
     -8.750  0.3997E-01  0.1010E+00  0.1072E-02  0.3603E-01  0.0000E+00  0.0000E+00  0.0000E+00  0.0000E+00  0.0000E+00
     -8.647  0.3484E-01  0.1044E+00  0.1177E-02  0.3624E-01  0.0000E+00  0.0000E+00  0.0000E+00  0.0000E+00  0.0000E+00
     -8.544  0.3051E-01  0.1099E+00  0.1326E-02  0.3732E-01  0.0000E+00  0.0000E+00  0.0000E+00  0.0000E+00  0.0000E+00
     -8.441  0.2668E-01  0.1183E+00  0.1553E-02  0.3932E-01  0.0000E+00  0.0000E+00  0.0000E+00  0.0000E+00  0.0000E+00
     -8.338  0.2312E-01  0.1347E+00  0.1989E-02  0.4389E-01  0.0000E+00  0.0000E+00  0.0000E+00  0.0000E+00  0.0000E+00
     -8.235  0.1978E-01  0.1605E+00  0.2708E-02  0.5131E-01  0.0000E+00  0.0000E+00  0.0000E+00  0.0000E+00  0.0000E+00
     -8.132  0.1643E-01  0.1279E+00  0.2399E-02  0.3879E-01  0.0000E+00  0.0000E+00  0.0000E+00  0.0000E+00  0.0000E+00
     -8.030  0.1295E-01  0.8183E-01  0.4353E-02  0.2259E-01  0.0000E+00  0.0000E+00  0.0000E+00  0.0000E+00  0.0000E+00
     -7.927  0.8968E-02  0.1278E+00  0.9619E-02  0.3800E-01  0.0000E+00  0.0000E+00  0.0000E+00  0.0000E+00  0.0000E+00
     -7.824  0.7199E-02  0.1556E+00  0.8804E-02  0.4890E-01  0.0000E+00  0.0000E+00  0.0000E+00  0.0000E+00  0.0000E+00
     -7.721  0.2078E-01  0.1508E+00  0.6829E-02  0.6907E-01  0.0000E+00  0.0000E+00  0.0000E+00  0.0000E+00  0.0000E+00
     -7.618  0.4347E-01  0.1874E+00  0.6374E-02  0.1146E+00  0.0000E+00  0.0000E+00  0.0000E+00  0.0000E+00  0.0000E+00
     -7.515  0.4092E-01  0.1917E+00  0.5819E-02  0.1116E+00  0.0000E+00  0.0000E+00  0.0000E+00  0.0000E+00  0.0000E+00
     -7.412  0.3888E-01  0.9912E-01  0.4127E-02  0.1040E+00  0.0000E+00  0.0000E+00  0.0000E+00  0.0000E+00  0.0000E+00
     -7.309  0.3754E-01  0.5322E-01  0.3197E-02  0.1043E+00  0.0000E+00  0.0000E+00  0.0000E+00  0.0000E+00  0.0000E+00
     -7.207  0.3144E-01  0.4532E-01  0.2769E-02  0.8682E-01  0.0000E+00  0.0000E+00  0.0000E+00  0.0000E+00  0.0000E+00
     -7.104  0.2721E-01  0.4488E-01  0.2504E-02  0.7975E-01  0.0000E+00  0.0000E+00  0.0000E+00  0.0000E+00  0.0000E+00
     -7.001  0.2415E-01  0.4764E-01  0.2313E-02  0.8006E-01  0.0000E+00  0.0000E+00  0.0000E+00  0.0000E+00  0.0000E+00
     -6.898  0.2123E-01  0.5202E-01  0.2114E-02  0.8509E-01  0.0000E+00  0.0000E+00  0.0000E+00  0.0000E+00  0.0000E+00
     -6.795  0.1796E-01  0.5675E-01  0.3093E-02  0.9981E-01  0.0000E+00  0.0000E+00  0.0000E+00  0.0000E+00  0.0000E+00
     -6.692  0.1577E-01  0.7897E-01  0.2208E-01  0.1465E+00  0.0000E+00  0.0000E+00  0.0000E+00  0.0000E+00  0.0000E+00
     -6.589  0.1174E-01  0.9791E-01  0.7156E-01  0.1676E+00  0.0000E+00  0.0000E+00  0.0000E+00  0.0000E+00  0.0000E+00
     -6.486  0.7084E-02  0.1064E+00  0.7373E-01  0.1445E+00  0.0000E+00  0.0000E+00  0.0000E+00  0.0000E+00  0.0000E+00
     -6.384  0.4037E-02  0.1020E+00  0.5041E-01  0.1484E+00  0.0000E+00  0.0000E+00  0.0000E+00  0.0000E+00  0.0000E+00
     -6.281  0.1994E-02  0.4264E-01  0.3969E-01  0.7704E-01  0.0000E+00  0.0000E+00  0.0000E+00  0.0000E+00  0.0000E+00
     -6.178  0.1569E-02  0.6725E-02  0.3867E-01  0.1653E-01  0.0000E+00  0.0000E+00  0.0000E+00  0.0000E+00  0.0000E+00
     -6.075  0.1133E-02  0.1686E-02  0.3598E-01  0.4068E-02  0.0000E+00  0.0000E+00  0.0000E+00  0.0000E+00  0.0000E+00
     -5.972  0.7312E-03  0.1345E-02  0.3087E-01  0.1519E-02  0.0000E+00  0.0000E+00  0.0000E+00  0.0000E+00  0.0000E+00
     -5.869  0.5131E-03  0.1204E-02  0.2839E-01  0.1051E-02  0.0000E+00  0.0000E+00  0.0000E+00  0.0000E+00  0.0000E+00
     -5.766  0.3354E-03  0.1082E-02  0.2730E-01  0.1047E-02  0.0000E+00  0.0000E+00  0.0000E+00  0.0000E+00  0.0000E+00
     -5.663  0.1991E-03  0.8493E-03  0.2223E-01  0.1089E-02  0.0000E+00  0.0000E+00  0.0000E+00  0.0000E+00  0.0000E+00
     -5.561  0.1965E-03  0.5179E-03  0.1534E-01  0.6652E-03  0.0000E+00  0.0000E+00  0.0000E+00  0.0000E+00  0.0000E+00
     -5.458  0.2184E-03  0.4465E-03  0.1682E-01  0.3904E-03  0.0000E+00  0.0000E+00  0.0000E+00  0.0000E+00  0.0000E+00
     -5.355  0.4406E-03  0.5959E-03  0.2214E-01  0.5577E-03  0.0000E+00  0.0000E+00  0.0000E+00  0.0000E+00  0.0000E+00
     -5.252  0.3105E-02  0.7917E-03  0.1585E-01  0.1257E-02  0.0000E+00  0.0000E+00  0.0000E+00  0.0000E+00  0.0000E+00
     -5.149  0.1884E-01  0.1939E-02  0.9091E-02  0.4826E-02  0.0000E+00  0.0000E+00  0.0000E+00  0.0000E+00  0.0000E+00
     -5.046  0.8797E-01  0.7998E-02  0.1138E-01  0.2215E-01  0.0000E+00  0.0000E+00  0.0000E+00  0.0000E+00  0.0000E+00