BS                                      
           1
     4.311940    2.489500    0.000000
    -4.311940    2.489500    0.000000
     0.000000    0.000000   15.000000
   B    C 
     8     8
Direct configuration=     1
   0.67974364  0.98897598  0.09938087
   0.34186761  0.98905877  0.09970804
   0.01102402  0.32025536  0.09938087
   0.01094123  0.65813139  0.09970804
   0.34184451  0.32011387  0.09877867
   0.67988513  0.65815449  0.09877867
   0.67721014  0.32278886  0.08910391
   0.34400903  0.65598997  0.11064199
   0.26704188  0.23304910  0.33613332
   0.43360481  0.06638844  0.33618854
   0.26697297  0.73302603  0.33629622
   0.43362369  0.56637531  0.33621652
   0.76695815  0.23304085  0.33611691
   0.93359462  0.06640438  0.33604559
   0.76694990  0.73295712  0.33613332
   0.93361056  0.56639419  0.33618854
