Lattice                                 
           1
     4.348314    2.510500    0.000000
    -4.348314    2.510500    0.000000
     0.000000    0.000000   15.000000
   B    C 
     8     8
Direct configuration=     1
   0.66888689  0.00000000  0.10000000
   0.33111211  0.00000000  0.10000000
   0.00000000  0.33111211  0.10000000
   0.00000000  0.66888689  0.10000000
   0.33111211  0.33111211  0.10000000
   0.66888689  0.66888689  0.10000000
   0.66666600  0.33333300  0.09922189
   0.33333300  0.66666600  0.10077811
   0.24999933  0.24999967  0.46906667
   0.41666633  0.08333267  0.46906667
   0.24999933  0.74999967  0.46906667
   0.41666633  0.58333267  0.46906667
   0.74999933  0.24999967  0.46906667
   0.91666633  0.08333267  0.46906667
   0.74999933  0.74999967  0.46906667
   0.91666633  0.58333267  0.46906667
Direct configuration=     2
   0.66954910 -0.00000017  0.10002610
   0.33045004 -0.00000018  0.10002618
   0.00000017  0.33044990  0.10002610
   0.00000018  0.66954896  0.10002618
   0.33044971  0.33044968  0.10002620
   0.66954932  0.66954929  0.10002620
   0.66666606  0.33333294  0.09925547
   0.33333255  0.66666645  0.10080419
   0.24999516  0.24999502  0.46903986
   0.41666307  0.08333418  0.46903931
   0.24999891  0.75000009  0.46903891
   0.41666708  0.58333192  0.46903956
   0.75000216  0.24999684  0.46903969
   0.91666735  0.08333165  0.46904022
   0.75000398  0.75000384  0.46903986
   0.91666482  0.58333593  0.46903931
Direct configuration=     3
   0.66926518 -0.00000010  0.10001491
   0.33073390 -0.00000010  0.10001496
   0.00000010  0.33073382  0.10001491
   0.00000010  0.66926510  0.10001496
   0.33073371  0.33073369  0.10001497
   0.66926531  0.66926529  0.10001497
   0.66666604  0.33333296  0.09924107
   0.33333275  0.66666625  0.10079301
   0.24999695  0.24999701  0.46905135
   0.41666447  0.08333353  0.46905104
   0.24999909  0.74999991  0.46905081
   0.41666676  0.58333224  0.46905118
   0.75000095  0.24999805  0.46905126
   0.91666691  0.08333209  0.46905156
   0.75000199  0.75000205  0.46905135
   0.91666547  0.58333453  0.46905104
Direct configuration=     4
   0.66926535 -0.00000013  0.10003980
   0.33073389 -0.00000006  0.10003993
   0.00000013  0.33073365  0.10003980
   0.00000006  0.66926511  0.10003993
   0.33073374  0.33073368  0.10003995
   0.66926532  0.66926526  0.10003995
   0.66666600  0.33333300  0.09927410
   0.33333272  0.66666628  0.10081621
   0.25000002  0.25000116  0.46902581
   0.41666737  0.08333177  0.46902510
   0.24999899  0.75000001  0.46902461
   0.41666640  0.58333260  0.46902541
   0.74999816  0.25000084  0.46902559
   0.91666645  0.08333255  0.46902625
   0.74999784  0.74999898  0.46902581
   0.91666723  0.58333163  0.46902510
Direct configuration=     5
   0.66926587 -0.00000021  0.10011447
   0.33073388  0.00000005  0.10011483
   0.00000021  0.33073313  0.10011447
  -0.00000005  0.66926512  0.10011483
   0.33073383  0.33073366  0.10011489
   0.66926534  0.66926517  0.10011489
   0.66666587  0.33333313  0.09937316
   0.33333266  0.66666634  0.10088584
   0.25000924  0.25001362  0.46894917
   0.41667606  0.08332650  0.46894729
   0.24999870  0.75000030  0.46894601
   0.41666532  0.58333368  0.46894809
   0.74998978  0.25000922  0.46894858
   0.91666507  0.08333393  0.46895034
   0.74998538  0.74998976  0.46894917
   0.91667250  0.58332294  0.46894729
Direct configuration=     6
   0.66926690 -0.00000039  0.10026382
   0.33073386  0.00000028  0.10026465
   0.00000039  0.33073210  0.10026382
  -0.00000028  0.66926514  0.10026465
   0.33073400  0.33073361  0.10026478
   0.66926539  0.66926500  0.10026478
   0.66666563  0.33333337  0.09957130
   0.33333254  0.66666646  0.10102508
   0.25002767  0.25003853  0.46879590
   0.41669346  0.08331595  0.46879167
   0.24999810  0.75000090  0.46878881
   0.41666316  0.58333584  0.46879345
   0.74997304  0.25002596  0.46879456
   0.91666230  0.08333670  0.46879850
   0.74996047  0.74997133  0.46879590
   0.91668305  0.58330554  0.46879167
