  15  15   0   4
  0.2011985E+02  0.4820000E-09  0.4820000E-09  0.1500000E-08  0.5000000E-15
  1.000000000000000E-004
  CAR 
 Lattice                                 
     10.42748381    -21.78135177  301     -0.26746800      1.00000000
    -21.781  0.0000E+00  0.0000E+00  0.0000E+00  0.0000E+00
    -21.674  0.0000E+00  0.0000E+00  0.0000E+00  0.0000E+00
    -21.567  0.0000E+00  0.0000E+00  0.0000E+00  0.0000E+00
    -21.459  0.0000E+00  0.0000E+00  0.0000E+00  0.0000E+00
    -21.352  0.0000E+00  0.0000E+00  0.0000E+00  0.0000E+00
    -21.245  0.0000E+00  0.0000E+00  0.0000E+00  0.0000E+00
    -21.137  0.0000E+00  0.0000E+00  0.0000E+00  0.0000E+00
    -21.030  0.0000E+00  0.0000E+00  0.0000E+00  0.0000E+00
    -20.922  0.0000E+00  0.0000E+00  0.0000E+00  0.0000E+00
    -20.815  0.5192E-15  0.5192E-15  0.5574E-16  0.5574E-16
    -20.708  0.9874E-11  0.9874E-11  0.1060E-11  0.1060E-11
    -20.600  0.2199E-07  0.2199E-07  0.2362E-08  0.2362E-08
    -20.493  0.6328E-05  0.6328E-05  0.6817E-06  0.6817E-06
    -20.386  0.2636E-03  0.2636E-03  0.2899E-04  0.2899E-04
    -20.278  0.1951E-02  0.1951E-02  0.2385E-03  0.2385E-03
    -20.171  0.4116E-02  0.4116E-02  0.6804E-03  0.6804E-03
    -20.064  0.4468E-02  0.4468E-02  0.1160E-02  0.1160E-02
    -19.956  0.4901E-02  0.4901E-02  0.1686E-02  0.1686E-02
    -19.849  0.4096E-02  0.4096E-02  0.2126E-02  0.2126E-02
    -19.741  0.5331E-02  0.5331E-02  0.2698E-02  0.2698E-02
    -19.634  0.4209E-02  0.4209E-02  0.3150E-02  0.3150E-02
    -19.527  0.4142E-02  0.4142E-02  0.3595E-02  0.3595E-02
    -19.419  0.5977E-02  0.5977E-02  0.4237E-02  0.4237E-02
    -19.312  0.3851E-02  0.3851E-02  0.4650E-02  0.4650E-02
    -19.205  0.3730E-02  0.3730E-02  0.5051E-02  0.5051E-02
    -19.097  0.6040E-02  0.6040E-02  0.5699E-02  0.5699E-02
    -18.990  0.5246E-02  0.5246E-02  0.6262E-02  0.6262E-02
    -18.883  0.3007E-02  0.3007E-02  0.6585E-02  0.6585E-02
    -18.775  0.4089E-02  0.4089E-02  0.7024E-02  0.7024E-02
    -18.668  0.6897E-02  0.6897E-02  0.7765E-02  0.7765E-02
    -18.560  0.4646E-02  0.4646E-02  0.8263E-02  0.8263E-02
    -18.453  0.3810E-02  0.3810E-02  0.8673E-02  0.8673E-02
    -18.346  0.2854E-02  0.2854E-02  0.8979E-02  0.8979E-02
    -18.238  0.6286E-02  0.6286E-02  0.9654E-02  0.9654E-02
    -18.131  0.6770E-02  0.6770E-02  0.1038E-01  0.1038E-01
    -18.024  0.3710E-02  0.3710E-02  0.1078E-01  0.1078E-01
    -17.916  0.3117E-02  0.3117E-02  0.1111E-01  0.1111E-01
    -17.809  0.4006E-02  0.4006E-02  0.1154E-01  0.1154E-01
    -17.702  0.5870E-02  0.5870E-02  0.1217E-01  0.1217E-01
    -17.594  0.6865E-02  0.6865E-02  0.1291E-01  0.1291E-01
    -17.487  0.5393E-02  0.5393E-02  0.1349E-01  0.1349E-01
    -17.379  0.5983E-02  0.5983E-02  0.1413E-01  0.1413E-01
    -17.272  0.9343E-02  0.9343E-02  0.1514E-01  0.1514E-01
    -17.165  0.1405E-01  0.1405E-01  0.1664E-01  0.1664E-01
    -17.057  0.1533E-01  0.1533E-01  0.1829E-01  0.1829E-01
    -16.950  0.1621E-01  0.1621E-01  0.2003E-01  0.2003E-01
    -16.843  0.1984E-01  0.1984E-01  0.2216E-01  0.2216E-01
    -16.735  0.1843E-01  0.1843E-01  0.2414E-01  0.2414E-01
    -16.628  0.6500E-02  0.6500E-02  0.2484E-01  0.2484E-01
    -16.521  0.6381E-02  0.6381E-02  0.2552E-01  0.2552E-01
    -16.413  0.8665E-02  0.8665E-02  0.2645E-01  0.2645E-01
    -16.306  0.4745E-02  0.4745E-02  0.2696E-01  0.2696E-01
    -16.198  0.4203E-02  0.4203E-02  0.2741E-01  0.2741E-01
    -16.091  0.3722E-02  0.3722E-02  0.2781E-01  0.2781E-01
    -15.984  0.3996E-02  0.3996E-02  0.2824E-01  0.2824E-01
    -15.876  0.3208E-02  0.3208E-02  0.2858E-01  0.2858E-01
    -15.769  0.7122E-02  0.7122E-02  0.2935E-01  0.2935E-01
    -15.662  0.8663E-02  0.8663E-02  0.3028E-01  0.3028E-01
    -15.554  0.4380E-02  0.4380E-02  0.3075E-01  0.3075E-01
    -15.447  0.3792E-02  0.3792E-02  0.3116E-01  0.3116E-01
    -15.340  0.3250E-02  0.3250E-02  0.3151E-01  0.3151E-01
    -15.232  0.4197E-02  0.4197E-02  0.3196E-01  0.3196E-01
    -15.125  0.5694E-02  0.5694E-02  0.3257E-01  0.3257E-01
    -15.017  0.9025E-02  0.9025E-02  0.3354E-01  0.3354E-01
    -14.910  0.1540E-01  0.1540E-01  0.3519E-01  0.3519E-01
    -14.803  0.1802E-01  0.1802E-01  0.3712E-01  0.3712E-01
    -14.695  0.1766E-01  0.1766E-01  0.3902E-01  0.3902E-01
    -14.588  0.1321E-01  0.1321E-01  0.4044E-01  0.4044E-01
    -14.481  0.7523E-02  0.7523E-02  0.4125E-01  0.4125E-01
    -14.373  0.1204E-01  0.1204E-01  0.4254E-01  0.4254E-01
    -14.266  0.1635E-01  0.1635E-01  0.4429E-01  0.4429E-01
    -14.159  0.1202E-01  0.1202E-01  0.4559E-01  0.4559E-01
    -14.051  0.1097E-01  0.1097E-01  0.4676E-01  0.4676E-01
    -13.944  0.1105E-01  0.1105E-01  0.4795E-01  0.4795E-01
    -13.837  0.1786E-01  0.1786E-01  0.4987E-01  0.4987E-01
    -13.729  0.2053E-01  0.2053E-01  0.5207E-01  0.5207E-01
    -13.622  0.1880E-01  0.1880E-01  0.5409E-01  0.5409E-01
    -13.514  0.1375E-01  0.1375E-01  0.5557E-01  0.5557E-01
    -13.407  0.8100E-02  0.8100E-02  0.5644E-01  0.5644E-01
    -13.300  0.3305E-02  0.3305E-02  0.5679E-01  0.5679E-01
    -13.192  0.3648E-02  0.3648E-02  0.5718E-01  0.5718E-01
    -13.085  0.6180E-02  0.6180E-02  0.5785E-01  0.5785E-01
    -12.978  0.7202E-02  0.7202E-02  0.5862E-01  0.5862E-01
    -12.870  0.4884E-02  0.4884E-02  0.5914E-01  0.5914E-01
    -12.763  0.5989E-02  0.5989E-02  0.5979E-01  0.5979E-01
    -12.656  0.6855E-02  0.6855E-02  0.6052E-01  0.6052E-01
    -12.548  0.5988E-02  0.5988E-02  0.6117E-01  0.6117E-01
    -12.441  0.5409E-02  0.5409E-02  0.6175E-01  0.6175E-01
    -12.333  0.3743E-02  0.3743E-02  0.6215E-01  0.6215E-01
    -12.226  0.5190E-02  0.5190E-02  0.6270E-01  0.6270E-01
    -12.119  0.8189E-02  0.8189E-02  0.6358E-01  0.6358E-01
    -12.011  0.4267E-02  0.4267E-02  0.6404E-01  0.6404E-01
    -11.904  0.3203E-02  0.3203E-02  0.6439E-01  0.6439E-01
    -11.797  0.3422E-02  0.3422E-02  0.6475E-01  0.6475E-01
    -11.689  0.4719E-02  0.4719E-02  0.6526E-01  0.6526E-01
    -11.582  0.7000E-02  0.7000E-02  0.6601E-01  0.6601E-01
    -11.475  0.4978E-02  0.4978E-02  0.6655E-01  0.6655E-01
    -11.367  0.1859E-02  0.1859E-02  0.6675E-01  0.6675E-01
    -11.260  0.3955E-02  0.3955E-02  0.6717E-01  0.6717E-01
    -11.152  0.5809E-02  0.5809E-02  0.6779E-01  0.6779E-01
    -11.045  0.5878E-02  0.5878E-02  0.6842E-01  0.6842E-01
    -10.938  0.7234E-02  0.7234E-02  0.6920E-01  0.6920E-01
    -10.830  0.6398E-02  0.6398E-02  0.6989E-01  0.6989E-01
    -10.723  0.2766E-02  0.2766E-02  0.7019E-01  0.7019E-01
    -10.616  0.6858E-02  0.6858E-02  0.7092E-01  0.7092E-01
    -10.508  0.1130E-01  0.1130E-01  0.7214E-01  0.7214E-01
    -10.401  0.1509E-01  0.1509E-01  0.7376E-01  0.7376E-01
    -10.294  0.1623E-01  0.1623E-01  0.7550E-01  0.7550E-01
    -10.186  0.1430E-01  0.1430E-01  0.7703E-01  0.7703E-01
    -10.079  0.1649E-01  0.1649E-01  0.7880E-01  0.7880E-01
     -9.971  0.1907E-01  0.1907E-01  0.8085E-01  0.8085E-01
     -9.864  0.1063E-01  0.1063E-01  0.8199E-01  0.8199E-01
     -9.757  0.6439E-02  0.6439E-02  0.8268E-01  0.8268E-01
     -9.649  0.1297E-01  0.1297E-01  0.8407E-01  0.8407E-01
     -9.542  0.1551E-01  0.1551E-01  0.8574E-01  0.8574E-01
     -9.435  0.1599E-01  0.1599E-01  0.8746E-01  0.8746E-01
     -9.327  0.1550E-01  0.1550E-01  0.8912E-01  0.8912E-01
     -9.220  0.1483E-01  0.1483E-01  0.9071E-01  0.9071E-01
     -9.113  0.1106E-01  0.1106E-01  0.9190E-01  0.9190E-01
     -9.005  0.6456E-02  0.6456E-02  0.9259E-01  0.9259E-01
     -8.898  0.1344E-01  0.1344E-01  0.9403E-01  0.9403E-01
     -8.790  0.2158E-01  0.2158E-01  0.9635E-01  0.9635E-01
     -8.683  0.1745E-01  0.1745E-01  0.9822E-01  0.9822E-01
     -8.576  0.8245E-02  0.8245E-02  0.9911E-01  0.9911E-01
     -8.468  0.8864E-02  0.8864E-02  0.1001E+00  0.1001E+00
     -8.361  0.1942E-01  0.1942E-01  0.1021E+00  0.1021E+00
     -8.254  0.2230E-01  0.2230E-01  0.1045E+00  0.1045E+00
     -8.146  0.1140E-01  0.1140E-01  0.1058E+00  0.1058E+00
     -8.039  0.1385E-01  0.1385E-01  0.1073E+00  0.1073E+00
     -7.932  0.2365E-01  0.2365E-01  0.1098E+00  0.1098E+00
     -7.824  0.2398E-01  0.2398E-01  0.1124E+00  0.1124E+00
     -7.717  0.2288E-01  0.2288E-01  0.1148E+00  0.1148E+00
     -7.609  0.1180E-01  0.1180E-01  0.1161E+00  0.1161E+00
     -7.502  0.8181E-02  0.8181E-02  0.1170E+00  0.1170E+00
     -7.395  0.1800E-01  0.1800E-01  0.1189E+00  0.1189E+00
     -7.287  0.1724E-01  0.1724E-01  0.1208E+00  0.1208E+00
     -7.180  0.1176E-01  0.1176E-01  0.1220E+00  0.1220E+00
     -7.073  0.1251E-01  0.1251E-01  0.1234E+00  0.1234E+00
     -6.965  0.1683E-01  0.1683E-01  0.1252E+00  0.1252E+00
     -6.858  0.1709E-01  0.1709E-01  0.1270E+00  0.1270E+00
     -6.751  0.1762E-01  0.1762E-01  0.1289E+00  0.1289E+00
     -6.643  0.2240E-01  0.2240E-01  0.1313E+00  0.1313E+00
     -6.536  0.2049E-01  0.2049E-01  0.1335E+00  0.1335E+00
     -6.428  0.1966E-01  0.1966E-01  0.1356E+00  0.1356E+00
     -6.321  0.1687E-01  0.1687E-01  0.1374E+00  0.1374E+00
     -6.214  0.1627E-01  0.1627E-01  0.1392E+00  0.1392E+00
     -6.106  0.2452E-01  0.2452E-01  0.1418E+00  0.1418E+00
     -5.999  0.2469E-01  0.2469E-01  0.1444E+00  0.1444E+00
     -5.892  0.2962E-01  0.2962E-01  0.1476E+00  0.1476E+00
     -5.784  0.2763E-01  0.2763E-01  0.1506E+00  0.1506E+00
     -5.677  0.1714E-01  0.1714E-01  0.1524E+00  0.1524E+00
     -5.570  0.1901E-01  0.1901E-01  0.1545E+00  0.1545E+00
     -5.462  0.3070E-01  0.3070E-01  0.1578E+00  0.1578E+00
     -5.355  0.3320E-01  0.3320E-01  0.1613E+00  0.1613E+00
     -5.247  0.2696E-01  0.2696E-01  0.1642E+00  0.1642E+00
     -5.140  0.1841E-01  0.1841E-01  0.1662E+00  0.1662E+00
     -5.033  0.1047E-01  0.1047E-01  0.1673E+00  0.1673E+00
     -4.925  0.7893E-02  0.7893E-02  0.1682E+00  0.1682E+00
     -4.818  0.1409E-01  0.1409E-01  0.1697E+00  0.1697E+00
     -4.711  0.1348E-01  0.1348E-01  0.1711E+00  0.1711E+00
     -4.603  0.9328E-02  0.9328E-02  0.1721E+00  0.1721E+00
     -4.496  0.8129E-02  0.8129E-02  0.1730E+00  0.1730E+00
     -4.389  0.1194E-01  0.1194E-01  0.1743E+00  0.1743E+00
     -4.281  0.2185E-01  0.2185E-01  0.1766E+00  0.1766E+00
     -4.174  0.1847E-01  0.1847E-01  0.1786E+00  0.1786E+00
     -4.066  0.1935E-01  0.1935E-01  0.1807E+00  0.1807E+00
     -3.959  0.2253E-01  0.2253E-01  0.1831E+00  0.1831E+00
     -3.852  0.2554E-01  0.2554E-01  0.1859E+00  0.1859E+00
     -3.744  0.1921E-01  0.1921E-01  0.1879E+00  0.1879E+00
     -3.637  0.1734E-01  0.1734E-01  0.1898E+00  0.1898E+00
     -3.530  0.1949E-01  0.1949E-01  0.1919E+00  0.1919E+00
     -3.422  0.1637E-01  0.1637E-01  0.1936E+00  0.1936E+00
     -3.315  0.1403E-01  0.1403E-01  0.1951E+00  0.1951E+00
     -3.208  0.1377E-01  0.1377E-01  0.1966E+00  0.1966E+00
     -3.100  0.1751E-01  0.1751E-01  0.1985E+00  0.1985E+00
     -2.993  0.1790E-01  0.1790E-01  0.2004E+00  0.2004E+00
     -2.886  0.1212E-01  0.1212E-01  0.2017E+00  0.2017E+00
     -2.778  0.1224E-01  0.1224E-01  0.2030E+00  0.2030E+00
     -2.671  0.7456E-02  0.7456E-02  0.2038E+00  0.2038E+00
     -2.563  0.9855E-02  0.9855E-02  0.2049E+00  0.2049E+00
     -2.456  0.1925E-01  0.1925E-01  0.2070E+00  0.2070E+00
     -2.349  0.1462E-01  0.1462E-01  0.2085E+00  0.2085E+00
     -2.241  0.3997E-02  0.3997E-02  0.2090E+00  0.2090E+00
     -2.134  0.4571E-02  0.4571E-02  0.2095E+00  0.2095E+00
     -2.027  0.1033E-01  0.1033E-01  0.2106E+00  0.2106E+00
     -1.919  0.9995E-02  0.9995E-02  0.2116E+00  0.2116E+00
     -1.812  0.1089E-01  0.1089E-01  0.2128E+00  0.2128E+00
     -1.705  0.1135E-01  0.1135E-01  0.2140E+00  0.2140E+00
     -1.597  0.9639E-02  0.9639E-02  0.2151E+00  0.2151E+00
     -1.490  0.7241E-02  0.7241E-02  0.2158E+00  0.2158E+00
     -1.382  0.4539E-02  0.4539E-02  0.2163E+00  0.2163E+00
     -1.275  0.3842E-02  0.3842E-02  0.2167E+00  0.2167E+00
     -1.168  0.4110E-02  0.4110E-02  0.2172E+00  0.2172E+00
     -1.060  0.3611E-02  0.3611E-02  0.2176E+00  0.2176E+00
     -0.953  0.5759E-02  0.5759E-02  0.2182E+00  0.2182E+00
     -0.846  0.3432E-02  0.3432E-02  0.2185E+00  0.2185E+00
     -0.738  0.7631E-03  0.7631E-03  0.2186E+00  0.2186E+00
     -0.631  0.9599E-04  0.9599E-04  0.2186E+00  0.2186E+00
     -0.524  0.2639E-05  0.2639E-05  0.2186E+00  0.2186E+00
     -0.416  0.3654E-04  0.3654E-04  0.2186E+00  0.2186E+00
     -0.309  0.5301E-03  0.5301E-03  0.2187E+00  0.2187E+00
     -0.201  0.1098E-02  0.1098E-02  0.2188E+00  0.2188E+00
     -0.094  0.3418E-03  0.3418E-03  0.2189E+00  0.2189E+00
      0.013  0.1479E-04  0.1479E-04  0.2189E+00  0.2189E+00
      0.121  0.1216E-06  0.1216E-06  0.2189E+00  0.2189E+00
      0.228  0.1433E-04  0.1433E-04  0.2189E+00  0.2189E+00
      0.335  0.5666E-03  0.5666E-03  0.2189E+00  0.2189E+00
      0.443  0.2961E-02  0.2961E-02  0.2192E+00  0.2192E+00
      0.550  0.2300E-02  0.2300E-02  0.2195E+00  0.2195E+00
      0.657  0.9418E-03  0.9418E-03  0.2196E+00  0.2196E+00
      0.765  0.3088E-02  0.3088E-02  0.2199E+00  0.2199E+00
      0.872  0.5129E-02  0.5129E-02  0.2205E+00  0.2205E+00
      0.980  0.7533E-02  0.7533E-02  0.2213E+00  0.2213E+00
      1.087  0.2211E-01  0.2211E-01  0.2237E+00  0.2237E+00
      1.194  0.2419E-01  0.2419E-01  0.2262E+00  0.2262E+00
      1.302  0.6798E-02  0.6798E-02  0.2270E+00  0.2270E+00
      1.409  0.3520E-02  0.3520E-02  0.2274E+00  0.2274E+00
      1.516  0.7067E-02  0.7067E-02  0.2281E+00  0.2281E+00
      1.624  0.1156E-01  0.1156E-01  0.2294E+00  0.2294E+00
      1.731  0.1769E-01  0.1769E-01  0.2313E+00  0.2313E+00
      1.838  0.1718E-01  0.1718E-01  0.2331E+00  0.2331E+00
      1.946  0.7961E-02  0.7961E-02  0.2340E+00  0.2340E+00
      2.053  0.6058E-02  0.6058E-02  0.2346E+00  0.2346E+00
      2.161  0.9924E-02  0.9924E-02  0.2357E+00  0.2357E+00
      2.268  0.7665E-02  0.7665E-02  0.2365E+00  0.2365E+00
      2.375  0.7349E-02  0.7349E-02  0.2373E+00  0.2373E+00
      2.483  0.8574E-02  0.8574E-02  0.2382E+00  0.2382E+00
      2.590  0.8496E-02  0.8496E-02  0.2391E+00  0.2391E+00
      2.697  0.1117E-01  0.1117E-01  0.2403E+00  0.2403E+00
      2.805  0.7986E-02  0.7986E-02  0.2412E+00  0.2412E+00
      2.912  0.5360E-02  0.5360E-02  0.2417E+00  0.2417E+00
      3.019  0.9017E-02  0.9016E-02  0.2427E+00  0.2427E+00
      3.127  0.1205E-01  0.1205E-01  0.2440E+00  0.2440E+00
      3.234  0.9060E-02  0.9060E-02  0.2450E+00  0.2450E+00
      3.342  0.1039E-01  0.1039E-01  0.2461E+00  0.2461E+00
      3.449  0.9750E-02  0.9750E-02  0.2471E+00  0.2471E+00
      3.556  0.8721E-02  0.8721E-02  0.2481E+00  0.2481E+00
      3.664  0.1455E-01  0.1455E-01  0.2496E+00  0.2496E+00
      3.771  0.1917E-01  0.1917E-01  0.2517E+00  0.2517E+00
      3.878  0.2227E-01  0.2227E-01  0.2541E+00  0.2541E+00
      3.986  0.1967E-01  0.1967E-01  0.2562E+00  0.2562E+00
      4.093  0.2161E-01  0.2161E-01  0.2585E+00  0.2585E+00
      4.200  0.2269E-01  0.2269E-01  0.2610E+00  0.2610E+00
      4.308  0.2410E-01  0.2410E-01  0.2635E+00  0.2635E+00
      4.415  0.2717E-01  0.2717E-01  0.2665E+00  0.2665E+00
      4.523  0.2483E-01  0.2483E-01  0.2691E+00  0.2691E+00
      4.630  0.2535E-01  0.2535E-01  0.2719E+00  0.2719E+00
      4.737  0.2325E-01  0.2325E-01  0.2743E+00  0.2743E+00
      4.845  0.2449E-01  0.2449E-01  0.2770E+00  0.2770E+00
      4.952  0.2393E-01  0.2393E-01  0.2795E+00  0.2795E+00
      5.059  0.2395E-01  0.2395E-01  0.2821E+00  0.2821E+00
      5.167  0.2568E-01  0.2569E-01  0.2849E+00  0.2849E+00
      5.274  0.2527E-01  0.2527E-01  0.2876E+00  0.2876E+00
      5.381  0.2229E-01  0.2229E-01  0.2900E+00  0.2900E+00
      5.489  0.1969E-01  0.1970E-01  0.2921E+00  0.2921E+00
      5.596  0.2223E-01  0.2223E-01  0.2945E+00  0.2945E+00
      5.704  0.3103E-01  0.3103E-01  0.2978E+00  0.2978E+00
      5.811  0.2486E-01  0.2486E-01  0.3005E+00  0.3005E+00
      5.918  0.1975E-01  0.1975E-01  0.3026E+00  0.3026E+00
      6.026  0.1703E-01  0.1703E-01  0.3044E+00  0.3044E+00
      6.133  0.2067E-01  0.2066E-01  0.3067E+00  0.3067E+00
      6.240  0.1901E-01  0.1901E-01  0.3087E+00  0.3087E+00
      6.348  0.1758E-01  0.1757E-01  0.3106E+00  0.3106E+00
      6.455  0.2032E-01  0.2032E-01  0.3128E+00  0.3128E+00
      6.562  0.2469E-01  0.2470E-01  0.3154E+00  0.3154E+00
      6.670  0.2503E-01  0.2503E-01  0.3181E+00  0.3181E+00
      6.777  0.2431E-01  0.2431E-01  0.3207E+00  0.3207E+00
      6.885  0.3087E-01  0.3087E-01  0.3240E+00  0.3240E+00
      6.992  0.3082E-01  0.3082E-01  0.3273E+00  0.3273E+00
      7.099  0.2728E-01  0.2728E-01  0.3303E+00  0.3303E+00
      7.207  0.2523E-01  0.2524E-01  0.3330E+00  0.3330E+00
      7.314  0.2212E-01  0.2212E-01  0.3353E+00  0.3353E+00
      7.421  0.1560E-01  0.1560E-01  0.3370E+00  0.3370E+00
      7.529  0.2290E-01  0.2289E-01  0.3395E+00  0.3395E+00
      7.636  0.2327E-01  0.2327E-01  0.3420E+00  0.3420E+00
      7.743  0.1974E-01  0.1974E-01  0.3441E+00  0.3441E+00
      7.851  0.2608E-01  0.2608E-01  0.3469E+00  0.3469E+00
      7.958  0.2944E-01  0.2945E-01  0.3501E+00  0.3501E+00
      8.066  0.3381E-01  0.3380E-01  0.3537E+00  0.3537E+00
      8.173  0.3395E-01  0.3395E-01  0.3573E+00  0.3573E+00
      8.280  0.2944E-01  0.2944E-01  0.3605E+00  0.3605E+00
      8.388  0.2813E-01  0.2813E-01  0.3635E+00  0.3635E+00
      8.495  0.3335E-01  0.3335E-01  0.3671E+00  0.3671E+00
      8.602  0.3311E-01  0.3311E-01  0.3706E+00  0.3706E+00
      8.710  0.2110E-01  0.2110E-01  0.3729E+00  0.3729E+00
      8.817  0.1101E-01  0.1101E-01  0.3741E+00  0.3741E+00
      8.924  0.4434E-02  0.4434E-02  0.3746E+00  0.3746E+00
      9.032  0.3232E-02  0.3232E-02  0.3749E+00  0.3749E+00
      9.139  0.7300E-03  0.7300E-03  0.3750E+00  0.3750E+00
      9.246  0.2483E-04  0.2484E-04  0.3750E+00  0.3750E+00
      9.354  0.1082E-06  0.1082E-06  0.3750E+00  0.3750E+00
      9.461  0.5472E-10  0.5474E-10  0.3750E+00  0.3750E+00
      9.569  0.3026E-14  0.3028E-14  0.3750E+00  0.3750E+00
      9.676  0.0000E+00  0.0000E+00  0.3750E+00  0.3750E+00
      9.783  0.0000E+00  0.0000E+00  0.3750E+00  0.3750E+00
      9.891  0.0000E+00  0.0000E+00  0.3750E+00  0.3750E+00
      9.998  0.0000E+00  0.0000E+00  0.3750E+00  0.3750E+00
     10.105  0.0000E+00  0.0000E+00  0.3750E+00  0.3750E+00
     10.213  0.0000E+00  0.0000E+00  0.3750E+00  0.3750E+00
     10.320  0.0000E+00  0.0000E+00  0.3750E+00  0.3750E+00
     10.427  0.0000E+00  0.0000E+00  0.3750E+00  0.3750E+00
