   2   2   0  16
  0.3882841E+02  0.2445000E-09  0.2445000E-09  0.1500000E-08  0.5000000E-15
  1.000000000000000E-004
  CAR 
 Graphene                                
     44.12009762    -25.01911472  301     -2.15619662      1.00000000
    -25.019  0.0000E+00  0.0000E+00
    -24.789  0.0000E+00  0.0000E+00
    -24.558  0.0000E+00  0.0000E+00
    -24.328  0.0000E+00  0.0000E+00
    -24.097  0.0000E+00  0.0000E+00
    -23.867  0.0000E+00  0.0000E+00
    -23.636  0.0000E+00  0.0000E+00
    -23.406  0.0000E+00  0.0000E+00
    -23.175  0.0000E+00  0.0000E+00
    -22.945  0.0000E+00  0.0000E+00
    -22.714  0.0000E+00  0.0000E+00
    -22.484  0.0000E+00  0.0000E+00
    -22.254  0.2906E-10  0.6697E-11
    -22.023  0.1149E-04  0.2648E-05
    -21.793  0.9573E-03  0.2233E-03
    -21.562  0.3200E-02  0.9607E-03
    -21.332  0.2895E-02  0.1628E-02
    -21.101  0.4174E-02  0.2590E-02
    -20.871  0.3193E-03  0.2663E-02
    -20.640  0.6115E-02  0.4073E-02
    -20.410  0.2383E-02  0.4622E-02
    -20.179  0.2238E-02  0.5138E-02
    -19.949  0.8825E-03  0.5341E-02
    -19.718  0.7048E-02  0.6965E-02
    -19.488  0.2923E-02  0.7639E-02
    -19.258  0.1669E-02  0.8024E-02
    -19.027  0.1945E-02  0.8472E-02
    -18.797  0.2649E-02  0.9082E-02
    -18.566  0.4977E-02  0.1023E-01
    -18.336  0.6496E-02  0.1173E-01
    -18.105  0.3425E-03  0.1181E-01
    -17.875  0.9322E-03  0.1202E-01
    -17.644  0.2820E-02  0.1267E-01
    -17.414  0.5212E-02  0.1387E-01
    -17.183  0.5472E-02  0.1513E-01
    -16.953  0.3132E-02  0.1585E-01
    -16.722  0.4122E-02  0.1680E-01
    -16.492  0.1155E-02  0.1707E-01
    -16.261  0.7090E-03  0.1723E-01
    -16.031  0.7915E-02  0.1906E-01
    -15.801  0.2881E-02  0.1972E-01
    -15.570  0.6839E-03  0.1988E-01
    -15.340  0.1128E-02  0.2014E-01
    -15.109  0.2295E-02  0.2067E-01
    -14.879  0.4333E-02  0.2167E-01
    -14.648  0.6595E-02  0.2319E-01
    -14.418  0.3736E-04  0.2320E-01
    -14.187  0.3823E-02  0.2408E-01
    -13.957  0.5862E-02  0.2543E-01
    -13.726  0.2163E-02  0.2593E-01
    -13.496  0.6119E-02  0.2734E-01
    -13.265  0.1071E-03  0.2736E-01
    -13.035  0.9249E-04  0.2738E-01
    -12.805  0.7513E-02  0.2911E-01
    -12.574  0.4409E-02  0.3013E-01
    -12.344  0.3823E-04  0.3014E-01
    -12.113  0.6865E-04  0.3015E-01
    -11.883  0.7136E-02  0.3180E-01
    -11.652  0.9120E-02  0.3390E-01
    -11.422  0.1767E-02  0.3431E-01
    -11.191  0.2573E-02  0.3490E-01
    -10.961  0.1031E-02  0.3514E-01
    -10.730  0.2873E-02  0.3580E-01
    -10.500  0.5688E-02  0.3711E-01
    -10.269  0.6701E-02  0.3866E-01
    -10.039  0.3227E-02  0.3940E-01
     -9.808  0.4966E-02  0.4054E-01
     -9.578  0.1201E-01  0.4331E-01
     -9.348  0.3156E-02  0.4404E-01
     -9.117  0.8145E-02  0.4592E-01
     -8.887  0.5070E-02  0.4708E-01
     -8.656  0.1099E-01  0.4962E-01
     -8.426  0.1792E-01  0.5375E-01
     -8.195  0.4420E-02  0.5477E-01
     -7.965  0.9801E-02  0.5703E-01
     -7.734  0.1599E-02  0.5739E-01
     -7.504  0.5784E-02  0.5873E-01
     -7.273  0.1174E-01  0.6143E-01
     -7.043  0.7700E-02  0.6321E-01
     -6.812  0.6000E-02  0.6459E-01
     -6.582  0.1182E-02  0.6486E-01
     -6.352  0.4343E-02  0.6586E-01
     -6.121  0.1032E-01  0.6824E-01
     -5.891  0.7504E-02  0.6997E-01
     -5.660  0.3207E-02  0.7071E-01
     -5.430  0.5086E-02  0.7188E-01
     -5.199  0.2510E-02  0.7246E-01
     -4.969  0.3013E-02  0.7315E-01
     -4.738  0.9834E-02  0.7542E-01
     -4.508  0.7396E-02  0.7712E-01
     -4.277  0.4232E-03  0.7722E-01
     -4.047  0.3677E-03  0.7731E-01
     -3.816  0.3164E-02  0.7804E-01
     -3.586  0.2002E-02  0.7850E-01
     -3.355  0.5283E-02  0.7972E-01
     -3.125  0.3070E-04  0.7972E-01
     -2.895  0.1386E-10  0.7972E-01
     -2.664  0.8228E-15  0.7972E-01
     -2.434  0.1051E-06  0.7972E-01
     -2.203  0.6103E-03  0.7986E-01
     -1.973  0.1789E-02  0.8028E-01
     -1.742  0.1140E-04  0.8028E-01
     -1.512  0.5779E-11  0.8028E-01
     -1.281  0.8110E-12  0.8028E-01
     -1.051  0.7374E-05  0.8028E-01
     -0.820  0.4212E-02  0.8125E-01
     -0.590  0.6378E-02  0.8272E-01
     -0.359  0.1975E-02  0.8318E-01
     -0.129  0.5552E-02  0.8445E-01
      0.101  0.1762E-02  0.8486E-01
      0.332  0.9406E-03  0.8508E-01
      0.562  0.6496E-02  0.8658E-01
      0.793  0.6319E-02  0.8803E-01
      1.023  0.1016E-02  0.8827E-01
      1.254  0.2206E-02  0.8877E-01
      1.484  0.1814E-02  0.8919E-01
      1.715  0.8184E-02  0.9108E-01
      1.945  0.5048E-02  0.9224E-01
      2.176  0.3855E-02  0.9313E-01
      2.406  0.6521E-02  0.9463E-01
      2.637  0.1047E-01  0.9705E-01
      2.867  0.1109E-01  0.9960E-01
      3.097  0.6209E-02  0.1010E+00
      3.328  0.4673E-02  0.1021E+00
      3.558  0.7760E-02  0.1039E+00
      3.789  0.5658E-02  0.1052E+00
      4.019  0.1713E-01  0.1091E+00
      4.250  0.8635E-02  0.1111E+00
      4.480  0.4877E-02  0.1123E+00
      4.711  0.1226E-01  0.1151E+00
      4.941  0.6301E-02  0.1165E+00
      5.172  0.7840E-02  0.1183E+00
      5.402  0.2054E-01  0.1231E+00
      5.633  0.1500E-01  0.1265E+00
      5.863  0.1594E-01  0.1302E+00
      6.094  0.1417E-01  0.1335E+00
      6.324  0.2650E-01  0.1396E+00
      6.554  0.1973E-01  0.1441E+00
      6.785  0.2630E-01  0.1502E+00
      7.015  0.1591E-01  0.1539E+00
      7.246  0.1735E-01  0.1579E+00
      7.476  0.2073E-01  0.1626E+00
      7.707  0.5578E-02  0.1639E+00
      7.937  0.1164E-01  0.1666E+00
      8.168  0.3462E-01  0.1746E+00
      8.398  0.1810E-01  0.1788E+00
      8.629  0.1227E-01  0.1816E+00
      8.859  0.1845E-01  0.1858E+00
      9.090  0.2874E-01  0.1925E+00
      9.320  0.1437E-01  0.1958E+00
      9.550  0.1571E-01  0.1994E+00
      9.781  0.2723E-01  0.2057E+00
     10.011  0.2156E-01  0.2106E+00
     10.242  0.1529E-01  0.2142E+00
     10.472  0.1610E-01  0.2179E+00
     10.703  0.8726E-02  0.2199E+00
     10.933  0.2913E-01  0.2266E+00
     11.164  0.3035E-01  0.2336E+00
     11.394  0.2403E-01  0.2391E+00
     11.625  0.2339E-01  0.2445E+00
     11.855  0.2858E-01  0.2511E+00
     12.086  0.2531E-01  0.2569E+00
     12.316  0.1725E-01  0.2609E+00
     12.547  0.1503E-01  0.2644E+00
     12.777  0.6121E-02  0.2658E+00
     13.007  0.1724E-01  0.2698E+00
     13.238  0.9998E-02  0.2721E+00
     13.468  0.2271E-01  0.2773E+00
     13.699  0.3139E-01  0.2845E+00
     13.929  0.1935E-01  0.2890E+00
     14.160  0.2968E-01  0.2958E+00
     14.390  0.1758E-01  0.2999E+00
     14.621  0.1705E-01  0.3038E+00
     14.851  0.2030E-01  0.3085E+00
     15.082  0.2170E-01  0.3135E+00
     15.312  0.4039E-01  0.3228E+00
     15.543  0.1645E-01  0.3266E+00
     15.773  0.2214E-01  0.3317E+00
     16.003  0.2333E-01  0.3371E+00
     16.234  0.1824E-01  0.3413E+00
     16.464  0.2296E-01  0.3466E+00
     16.695  0.1978E-01  0.3511E+00
     16.925  0.1758E-01  0.3552E+00
     17.156  0.2428E-01  0.3608E+00
     17.386  0.4110E-01  0.3702E+00
     17.617  0.2266E-01  0.3755E+00
     17.847  0.2373E-01  0.3809E+00
     18.078  0.9783E-02  0.3832E+00
     18.308  0.4537E-02  0.3842E+00
     18.539  0.3270E-01  0.3918E+00
     18.769  0.4205E-01  0.4015E+00
     19.000  0.9352E-02  0.4036E+00
     19.230  0.2169E-01  0.4086E+00
     19.460  0.3067E-01  0.4157E+00
     19.691  0.2959E-01  0.4225E+00
     19.921  0.2518E-01  0.4283E+00
     20.152  0.2999E-01  0.4352E+00
     20.382  0.2488E-01  0.4410E+00
     20.613  0.2331E-01  0.4463E+00
     20.843  0.3860E-01  0.4552E+00
     21.074  0.1966E-01  0.4597E+00
     21.304  0.2967E-01  0.4666E+00
     21.535  0.1373E-01  0.4697E+00
     21.765  0.1823E-01  0.4739E+00
     21.996  0.2920E-01  0.4807E+00
     22.226  0.3938E-01  0.4898E+00
     22.456  0.3409E-01  0.4976E+00
     22.687  0.3335E-01  0.5053E+00
     22.917  0.1947E-01  0.5098E+00
     23.148  0.2809E-01  0.5163E+00
     23.378  0.4004E-01  0.5255E+00
     23.609  0.1944E-01  0.5300E+00
     23.839  0.2668E-01  0.5361E+00
     24.070  0.2988E-01  0.5430E+00
     24.300  0.3813E-01  0.5518E+00
     24.531  0.3089E-01  0.5589E+00
     24.761  0.3321E-01  0.5666E+00
     24.992  0.2678E-01  0.5727E+00
     25.222  0.2860E-01  0.5793E+00
     25.453  0.2331E-01  0.5847E+00
     25.683  0.1500E-01  0.5882E+00
     25.913  0.2380E-01  0.5936E+00
     26.144  0.2164E-01  0.5986E+00
     26.374  0.2329E-01  0.6040E+00
     26.605  0.5317E-01  0.6162E+00
     26.835  0.2949E-01  0.6230E+00
     27.066  0.1747E-01  0.6271E+00
     27.296  0.3449E-01  0.6350E+00
     27.527  0.2402E-01  0.6406E+00
     27.757  0.3104E-01  0.6477E+00
     27.988  0.2342E-01  0.6531E+00
     28.218  0.3328E-01  0.6608E+00
     28.449  0.2857E-01  0.6674E+00
     28.679  0.8285E-02  0.6693E+00
     28.909  0.2124E-01  0.6742E+00
     29.140  0.3887E-01  0.6831E+00
     29.370  0.2987E-01  0.6900E+00
     29.601  0.2577E-01  0.6959E+00
     29.831  0.2662E-01  0.7021E+00
     30.062  0.2914E-01  0.7088E+00
     30.292  0.2849E-01  0.7154E+00
     30.523  0.1993E-01  0.7200E+00
     30.753  0.3726E-01  0.7285E+00
     30.984  0.3495E-01  0.7366E+00
     31.214  0.3475E-01  0.7446E+00
     31.445  0.4075E-01  0.7540E+00
     31.675  0.2233E-01  0.7591E+00
     31.906  0.1642E-01  0.7629E+00
     32.136  0.3883E-01  0.7719E+00
     32.366  0.2103E-01  0.7767E+00
     32.597  0.4410E-01  0.7869E+00
     32.827  0.3057E-01  0.7939E+00
     33.058  0.2237E-01  0.7991E+00
     33.288  0.2107E-01  0.8039E+00
     33.519  0.4885E-01  0.8152E+00
     33.749  0.3219E-01  0.8226E+00
     33.980  0.2662E-01  0.8288E+00
     34.210  0.2332E-01  0.8341E+00
     34.441  0.3127E-01  0.8413E+00
     34.671  0.2931E-01  0.8481E+00
     34.902  0.2516E-01  0.8539E+00
     35.132  0.2599E-01  0.8599E+00
     35.362  0.2888E-01  0.8665E+00
     35.593  0.4069E-01  0.8759E+00
     35.823  0.3599E-01  0.8842E+00
     36.054  0.2900E-01  0.8909E+00
     36.284  0.4320E-01  0.9008E+00
     36.515  0.2244E-01  0.9060E+00
     36.745  0.2962E-01  0.9128E+00
     36.976  0.3467E-01  0.9208E+00
     37.206  0.1481E-01  0.9243E+00
     37.437  0.2402E-01  0.9298E+00
     37.667  0.4351E-01  0.9398E+00
     37.898  0.1578E-01  0.9435E+00
     38.128  0.1616E-01  0.9472E+00
     38.358  0.1643E-02  0.9476E+00
     38.589  0.1092E-01  0.9501E+00
     38.819  0.9259E-02  0.9522E+00
     39.050  0.4880E-02  0.9533E+00
     39.280  0.4452E-02  0.9544E+00
     39.511  0.1779E-01  0.9585E+00
     39.741  0.1527E-02  0.9588E+00
     39.972  0.2747E-02  0.9594E+00
     40.202  0.2027E-04  0.9594E+00
     40.433  0.1234E-10  0.9594E+00
     40.663  0.1063E-07  0.9594E+00
     40.894  0.2844E-03  0.9595E+00
     41.124  0.2080E-02  0.9600E+00
     41.355  0.4587E-04  0.9600E+00
     41.585  0.1161E-09  0.9600E+00
     41.815  0.0000E+00  0.9600E+00
     42.046  0.0000E+00  0.9600E+00
     42.276  0.0000E+00  0.9600E+00
     42.507  0.0000E+00  0.9600E+00
     42.737  0.0000E+00  0.9600E+00
     42.968  0.0000E+00  0.9600E+00
     43.198  0.0000E+00  0.9600E+00
     43.429  0.0000E+00  0.9600E+00
     43.659  0.0000E+00  0.9600E+00
     43.890  0.0000E+00  0.9600E+00
     44.120  0.0000E+00  0.9600E+00
