  16  16   0  16
  0.1957334E+02  0.4910000E-09  0.4910000E-09  0.1500000E-08  0.5000000E-15
  1.000000000000000E-004
  CAR 
 Lattice                                 
     10.23331469    -21.31230965  301     -0.22933694      1.00000000
    -21.312  0.0000E+00  0.0000E+00  0.0000E+00  0.0000E+00
    -21.207  0.0000E+00  0.0000E+00  0.0000E+00  0.0000E+00
    -21.102  0.0000E+00  0.0000E+00  0.0000E+00  0.0000E+00
    -20.997  0.0000E+00  0.0000E+00  0.0000E+00  0.0000E+00
    -20.892  0.0000E+00  0.0000E+00  0.0000E+00  0.0000E+00
    -20.787  0.0000E+00  0.0000E+00  0.0000E+00  0.0000E+00
    -20.681  0.0000E+00  0.0000E+00  0.0000E+00  0.0000E+00
    -20.576  0.0000E+00  0.0000E+00  0.0000E+00  0.0000E+00
    -20.471  0.0000E+00  0.0000E+00  0.0000E+00  0.0000E+00
    -20.366  0.1508E-14  0.1508E-14  0.1586E-15  0.1586E-15
    -20.261  0.1967E-10  0.1967E-10  0.2069E-11  0.2069E-11
    -20.156  0.3304E-07  0.3304E-07  0.3476E-08  0.3476E-08
    -20.050  0.7801E-05  0.7801E-05  0.8238E-06  0.8238E-06
    -19.945  0.2876E-03  0.2876E-03  0.3106E-04  0.3106E-04
    -19.840  0.2022E-02  0.2022E-02  0.2437E-03  0.2437E-03
    -19.735  0.4224E-02  0.4224E-02  0.6879E-03  0.6878E-03
    -19.630  0.4635E-02  0.4635E-02  0.1175E-02  0.1175E-02
    -19.525  0.5014E-02  0.5014E-02  0.1703E-02  0.1703E-02
    -19.420  0.4292E-02  0.4292E-02  0.2154E-02  0.2154E-02
    -19.314  0.5482E-02  0.5482E-02  0.2730E-02  0.2730E-02
    -19.209  0.4256E-02  0.4256E-02  0.3178E-02  0.3178E-02
    -19.104  0.4484E-02  0.4484E-02  0.3649E-02  0.3649E-02
    -18.999  0.6061E-02  0.6061E-02  0.4287E-02  0.4287E-02
    -18.894  0.3782E-02  0.3782E-02  0.4684E-02  0.4684E-02
    -18.789  0.4186E-02  0.4186E-02  0.5124E-02  0.5124E-02
    -18.684  0.6248E-02  0.6248E-02  0.5781E-02  0.5781E-02
    -18.578  0.5137E-02  0.5137E-02  0.6322E-02  0.6322E-02
    -18.473  0.2941E-02  0.2941E-02  0.6631E-02  0.6631E-02
    -18.368  0.4922E-02  0.4922E-02  0.7148E-02  0.7148E-02
    -18.263  0.6892E-02  0.6892E-02  0.7873E-02  0.7873E-02
    -18.158  0.4478E-02  0.4478E-02  0.8344E-02  0.8344E-02
    -18.053  0.3739E-02  0.3739E-02  0.8737E-02  0.8737E-02
    -17.947  0.3360E-02  0.3360E-02  0.9091E-02  0.9091E-02
    -17.842  0.7161E-02  0.7161E-02  0.9844E-02  0.9844E-02
    -17.737  0.6279E-02  0.6279E-02  0.1050E-01  0.1050E-01
    -17.632  0.3306E-02  0.3306E-02  0.1085E-01  0.1085E-01
    -17.527  0.3605E-02  0.3605E-02  0.1123E-01  0.1123E-01
    -17.422  0.4393E-02  0.4393E-02  0.1169E-01  0.1169E-01
    -17.317  0.6801E-02  0.6801E-02  0.1241E-01  0.1241E-01
    -17.211  0.6472E-02  0.6472E-02  0.1309E-01  0.1309E-01
    -17.106  0.4451E-02  0.4451E-02  0.1356E-01  0.1356E-01
    -17.001  0.2224E-02  0.2224E-02  0.1379E-01  0.1379E-01
    -16.896  0.4210E-02  0.4210E-02  0.1423E-01  0.1423E-01
    -16.791  0.7050E-02  0.7050E-02  0.1497E-01  0.1497E-01
    -16.686  0.6351E-02  0.6351E-02  0.1564E-01  0.1564E-01
    -16.580  0.5253E-02  0.5253E-02  0.1619E-01  0.1619E-01
    -16.475  0.4433E-02  0.4433E-02  0.1666E-01  0.1666E-01
    -16.370  0.2822E-02  0.2822E-02  0.1696E-01  0.1696E-01
    -16.265  0.3024E-02  0.3024E-02  0.1728E-01  0.1728E-01
    -16.160  0.8704E-02  0.8704E-02  0.1819E-01  0.1819E-01
    -16.055  0.7295E-02  0.7295E-02  0.1896E-01  0.1896E-01
    -15.950  0.7249E-02  0.7249E-02  0.1972E-01  0.1972E-01
    -15.844  0.9415E-02  0.9415E-02  0.2071E-01  0.2071E-01
    -15.739  0.1032E-01  0.1032E-01  0.2179E-01  0.2179E-01
    -15.634  0.9496E-02  0.9496E-02  0.2279E-01  0.2279E-01
    -15.529  0.1208E-01  0.1208E-01  0.2406E-01  0.2406E-01
    -15.424  0.1564E-01  0.1564E-01  0.2571E-01  0.2571E-01
    -15.319  0.1399E-01  0.1399E-01  0.2718E-01  0.2718E-01
    -15.213  0.1135E-01  0.1135E-01  0.2837E-01  0.2837E-01
    -15.108  0.1410E-01  0.1410E-01  0.2985E-01  0.2985E-01
    -15.003  0.1112E-01  0.1112E-01  0.3102E-01  0.3102E-01
    -14.898  0.1000E-01  0.1000E-01  0.3208E-01  0.3208E-01
    -14.793  0.9530E-02  0.9530E-02  0.3308E-01  0.3308E-01
    -14.688  0.1047E-01  0.1047E-01  0.3418E-01  0.3418E-01
    -14.583  0.8362E-02  0.8362E-02  0.3506E-01  0.3506E-01
    -14.477  0.8586E-02  0.8586E-02  0.3596E-01  0.3596E-01
    -14.372  0.9353E-02  0.9353E-02  0.3694E-01  0.3694E-01
    -14.267  0.8075E-02  0.8075E-02  0.3779E-01  0.3779E-01
    -14.162  0.1292E-01  0.1292E-01  0.3915E-01  0.3915E-01
    -14.057  0.1486E-01  0.1486E-01  0.4071E-01  0.4071E-01
    -13.952  0.8140E-02  0.8140E-02  0.4157E-01  0.4157E-01
    -13.847  0.5501E-02  0.5501E-02  0.4215E-01  0.4215E-01
    -13.741  0.4324E-02  0.4324E-02  0.4260E-01  0.4260E-01
    -13.636  0.3777E-02  0.3777E-02  0.4300E-01  0.4300E-01
    -13.531  0.7157E-02  0.7157E-02  0.4375E-01  0.4375E-01
    -13.426  0.1067E-01  0.1067E-01  0.4487E-01  0.4487E-01
    -13.321  0.8051E-02  0.8051E-02  0.4572E-01  0.4572E-01
    -13.216  0.5634E-02  0.5634E-02  0.4631E-01  0.4631E-01
    -13.110  0.7572E-02  0.7572E-02  0.4711E-01  0.4711E-01
    -13.005  0.7242E-02  0.7242E-02  0.4787E-01  0.4787E-01
    -12.900  0.6423E-02  0.6423E-02  0.4855E-01  0.4855E-01
    -12.795  0.8173E-02  0.8173E-02  0.4941E-01  0.4941E-01
    -12.690  0.8104E-02  0.8104E-02  0.5026E-01  0.5026E-01
    -12.585  0.8897E-02  0.8896E-02  0.5119E-01  0.5119E-01
    -12.480  0.1366E-01  0.1366E-01  0.5263E-01  0.5263E-01
    -12.374  0.1089E-01  0.1089E-01  0.5378E-01  0.5378E-01
    -12.269  0.1273E-01  0.1273E-01  0.5511E-01  0.5511E-01
    -12.164  0.1245E-01  0.1245E-01  0.5642E-01  0.5642E-01
    -12.059  0.1118E-01  0.1118E-01  0.5760E-01  0.5760E-01
    -11.954  0.1873E-01  0.1873E-01  0.5957E-01  0.5957E-01
    -11.849  0.1723E-01  0.1723E-01  0.6138E-01  0.6138E-01
    -11.743  0.1233E-01  0.1233E-01  0.6268E-01  0.6268E-01
    -11.638  0.1128E-01  0.1128E-01  0.6386E-01  0.6386E-01
    -11.533  0.1005E-01  0.1005E-01  0.6492E-01  0.6492E-01
    -11.428  0.9489E-02  0.9489E-02  0.6592E-01  0.6592E-01
    -11.323  0.5329E-02  0.5329E-02  0.6648E-01  0.6648E-01
    -11.218  0.2784E-02  0.2784E-02  0.6677E-01  0.6677E-01
    -11.113  0.4295E-02  0.4295E-02  0.6722E-01  0.6722E-01
    -11.007  0.6163E-02  0.6163E-02  0.6787E-01  0.6787E-01
    -10.902  0.6062E-02  0.6062E-02  0.6851E-01  0.6851E-01
    -10.797  0.6705E-02  0.6705E-02  0.6921E-01  0.6921E-01
    -10.692  0.1079E-01  0.1079E-01  0.7035E-01  0.7035E-01
    -10.587  0.1171E-01  0.1171E-01  0.7158E-01  0.7158E-01
    -10.482  0.1171E-01  0.1171E-01  0.7281E-01  0.7281E-01
    -10.376  0.1853E-01  0.1853E-01  0.7476E-01  0.7476E-01
    -10.271  0.1550E-01  0.1550E-01  0.7639E-01  0.7639E-01
    -10.166  0.6556E-02  0.6556E-02  0.7708E-01  0.7708E-01
    -10.061  0.5102E-02  0.5102E-02  0.7761E-01  0.7761E-01
     -9.956  0.1264E-01  0.1264E-01  0.7894E-01  0.7894E-01
     -9.851  0.1559E-01  0.1559E-01  0.8058E-01  0.8058E-01
     -9.746  0.1024E-01  0.1024E-01  0.8166E-01  0.8166E-01
     -9.640  0.5547E-02  0.5547E-02  0.8224E-01  0.8224E-01
     -9.535  0.4165E-02  0.4165E-02  0.8268E-01  0.8268E-01
     -9.430  0.1367E-01  0.1367E-01  0.8412E-01  0.8412E-01
     -9.325  0.2001E-01  0.2001E-01  0.8622E-01  0.8622E-01
     -9.220  0.1932E-01  0.1932E-01  0.8825E-01  0.8825E-01
     -9.115  0.1724E-01  0.1724E-01  0.9007E-01  0.9007E-01
     -9.010  0.1123E-01  0.1123E-01  0.9125E-01  0.9125E-01
     -8.904  0.1022E-01  0.1022E-01  0.9232E-01  0.9232E-01
     -8.799  0.1359E-01  0.1359E-01  0.9375E-01  0.9375E-01
     -8.694  0.1911E-01  0.1911E-01  0.9576E-01  0.9576E-01
     -8.589  0.1559E-01  0.1559E-01  0.9740E-01  0.9740E-01
     -8.484  0.1062E-01  0.1062E-01  0.9851E-01  0.9851E-01
     -8.379  0.1198E-01  0.1198E-01  0.9977E-01  0.9977E-01
     -8.273  0.1961E-01  0.1961E-01  0.1018E+00  0.1018E+00
     -8.168  0.1504E-01  0.1504E-01  0.1034E+00  0.1034E+00
     -8.063  0.1111E-01  0.1111E-01  0.1046E+00  0.1046E+00
     -7.958  0.1611E-01  0.1611E-01  0.1063E+00  0.1063E+00
     -7.853  0.1392E-01  0.1392E-01  0.1077E+00  0.1077E+00
     -7.748  0.2046E-01  0.2046E-01  0.1099E+00  0.1099E+00
     -7.643  0.2548E-01  0.2548E-01  0.1126E+00  0.1126E+00
     -7.537  0.1561E-01  0.1561E-01  0.1142E+00  0.1142E+00
     -7.432  0.1376E-01  0.1376E-01  0.1157E+00  0.1157E+00
     -7.327  0.1531E-01  0.1531E-01  0.1173E+00  0.1173E+00
     -7.222  0.2101E-01  0.2101E-01  0.1195E+00  0.1195E+00
     -7.117  0.1878E-01  0.1878E-01  0.1215E+00  0.1215E+00
     -7.012  0.1504E-01  0.1504E-01  0.1230E+00  0.1230E+00
     -6.906  0.1417E-01  0.1417E-01  0.1245E+00  0.1245E+00
     -6.801  0.2043E-01  0.2043E-01  0.1267E+00  0.1267E+00
     -6.696  0.2508E-01  0.2508E-01  0.1293E+00  0.1293E+00
     -6.591  0.2943E-01  0.2943E-01  0.1324E+00  0.1324E+00
     -6.486  0.2997E-01  0.2997E-01  0.1356E+00  0.1356E+00
     -6.381  0.2647E-01  0.2647E-01  0.1383E+00  0.1383E+00
     -6.276  0.2841E-01  0.2841E-01  0.1413E+00  0.1413E+00
     -6.170  0.2020E-01  0.2020E-01  0.1435E+00  0.1435E+00
     -6.065  0.1689E-01  0.1689E-01  0.1452E+00  0.1452E+00
     -5.960  0.1849E-01  0.1849E-01  0.1472E+00  0.1472E+00
     -5.855  0.1072E-01  0.1072E-01  0.1483E+00  0.1483E+00
     -5.750  0.1693E-01  0.1693E-01  0.1501E+00  0.1501E+00
     -5.645  0.2240E-01  0.2240E-01  0.1524E+00  0.1524E+00
     -5.539  0.1258E-01  0.1258E-01  0.1538E+00  0.1538E+00
     -5.434  0.6813E-02  0.6813E-02  0.1545E+00  0.1545E+00
     -5.329  0.1337E-01  0.1337E-01  0.1559E+00  0.1559E+00
     -5.224  0.2066E-01  0.2066E-01  0.1581E+00  0.1581E+00
     -5.119  0.1691E-01  0.1691E-01  0.1598E+00  0.1598E+00
     -5.014  0.1153E-01  0.1153E-01  0.1610E+00  0.1610E+00
     -4.909  0.1257E-01  0.1257E-01  0.1624E+00  0.1624E+00
     -4.803  0.1290E-01  0.1290E-01  0.1637E+00  0.1637E+00
     -4.698  0.1109E-01  0.1109E-01  0.1649E+00  0.1649E+00
     -4.593  0.1330E-01  0.1330E-01  0.1663E+00  0.1663E+00
     -4.488  0.1172E-01  0.1172E-01  0.1675E+00  0.1675E+00
     -4.383  0.1217E-01  0.1217E-01  0.1688E+00  0.1688E+00
     -4.278  0.2475E-01  0.2475E-01  0.1714E+00  0.1714E+00
     -4.173  0.2332E-01  0.2332E-01  0.1739E+00  0.1739E+00
     -4.067  0.1153E-01  0.1153E-01  0.1751E+00  0.1751E+00
     -3.962  0.1434E-01  0.1434E-01  0.1766E+00  0.1766E+00
     -3.857  0.2524E-01  0.2524E-01  0.1792E+00  0.1792E+00
     -3.752  0.2409E-01  0.2409E-01  0.1818E+00  0.1818E+00
     -3.647  0.2270E-01  0.2270E-01  0.1842E+00  0.1842E+00
     -3.542  0.2829E-01  0.2829E-01  0.1871E+00  0.1871E+00
     -3.436  0.2604E-01  0.2604E-01  0.1899E+00  0.1899E+00
     -3.331  0.1970E-01  0.1970E-01  0.1919E+00  0.1919E+00
     -3.226  0.1388E-01  0.1388E-01  0.1934E+00  0.1934E+00
     -3.121  0.1216E-01  0.1216E-01  0.1947E+00  0.1947E+00
     -3.016  0.1289E-01  0.1289E-01  0.1960E+00  0.1960E+00
     -2.911  0.1284E-01  0.1284E-01  0.1974E+00  0.1974E+00
     -2.806  0.1541E-01  0.1541E-01  0.1990E+00  0.1990E+00
     -2.700  0.1253E-01  0.1253E-01  0.2003E+00  0.2003E+00
     -2.595  0.8082E-02  0.8082E-02  0.2012E+00  0.2012E+00
     -2.490  0.9614E-02  0.9614E-02  0.2022E+00  0.2022E+00
     -2.385  0.1650E-01  0.1650E-01  0.2039E+00  0.2039E+00
     -2.280  0.1704E-01  0.1704E-01  0.2057E+00  0.2057E+00
     -2.175  0.9120E-02  0.9120E-02  0.2067E+00  0.2067E+00
     -2.069  0.1009E-01  0.1009E-01  0.2077E+00  0.2077E+00
     -1.964  0.7242E-02  0.7242E-02  0.2085E+00  0.2085E+00
     -1.859  0.5367E-02  0.5367E-02  0.2091E+00  0.2091E+00
     -1.754  0.8091E-02  0.8091E-02  0.2099E+00  0.2099E+00
     -1.649  0.9503E-02  0.9503E-02  0.2109E+00  0.2109E+00
     -1.544  0.1010E-01  0.1010E-01  0.2120E+00  0.2120E+00
     -1.439  0.8936E-02  0.8936E-02  0.2129E+00  0.2129E+00
     -1.333  0.8335E-02  0.8335E-02  0.2138E+00  0.2138E+00
     -1.228  0.5912E-02  0.5912E-02  0.2144E+00  0.2144E+00
     -1.123  0.5823E-02  0.5823E-02  0.2150E+00  0.2150E+00
     -1.018  0.4732E-02  0.4732E-02  0.2155E+00  0.2155E+00
     -0.913  0.7953E-02  0.7953E-02  0.2163E+00  0.2163E+00
     -0.808  0.7215E-02  0.7215E-02  0.2171E+00  0.2171E+00
     -0.703  0.3225E-02  0.3225E-02  0.2174E+00  0.2174E+00
     -0.597  0.1152E-02  0.1152E-02  0.2176E+00  0.2176E+00
     -0.492  0.2010E-02  0.2010E-02  0.2178E+00  0.2178E+00
     -0.387  0.4013E-02  0.4013E-02  0.2182E+00  0.2182E+00
     -0.282  0.3542E-02  0.3542E-02  0.2186E+00  0.2186E+00
     -0.177  0.3055E-02  0.3055E-02  0.2189E+00  0.2189E+00
     -0.072  0.2869E-02  0.2869E-02  0.2192E+00  0.2192E+00
      0.034  0.3380E-02  0.3380E-02  0.2196E+00  0.2196E+00
      0.139  0.2626E-02  0.2626E-02  0.2198E+00  0.2198E+00
      0.244  0.3612E-02  0.3612E-02  0.2202E+00  0.2202E+00
      0.349  0.7759E-02  0.7759E-02  0.2210E+00  0.2210E+00
      0.454  0.1260E-01  0.1260E-01  0.2223E+00  0.2223E+00
      0.559  0.1130E-01  0.1130E-01  0.2235E+00  0.2235E+00
      0.664  0.7598E-02  0.7598E-02  0.2243E+00  0.2243E+00
      0.770  0.2803E-02  0.2803E-02  0.2246E+00  0.2246E+00
      0.875  0.3964E-02  0.3964E-02  0.2250E+00  0.2250E+00
      0.980  0.1095E-01  0.1095E-01  0.2262E+00  0.2262E+00
      1.085  0.9876E-02  0.9876E-02  0.2272E+00  0.2272E+00
      1.190  0.4846E-02  0.4846E-02  0.2277E+00  0.2277E+00
      1.295  0.8292E-02  0.8292E-02  0.2286E+00  0.2286E+00
      1.401  0.1356E-01  0.1356E-01  0.2300E+00  0.2300E+00
      1.506  0.1345E-01  0.1345E-01  0.2315E+00  0.2315E+00
      1.611  0.1195E-01  0.1195E-01  0.2327E+00  0.2327E+00
      1.716  0.1054E-01  0.1054E-01  0.2338E+00  0.2338E+00
      1.821  0.1100E-01  0.1100E-01  0.2350E+00  0.2350E+00
      1.926  0.1091E-01  0.1091E-01  0.2361E+00  0.2361E+00
      2.031  0.9171E-02  0.9171E-02  0.2371E+00  0.2371E+00
      2.137  0.1123E-01  0.1123E-01  0.2383E+00  0.2383E+00
      2.242  0.1076E-01  0.1076E-01  0.2394E+00  0.2394E+00
      2.347  0.5580E-02  0.5580E-02  0.2400E+00  0.2400E+00
      2.452  0.7070E-02  0.7070E-02  0.2407E+00  0.2407E+00
      2.557  0.1423E-01  0.1423E-01  0.2422E+00  0.2422E+00
      2.662  0.1298E-01  0.1298E-01  0.2436E+00  0.2436E+00
      2.768  0.1054E-01  0.1054E-01  0.2447E+00  0.2447E+00
      2.873  0.9678E-02  0.9678E-02  0.2457E+00  0.2457E+00
      2.978  0.8603E-02  0.8600E-02  0.2466E+00  0.2466E+00
      3.083  0.1094E-01  0.1094E-01  0.2478E+00  0.2478E+00
      3.188  0.1264E-01  0.1264E-01  0.2491E+00  0.2491E+00
      3.293  0.1308E-01  0.1308E-01  0.2505E+00  0.2505E+00
      3.398  0.1987E-01  0.1986E-01  0.2526E+00  0.2526E+00
      3.504  0.2145E-01  0.2146E-01  0.2548E+00  0.2548E+00
      3.609  0.1162E-01  0.1162E-01  0.2560E+00  0.2560E+00
      3.714  0.9664E-02  0.9658E-02  0.2571E+00  0.2571E+00
      3.819  0.1452E-01  0.1453E-01  0.2586E+00  0.2586E+00
      3.924  0.2158E-01  0.2158E-01  0.2609E+00  0.2609E+00
      4.029  0.2602E-01  0.2602E-01  0.2636E+00  0.2636E+00
      4.134  0.2119E-01  0.2120E-01  0.2658E+00  0.2658E+00
      4.240  0.1730E-01  0.1729E-01  0.2676E+00  0.2676E+00
      4.345  0.1715E-01  0.1715E-01  0.2694E+00  0.2694E+00
      4.450  0.1625E-01  0.1625E-01  0.2712E+00  0.2712E+00
      4.555  0.2040E-01  0.2040E-01  0.2733E+00  0.2733E+00
      4.660  0.2305E-01  0.2304E-01  0.2757E+00  0.2757E+00
      4.765  0.2607E-01  0.2606E-01  0.2785E+00  0.2785E+00
      4.871  0.2900E-01  0.2896E-01  0.2815E+00  0.2815E+00
      4.976  0.2771E-01  0.2771E-01  0.2844E+00  0.2844E+00
      5.081  0.2650E-01  0.2652E-01  0.2872E+00  0.2872E+00
      5.186  0.2624E-01  0.2622E-01  0.2900E+00  0.2900E+00
      5.291  0.2761E-01  0.2761E-01  0.2929E+00  0.2929E+00
      5.396  0.2735E-01  0.2737E-01  0.2958E+00  0.2957E+00
      5.501  0.2434E-01  0.2433E-01  0.2983E+00  0.2983E+00
      5.607  0.2566E-01  0.2563E-01  0.3010E+00  0.3010E+00
      5.712  0.2758E-01  0.2760E-01  0.3039E+00  0.3039E+00
      5.817  0.2588E-01  0.2590E-01  0.3066E+00  0.3066E+00
      5.922  0.2141E-01  0.2140E-01  0.3089E+00  0.3089E+00
      6.027  0.1975E-01  0.1974E-01  0.3110E+00  0.3110E+00
      6.132  0.2184E-01  0.2182E-01  0.3133E+00  0.3132E+00
      6.238  0.2484E-01  0.2481E-01  0.3159E+00  0.3159E+00
      6.343  0.1665E-01  0.1669E-01  0.3176E+00  0.3176E+00
      6.448  0.1668E-01  0.1670E-01  0.3194E+00  0.3194E+00
      6.553  0.1961E-01  0.1959E-01  0.3214E+00  0.3214E+00
      6.658  0.2225E-01  0.2224E-01  0.3238E+00  0.3238E+00
      6.763  0.1645E-01  0.1649E-01  0.3255E+00  0.3255E+00
      6.868  0.1730E-01  0.1729E-01  0.3273E+00  0.3273E+00
      6.974  0.2782E-01  0.2777E-01  0.3303E+00  0.3302E+00
      7.079  0.3552E-01  0.3549E-01  0.3340E+00  0.3340E+00
      7.184  0.2994E-01  0.2998E-01  0.3371E+00  0.3371E+00
      7.289  0.2269E-01  0.2270E-01  0.3395E+00  0.3395E+00
      7.394  0.2553E-01  0.2553E-01  0.3422E+00  0.3422E+00
      7.499  0.3109E-01  0.3107E-01  0.3455E+00  0.3455E+00
      7.605  0.3550E-01  0.3549E-01  0.3492E+00  0.3492E+00
      7.710  0.3200E-01  0.3201E-01  0.3526E+00  0.3526E+00
      7.815  0.2624E-01  0.2622E-01  0.3553E+00  0.3553E+00
      7.920  0.3759E-01  0.3759E-01  0.3593E+00  0.3593E+00
      8.025  0.4136E-01  0.4138E-01  0.3636E+00  0.3636E+00
      8.130  0.3216E-01  0.3217E-01  0.3670E+00  0.3670E+00
      8.235  0.2911E-01  0.2913E-01  0.3701E+00  0.3701E+00
      8.341  0.2404E-01  0.2406E-01  0.3726E+00  0.3726E+00
      8.446  0.1355E-01  0.1357E-01  0.3740E+00  0.3740E+00
      8.551  0.4833E-02  0.4852E-02  0.3745E+00  0.3745E+00
      8.656  0.3063E-02  0.3066E-02  0.3749E+00  0.3749E+00
      8.761  0.9485E-03  0.9489E-03  0.3750E+00  0.3750E+00
      8.866  0.3143E-03  0.3144E-03  0.3750E+00  0.3750E+00
      8.971  0.8513E-04  0.8516E-04  0.3750E+00  0.3750E+00
      9.077  0.3834E-05  0.3836E-05  0.3750E+00  0.3750E+00
      9.182  0.2276E-07  0.2278E-07  0.3750E+00  0.3750E+00
      9.287  0.1646E-10  0.1648E-10  0.3750E+00  0.3750E+00
      9.392  0.1391E-14  0.1393E-14  0.3750E+00  0.3750E+00
      9.497  0.0000E+00  0.0000E+00  0.3750E+00  0.3750E+00
      9.602  0.0000E+00  0.0000E+00  0.3750E+00  0.3750E+00
      9.708  0.0000E+00  0.0000E+00  0.3750E+00  0.3750E+00
      9.813  0.0000E+00  0.0000E+00  0.3750E+00  0.3750E+00
      9.918  0.0000E+00  0.0000E+00  0.3750E+00  0.3750E+00
     10.023  0.0000E+00  0.0000E+00  0.3750E+00  0.3750E+00
     10.128  0.0000E+00  0.0000E+00  0.3750E+00  0.3750E+00
     10.233  0.0000E+00  0.0000E+00  0.3750E+00  0.3750E+00
