Lattice                                 
           1
     4.252185    2.455000    0.000000
    -4.252185    2.455000    0.000000
     0.000000    0.000000   15.000000
   B    C 
     8     8
Direct configuration=     1
   0.66888689  0.00000000  0.10000000
   0.33111211  0.00000000  0.10000000
   0.00000000  0.33111211  0.10000000
   0.00000000  0.66888689  0.10000000
   0.33111211  0.33111211  0.10000000
   0.66888689  0.66888689  0.10000000
   0.66666600  0.33333300  0.09922189
   0.33333300  0.66666600  0.10077811
   0.27777711  0.22222189  0.46960000
   0.44444411  0.05555489  0.46960000
   0.27777711  0.72222189  0.46960000
   0.44444411  0.55555489  0.46960000
   0.77777711  0.22222189  0.46960000
   0.94444411  0.05555489  0.46960000
   0.77777711  0.72222189  0.46960000
   0.94444411  0.55555489  0.46960000
Direct configuration=     2
   0.67246419 -0.00000001  0.10002668
   0.32753497 -0.00000006  0.10002673
   0.00000001  0.32753481  0.10002668
   0.00000006  0.67246403  0.10002673
   0.32753465  0.32753457  0.10002675
   0.67246443  0.67246435  0.10002675
   0.66666618  0.33333282  0.09922298
   0.33333258  0.66666642  0.10083409
   0.27777212  0.22221720  0.46957314
   0.44444167  0.05555719  0.46957252
   0.27777724  0.72222176  0.46957203
   0.44444483  0.55555417  0.46957273
   0.77778069  0.22221831  0.46957295
   0.94444464  0.05555436  0.46957360
   0.77778180  0.72222688  0.46957314
   0.94444181  0.55555733  0.46957252
Direct configuration=     3
   0.67050857 -0.00000001  0.10001209
   0.32949050 -0.00000003  0.10001212
   0.00000001  0.32949043  0.10001209
   0.00000003  0.67050850  0.10001212
   0.32949036  0.32949032  0.10001213
   0.67050868  0.67050864  0.10001213
   0.66666608  0.33333292  0.09922238
   0.33333281  0.66666619  0.10080349
   0.27777485  0.22221976  0.46958782
   0.44444301  0.05555593  0.46958754
   0.27777717  0.72222183  0.46958732
   0.44444444  0.55555456  0.46958764
   0.77777873  0.22222027  0.46958774
   0.94444435  0.05555465  0.46958803
   0.77777924  0.72222415  0.46958782
   0.94444307  0.55555599  0.46958754
Direct configuration=     4
   0.67050958 -0.00000001  0.10001210
   0.32948950 -0.00000003  0.10001212
   0.00000001  0.32948942  0.10001210
   0.00000003  0.67050950  0.10001212
   0.32948935  0.32948931  0.10001213
   0.67050969  0.67050965  0.10001213
   0.66666608  0.33333292  0.09922238
   0.33333281  0.66666619  0.10080351
   0.27777485  0.22221976  0.46958781
   0.44444300  0.05555593  0.46958753
   0.27777717  0.72222183  0.46958731
   0.44444444  0.55555456  0.46958763
   0.77777873  0.22222027  0.46958773
   0.94444435  0.05555465  0.46958803
   0.77777924  0.72222415  0.46958781
   0.94444307  0.55555600  0.46958753
Direct configuration=     5
   0.67050954 -0.00000003  0.10003603
   0.32948964  0.00000002  0.10003609
   0.00000003  0.32948946  0.10003603
  -0.00000002  0.67050936  0.10003609
   0.32948953  0.32948950  0.10003612
   0.67050950  0.67050947  0.10003612
   0.66666608  0.33333292  0.09922884
   0.33333280  0.66666620  0.10084691
   0.27777773  0.22222343  0.46956383
   0.44444521  0.05555413  0.46956310
   0.27777671  0.72222229  0.46956255
   0.44444442  0.55555458  0.46956336
   0.77777587  0.22222313  0.46956362
   0.94444440  0.05555460  0.46956436
   0.77777557  0.72222127  0.46956383
   0.94444487  0.55555379  0.46956310
Direct configuration=     6
   0.67050943 -0.00000009  0.10010781
   0.32949005  0.00000015  0.10010799
   0.00000009  0.32948957  0.10010781
  -0.00000015  0.67050895  0.10010799
   0.32949008  0.32949004  0.10010808
   0.67050896  0.67050892  0.10010808
   0.66666606  0.33333294  0.09924821
   0.33333277  0.66666623  0.10097712
   0.27778638  0.22223442  0.46949189
   0.44445182  0.05554870  0.46948982
   0.27777531  0.72222369  0.46948828
   0.44444436  0.55555464  0.46949054
   0.77776728  0.22223172  0.46949130
   0.94444456  0.05555444  0.46949337
   0.77776458  0.72221262  0.46949189
   0.94445030  0.55554718  0.46948982
Direct configuration=     7
   0.67050922 -0.00000023  0.10025137
   0.32949089  0.00000043  0.10025180
   0.00000023  0.32948978  0.10025137
  -0.00000043  0.67050811  0.10025180
   0.32949117  0.32949113  0.10025201
   0.67050787  0.67050783  0.10025201
   0.66666603  0.33333297  0.09928695
   0.33333271  0.66666629  0.10123754
   0.27780367  0.22225640  0.46934801
   0.44446505  0.05553785  0.46934325
   0.27777252  0.72222648  0.46933972
   0.44444425  0.55555475  0.46934491
   0.77775010  0.22224890  0.46934665
   0.94444487  0.05555413  0.46935138
   0.77774260  0.72219533  0.46934801
   0.94446115  0.55553395  0.46934325
Direct configuration=     8
   0.67050879 -0.00000049  0.10053848
   0.32949256  0.00000098  0.10053941
   0.00000049  0.32949021  0.10053848
  -0.00000098  0.67050644  0.10053941
   0.32949335  0.32949331  0.10053985
   0.67050569  0.67050565  0.10053985
   0.66666597  0.33333303  0.09936444
   0.33333260  0.66666640  0.10175838
   0.27783825  0.22230037  0.46906024
   0.44449150  0.05551615  0.46905011
   0.27776694  0.72223206  0.46904261
   0.44444402  0.55555498  0.46905364
   0.77771574  0.22228326  0.46905735
   0.94444549  0.05555351  0.46906740
   0.77769863  0.72216075  0.46906024
   0.94448285  0.55550750  0.46905011
Direct configuration=     9
   0.67050792 -0.00000102  0.10111272
   0.32949591  0.00000207  0.10111463
   0.00000102  0.32949108  0.10111272
  -0.00000207  0.67050309  0.10111463
   0.32949771  0.32949767  0.10111555
   0.67050133  0.67050129  0.10111555
   0.66666584  0.33333316  0.09951941
   0.33333237  0.66666663  0.10280006
   0.27790741  0.22238831  0.46848470
   0.44454440  0.05547276  0.46846382
   0.27775578  0.72224322  0.46844838
   0.44444356  0.55555544  0.46847111
   0.77764703  0.22235197  0.46847877
   0.94444673  0.05555227  0.46849945
   0.77761069  0.72209159  0.46848470
   0.94452624  0.55545460  0.46846382
Direct configuration=    10
   0.67050620 -0.00000208  0.10226119
   0.32950260  0.00000426  0.10226506
   0.00000208  0.32949280  0.10226119
  -0.00000426  0.67049640  0.10226506
   0.32950644  0.32950639  0.10226693
   0.67049261  0.67049256  0.10226693
   0.66666559  0.33333341  0.09982936
   0.33333192  0.66666708  0.10488341
   0.27804573  0.22256418  0.46733362
   0.44465021  0.05538596  0.46729125
   0.27773345  0.72226555  0.46725994
   0.44444265  0.55555635  0.46730605
   0.77750960  0.22248940  0.46732159
   0.94444921  0.05554979  0.46736354
   0.77743482  0.72195327  0.46733362
   0.94461304  0.55534879  0.46729125
Direct configuration=    11
   0.67050275 -0.00000421  0.10455813
   0.32951598  0.00000863  0.10456594
   0.00000421  0.32949625  0.10455813
  -0.00000863  0.67048302  0.10456594
   0.32952388  0.32952383  0.10456970
   0.67047517  0.67047512  0.10456970
   0.66666509  0.33333391  0.10044925
   0.33333101  0.66666799  0.10905013
   0.27832238  0.22291593  0.46503146
   0.44486183  0.05521237  0.46494611
   0.27768880  0.72231020  0.46488304
   0.44444083  0.55555817  0.46497593
   0.77723473  0.22276427  0.46500723
   0.94445417  0.05554483  0.46509172
   0.77708307  0.72167662  0.46503146
   0.94478663  0.55513717  0.46494611
Direct configuration=    12
   0.67049585 -0.00000845  0.10915201
   0.32954275  0.00001738  0.10916769
   0.00000845  0.32950315  0.10915201
  -0.00001738  0.67045625  0.10916769
   0.32955878  0.32955872  0.10917525
   0.67044028  0.67044022  0.10917525
   0.66666409  0.33333491  0.10168903
   0.33332919  0.66666981  0.11738355
   0.27887567  0.22361942  0.46042715
   0.44528506  0.05486520  0.46025584
   0.27759950  0.72239950  0.46012925
   0.44443718  0.55556182  0.46031569
   0.77668501  0.22331399  0.46037852
   0.94446409  0.05553491  0.46054809
   0.77637958  0.72112333  0.46042715
   0.94513380  0.55471394  0.46025584
Direct configuration=    13
   0.67048205 -0.00001695  0.11833976
   0.32959629  0.00003488  0.11837119
   0.00001695  0.32951695  0.11833976
  -0.00003488  0.67040271  0.11837119
   0.32962857  0.32962848  0.11838634
   0.67037052  0.67037043  0.11838634
   0.66666209  0.33333691  0.10416860
   0.33332555  0.66667345  0.13405041
   0.27998225  0.22502641  0.45121853
   0.44613153  0.05417085  0.45087528
   0.27742089  0.72257811  0.45062166
   0.44442988  0.55556912  0.45099521
   0.77558555  0.22441345  0.45112109
   0.94448393  0.05551507  0.45146083
   0.77497259  0.72001675  0.45121853
   0.94582815  0.55386747  0.45087528
Direct configuration=    14
   0.67048999 -0.00001206  0.11305326
   0.32956548  0.00002481  0.11307563
   0.00001206  0.32950901  0.11305326
  -0.00002481  0.67043352  0.11307563
   0.32958841  0.32958834  0.11308641
   0.67041066  0.67041059  0.11308641
   0.66666324  0.33333576  0.10274189
   0.33332764  0.66667136  0.12446054
   0.27934554  0.22421685  0.45651703
   0.44564449  0.05457037  0.45627272
   0.27752366  0.72247534  0.45609218
   0.44443408  0.55556492  0.45635808
   0.77621816  0.22378084  0.45644767
   0.94447252  0.05552648  0.45668951
   0.77578215  0.72065346  0.45651703
   0.94542863  0.55435451  0.45627272
Direct configuration=    15
   0.67048998 -0.00001206  0.11305400
   0.32956549  0.00002481  0.11307638
   0.00001206  0.32950902  0.11305400
  -0.00002481  0.67043351  0.11307638
   0.32958843  0.32958835  0.11308716
   0.67041065  0.67041057  0.11308716
   0.66666324  0.33333576  0.10274209
   0.33332764  0.66667136  0.12446189
   0.27934558  0.22421690  0.45651629
   0.44564451  0.05457035  0.45627196
   0.27752366  0.72247534  0.45609142
   0.44443407  0.55556493  0.45635732
   0.77621812  0.22378088  0.45644693
   0.94447251  0.05552649  0.45668877
   0.77578210  0.72065342  0.45651629
   0.94542865  0.55435449  0.45627196
Direct configuration=    16
   0.67048994 -0.00001207  0.11305623
   0.32956553  0.00002481  0.11307861
   0.00001207  0.32950906  0.11305623
  -0.00002481  0.67043347  0.11307861
   0.32958847  0.32958840  0.11308939
   0.67041060  0.67041053  0.11308939
   0.66666324  0.33333576  0.10274269
   0.33332764  0.66667136  0.12446593
   0.27934572  0.22421704  0.45651406
   0.44564458  0.05457028  0.45626969
   0.27752365  0.72247535  0.45608912
   0.44443405  0.55556495  0.45635507
   0.77621802  0.22378098  0.45644468
   0.94447250  0.05552650  0.45668657
   0.77578196  0.72065328  0.45651406
   0.94542872  0.55435442  0.45626969
Direct configuration=    17
   0.67048988 -0.00001208  0.11306068
   0.32956560  0.00002481  0.11308307
   0.00001208  0.32950912  0.11306068
  -0.00002481  0.67043340  0.11308307
   0.32958854  0.32958848  0.11309385
   0.67041052  0.67041046  0.11309385
   0.66666324  0.33333576  0.10274389
   0.33332764  0.66667136  0.12447400
   0.27934600  0.22421732  0.45650959
   0.44564473  0.05457014  0.45626515
   0.27752364  0.72247536  0.45608452
   0.44443401  0.55556499  0.45635055
   0.77621780  0.22378120  0.45644020
   0.94447247  0.05552653  0.45668216
   0.77578168  0.72065300  0.45650959
   0.94542886  0.55435427  0.45626515
Direct configuration=    18
   0.67048975 -0.00001211  0.11306959
   0.32956575  0.00002480  0.11309199
   0.00001211  0.32950925  0.11306959
  -0.00002480  0.67043325  0.11309199
   0.32958870  0.32958866  0.11310278
   0.67041034  0.67041030  0.11310278
   0.66666324  0.33333576  0.10274628
   0.33332763  0.66667137  0.12449016
   0.27934655  0.22421787  0.45650067
   0.44564502  0.05456987  0.45625606
   0.27752362  0.72247538  0.45607532
   0.44443393  0.55556507  0.45634152
   0.77621736  0.22378164  0.45643123
   0.94447242  0.05552658  0.45667334
   0.77578113  0.72065245  0.45650067
   0.94542913  0.55435398  0.45625606
Direct configuration=    19
   0.67048948 -0.00001216  0.11308740
   0.32956603  0.00002479  0.11310982
   0.00001216  0.32950952  0.11308740
  -0.00002479  0.67043297  0.11310982
   0.32958902  0.32958901  0.11312063
   0.67040999  0.67040998  0.11312063
   0.66666324  0.33333576  0.10275106
   0.33332762  0.66667138  0.12452247
   0.27934765  0.22421899  0.45648281
   0.44564561  0.05456933  0.45623789
   0.27752357  0.72247543  0.45605692
   0.44443378  0.55556522  0.45632346
   0.77621650  0.22378250  0.45641328
   0.94447232  0.05552668  0.45665570
   0.77578001  0.72065135  0.45648281
   0.94542967  0.55435339  0.45623789
Direct configuration=    20
   0.67048895 -0.00001227  0.11312301
   0.32956661  0.00002476  0.11314550
   0.00001227  0.32951005  0.11312301
  -0.00002476  0.67043239  0.11314550
   0.32958965  0.32958971  0.11315634
   0.67040929  0.67040935  0.11315634
   0.66666325  0.33333575  0.10276062
   0.33332761  0.66667139  0.12458708
   0.27934986  0.22422122  0.45644710
   0.44564679  0.05456824  0.45620155
   0.27752348  0.72247552  0.45602012
   0.44443347  0.55556553  0.45628734
   0.77621476  0.22378424  0.45637739
   0.94447212  0.05552688  0.45662043
   0.77577778  0.72064914  0.45644710
   0.94543076  0.55435221  0.45620155
Direct configuration=    21
   0.67048789 -0.00001248  0.11319425
   0.32956776  0.00002470  0.11321686
   0.00001248  0.32951111  0.11319425
  -0.00002470  0.67043124  0.11321686
   0.32959091  0.32959110  0.11322775
   0.67040790  0.67040809  0.11322775
   0.66666325  0.33333575  0.10277975
   0.33332757  0.66667143  0.12471631
   0.27935427  0.22422568  0.45637567
   0.44564914  0.05456606  0.45612888
   0.27752330  0.72247570  0.45594652
   0.44443285  0.55556615  0.45621509
   0.77621129  0.22378771  0.45630562
   0.94447172  0.05552728  0.45654988
   0.77577332  0.72064473  0.45637567
   0.94543294  0.55434986  0.45612888
Direct configuration=    22
   0.67048578 -0.00001289  0.11333672
   0.32957005  0.00002458  0.11335957
   0.00001289  0.32951322  0.11333672
  -0.00002458  0.67042895  0.11335957
   0.32959343  0.32959390  0.11337058
   0.67040510  0.67040557  0.11337058
   0.66666326  0.33333574  0.10281801
   0.33332750  0.66667150  0.12497477
   0.27936309  0.22423460  0.45623283
   0.44565384  0.05456171  0.45598352
   0.27752295  0.72247605  0.45579933
   0.44443161  0.55556739  0.45607060
   0.77620434  0.22379466  0.45616206
   0.94447092  0.05552808  0.45640879
   0.77576440  0.72063591  0.45623283
   0.94543729  0.55434516  0.45598352
Direct configuration=    23
   0.67048154 -0.00001373  0.11362166
   0.32957464  0.00002434  0.11364500
   0.00001373  0.32951746  0.11362166
  -0.00002434  0.67042436  0.11364500
   0.32959848  0.32959948  0.11365624
   0.67039952  0.67040052  0.11365624
   0.66666329  0.33333571  0.10289453
   0.33332737  0.66667163  0.12549168
   0.27938074  0.22425243  0.45594713
   0.44566323  0.05455301  0.45569282
   0.27752223  0.72247677  0.45550494
   0.44442913  0.55556987  0.45578162
   0.77619046  0.22380854  0.45587496
   0.94446932  0.05552968  0.45612660
   0.77574657  0.72061826  0.45594713
   0.94544599  0.55433577  0.45569282
Direct configuration=    24
   0.67047307 -0.00001541  0.11419154
   0.32958383  0.00002387  0.11421585
   0.00001541  0.32952593  0.11419154
  -0.00002387  0.67041517  0.11421585
   0.32960857  0.32961065  0.11422755
   0.67038835  0.67039043  0.11422755
   0.66666333  0.33333567  0.10304757
   0.33332709  0.66667191  0.12652551
   0.27941603  0.22428811  0.45537574
   0.44568203  0.05453562  0.45511140
   0.27752080  0.72247820  0.45491616
   0.44442417  0.55557483  0.45520365
   0.77616268  0.22383632  0.45530075
   0.94446612  0.05553288  0.45556223
   0.77571089  0.72058297  0.45537574
   0.94546338  0.55431697  0.45511140
Direct configuration=    25
   0.67045614 -0.00001877  0.11533129
   0.32960220  0.00002293  0.11535755
   0.00001877  0.32954286  0.11533129
  -0.00002293  0.67039680  0.11535755
   0.32962875  0.32963300  0.11537017
   0.67036600  0.67037025  0.11537017
   0.66666342  0.33333558  0.10335364
   0.33332654  0.66667246  0.12859318
   0.27948662  0.22435946  0.45423295
   0.44571962  0.05450082  0.45394857
   0.27751794  0.72248106  0.45373860
   0.44441424  0.55558476  0.45404772
   0.77610713  0.22389187  0.45415232
   0.94445971  0.05553929  0.45443348
   0.77563954  0.72051238  0.45423295
   0.94549818  0.55427938  0.45394857
Direct configuration=    26
   0.67042226 -0.00002548  0.11761081
   0.32963894  0.00002104  0.11764095
   0.00002548  0.32957674  0.11761081
  -0.00002104  0.67036006  0.11764095
   0.32966912  0.32967768  0.11765541
   0.67032132  0.67032988  0.11765541
   0.66666361  0.33333539  0.10396579
   0.33332544  0.66667356  0.13272851
   0.27962779  0.22450216  0.45194738
   0.44579481  0.05443122  0.45162292
   0.27751223  0.72248677  0.45138348
   0.44439440  0.55560460  0.45173586
   0.77599602  0.22400298  0.45185547
   0.94444690  0.05555210  0.45217597
   0.77549684  0.72037121  0.45194738
   0.94556778  0.55420419  0.45162292
Direct configuration=    27
   0.67035452 -0.00003890  0.12216983
   0.32971243  0.00001726  0.12220775
   0.00003890  0.32964448  0.12216983
  -0.00001726  0.67028657  0.12220775
   0.32974985  0.32976706  0.12222590
   0.67023194  0.67024915  0.12222590
   0.66666398  0.33333502  0.10519008
   0.33332324  0.66667576  0.14099916
   0.27991013  0.22478757  0.44737623
   0.44594518  0.05429203  0.44697161
   0.27750079  0.72249821  0.44667324
   0.44435471  0.55564429  0.44711213
   0.77577381  0.22422519  0.44726177
   0.94442128  0.05557772  0.44766097
   0.77521143  0.72008887  0.44737623
   0.94570697  0.55405382  0.44697161
Direct configuration=    28
   0.67027751 -0.00004992  0.12295842
   0.32977889  0.00000611  0.12299766
   0.00004992  0.32972149  0.12295842
  -0.00000611  0.67022011  0.12299766
   0.32981700  0.32984394  0.12301637
   0.67015506  0.67018200  0.12301637
   0.66666476  0.33333424  0.10540569
   0.33332272  0.66667628  0.14241970
   0.27981220  0.22462559  0.44658469
   0.44583597  0.05437190  0.44616963
   0.27753381  0.72246519  0.44586374
   0.44433559  0.55566341  0.44631344
   0.77590016  0.22409884  0.44646747
   0.94440389  0.05559511  0.44687641
   0.77537341  0.72018680  0.44658469
   0.94562710  0.55416303  0.44616963
Direct configuration=    29
   0.67004650 -0.00008300  0.12532419
   0.32997830 -0.00002734  0.12536737
   0.00008300  0.32995250  0.12532419
   0.00002734  0.67002070  0.12536737
   0.33001848  0.33007459  0.12538780
   0.66992441  0.66998052  0.12538780
   0.66666708  0.33333192  0.10605251
   0.33332116  0.66667784  0.14668130
   0.27951843  0.22413966  0.44421005
   0.44550836  0.05461150  0.44376372
   0.27763286  0.72236614  0.44343524
   0.44427823  0.55572077  0.44391737
   0.77627920  0.22371980  0.44408457
   0.94435172  0.05564728  0.44452274
   0.77585934  0.72048057  0.44421005
   0.94538750  0.55449064  0.44376372
Direct configuration=    30
   0.66958446 -0.00014915  0.13005572
   0.33037710 -0.00009425  0.13010680
   0.00014915  0.33041454  0.13005572
   0.00009425  0.66962190  0.13010680
   0.33042142  0.33053590  0.13013065
   0.66946310  0.66957758  0.13013065
   0.66667173  0.33332727  0.10734615
   0.33331803  0.66668097  0.15520451
   0.27893089  0.22316781  0.43946079
   0.44485313  0.05509069  0.43895190
   0.27783096  0.72216804  0.43857825
   0.44416351  0.55583549  0.43912522
   0.77703728  0.22296172  0.43931877
   0.94424736  0.05575164  0.43981540
   0.77683119  0.72106811  0.43946079
   0.94490831  0.55514587  0.43895190
Direct configuration=    31
   0.66976736 -0.00012296  0.12818268
   0.33021923 -0.00006776  0.12823063
   0.00012296  0.33023164  0.12818268
   0.00006776  0.66977977  0.12823063
   0.33026191  0.33035329  0.12825313
   0.66964571  0.66973709  0.12825313
   0.66666989  0.33332911  0.10683405
   0.33331927  0.66667973  0.15183048
   0.27916348  0.22355253  0.44134085
   0.44511251  0.05490100  0.44085672
   0.27775254  0.72224646  0.44050095
   0.44420893  0.55579007  0.44102226
   0.77673719  0.22326181  0.44120538
   0.94428867  0.05571033  0.44167886
   0.77644647  0.72083552  0.44134085
   0.94509800  0.55488649  0.44085672
Direct configuration=    32
   0.66965496 -0.00013724  0.12783229
   0.33031128 -0.00008510  0.12787953
   0.00013724  0.33034404  0.12783229
   0.00008510  0.66968772  0.12787953
   0.33035165  0.33045653  0.12790160
   0.66954247  0.66964735  0.12790160
   0.66667077  0.33332823  0.10678152
   0.33331971  0.66667929  0.15113397
   0.27897657  0.22337811  0.44169079
   0.44502319  0.05498701  0.44122081
   0.27775147  0.72224753  0.44087568
   0.44424305  0.55575595  0.44138110
   0.77687257  0.22312643  0.44155930
   0.94430897  0.05569003  0.44201837
   0.77662089  0.72102243  0.44169079
   0.94501199  0.55497581  0.44122081
Direct configuration=    33
   0.66931774 -0.00018006  0.12678114
   0.33058744 -0.00013712  0.12682623
   0.00018006  0.33068126  0.12678114
   0.00013712  0.66941156  0.12682623
   0.33062089  0.33076625  0.12684701
   0.66923275  0.66937811  0.12684701
   0.66667341  0.33332559  0.10662396
   0.33332104  0.66667796  0.14904443
   0.27841585  0.22285487  0.44274063
   0.44475521  0.05524506  0.44231307
   0.27774826  0.72225074  0.44199986
   0.44434544  0.55565356  0.44245765
   0.77727874  0.22272026  0.44262108
   0.94436987  0.05562913  0.44303689
   0.77714413  0.72158315  0.44274063
   0.94475394  0.55524379  0.44231307
Direct configuration=    34
   0.66864331 -0.00026571  0.12467882
   0.33113974 -0.00024117  0.12471964
   0.00026571  0.33135569  0.12467882
   0.00024117  0.66885926  0.12471964
   0.33115935  0.33138570  0.12473783
   0.66861330  0.66883965  0.12473783
   0.66667870  0.33332030  0.10630882
   0.33332371  0.66667529  0.14486535
   0.27729442  0.22180838  0.44484029
   0.44421926  0.05576116  0.44449758
   0.27774184  0.72225716  0.44424821
   0.44455020  0.55544880  0.44461075
   0.77809106  0.22190794  0.44474463
   0.94449166  0.05550734  0.44507392
   0.77819062  0.72270458  0.44484029
   0.94423784  0.55577974  0.44449758
Direct configuration=    35
   0.66882946 -0.00024207  0.12525910
   0.33098730 -0.00021245  0.12530110
   0.00024207  0.33116954  0.12525910
   0.00021245  0.66901170  0.12530110
   0.33101073  0.33121472  0.12532001
   0.66878428  0.66898827  0.12532001
   0.66667724  0.33332176  0.10639581
   0.33332297  0.66667603  0.14601886
   0.27760396  0.22209723  0.44426074
   0.44436720  0.05561871  0.44389461
   0.27774361  0.72225539  0.44362762
   0.44449368  0.55550532  0.44401645
   0.77786684  0.22213216  0.44415848
   0.94445804  0.05554096  0.44451166
   0.77790177  0.72239504  0.44426074
   0.94438029  0.55563180  0.44389461
Direct configuration=    36
   0.66877024 -0.00023112  0.12525622
   0.33105169 -0.00020475  0.12529791
   0.00023112  0.33122876  0.12525622
   0.00020475  0.66894731  0.12529791
   0.33107231  0.33126526  0.12531657
   0.66873374  0.66892669  0.12531657
   0.66667779  0.33332121  0.10644368
   0.33332499  0.66667401  0.14593290
   0.27766420  0.22214756  0.44425885
   0.44439563  0.05559962  0.44391104
   0.27775456  0.72224444  0.44365785
   0.44447319  0.55552581  0.44402613
   0.77782731  0.22217169  0.44416136
   0.94444956  0.05554944  0.44449689
   0.77785144  0.72233480  0.44425885
   0.94439938  0.55560337  0.44391104
Direct configuration=    37
   0.66859255 -0.00019826  0.12524759
   0.33124486 -0.00018164  0.12528834
   0.00019826  0.33140645  0.12524759
   0.00018164  0.66875414  0.12528834
   0.33125708  0.33141691  0.12530627
   0.66858209  0.66874192  0.12530627
   0.66667944  0.33331956  0.10658731
   0.33333103  0.66666797  0.14567504
   0.27784492  0.22229853  0.44425315
   0.44448095  0.05554236  0.44396032
   0.27778742  0.72221158  0.44374854
   0.44441170  0.55558730  0.44405517
   0.77770872  0.22229028  0.44416999
   0.94442412  0.05557488  0.44445259
   0.77770047  0.72215408  0.44425315
   0.94445664  0.55551805  0.44396032
Direct configuration=    38
   0.66823718 -0.00013254  0.12523033
   0.33163121 -0.00013542  0.12526920
   0.00013254  0.33176182  0.12523033
   0.00013542  0.66836779  0.12526920
   0.33162661  0.33172019  0.12528566
   0.66827881  0.66837239  0.12528566
   0.66668274  0.33331626  0.10687457
   0.33334312  0.66665588  0.14515931
   0.27820636  0.22260047  0.44424177
   0.44465157  0.05542783  0.44405889
   0.27785314  0.72214586  0.44392991
   0.44428872  0.55571028  0.44411326
   0.77747154  0.22252746  0.44418725
   0.94437323  0.05562577  0.44436400
   0.77739853  0.72179264  0.44424177
   0.94457117  0.55534743  0.44405889
Direct configuration=    39
   0.66840138 -0.00016291  0.12523830
   0.33145270 -0.00015678  0.12527805
   0.00016291  0.33159762  0.12523830
   0.00015678  0.66854630  0.12527805
   0.33145586  0.33158006  0.12529518
   0.66841894  0.66854314  0.12529518
   0.66668121  0.33331779  0.10674184
   0.33333753  0.66666147  0.14539761
   0.27803936  0.22246095  0.44424703
   0.44457274  0.05548075  0.44401334
   0.27782278  0.72217622  0.44384611
   0.44434554  0.55565346  0.44408642
   0.77758113  0.22241787  0.44417927
   0.94439674  0.05560226  0.44440494
   0.77753805  0.72195964  0.44424703
   0.94451825  0.55542626  0.44401334
Direct configuration=    40
   0.66839380 -0.00015555  0.12524434
   0.33146258 -0.00015250  0.12528344
   0.00015555  0.33160520  0.12524434
   0.00015250  0.66853642  0.12528344
   0.33146278  0.33158051  0.12530022
   0.66841849  0.66853622  0.12530022
   0.66668063  0.33331837  0.10683248
   0.33334128  0.66665772  0.14525615
   0.27799755  0.22241740  0.44423353
   0.44454108  0.05549424  0.44403169
   0.27781325  0.72218575  0.44388772
   0.44435832  0.55564068  0.44409347
   0.77761828  0.22238072  0.44417433
   0.94439944  0.05559956  0.44436939
   0.77758160  0.72200145  0.44423353
   0.94450476  0.55545792  0.44403169
Direct configuration=    41
   0.66837105 -0.00013350  0.12526245
   0.33149223 -0.00013966  0.12529964
   0.00013350  0.33162795  0.12526245
   0.00013966  0.66850677  0.12529964
   0.33148353  0.33158184  0.12531533
   0.66841716  0.66851547  0.12531533
   0.66667888  0.33332012  0.10710439
   0.33335254  0.66664646  0.14483178
   0.27787212  0.22228674  0.44419302
   0.44444612  0.05553473  0.44408674
   0.27778468  0.72221432  0.44401257
   0.44439665  0.55560235  0.44411463
   0.77772972  0.22226928  0.44415952
   0.94440753  0.05559147  0.44426274
   0.77771226  0.72212688  0.44419302
   0.94446427  0.55555288  0.44408674
Direct configuration=    42
   0.66832555 -0.00008938  0.12529867
   0.33155154 -0.00011398  0.12533202
   0.00008938  0.33167345  0.12529867
   0.00011398  0.66844746  0.12533202
   0.33152502  0.33158452  0.12534555
   0.66841448  0.66847398  0.12534555
   0.66667538  0.33332362  0.10764821
   0.33337504  0.66662396  0.14398304
   0.27762126  0.22202542  0.44411200
   0.44425621  0.05561570  0.44419684
   0.27772754  0.72227146  0.44426226
   0.44447331  0.55552569  0.44415696
   0.77795261  0.22204639  0.44412989
   0.94442372  0.05557528  0.44404945
   0.77797358  0.72237774  0.44411200
   0.94438330  0.55574279  0.44419684
Direct configuration=    43
   0.66851505 -0.00008208  0.12532421
   0.33137531 -0.00010675  0.12535600
   0.00008208  0.33148395  0.12532421
   0.00010675  0.66862369  0.12535600
   0.33135051  0.33140642  0.12536893
   0.66859258  0.66864849  0.12536893
   0.66667183  0.33332717  0.10785407
   0.33337710  0.66662190  0.14368365
   0.27764059  0.22211158  0.44407909
   0.44435320  0.05560079  0.44421689
   0.27773064  0.72226836  0.44431833
   0.44447786  0.55552114  0.44416001
   0.77786972  0.22212928  0.44411225
   0.94445304  0.05554596  0.44398144
   0.77788742  0.72235841  0.44407909
   0.94439821  0.55564580  0.44421689
Direct configuration=    44
   0.66889582 -0.00006742  0.12537552
   0.33102120 -0.00009223  0.12540419
   0.00006742  0.33110318  0.12537552
   0.00009223  0.66897780  0.12540419
   0.33099984  0.33104854  0.12541591
   0.66895046  0.66899916  0.12541591
   0.66666468  0.33333432  0.10826772
   0.33338125  0.66661775  0.14308206
   0.27767943  0.22228470  0.44401295
   0.44454810  0.05557085  0.44425718
   0.27773688  0.72226212  0.44443098
   0.44448700  0.55551200  0.44416613
   0.77770317  0.22229583  0.44407680
   0.94451193  0.05548707  0.44384480
   0.77771430  0.72231957  0.44401295
   0.94442815  0.55545090  0.44425718
Direct configuration=    45
   0.66900983 -0.00005205  0.12540748
   0.33093962 -0.00007030  0.12543494
   0.00005205  0.33098917  0.12540748
   0.00007030  0.66905938  0.12543494
   0.33092430  0.33095646  0.12544623
   0.66904254  0.66907470  0.12544623
   0.66666487  0.33333413  0.10842305
   0.33337027  0.66662873  0.14289088
   0.27780634  0.22225947  0.44399371
   0.44446306  0.05557932  0.44423816
   0.27778422  0.72221478  0.44440892
   0.44441595  0.55558305  0.44415004
   0.77775147  0.22224753  0.44405949
   0.94442785  0.05557115  0.44382659
   0.77773953  0.72219266  0.44399371
   0.94441968  0.55553594  0.44423816
Direct configuration=    46
   0.66906430 -0.00004470  0.12542275
   0.33090064 -0.00005982  0.12544963
   0.00004470  0.33093470  0.12542275
   0.00005982  0.66909836  0.12544963
   0.33088820  0.33091246  0.12546072
   0.66908654  0.66911080  0.12546072
   0.66666496  0.33333404  0.10849727
   0.33336503  0.66663397  0.14279952
   0.27786698  0.22224742  0.44398451
   0.44442243  0.05558337  0.44422908
   0.27780685  0.72219215  0.44439838
   0.44438201  0.55561699  0.44414236
   0.77777454  0.22222446  0.44405121
   0.94438767  0.05561133  0.44381788
   0.77775158  0.72213202  0.44398451
   0.94441563  0.55557657  0.44422908
Direct configuration=    47
   0.66907059 -0.00003216  0.12546502
   0.33092536 -0.00003681  0.12549064
   0.00003216  0.33092841  0.12546502
   0.00003681  0.66907364  0.12549064
   0.33091986  0.33092565  0.12550111
   0.66907335  0.66907914  0.12550111
   0.66666845  0.33333055  0.10864876
   0.33334869  0.66665031  0.14264406
   0.27783264  0.22221988  0.44397006
   0.44438616  0.05556159  0.44418144
   0.27778041  0.72221859  0.44432419
   0.44440172  0.55559728  0.44410952
   0.77779460  0.22220440  0.44403027