Automatically generated mesh
      75
Reciprocal lattice
    0.00000000000000    0.00000000000000    0.00000000000000             1
    0.03703703703704   -0.00000000000000    0.00000000000000             6
    0.07407407407408   -0.00000000000000    0.00000000000000             6
    0.11111111111111   -0.00000000000000    0.00000000000000             6
    0.14814814814815    0.00000000000000    0.00000000000000             6
    0.18518518518518    0.00000000000000    0.00000000000000             6
    0.22222222222222    0.00000000000000    0.00000000000000             6
    0.25925925925926    0.00000000000000    0.00000000000000             6
    0.29629629629630   -0.00000000000000    0.00000000000000             6
    0.33333333333334    0.00000000000000    0.00000000000000             6
    0.37037037037037    0.00000000000000    0.00000000000000             6
    0.40740740740740    0.00000000000000    0.00000000000000             6
    0.44444444444444    0.00000000000000    0.00000000000000             6
    0.48148148148148   -0.00000000000000    0.00000000000000             6
    0.03703703703704    0.03703703703704    0.00000000000000             6
    0.07407407407408    0.03703703703704    0.00000000000000            12
    0.11111111111111    0.03703703703704    0.00000000000000            12
    0.14814814814815    0.03703703703704    0.00000000000000            12
    0.18518518518518    0.03703703703704    0.00000000000000            12
    0.22222222222222    0.03703703703704    0.00000000000000            12
    0.25925925925926    0.03703703703704    0.00000000000000            12
    0.29629629629630    0.03703703703704    0.00000000000000            12
    0.33333333333334    0.03703703703704    0.00000000000000            12
    0.37037037037037    0.03703703703704    0.00000000000000            12
    0.40740740740740    0.03703703703704    0.00000000000000            12
    0.44444444444444    0.03703703703704    0.00000000000000            12
    0.48148148148148    0.03703703703704    0.00000000000000             6
    0.07407407407408    0.07407407407408    0.00000000000000             6
    0.11111111111111    0.07407407407408    0.00000000000000            12
    0.14814814814815    0.07407407407408    0.00000000000000            12
    0.18518518518518    0.07407407407408    0.00000000000000            12
    0.22222222222222    0.07407407407408    0.00000000000000            12
    0.25925925925926    0.07407407407408    0.00000000000000            12
    0.29629629629630    0.07407407407408    0.00000000000000            12
    0.33333333333334    0.07407407407408    0.00000000000000            12
    0.37037037037037    0.07407407407408    0.00000000000000            12
    0.40740740740740    0.07407407407408    0.00000000000000            12
    0.44444444444444    0.07407407407408    0.00000000000000            12
    0.11111111111111    0.11111111111111    0.00000000000000             6
    0.14814814814815    0.11111111111111    0.00000000000000            12
    0.18518518518518    0.11111111111111    0.00000000000000            12
    0.22222222222222    0.11111111111111    0.00000000000000            12
    0.25925925925926    0.11111111111111    0.00000000000000            12
    0.29629629629630    0.11111111111111    0.00000000000000            12
    0.33333333333334    0.11111111111111    0.00000000000000            12
    0.37037037037037    0.11111111111111    0.00000000000000            12
    0.40740740740740    0.11111111111111    0.00000000000000            12
    0.44444444444444    0.11111111111111    0.00000000000000             6
    0.14814814814815    0.14814814814815    0.00000000000000             6
    0.18518518518518    0.14814814814815    0.00000000000000            12
    0.22222222222222    0.14814814814815    0.00000000000000            12
    0.25925925925926    0.14814814814815    0.00000000000000            12
    0.29629629629630    0.14814814814815    0.00000000000000            12
    0.33333333333334    0.14814814814815    0.00000000000000            12
    0.37037037037037    0.14814814814815    0.00000000000000            12
    0.40740740740740    0.14814814814815    0.00000000000000            12
    0.18518518518518    0.18518518518518    0.00000000000000             6
    0.22222222222222    0.18518518518518    0.00000000000000            12
    0.25925925925926    0.18518518518518    0.00000000000000            12
    0.29629629629630    0.18518518518518    0.00000000000000            12
    0.33333333333334    0.18518518518518    0.00000000000000            12
    0.37037037037037    0.18518518518518    0.00000000000000            12
    0.40740740740740    0.18518518518518    0.00000000000000             6
    0.22222222222222    0.22222222222222    0.00000000000000             6
    0.25925925925926    0.22222222222222    0.00000000000000            12
    0.29629629629630    0.22222222222222    0.00000000000000            12
    0.33333333333334    0.22222222222222    0.00000000000000            12
    0.37037037037037    0.22222222222222    0.00000000000000            12
    0.25925925925926    0.25925925925926    0.00000000000000             6
    0.29629629629630    0.25925925925926    0.00000000000000            12
    0.33333333333334    0.25925925925926    0.00000000000000            12
    0.37037037037037    0.25925925925926    0.00000000000000             6
    0.29629629629630    0.29629629629630    0.00000000000000             6
    0.33333333333334    0.29629629629630    0.00000000000000            12
    0.33333333333334    0.33333333333334    0.00000000000000             2
