   8   8   0   0
  0.4338553E+02  0.5169000E-09  0.5169000E-09  0.1500000E-08  0.5000000E-15
  1.000000000000000E-004
  CAR 
 Dielectric                              
     28.99262632    -22.21234919 4000     -3.74813945      1.00000000
    -22.212  0.0000E+00  0.0000E+00
    -22.200  0.0000E+00  0.0000E+00
    -22.187  0.0000E+00  0.0000E+00
    -22.174  0.0000E+00  0.0000E+00
    -22.161  0.0000E+00  0.0000E+00
    -22.148  0.0000E+00  0.0000E+00
    -22.136  0.0000E+00  0.0000E+00
    -22.123  0.0000E+00  0.0000E+00
    -22.110  0.0000E+00  0.0000E+00
    -22.097  0.0000E+00  0.0000E+00
    -22.084  0.0000E+00  0.0000E+00
    -22.072  0.0000E+00  0.0000E+00
    -22.059  0.0000E+00  0.0000E+00
    -22.046  0.0000E+00  0.0000E+00
    -22.033  0.0000E+00  0.0000E+00
    -22.020  0.0000E+00  0.0000E+00
    -22.007  0.0000E+00  0.0000E+00
    -21.995  0.0000E+00  0.0000E+00
    -21.982  0.0000E+00  0.0000E+00
    -21.969  0.0000E+00  0.0000E+00
    -21.956  0.0000E+00  0.0000E+00
    -21.943  0.0000E+00  0.0000E+00
    -21.931  0.0000E+00  0.0000E+00
    -21.918  0.0000E+00  0.0000E+00
    -21.905  0.0000E+00  0.0000E+00
    -21.892  0.0000E+00  0.0000E+00
    -21.879  0.0000E+00  0.0000E+00
    -21.867  0.0000E+00  0.0000E+00
    -21.854  0.0000E+00  0.0000E+00
    -21.841  0.0000E+00  0.0000E+00
    -21.828  0.0000E+00  0.0000E+00
    -21.815  0.0000E+00  0.0000E+00
    -21.803  0.0000E+00  0.0000E+00
    -21.790  0.0000E+00  0.0000E+00
    -21.777  0.0000E+00  0.0000E+00
    -21.764  0.0000E+00  0.0000E+00
    -21.751  0.0000E+00  0.0000E+00
    -21.739  0.0000E+00  0.0000E+00
    -21.726  0.0000E+00  0.0000E+00
    -21.713  0.0000E+00  0.0000E+00
    -21.700  0.0000E+00  0.0000E+00
    -21.687  0.0000E+00  0.0000E+00
    -21.675  0.0000E+00  0.0000E+00
    -21.662  0.0000E+00  0.0000E+00
    -21.649  0.0000E+00  0.0000E+00
    -21.636  0.0000E+00  0.0000E+00
    -21.623  0.0000E+00  0.0000E+00
    -21.611  0.0000E+00  0.0000E+00
    -21.598  0.0000E+00  0.0000E+00
    -21.585  0.0000E+00  0.0000E+00
    -21.572  0.0000E+00  0.0000E+00
    -21.559  0.0000E+00  0.0000E+00
    -21.547  0.0000E+00  0.0000E+00
    -21.534  0.0000E+00  0.0000E+00
    -21.521  0.0000E+00  0.0000E+00
    -21.508  0.0000E+00  0.0000E+00
    -21.495  0.0000E+00  0.0000E+00
    -21.482  0.0000E+00  0.0000E+00
    -21.470  0.0000E+00  0.0000E+00
    -21.457  0.0000E+00  0.0000E+00
    -21.444  0.0000E+00  0.0000E+00
    -21.431  0.0000E+00  0.0000E+00
    -21.418  0.0000E+00  0.0000E+00
    -21.406  0.0000E+00  0.0000E+00
    -21.393  0.0000E+00  0.0000E+00
    -21.380  0.0000E+00  0.0000E+00
    -21.367  0.0000E+00  0.0000E+00
    -21.354  0.0000E+00  0.0000E+00
    -21.342  0.0000E+00  0.0000E+00
    -21.329  0.0000E+00  0.0000E+00
    -21.316  0.0000E+00  0.0000E+00
    -21.303  0.0000E+00  0.0000E+00
    -21.290  0.0000E+00  0.0000E+00
    -21.278  0.0000E+00  0.0000E+00
    -21.265  0.0000E+00  0.0000E+00
    -21.252  0.0000E+00  0.0000E+00
    -21.239  0.0000E+00  0.0000E+00
    -21.226  0.0000E+00  0.0000E+00
    -21.214  0.0000E+00  0.0000E+00
    -21.201  0.0000E+00  0.0000E+00
    -21.188  0.0000E+00  0.0000E+00
    -21.175  0.0000E+00  0.0000E+00
    -21.162  0.0000E+00  0.0000E+00
    -21.150  0.0000E+00  0.0000E+00
    -21.137  0.0000E+00  0.0000E+00
    -21.124  0.0000E+00  0.0000E+00
    -21.111  0.0000E+00  0.0000E+00
    -21.098  0.0000E+00  0.0000E+00
    -21.086  0.0000E+00  0.0000E+00
    -21.073  0.0000E+00  0.0000E+00
    -21.060  0.0000E+00  0.0000E+00
    -21.047  0.0000E+00  0.0000E+00
    -21.034  0.0000E+00  0.0000E+00
    -21.022  0.0000E+00  0.0000E+00
    -21.009  0.0000E+00  0.0000E+00
    -20.996  0.0000E+00  0.0000E+00
    -20.983  0.0000E+00  0.0000E+00
    -20.970  0.0000E+00  0.0000E+00
    -20.958  0.0000E+00  0.0000E+00
    -20.945  0.0000E+00  0.0000E+00
    -20.932  0.0000E+00  0.0000E+00
    -20.919  0.0000E+00  0.0000E+00
    -20.906  0.0000E+00  0.0000E+00
    -20.893  0.0000E+00  0.0000E+00
    -20.881  0.0000E+00  0.0000E+00
    -20.868  0.0000E+00  0.0000E+00
    -20.855  0.0000E+00  0.0000E+00
    -20.842  0.0000E+00  0.0000E+00
    -20.829  0.0000E+00  0.0000E+00
    -20.817  0.0000E+00  0.0000E+00
    -20.804  0.0000E+00  0.0000E+00
    -20.791  0.0000E+00  0.0000E+00
    -20.778  0.0000E+00  0.0000E+00
    -20.765  0.0000E+00  0.0000E+00
    -20.753  0.0000E+00  0.0000E+00
    -20.740  0.0000E+00  0.0000E+00
    -20.727  0.0000E+00  0.0000E+00
    -20.714  0.0000E+00  0.0000E+00
    -20.701  0.0000E+00  0.0000E+00
    -20.689  0.0000E+00  0.0000E+00
    -20.676  0.0000E+00  0.0000E+00
    -20.663  0.0000E+00  0.0000E+00
    -20.650  0.0000E+00  0.0000E+00
    -20.637  0.0000E+00  0.0000E+00
    -20.625  0.0000E+00  0.0000E+00
    -20.612  0.0000E+00  0.0000E+00
    -20.599  0.0000E+00  0.0000E+00
    -20.586  0.0000E+00  0.0000E+00
    -20.573  0.0000E+00  0.0000E+00
    -20.561  0.0000E+00  0.0000E+00
    -20.548  0.0000E+00  0.0000E+00
    -20.535  0.0000E+00  0.0000E+00
    -20.522  0.0000E+00  0.0000E+00
    -20.509  0.0000E+00  0.0000E+00
    -20.497  0.0000E+00  0.0000E+00
    -20.484  0.0000E+00  0.0000E+00
    -20.471  0.0000E+00  0.0000E+00
    -20.458  0.0000E+00  0.0000E+00
    -20.445  0.0000E+00  0.0000E+00
    -20.433  0.0000E+00  0.0000E+00
    -20.420  0.0000E+00  0.0000E+00
    -20.407  0.0000E+00  0.0000E+00
    -20.394  0.0000E+00  0.0000E+00
    -20.381  0.0000E+00  0.0000E+00
    -20.369  0.0000E+00  0.0000E+00
    -20.356  0.0000E+00  0.0000E+00
    -20.343  0.0000E+00  0.0000E+00
    -20.330  0.0000E+00  0.0000E+00
    -20.317  0.0000E+00  0.0000E+00
    -20.304  0.0000E+00  0.0000E+00
    -20.292  0.0000E+00  0.0000E+00
    -20.279  0.0000E+00  0.0000E+00
    -20.266  0.0000E+00  0.0000E+00
    -20.253  0.0000E+00  0.0000E+00
    -20.240  0.0000E+00  0.0000E+00
    -20.228  0.0000E+00  0.0000E+00
    -20.215  0.0000E+00  0.0000E+00
    -20.202  0.0000E+00  0.0000E+00
    -20.189  0.0000E+00  0.0000E+00
    -20.176  0.0000E+00  0.0000E+00
    -20.164  0.0000E+00  0.0000E+00
    -20.151  0.0000E+00  0.0000E+00
    -20.138  0.0000E+00  0.0000E+00
    -20.125  0.0000E+00  0.0000E+00
    -20.112  0.0000E+00  0.0000E+00
    -20.100  0.0000E+00  0.0000E+00
    -20.087  0.0000E+00  0.0000E+00
    -20.074  0.0000E+00  0.0000E+00
    -20.061  0.0000E+00  0.0000E+00
    -20.048  0.0000E+00  0.0000E+00
    -20.036  0.0000E+00  0.0000E+00
    -20.023  0.0000E+00  0.0000E+00
    -20.010  0.0000E+00  0.0000E+00
    -19.997  0.0000E+00  0.0000E+00
    -19.984  0.0000E+00  0.0000E+00
    -19.972  0.0000E+00  0.0000E+00
    -19.959  0.0000E+00  0.0000E+00
    -19.946  0.0000E+00  0.0000E+00
    -19.933  0.5999E-12  0.7681E-14
    -19.920  0.4858E-07  0.6221E-09
    -19.908  0.1814E-03  0.2324E-05
    -19.895  0.3720E-01  0.4786E-03
    -19.882  0.6126E+00  0.8323E-02
    -19.869  0.1623E+01  0.2910E-01
    -19.856  0.1854E+01  0.5285E-01
    -19.844  0.1871E+01  0.7680E-01
    -19.831  0.1883E+01  0.1009E+00
    -19.818  0.1895E+01  0.1252E+00
    -19.805  0.1908E+01  0.1496E+00
    -19.792  0.1924E+01  0.1742E+00
    -19.780  0.1944E+01  0.1991E+00
    -19.767  0.1954E+01  0.2242E+00
    -19.754  0.1954E+01  0.2492E+00
    -19.741  0.1997E+01  0.2747E+00
    -19.728  0.2020E+01  0.3006E+00
    -19.715  0.1987E+01  0.3260E+00
    -19.703  0.2075E+01  0.3526E+00
    -19.690  0.2057E+01  0.3790E+00
    -19.677  0.2056E+01  0.4053E+00
    -19.664  0.2166E+01  0.4330E+00
    -19.651  0.2058E+01  0.4594E+00
    -19.639  0.2238E+01  0.4880E+00
    -19.626  0.2114E+01  0.5151E+00
    -19.613  0.2276E+01  0.5442E+00
    -19.600  0.2202E+01  0.5724E+00
    -19.587  0.2310E+01  0.6020E+00
    -19.575  0.2303E+01  0.6315E+00
    -19.562  0.2355E+01  0.6617E+00
    -19.549  0.2409E+01  0.6925E+00
    -19.536  0.2420E+01  0.7235E+00
    -19.523  0.2521E+01  0.7558E+00
    -19.511  0.2508E+01  0.7879E+00
    -19.498  0.2648E+01  0.8218E+00
    -19.485  0.2618E+01  0.8553E+00
    -19.472  0.2798E+01  0.8911E+00
    -19.459  0.2755E+01  0.9264E+00
    -19.447  0.2986E+01  0.9647E+00
    -19.434  0.2925E+01  0.1002E+01
    -19.421  0.3227E+01  0.1043E+01
    -19.408  0.3150E+01  0.1084E+01
    -19.395  0.3545E+01  0.1129E+01
    -19.383  0.3482E+01  0.1174E+01
    -19.370  0.3965E+01  0.1225E+01
    -19.357  0.4047E+01  0.1276E+01
    -19.344  0.4584E+01  0.1335E+01
    -19.331  0.5171E+01  0.1401E+01
    -19.319  0.6244E+01  0.1481E+01
    -19.306  0.7945E+01  0.1583E+01
    -19.293  0.6897E+01  0.1671E+01
    -19.280  0.5430E+01  0.1741E+01
    -19.267  0.4734E+01  0.1801E+01
    -19.255  0.4270E+01  0.1856E+01
    -19.242  0.3912E+01  0.1906E+01
    -19.229  0.3609E+01  0.1952E+01
    -19.216  0.2829E+01  0.1989E+01
    -19.203  0.8516E+00  0.2000E+01
    -19.191  0.3725E-01  0.2000E+01
    -19.178  0.1227E-03  0.2000E+01
    -19.165  0.2149E-07  0.2000E+01
    -19.152  0.1713E-12  0.2000E+01
    -19.139  0.0000E+00  0.2000E+01
    -19.126  0.0000E+00  0.2000E+01
    -19.114  0.0000E+00  0.2000E+01
    -19.101  0.0000E+00  0.2000E+01
    -19.088  0.0000E+00  0.2000E+01
    -19.075  0.0000E+00  0.2000E+01
    -19.062  0.0000E+00  0.2000E+01
    -19.050  0.0000E+00  0.2000E+01
    -19.037  0.0000E+00  0.2000E+01
    -19.024  0.0000E+00  0.2000E+01
    -19.011  0.0000E+00  0.2000E+01
    -18.998  0.0000E+00  0.2000E+01
    -18.986  0.0000E+00  0.2000E+01
    -18.973  0.0000E+00  0.2000E+01
    -18.960  0.0000E+00  0.2000E+01
    -18.947  0.0000E+00  0.2000E+01
    -18.934  0.0000E+00  0.2000E+01
    -18.922  0.0000E+00  0.2000E+01
    -18.909  0.0000E+00  0.2000E+01
    -18.896  0.0000E+00  0.2000E+01
    -18.883  0.0000E+00  0.2000E+01
    -18.870  0.0000E+00  0.2000E+01
    -18.858  0.0000E+00  0.2000E+01
    -18.845  0.0000E+00  0.2000E+01
    -18.832  0.0000E+00  0.2000E+01
    -18.819  0.0000E+00  0.2000E+01
    -18.806  0.0000E+00  0.2000E+01
    -18.794  0.0000E+00  0.2000E+01
    -18.781  0.0000E+00  0.2000E+01
    -18.768  0.0000E+00  0.2000E+01
    -18.755  0.0000E+00  0.2000E+01
    -18.742  0.0000E+00  0.2000E+01
    -18.730  0.0000E+00  0.2000E+01
    -18.717  0.0000E+00  0.2000E+01
    -18.704  0.0000E+00  0.2000E+01
    -18.691  0.0000E+00  0.2000E+01
    -18.678  0.0000E+00  0.2000E+01
    -18.666  0.0000E+00  0.2000E+01
    -18.653  0.0000E+00  0.2000E+01
    -18.640  0.0000E+00  0.2000E+01
    -18.627  0.0000E+00  0.2000E+01
    -18.614  0.0000E+00  0.2000E+01
    -18.601  0.0000E+00  0.2000E+01
    -18.589  0.0000E+00  0.2000E+01
    -18.576  0.0000E+00  0.2000E+01
    -18.563  0.0000E+00  0.2000E+01
    -18.550  0.0000E+00  0.2000E+01
    -18.537  0.0000E+00  0.2000E+01
    -18.525  0.0000E+00  0.2000E+01
    -18.512  0.0000E+00  0.2000E+01
    -18.499  0.0000E+00  0.2000E+01
    -18.486  0.0000E+00  0.2000E+01
    -18.473  0.0000E+00  0.2000E+01
    -18.461  0.0000E+00  0.2000E+01
    -18.448  0.0000E+00  0.2000E+01
    -18.435  0.0000E+00  0.2000E+01
    -18.422  0.0000E+00  0.2000E+01
    -18.409  0.0000E+00  0.2000E+01
    -18.397  0.0000E+00  0.2000E+01
    -18.384  0.0000E+00  0.2000E+01
    -18.371  0.0000E+00  0.2000E+01
    -18.358  0.0000E+00  0.2000E+01
    -18.345  0.0000E+00  0.2000E+01
    -18.333  0.0000E+00  0.2000E+01
    -18.320  0.0000E+00  0.2000E+01
    -18.307  0.0000E+00  0.2000E+01
    -18.294  0.0000E+00  0.2000E+01
    -18.281  0.0000E+00  0.2000E+01
    -18.269  0.0000E+00  0.2000E+01
    -18.256  0.0000E+00  0.2000E+01
    -18.243  0.0000E+00  0.2000E+01
    -18.230  0.0000E+00  0.2000E+01
    -18.217  0.0000E+00  0.2000E+01
    -18.205  0.0000E+00  0.2000E+01
    -18.192  0.0000E+00  0.2000E+01
    -18.179  0.0000E+00  0.2000E+01
    -18.166  0.0000E+00  0.2000E+01
    -18.153  0.0000E+00  0.2000E+01
    -18.141  0.0000E+00  0.2000E+01
    -18.128  0.0000E+00  0.2000E+01
    -18.115  0.0000E+00  0.2000E+01
    -18.102  0.0000E+00  0.2000E+01
    -18.089  0.0000E+00  0.2000E+01
    -18.077  0.0000E+00  0.2000E+01
    -18.064  0.0000E+00  0.2000E+01
    -18.051  0.0000E+00  0.2000E+01
    -18.038  0.0000E+00  0.2000E+01
    -18.025  0.0000E+00  0.2000E+01
    -18.012  0.0000E+00  0.2000E+01
    -18.000  0.0000E+00  0.2000E+01
    -17.987  0.0000E+00  0.2000E+01
    -17.974  0.0000E+00  0.2000E+01
    -17.961  0.0000E+00  0.2000E+01
    -17.948  0.0000E+00  0.2000E+01
    -17.936  0.0000E+00  0.2000E+01
    -17.923  0.0000E+00  0.2000E+01
    -17.910  0.0000E+00  0.2000E+01
    -17.897  0.0000E+00  0.2000E+01
    -17.884  0.0000E+00  0.2000E+01
    -17.872  0.0000E+00  0.2000E+01
    -17.859  0.0000E+00  0.2000E+01
    -17.846  0.0000E+00  0.2000E+01
    -17.833  0.0000E+00  0.2000E+01
    -17.820  0.0000E+00  0.2000E+01
    -17.808  0.0000E+00  0.2000E+01
    -17.795  0.0000E+00  0.2000E+01
    -17.782  0.0000E+00  0.2000E+01
    -17.769  0.0000E+00  0.2000E+01
    -17.756  0.0000E+00  0.2000E+01
    -17.744  0.0000E+00  0.2000E+01
    -17.731  0.0000E+00  0.2000E+01
    -17.718  0.0000E+00  0.2000E+01
    -17.705  0.0000E+00  0.2000E+01
    -17.692  0.0000E+00  0.2000E+01
    -17.680  0.0000E+00  0.2000E+01
    -17.667  0.5096E-13  0.2000E+01
    -17.654  0.8137E-08  0.2000E+01
    -17.641  0.5801E-04  0.2000E+01
    -17.628  0.2158E-01  0.2000E+01
    -17.616  0.5805E+00  0.2008E+01
    -17.603  0.2109E+01  0.2035E+01
    -17.590  0.2659E+01  0.2069E+01
    -17.577  0.2714E+01  0.2104E+01
    -17.564  0.2739E+01  0.2139E+01
    -17.552  0.2738E+01  0.2174E+01
    -17.539  0.2863E+01  0.2210E+01
    -17.526  0.2779E+01  0.2246E+01
    -17.513  0.2929E+01  0.2283E+01
    -17.500  0.2911E+01  0.2321E+01
    -17.488  0.2973E+01  0.2359E+01
    -17.475  0.3067E+01  0.2398E+01
    -17.462  0.3056E+01  0.2437E+01
    -17.449  0.3254E+01  0.2479E+01
    -17.436  0.3211E+01  0.2520E+01
    -17.423  0.3513E+01  0.2565E+01
    -17.411  0.3511E+01  0.2610E+01
    -17.398  0.4069E+01  0.2662E+01
    -17.385  0.4601E+01  0.2721E+01
    -17.372  0.4724E+01  0.2781E+01
    -17.359  0.3621E+01  0.2828E+01
    -17.347  0.3105E+01  0.2867E+01
    -17.334  0.2584E+01  0.2901E+01
    -17.321  0.2499E+01  0.2933E+01
    -17.308  0.2030E+01  0.2959E+01
    -17.295  0.2118E+01  0.2986E+01
    -17.283  0.1729E+01  0.3008E+01
    -17.270  0.1774E+01  0.3031E+01
    -17.257  0.1829E+01  0.3054E+01
    -17.244  0.1661E+01  0.3075E+01
    -17.231  0.1864E+01  0.3099E+01
    -17.219  0.1718E+01  0.3121E+01
    -17.206  0.1848E+01  0.3145E+01
    -17.193  0.1734E+01  0.3167E+01
    -17.180  0.1708E+01  0.3189E+01
    -17.167  0.2221E+01  0.3217E+01
    -17.155  0.1120E+01  0.3232E+01
    -17.142  0.2405E+01  0.3262E+01
    -17.129  0.1819E+01  0.3286E+01
    -17.116  0.1234E+01  0.3301E+01
    -17.103  0.2492E+01  0.3333E+01
    -17.091  0.1688E+01  0.3355E+01
    -17.078  0.1688E+01  0.3377E+01
    -17.065  0.1937E+01  0.3401E+01
    -17.052  0.1869E+01  0.3425E+01
    -17.039  0.2180E+01  0.3453E+01
    -17.027  0.1560E+01  0.3473E+01
    -17.014  0.1648E+01  0.3494E+01
    -17.001  0.2675E+01  0.3529E+01
    -16.988  0.1603E+01  0.3549E+01
    -16.975  0.1506E+01  0.3568E+01
    -16.963  0.2341E+01  0.3598E+01
    -16.950  0.2149E+01  0.3626E+01
    -16.937  0.1799E+01  0.3649E+01
    -16.924  0.1753E+01  0.3671E+01
    -16.911  0.2056E+01  0.3698E+01
    -16.899  0.2459E+01  0.3729E+01
    -16.886  0.1858E+01  0.3753E+01
    -16.873  0.1545E+01  0.3773E+01
    -16.860  0.2452E+01  0.3804E+01
    -16.847  0.2291E+01  0.3834E+01
    -16.834  0.1964E+01  0.3859E+01
    -16.822  0.1804E+01  0.3882E+01
    -16.809  0.2222E+01  0.3910E+01
    -16.796  0.2475E+01  0.3942E+01
    -16.783  0.2227E+01  0.3970E+01
    -16.770  0.1599E+01  0.3991E+01
    -16.758  0.2518E+01  0.4023E+01
    -16.745  0.2562E+01  0.4056E+01
    -16.732  0.1990E+01  0.4081E+01
    -16.719  0.2099E+01  0.4108E+01
    -16.706  0.2763E+01  0.4144E+01
    -16.694  0.2026E+01  0.4170E+01
    -16.681  0.2439E+01  0.4201E+01
    -16.668  0.2603E+01  0.4234E+01
    -16.655  0.2417E+01  0.4265E+01
    -16.642  0.2291E+01  0.4294E+01
    -16.630  0.2631E+01  0.4328E+01
    -16.617  0.2783E+01  0.4364E+01
    -16.604  0.2647E+01  0.4398E+01
    -16.591  0.2472E+01  0.4429E+01
    -16.578  0.2748E+01  0.4465E+01
    -16.566  0.3134E+01  0.4505E+01
    -16.553  0.2890E+01  0.4542E+01
    -16.540  0.2877E+01  0.4578E+01
    -16.527  0.3070E+01  0.4618E+01
    -16.514  0.3372E+01  0.4661E+01
    -16.502  0.3650E+01  0.4708E+01
    -16.489  0.3378E+01  0.4751E+01
    -16.476  0.4079E+01  0.4803E+01
    -16.463  0.4493E+01  0.4861E+01
    -16.450  0.5582E+01  0.4932E+01
    -16.438  0.4704E+01  0.4992E+01
    -16.425  0.3809E+01  0.5041E+01
    -16.412  0.3545E+01  0.5087E+01
    -16.399  0.3535E+01  0.5132E+01
    -16.386  0.3363E+01  0.5175E+01
    -16.374  0.2747E+01  0.5210E+01
    -16.361  0.2948E+01  0.5248E+01
    -16.348  0.2874E+01  0.5285E+01
    -16.335  0.2696E+01  0.5319E+01
    -16.322  0.2734E+01  0.5354E+01
    -16.310  0.2251E+01  0.5383E+01
    -16.297  0.2471E+01  0.5415E+01
    -16.284  0.2759E+01  0.5450E+01
    -16.271  0.1949E+01  0.5475E+01
    -16.258  0.2394E+01  0.5506E+01
    -16.245  0.2109E+01  0.5533E+01
    -16.233  0.2311E+01  0.5562E+01
    -16.220  0.2109E+01  0.5589E+01
    -16.207  0.1799E+01  0.5612E+01
    -16.194  0.2258E+01  0.5641E+01
    -16.181  0.1923E+01  0.5666E+01
    -16.169  0.1926E+01  0.5690E+01
    -16.156  0.1736E+01  0.5713E+01
    -16.143  0.2113E+01  0.5740E+01
    -16.130  0.1629E+01  0.5761E+01
    -16.117  0.1832E+01  0.5784E+01
    -16.105  0.1731E+01  0.5806E+01
    -16.092  0.1801E+01  0.5829E+01
    -16.079  0.1544E+01  0.5849E+01
    -16.066  0.1773E+01  0.5872E+01
    -16.053  0.1571E+01  0.5892E+01
    -16.041  0.1616E+01  0.5912E+01
    -16.028  0.1559E+01  0.5932E+01
    -16.015  0.1553E+01  0.5952E+01
    -16.002  0.1512E+01  0.5972E+01
    -15.989  0.1413E+01  0.5990E+01
    -15.977  0.7204E+00  0.5999E+01
    -15.964  0.7529E-01  0.6000E+01
    -15.951  0.7364E-03  0.6000E+01
    -15.938  0.4393E-06  0.6000E+01
    -15.925  0.1289E-10  0.6000E+01
    -15.913  0.1231E-16  0.6000E+01
    -15.900  0.0000E+00  0.6000E+01
    -15.887  0.0000E+00  0.6000E+01
    -15.874  0.0000E+00  0.6000E+01
    -15.861  0.0000E+00  0.6000E+01
    -15.849  0.0000E+00  0.6000E+01
    -15.836  0.0000E+00  0.6000E+01
    -15.823  0.0000E+00  0.6000E+01
    -15.810  0.0000E+00  0.6000E+01
    -15.797  0.0000E+00  0.6000E+01
    -15.785  0.0000E+00  0.6000E+01
    -15.772  0.0000E+00  0.6000E+01
    -15.759  0.0000E+00  0.6000E+01
    -15.746  0.0000E+00  0.6000E+01
    -15.733  0.0000E+00  0.6000E+01
    -15.720  0.0000E+00  0.6000E+01
    -15.708  0.0000E+00  0.6000E+01
    -15.695  0.0000E+00  0.6000E+01
    -15.682  0.0000E+00  0.6000E+01
    -15.669  0.0000E+00  0.6000E+01
    -15.656  0.0000E+00  0.6000E+01
    -15.644  0.0000E+00  0.6000E+01
    -15.631  0.0000E+00  0.6000E+01
    -15.618  0.0000E+00  0.6000E+01
    -15.605  0.0000E+00  0.6000E+01
    -15.592  0.0000E+00  0.6000E+01
    -15.580  0.0000E+00  0.6000E+01
    -15.567  0.0000E+00  0.6000E+01
    -15.554  0.0000E+00  0.6000E+01
    -15.541  0.0000E+00  0.6000E+01
    -15.528  0.0000E+00  0.6000E+01
    -15.516  0.0000E+00  0.6000E+01
    -15.503  0.0000E+00  0.6000E+01
    -15.490  0.0000E+00  0.6000E+01
    -15.477  0.0000E+00  0.6000E+01
    -15.464  0.0000E+00  0.6000E+01
    -15.452  0.0000E+00  0.6000E+01
    -15.439  0.0000E+00  0.6000E+01
    -15.426  0.0000E+00  0.6000E+01
    -15.413  0.0000E+00  0.6000E+01
    -15.400  0.0000E+00  0.6000E+01
    -15.388  0.0000E+00  0.6000E+01
    -15.375  0.0000E+00  0.6000E+01
    -15.362  0.0000E+00  0.6000E+01
    -15.349  0.0000E+00  0.6000E+01
    -15.336  0.0000E+00  0.6000E+01
    -15.324  0.0000E+00  0.6000E+01
    -15.311  0.0000E+00  0.6000E+01
    -15.298  0.0000E+00  0.6000E+01
    -15.285  0.0000E+00  0.6000E+01
    -15.272  0.0000E+00  0.6000E+01
    -15.260  0.0000E+00  0.6000E+01
    -15.247  0.0000E+00  0.6000E+01
    -15.234  0.0000E+00  0.6000E+01
    -15.221  0.0000E+00  0.6000E+01
    -15.208  0.0000E+00  0.6000E+01
    -15.196  0.0000E+00  0.6000E+01
    -15.183  0.0000E+00  0.6000E+01
    -15.170  0.0000E+00  0.6000E+01
    -15.157  0.0000E+00  0.6000E+01
    -15.144  0.0000E+00  0.6000E+01
    -15.131  0.0000E+00  0.6000E+01
    -15.119  0.0000E+00  0.6000E+01
    -15.106  0.0000E+00  0.6000E+01
    -15.093  0.0000E+00  0.6000E+01
    -15.080  0.0000E+00  0.6000E+01
    -15.067  0.0000E+00  0.6000E+01
    -15.055  0.0000E+00  0.6000E+01
    -15.042  0.0000E+00  0.6000E+01
    -15.029  0.0000E+00  0.6000E+01
    -15.016  0.0000E+00  0.6000E+01
    -15.003  0.0000E+00  0.6000E+01
    -14.991  0.0000E+00  0.6000E+01
    -14.978  0.0000E+00  0.6000E+01
    -14.965  0.0000E+00  0.6000E+01
    -14.952  0.0000E+00  0.6000E+01
    -14.939  0.0000E+00  0.6000E+01
    -14.927  0.0000E+00  0.6000E+01
    -14.914  0.0000E+00  0.6000E+01
    -14.901  0.0000E+00  0.6000E+01
    -14.888  0.0000E+00  0.6000E+01
    -14.875  0.0000E+00  0.6000E+01
    -14.863  0.0000E+00  0.6000E+01
    -14.850  0.0000E+00  0.6000E+01
    -14.837  0.0000E+00  0.6000E+01
    -14.824  0.0000E+00  0.6000E+01
    -14.811  0.0000E+00  0.6000E+01
    -14.799  0.0000E+00  0.6000E+01
    -14.786  0.0000E+00  0.6000E+01
    -14.773  0.0000E+00  0.6000E+01
    -14.760  0.0000E+00  0.6000E+01
    -14.747  0.0000E+00  0.6000E+01
    -14.735  0.0000E+00  0.6000E+01
    -14.722  0.0000E+00  0.6000E+01
    -14.709  0.0000E+00  0.6000E+01
    -14.696  0.0000E+00  0.6000E+01
    -14.683  0.0000E+00  0.6000E+01
    -14.671  0.0000E+00  0.6000E+01
    -14.658  0.0000E+00  0.6000E+01
    -14.645  0.0000E+00  0.6000E+01
    -14.632  0.0000E+00  0.6000E+01
    -14.619  0.0000E+00  0.6000E+01
    -14.607  0.0000E+00  0.6000E+01
    -14.594  0.0000E+00  0.6000E+01
    -14.581  0.0000E+00  0.6000E+01
    -14.568  0.0000E+00  0.6000E+01
    -14.555  0.0000E+00  0.6000E+01
    -14.542  0.0000E+00  0.6000E+01
    -14.530  0.0000E+00  0.6000E+01
    -14.517  0.0000E+00  0.6000E+01
    -14.504  0.0000E+00  0.6000E+01
    -14.491  0.0000E+00  0.6000E+01
    -14.478  0.0000E+00  0.6000E+01
    -14.466  0.0000E+00  0.6000E+01
    -14.453  0.0000E+00  0.6000E+01
    -14.440  0.0000E+00  0.6000E+01
    -14.427  0.0000E+00  0.6000E+01
    -14.414  0.0000E+00  0.6000E+01
    -14.402  0.0000E+00  0.6000E+01
    -14.389  0.0000E+00  0.6000E+01
    -14.376  0.0000E+00  0.6000E+01
    -14.363  0.0000E+00  0.6000E+01
    -14.350  0.0000E+00  0.6000E+01
    -14.338  0.0000E+00  0.6000E+01
    -14.325  0.0000E+00  0.6000E+01
    -14.312  0.0000E+00  0.6000E+01
    -14.299  0.0000E+00  0.6000E+01
    -14.286  0.0000E+00  0.6000E+01
    -14.274  0.0000E+00  0.6000E+01
    -14.261  0.0000E+00  0.6000E+01
    -14.248  0.0000E+00  0.6000E+01
    -14.235  0.8877E-12  0.6000E+01
    -14.222  0.6288E-07  0.6000E+01
    -14.210  0.2067E-03  0.6000E+01
    -14.197  0.3951E-01  0.6001E+01
    -14.184  0.6532E+00  0.6009E+01
    -14.171  0.1683E+01  0.6030E+01
    -14.158  0.2026E+01  0.6056E+01
    -14.146  0.1839E+01  0.6080E+01
    -14.133  0.2155E+01  0.6107E+01
    -14.120  0.1957E+01  0.6133E+01
    -14.107  0.1832E+01  0.6156E+01
    -14.094  0.2368E+01  0.6186E+01
    -14.082  0.2023E+01  0.6212E+01
    -14.069  0.1747E+01  0.6235E+01
    -14.056  0.2325E+01  0.6264E+01
    -14.043  0.2383E+01  0.6295E+01
    -14.030  0.1984E+01  0.6320E+01
    -14.018  0.1875E+01  0.6344E+01
    -14.005  0.2308E+01  0.6374E+01
    -13.992  0.2655E+01  0.6408E+01
    -13.979  0.2151E+01  0.6435E+01
    -13.966  0.2021E+01  0.6461E+01
    -13.953  0.2009E+01  0.6487E+01
    -13.941  0.2871E+01  0.6524E+01
    -13.928  0.2552E+01  0.6556E+01
    -13.915  0.2412E+01  0.6587E+01
    -13.902  0.2000E+01  0.6613E+01
    -13.889  0.2370E+01  0.6643E+01
    -13.877  0.2892E+01  0.6680E+01
    -13.864  0.3042E+01  0.6719E+01
    -13.851  0.2571E+01  0.6752E+01
    -13.838  0.2482E+01  0.6784E+01
    -13.825  0.2460E+01  0.6815E+01
    -13.813  0.2920E+01  0.6853E+01
    -13.800  0.3691E+01  0.6900E+01
    -13.787  0.3245E+01  0.6942E+01
    -13.774  0.3140E+01  0.6982E+01
    -13.761  0.3201E+01  0.7023E+01
    -13.749  0.3349E+01  0.7066E+01
    -13.736  0.4571E+01  0.7124E+01
    -13.723  0.5805E+01  0.7199E+01
    -13.710  0.5637E+01  0.7271E+01
    -13.697  0.4456E+01  0.7328E+01
    -13.685  0.3267E+01  0.7370E+01
    -13.672  0.3361E+01  0.7413E+01
    -13.659  0.3447E+01  0.7457E+01
    -13.646  0.3307E+01  0.7499E+01
    -13.633  0.2845E+01  0.7536E+01
    -13.621  0.2468E+01  0.7567E+01
    -13.608  0.1083E+01  0.7581E+01
    -13.595  0.9296E+00  0.7593E+01
    -13.582  0.1702E+01  0.7615E+01
    -13.569  0.3658E+01  0.7662E+01
    -13.557  0.2209E+01  0.7690E+01
    -13.544  0.9929E+00  0.7703E+01
    -13.531  0.8885E+00  0.7714E+01
    -13.518  0.1200E+01  0.7729E+01
    -13.505  0.1708E+01  0.7751E+01
    -13.493  0.3330E+01  0.7794E+01
    -13.480  0.1628E+01  0.7815E+01
    -13.467  0.9714E+00  0.7827E+01
    -13.454  0.1104E+01  0.7841E+01
    -13.441  0.1125E+01  0.7856E+01
    -13.428  0.1647E+01  0.7877E+01
    -13.416  0.2374E+01  0.7907E+01
    -13.403  0.1996E+01  0.7933E+01
    -13.390  0.9892E+00  0.7945E+01
    -13.377  0.1174E+01  0.7960E+01
    -13.364  0.1174E+01  0.7975E+01
    -13.352  0.1310E+01  0.7992E+01
    -13.339  0.1987E+01  0.8018E+01
    -13.326  0.1934E+01  0.8042E+01
    -13.313  0.1280E+01  0.8059E+01
    -13.300  0.1131E+01  0.8073E+01
    -13.288  0.1217E+01  0.8089E+01
    -13.275  0.1177E+01  0.8104E+01
    -13.262  0.1638E+01  0.8125E+01
    -13.249  0.1855E+01  0.8149E+01
    -13.236  0.1388E+01  0.8166E+01
    -13.224  0.1218E+01  0.8182E+01
    -13.211  0.1135E+01  0.8197E+01
    -13.198  0.1329E+01  0.8214E+01
    -13.185  0.1237E+01  0.8229E+01
    -13.172  0.1691E+01  0.8251E+01
    -13.160  0.1680E+01  0.8273E+01
    -13.147  0.9746E+00  0.8285E+01
    -13.134  0.1334E+01  0.8302E+01
    -13.121  0.1158E+01  0.8317E+01
    -13.108  0.1313E+01  0.8334E+01
    -13.096  0.1464E+01  0.8353E+01
    -13.083  0.1467E+01  0.8371E+01
    -13.070  0.1426E+01  0.8390E+01
    -13.057  0.1034E+01  0.8403E+01
    -13.044  0.1172E+01  0.8418E+01
    -13.032  0.1153E+01  0.8433E+01
    -13.019  0.1583E+01  0.8453E+01
    -13.006  0.1510E+01  0.8472E+01
    -12.993  0.1141E+01  0.8487E+01
    -12.980  0.1119E+01  0.8501E+01
    -12.968  0.1176E+01  0.8516E+01
    -12.955  0.1014E+01  0.8529E+01
    -12.942  0.1648E+01  0.8550E+01
    -12.929  0.1466E+01  0.8569E+01
    -12.916  0.1213E+01  0.8585E+01
    -12.904  0.1029E+01  0.8598E+01
    -12.891  0.8514E+00  0.8609E+01
    -12.878  0.1045E+01  0.8622E+01
    -12.865  0.1904E+01  0.8646E+01
    -12.852  0.1600E+01  0.8667E+01
    -12.839  0.1013E+01  0.8680E+01
    -12.827  0.7516E+00  0.8690E+01
    -12.814  0.8122E+00  0.8700E+01
    -12.801  0.1222E+01  0.8716E+01
    -12.788  0.2716E+01  0.8750E+01
    -12.775  0.1750E+01  0.8773E+01
    -12.763  0.7396E+00  0.8782E+01
    -12.750  0.8703E+00  0.8793E+01
    -12.737  0.1131E+01  0.8808E+01
    -12.724  0.2486E+01  0.8840E+01
    -12.711  0.3050E+01  0.8879E+01
    -12.699  0.1490E+01  0.8898E+01
    -12.686  0.1353E+01  0.8915E+01
    -12.673  0.2358E+01  0.8945E+01
    -12.660  0.2485E+01  0.8977E+01
    -12.647  0.2676E+01  0.9011E+01
    -12.635  0.3195E+01  0.9052E+01
    -12.622  0.1889E+01  0.9076E+01
    -12.609  0.1203E+01  0.9092E+01
    -12.596  0.1386E+01  0.9110E+01
    -12.583  0.1846E+01  0.9133E+01
    -12.571  0.2209E+01  0.9162E+01
    -12.558  0.2380E+01  0.9192E+01
    -12.545  0.2282E+01  0.9221E+01
    -12.532  0.1495E+01  0.9240E+01
    -12.519  0.1706E+01  0.9262E+01
    -12.507  0.1813E+01  0.9285E+01
    -12.494  0.1716E+01  0.9307E+01
    -12.481  0.2484E+01  0.9339E+01
    -12.468  0.2386E+01  0.9370E+01
    -12.455  0.1366E+01  0.9387E+01
    -12.443  0.1479E+01  0.9406E+01
    -12.430  0.1460E+01  0.9425E+01
    -12.417  0.1690E+01  0.9447E+01
    -12.404  0.2422E+01  0.9478E+01
    -12.391  0.2257E+01  0.9506E+01
    -12.379  0.1211E+01  0.9522E+01
    -12.366  0.1323E+01  0.9539E+01
    -12.353  0.1271E+01  0.9555E+01
    -12.340  0.2063E+01  0.9582E+01
    -12.327  0.2162E+01  0.9609E+01
    -12.315  0.1632E+01  0.9630E+01
    -12.302  0.1277E+01  0.9647E+01
    -12.289  0.1536E+01  0.9666E+01
    -12.276  0.1423E+01  0.9684E+01
    -12.263  0.1643E+01  0.9705E+01
    -12.250  0.1898E+01  0.9730E+01
    -12.238  0.1632E+01  0.9751E+01
    -12.225  0.1378E+01  0.9768E+01
    -12.212  0.1351E+01  0.9786E+01
    -12.199  0.1266E+01  0.9802E+01
    -12.186  0.1924E+01  0.9826E+01
    -12.174  0.1773E+01  0.9849E+01
    -12.161  0.1088E+01  0.9863E+01
    -12.148  0.1373E+01  0.9881E+01
    -12.135  0.1343E+01  0.9898E+01
    -12.122  0.1829E+01  0.9921E+01
    -12.110  0.1777E+01  0.9944E+01
    -12.097  0.9373E+00  0.9956E+01
    -12.084  0.1025E+01  0.9969E+01
    -12.071  0.1621E+01  0.9990E+01
    -12.058  0.1753E+01  0.1001E+02
    -12.046  0.1633E+01  0.1003E+02
    -12.033  0.1176E+01  0.1005E+02
    -12.020  0.1059E+01  0.1006E+02
    -12.007  0.1093E+01  0.1008E+02
    -11.994  0.1635E+01  0.1010E+02
    -11.982  0.1695E+01  0.1012E+02
    -11.969  0.1111E+01  0.1013E+02
    -11.956  0.1490E+01  0.1015E+02
    -11.943  0.1405E+01  0.1017E+02
    -11.930  0.8736E+00  0.1018E+02
    -11.918  0.1265E+01  0.1020E+02
    -11.905  0.1169E+01  0.1021E+02
    -11.892  0.1697E+01  0.1023E+02
    -11.879  0.1522E+01  0.1025E+02
    -11.866  0.1101E+01  0.1027E+02
    -11.854  0.9866E+00  0.1028E+02
    -11.841  0.3860E+00  0.1029E+02
    -11.828  0.2986E+00  0.1029E+02
    -11.815  0.2105E+00  0.1029E+02
    -11.802  0.6938E+00  0.1030E+02
    -11.790  0.8594E+00  0.1031E+02
    -11.777  0.4418E+00  0.1032E+02
    -11.764  0.2534E+00  0.1032E+02
    -11.751  0.3667E+00  0.1033E+02
    -11.738  0.2261E+00  0.1033E+02
    -11.726  0.2999E+00  0.1033E+02
    -11.713  0.3412E+00  0.1034E+02
    -11.700  0.8183E+00  0.1035E+02
    -11.687  0.7990E+00  0.1036E+02
    -11.674  0.4316E+00  0.1036E+02
    -11.661  0.2308E+00  0.1037E+02
    -11.649  0.3564E+00  0.1037E+02