Lattice                                 
           1
     4.243524    2.450000    0.000000
    -4.243524    2.450000    0.000000
     0.000000    0.000000   15.000000
   B    C 
     4    11
Direct configuration=     1
   0.00415361  0.00267210  0.12034134
   0.35695335  0.00285503  0.09748893
   0.00423858  0.35550699  0.09749256
   0.65142295  0.65006557  0.09747688
   0.32808646  0.32671938  0.10030508
   0.68027775  0.00278085  0.10027562
   0.00416530  0.67883808  0.10026559
   0.99999933  0.49999967  0.34000000
   0.16666633  0.33333267  0.34000000
   0.99999933  0.99999967  0.34000000
   0.16666633  0.83333267  0.34000000
   0.49999933  0.49999967  0.34000000
   0.66666633  0.33333267  0.34000000
   0.49999933  0.99999967  0.34000000
   0.66666633  0.83333267  0.34000000
Lattice                                 
           1
     4.086929    2.359663    0.000024
    -4.086881    2.359579    0.000035
    -0.000019    0.000179   14.965679
   B    C 
     4    11
Direct configuration=     2
   0.00417750  0.00274084  0.11889515
   0.35548325  0.00298432  0.09794322
   0.00401909  0.35386586  0.09794511
   0.65305706  0.65149649  0.09793527
   0.32367409  0.32203882  0.10037004
   0.68492362  0.00303232  0.10034971
   0.00395622  0.68327451  0.10034306
   0.00008825  0.49997479  0.33998349
   0.16683283  0.33382239  0.34002525
   0.99999886  0.99999457  0.33989404
   0.16698352  0.83316534  0.34002752
   0.50003680  0.50012318  0.33998579
   0.66666622  0.33333698  0.33994005
   0.49988779  0.99990956  0.33998319
   0.66617558  0.83300736  0.34002509
Lattice                                 
           1
     4.193701    2.421258    0.000008
    -4.193686    2.421231    0.000011
    -0.000006    0.000057   14.989080
   B    C 
     4    11
Direct configuration=     3
   0.00416055  0.00269214  0.11988347
   0.35652402  0.00289278  0.09763276
   0.00417448  0.35502773  0.09763584
   0.65190021  0.65048348  0.09762201
   0.32679782  0.32535245  0.10032563
   0.68163458  0.00285434  0.10029908
   0.00410425  0.68013367  0.10029012
   0.00002530  0.49999240  0.33999477
   0.16671496  0.33347568  0.34000799
   0.99999919  0.99999818  0.33996645
   0.16675897  0.83328381  0.34000871
   0.50001028  0.50003574  0.33999550
   0.66666630  0.33333393  0.33998102
   0.49996676  0.99997335  0.33999468
   0.66652301  0.83323766  0.34000794
Lattice                                 
           1
     4.192266    2.420430    0.000008
    -4.192250    2.420403    0.000011
    -0.000006    0.000058   14.988766
   B    C 
     4    11
Direct configuration=     4
   0.00416077  0.00269277  0.11987021
   0.35651039  0.00289398  0.09763693
   0.00417245  0.35501252  0.09763999
   0.65191536  0.65049675  0.09762622
   0.32675690  0.32530904  0.10032623
   0.68167766  0.00285667  0.10029976
   0.00410231  0.68017481  0.10029083
   0.00002613  0.49999217  0.33999462
   0.16671650  0.33348023  0.34000823
   0.99999919  0.99999813  0.33996548
   0.16676191  0.83328226  0.34000897
   0.50001062  0.50003688  0.33999537
   0.66666630  0.33333397  0.33998047
   0.49996572  0.99997252  0.33999452
   0.66651846  0.83323464  0.34000817
Lattice                                 
           1
     4.192156    2.420366    0.000008
    -4.192140    2.420339    0.000011
    -0.000006    0.000059   14.988742
   B    C 
     4    11
Direct configuration=     5
   0.00416079  0.00269282  0.11986919
   0.35650934  0.00289407  0.09763725
   0.00417229  0.35501135  0.09764031
   0.65191653  0.65049777  0.09762654
   0.32675376  0.32530571  0.10032627
   0.68168097  0.00285685  0.10029982
   0.00410216  0.68017797  0.10029089
   0.00002619  0.49999215  0.33999461
   0.16671662  0.33348057  0.34000824
   0.99999919  0.99999812  0.33996541
   0.16676214  0.83328214  0.34000899
   0.50001065  0.50003697  0.33999536
   0.66666630  0.33333397  0.33998043
   0.49996564  0.99997245  0.33999451
   0.66651811  0.83323441  0.34000819
Lattice                                 
           1
     4.192256    2.420412    0.000028
    -4.192242    2.420386    0.000041
    -0.000023    0.000211   14.962381
   B    C 
     4    11
Direct configuration=     6
   0.00417628  0.00274700  0.11918559
   0.35694547  0.00295874  0.09791164
   0.00403407  0.35535685  0.09791345
   0.65157767  0.65003214  0.09790397
   0.32697211  0.32537230  0.10032418
   0.68159435  0.00299051  0.10030397
   0.00398959  0.67997505  0.10029705
  -0.00002036  0.50001046  0.33998290
   0.16669345  0.33335196  0.34001036
   0.99999787  0.99999948  0.33989219
   0.16666344  0.83330993  0.34001260
   0.49998812  0.49997045  0.33998514
   0.66666859  0.33333344  0.33993009
   0.50002773  0.00001883  0.33998259
   0.66665229  0.83334020  0.34001028
Lattice                                 
           1
     4.192557    2.420548    0.000088
    -4.192546    2.420528    0.000128
    -0.000072    0.000669   14.883298
   B    C 
     4    11
Direct configuration=     7
   0.00422280  0.00290961  0.11713119
   0.35825379  0.00315270  0.09873626
   0.00361941  0.35639330  0.09873430
   0.65056108  0.64863525  0.09873772
   0.32762714  0.32557206  0.10031790
   0.68133449  0.00339146  0.10031645
   0.00365188  0.67936631  0.10031558
  -0.00015998  0.50006539  0.33994769
   0.16662392  0.33296611  0.34001673
   0.99999394  0.00000354  0.33967215
   0.16636736  0.83339330  0.34002347
   0.49992054  0.49977088  0.33995444
   0.66667549  0.33333186  0.33977882
   0.50021399  0.00015798  0.33994676
   0.66705481  0.83365757  0.34001654
Lattice                                 
           1
     4.193158    2.420820    0.000208
    -4.193154    2.420811    0.000304
    -0.000171    0.001585   14.725132
   B    C 
     4    11
Direct configuration=     8
   0.00431620  0.00323523  0.11300055
   0.36087014  0.00354044  0.10039424
   0.00279001  0.35846590  0.10038473
   0.64852787  0.64584147  0.10041411
   0.32893713  0.32597158  0.10030525
   0.68081481  0.00419331  0.10034155
   0.00297650  0.67814891  0.10035284
  -0.00043921  0.50017524  0.33987691
   0.16648486  0.33219447  0.34002954
   0.99998612  0.00001172  0.33922973
   0.16577524  0.83356003  0.34004533
   0.49978539  0.49937178  0.33989270
   0.66668931  0.33332872  0.33947466
   0.50058649  0.00043626  0.33987471
   0.66785981  0.83429228  0.34002914
Lattice                                 
           1
     4.192723    2.420623    0.000121
    -4.192713    2.420606    0.000177
    -0.000099    0.000922   14.839603
   B    C 
     4    11
Direct configuration=     9
   0.00424806  0.00299899  0.11602218
   0.35897704  0.00326007  0.09918142
   0.00339040  0.35696633  0.09917743
   0.64999944  0.64786345  0.09918777
   0.32798915  0.32568245  0.10031451
   0.68119087  0.00361307  0.10032320
   0.00346526  0.67902989  0.10032557
  -0.00023716  0.50009574  0.33992869
   0.16658550  0.33275287  0.34002016
   0.99999173  0.00000574  0.33955337
   0.16620373  0.83343939  0.34002934
   0.49988318  0.49966058  0.33993786
   0.66667927  0.33333095  0.33969716
   0.50031692  0.00023487  0.33992742
   0.66727727  0.83383297  0.34001993
Lattice                                 
           1
     4.192891    2.420726    0.000129
    -4.192880    2.420707    0.000182
    -0.000095    0.000964   14.830356
   B    C 
     4    11
Direct configuration=    10
   0.00424794  0.00300366  0.11576720
   0.35900867  0.00326672  0.09925835
   0.00337176  0.35699032  0.09925404
   0.64998368  0.64782820  0.09926543
   0.32796071  0.32564130  0.10033799
   0.68123093  0.00361849  0.10034854
   0.00345418  0.67906408  0.10035141
  -0.00018479  0.50007803  0.33992530
   0.16659729  0.33287044  0.34001501
   0.99999566  0.00000539  0.33954103
   0.16630216  0.83342358  0.34002443
   0.49990789  0.49973178  0.33993469
   0.66667701  0.33333206  0.33968382
   0.50025280  0.00018528  0.33992397
   0.66715477  0.83372801  0.34001477
Lattice                                 
           1
     4.193395    2.421035    0.000153
    -4.193381    2.421009    0.000199
    -0.000083    0.001089   14.802614
   B    C 
     4    11
Direct configuration=    11
   0.00424757  0.00301770  0.11500179
   0.35910355  0.00328669  0.09948928
   0.00331583  0.35706229  0.09948403
   0.64993637  0.64772245  0.09949855
   0.32787539  0.32551785  0.10040849
   0.68135111  0.00363475  0.10042464
   0.00342096  0.67916663  0.10042898
  -0.00002771  0.50002491  0.33991515
   0.16663266  0.33322314  0.33999955
   0.00000748  0.00000435  0.33950399
   0.16659746  0.83337618  0.34000968
   0.49998201  0.49994537  0.33992519
   0.66667023  0.33333539  0.33964380
   0.50006046  0.00003651  0.33991361
   0.66678728  0.83341315  0.33999928
Lattice                                 
           1
     4.194404    2.421653    0.000200
    -4.194381    2.421613    0.000232
    -0.000058    0.001340   14.747131
   B    C 
     4    11
Direct configuration=    12
   0.00424687  0.00304581  0.11346810
   0.35929329  0.00332660  0.09995201
   0.00320397  0.35720621  0.09994485
   0.64984175  0.64751096  0.09996566
   0.32770478  0.32527097  0.10054975
   0.68159144  0.00366725  0.10057711
   0.00335452  0.67937172  0.10058442
   0.00028643  0.49991867  0.33989479
   0.16670340  0.33392845  0.33996857
   0.00003112  0.00000226  0.33942978
   0.16718797  0.83328138  0.33998014
   0.50013022  0.50037249  0.33990614
   0.66665667  0.33334205  0.33956360
   0.49967584 -0.00026100  0.33989286
   0.66605241  0.83278352  0.33996823
Lattice                                 
           1
     4.194770    2.421831    0.000221
    -4.194773    2.421837    0.000235
    -0.000025    0.001414   14.727208
   B    C 
     4    11
Direct configuration=    13
   0.00423730  0.00302281  0.11289484
   0.35915667  0.00329772  0.10005704
   0.00325563  0.35711592  0.10004981
   0.64994941  0.64765659  0.10007093
   0.32758900  0.32524257  0.10066700
   0.68162857  0.00357120  0.10069680
   0.00341440  0.67948922  0.10070445
   0.00020323  0.49995330  0.33988583
   0.16673901  0.33382772  0.33994283
   0.00001910  0.00000167  0.33944517
   0.16707590  0.83326094  0.33995400
   0.50008127  0.50025914  0.33989666
   0.66666729  0.33334226  0.33955440
   0.49977417 -0.00018749  0.33988380
   0.66616972  0.83291374  0.33994245
Lattice                                 
           1
     4.195869    2.422367    0.000285
    -4.195950    2.422507    0.000242
     0.000072    0.001636   14.667440
   B    C 
     4    11
Direct configuration=    14
   0.00420861  0.00295383  0.11117276
   0.35874684  0.00321109  0.10037257
   0.00341059  0.35684509  0.10036510
   0.65027234  0.64809343  0.10038716
   0.32724169  0.32515739  0.10101923
   0.68173994  0.00328308  0.10105636
   0.00359403  0.67984170  0.10106502
  -0.00004635  0.50005717  0.33985890
   0.16684586  0.33352558  0.33986548
  -0.00001694 -0.00000010  0.33949141
   0.16673971  0.83319961  0.33987547
   0.49993444  0.49991914  0.33986819
   0.66669912  0.33334290  0.33952677
   0.50006914  0.00003303  0.33985658
   0.66652163  0.83330439  0.33986500
Lattice                                 
           1
     4.196284    2.422569    0.000309
    -4.196395    2.422760    0.000245
     0.000109    0.001720   14.644848
   B    C 
     4    11
Direct configuration=    15
   0.00419781  0.00292779  0.11051916
   0.35859195  0.00317835  0.10049233
   0.00346915  0.35674274  0.10048477
   0.65039437  0.64825851  0.10050718
   0.32711043  0.32512519  0.10115292
   0.68178202  0.00317419  0.10119282
   0.00366191  0.67997490  0.10120187
  -0.00014066  0.50009642  0.33984867
   0.16688624  0.33341140  0.33983613
  -0.00003056 -0.00000077  0.33950896
   0.16661267  0.83317644  0.33984567
   0.49987896  0.49979065  0.33985738
   0.66671115  0.33334315  0.33951628
   0.50018062  0.00011637  0.33984624
   0.66665462  0.83345202  0.33983560
Lattice                                 
           1
     4.195934    2.422496    0.000344
    -4.195967    2.422553    0.000247
     0.000168    0.001835   14.618610
   B    C 
     4    11
Direct configuration=    16
   0.00419879  0.00289950  0.10975350
   0.35863879  0.00311384  0.10058133
   0.00362823  0.35687518  0.10057495
   0.65022509  0.64823156  0.10059417
   0.32744658  0.32564632  0.10135173
   0.68126300  0.00301960  0.10139118
   0.00379840  0.67959037  0.10139946
  -0.00002686  0.50000921  0.33982187
   0.16666043  0.33329230  0.33980407
   0.00002043  0.00000965  0.33956734
   0.16663468  0.83334904  0.33981195
   0.50002015  0.49996114  0.33982867
   0.66666885  0.33333771  0.33954282
   0.50006657  0.00005629  0.33981937
   0.66671752  0.83337562  0.33980359
Lattice                                 
           1
     4.195706    2.422448    0.000367
    -4.195689    2.422417    0.000248
     0.000206    0.001909   14.601536
   B    C 
     4    11
Direct configuration=    17
   0.00419944  0.00288110  0.10925438
   0.35866927  0.00307186  0.10063936
   0.00373175  0.35696137  0.10063374
   0.65011494  0.64821402  0.10065088
   0.32766532  0.32598545  0.10148134
   0.68092525  0.00291900  0.10152049
   0.00388722  0.67934012  0.10152826
   0.00004721  0.49995245  0.33980440
   0.16651349  0.33321480  0.33978317
   0.00005361  0.00001643  0.33960539
   0.16664900  0.83346136  0.33978997
   0.50011203  0.50007210  0.33980995
   0.66664133  0.33333417  0.33956012
   0.49999236  0.00001720  0.33980185
   0.66675846  0.83332590  0.33978272
Lattice                                 
           1
     4.195251    2.422353    0.000413
    -4.195132    2.422147    0.000250
     0.000283    0.002059   14.567389
   B    C 
     4    11
Direct configuration=    18
   0.00420077  0.00284430  0.10825497
   0.35873024  0.00298788  0.10075553
   0.00393880  0.35713376  0.10075145
   0.64989461  0.64817895  0.10076443
   0.32810281  0.32666373  0.10174085
   0.68024971  0.00271779  0.10177941
   0.00406486  0.67883959  0.10178616
   0.00019534  0.49983893  0.33976942
   0.16621959  0.33305980  0.33974132
   0.00011998  0.00003000  0.33968159
   0.16667764  0.83368602  0.33974596
   0.50029579  0.50029401  0.33977246
   0.66658628  0.33332710  0.33959475
   0.49984392 -0.00006099  0.33976677
   0.66684033  0.83322646  0.33974093
Lattice                                 
           1
     4.195531    2.422411    0.000385
    -4.195474    2.422313    0.000249
     0.000236    0.001967   14.588399
   B    C 
     4    11
Direct configuration=    19
   0.00419993  0.00286693  0.10887131
   0.35869273  0.00303956  0.10068389
   0.00381140  0.35702769  0.10067886
   0.65003018  0.64820053  0.10069441
   0.32783363  0.32624637  0.10158081
   0.68066538  0.00284159  0.10161973
   0.00395556  0.67914760  0.10162711
   0.00010419  0.49990879  0.33979099
   0.16640043  0.33315517  0.33976713
   0.00007914  0.00002165  0.33963460
   0.16666002  0.83354778  0.33977310
   0.50018272  0.50015746  0.33979558
   0.66662015  0.33333145  0.33957339
   0.49993525 -0.00001288  0.33978840
   0.66678995  0.83328765  0.33976670
Lattice                                 
           1
     4.195119    2.421956    0.000407
    -4.195173    2.422049    0.000249
     0.000274    0.002036   14.576837
   B    C 
     4    11
Direct configuration=    20
   0.00419904  0.00284570  0.10851299
   0.35887507  0.00302040  0.10072839
   0.00388707  0.35723010  0.10072474
   0.64977417  0.64803391  0.10073632
   0.32796787  0.32640977  0.10165453
   0.68050106  0.00285758  0.10168930
   0.00397889  0.67896932  0.10169511
   0.00003843  0.50002501  0.33976677
   0.16676856  0.33347833  0.33977185
  -0.00002415 -0.00000002  0.33967056
   0.16679472  0.83329561  0.33977679
   0.49995876  0.50004510  0.33977010
   0.66671760  0.33334917  0.33961269
   0.49993627 -0.00006038  0.33976435
   0.66658729  0.83326774  0.33977150
Lattice                                 
           1
     4.195163    2.422005    0.000405
    -4.195205    2.422077    0.000249
     0.000270    0.002028   14.578073
   B    C 
     4    11
Direct configuration=    21
   0.00419914  0.00284797  0.10855133
   0.35885558  0.00302245  0.10072363
   0.00387898  0.35720846  0.10071983
   0.64980154  0.64805173  0.10073184
   0.32795352  0.32639230  0.10164664
   0.68051863  0.00285587  0.10168185
   0.00397640  0.67898838  0.10168784
   0.00004546  0.50001259  0.33976936
   0.16672920  0.33344379  0.33977135
  -0.00001310  0.00000230  0.33966672
   0.16678032  0.83332257  0.33977640
   0.49998271  0.50005711  0.33977283
   0.66670719  0.33334727  0.33960848
   0.49993616 -0.00005530  0.33976692
   0.66660896  0.83326987  0.33977098
Lattice                                 
           1
     4.195094    2.422042    0.000417
    -4.195091    2.422036    0.000248
     0.000294    0.002062   14.575031
   B    C 
     4    11
Direct configuration=    22
   0.00419014  0.00282530  0.10844107
   0.35896161  0.00302956  0.10074863
   0.00388361  0.35730091  0.10074578
   0.64967856  0.64795473  0.10075488
   0.32786496  0.32625294  0.10164212
   0.68066338  0.00293362  0.10167295
   0.00393828  0.67906807  0.10167759
   0.00002976  0.50002148  0.33976007
   0.16674128  0.33346496  0.33978766
   0.00001519  0.00000717  0.33968211
   0.16673907  0.83327949  0.33979236
   0.50000648  0.50001296  0.33976305
   0.66667872  0.33334257  0.33963260
   0.50001336 -0.00000552  0.33975775
   0.66655627  0.83327910  0.33978737
Lattice                                 
           1
     4.195011    2.422088    0.000432
    -4.194953    2.421986    0.000246
     0.000323    0.002103   14.571344
   B    C 
     4    11
Direct configuration=    23
   0.00417924  0.00279784  0.10830741
   0.35909013  0.00303818  0.10077895
   0.00388923  0.35741298  0.10077723
   0.64952949  0.64783715  0.10078281
   0.32775762  0.32608402  0.10163664
   0.68083883  0.00302786  0.10166215
   0.00389207  0.67916466  0.10166518
   0.00001072  0.50003225  0.33974880
   0.16675593  0.33349062  0.33980744
   0.00004949  0.00001307  0.33970078
   0.16668907  0.83322729  0.33981171
   0.50003529  0.49995944  0.33975120
   0.66664422  0.33333687  0.33966184
   0.50010692  0.00005482  0.33974663
   0.66649241  0.83329029  0.33980724
Lattice                                 
           1
     4.195179    2.422133    0.000446
    -4.195149    2.422081    0.000245
     0.000350    0.002140   14.568647
   B    C 
     4    11
Direct configuration=    24
   0.00416738  0.00277091  0.10820443
   0.35916917  0.00305014  0.10080393
   0.00388430  0.35747676  0.10080308
   0.64944652  0.64776801  0.10080581
   0.32771307  0.32598922  0.10162243
   0.68094033  0.00309734  0.10164305
   0.00385226  0.67920807  0.10164462
   0.00000937  0.49999781  0.33974932
   0.16670885  0.33343609  0.33982267
   0.00002686  0.00001014  0.33971978
   0.16672651  0.83330275  0.33982677
   0.50004182  0.50000882  0.33975143
   0.66666950  0.33334134  0.33967881
   0.50003001  0.00002812  0.33974731
   0.66657471  0.83328181  0.33982254
Lattice                                 
           1
     4.195263    2.422156    0.000453
    -4.195246    2.422128    0.000244
     0.000363    0.002159   14.567309
   B    C 
     4    11
Direct configuration=    25
   0.00416149  0.00275755  0.10815332
   0.35920839  0.00305608  0.10081632
   0.00388185  0.35750841  0.10081591
   0.64940534  0.64773369  0.10081723
   0.32769096  0.32594218  0.10161539
   0.68099070  0.00313182  0.10163357
   0.00383250  0.67922961  0.10163442
   0.00000870  0.49998072  0.33974958
   0.16668549  0.33340904  0.33983023
   0.00001564  0.00000868  0.33972922
   0.16674509  0.83334020  0.33983425
   0.50004506  0.50003332  0.33975155
   0.66668205  0.33334355  0.33968724
   0.49999185  0.00001488  0.33974765
   0.66661554  0.83327760  0.33983013
Lattice                                 
           1
     4.195430    2.422201    0.000466
    -4.195441    2.422221    0.000242
     0.000389    0.002196   14.564633
   B    C 
     4    11
Direct configuration=    26
   0.00414972  0.00273083  0.10805108
   0.35928682  0.00306795  0.10084112
   0.00387696  0.35757170  0.10084156
   0.64932299  0.64766507  0.10084006
   0.32764675  0.32584810  0.10160129
   0.68109143  0.00320078  0.10161461
   0.00379299  0.67927269  0.10161402
   0.00000735  0.49994654  0.33975011
   0.16663877  0.33335493  0.33984535
  -0.00000682  0.00000577  0.33974809
   0.16678225  0.83341509  0.33984920
   0.50005154  0.50008233  0.33975178
   0.66670715  0.33334798  0.33970409
   0.49991553 -0.00001161  0.33974832
   0.66669722  0.83326918  0.33984533
Lattice                                 
           1
     4.195316    2.422170    0.000457
    -4.195309    2.422157    0.000243
     0.000371    0.002171   14.566454
   B    C 
     4    11
Direct configuration=    27
   0.00415773  0.00274901  0.10812067
   0.35923344  0.00305987  0.10082424
   0.00388029  0.35752863  0.10082410
   0.64937903  0.64771177  0.10082451
   0.32767684  0.32591212  0.10161088
   0.68102288  0.00315385  0.10162752
   0.00381988  0.67924338  0.10162791
   0.00000827  0.49996980  0.33974975
   0.16667057  0.33339176  0.33983506
   0.00000847  0.00000775  0.33973524
   0.16675696  0.83336412  0.33983902
   0.50004713  0.50004898  0.33975162
   0.66669007  0.33334497  0.33969262
   0.49996747  0.00000642  0.33974786
   0.66664164  0.83327491  0.33983499
Lattice                                 
           1
     4.195422    2.422229    0.000468
    -4.195417    2.422222    0.000243
     0.000391    0.002205   14.564952
   B    C 
     4    11
Direct configuration=    28
   0.00415153  0.00273541  0.10804760
   0.35923762  0.00307133  0.10083729
   0.00387128  0.35752268  0.10083756
   0.64938418  0.64771179  0.10083633
   0.32773067  0.32595261  0.10159734
   0.68098568  0.00316911  0.10161049
   0.00380599  0.67919373  0.10160989
   0.00004364  0.49999071  0.33976380
   0.16667097  0.33338791  0.33984233
   0.00000867  0.00000770  0.33975289
   0.16675235  0.83336323  0.33984636
   0.50002780  0.50006397  0.33976572
   0.66669069  0.33334541  0.33969413
   0.49995342 -0.00002838  0.33976199
   0.66664615  0.83328012  0.33984228
Lattice                                 
           1
     4.195739    2.422407    0.000503
    -4.195744    2.422415    0.000243
     0.000451    0.002309   14.560445
   B    C 
     4    11
Direct configuration=    29
   0.00413296  0.00269461  0.10782835
   0.35925014  0.00310571  0.10087643
   0.00384427  0.35750484  0.10087797
   0.64939964  0.64771185  0.10087177
   0.32789217  0.32607406  0.10155670
   0.68087410  0.00321488  0.10155939
   0.00376431  0.67904480  0.10155584
   0.00014977  0.50005344  0.33980597
   0.16667218  0.33337635  0.33986414
   0.00000929  0.00000754  0.33980582
   0.16673850  0.83336057  0.33986839
   0.49996981  0.50010896  0.33980804
   0.66669258  0.33334673  0.33969867
   0.49991126 -0.00013277  0.33980438
   0.66665968  0.83329577  0.33986415
Lattice                                 
           1
     4.195669    2.422377    0.000513
    -4.195668    2.422375    0.000245
     0.000468    0.002345   14.559228
   B    C 
     4    11
Direct configuration=    30
   0.00413272  0.00269351  0.10776155
   0.35923158  0.00311432  0.10088273
   0.00383856  0.35747867  0.10088452
   0.64942481  0.64773069  0.10087721
   0.32790971  0.32609357  0.10154769
   0.68085402  0.00321277  0.10154773
   0.00376324  0.67902534  0.10154344
   0.00012250  0.50004397  0.33981935
   0.16668008  0.33338807  0.33987259
   0.00001474  0.00000876  0.33981904
   0.16673437  0.83334843  0.33987693
   0.49998508  0.50008762  0.33982154
   0.66668754  0.33334583  0.33970127
   0.49993891 -0.00009876  0.33981780
   0.66664280  0.83329455  0.33987260
Lattice                                 
           1
     4.195460    2.422287    0.000545
    -4.195443    2.422257    0.000249
     0.000516    0.002454   14.555579
   B    C 
     4    11
Direct configuration=    31
   0.00413200  0.00269021  0.10756115
   0.35917590  0.00314015  0.10090163
   0.00382140  0.35740017  0.10090420
   0.64950033  0.64778722  0.10089354
   0.32796233  0.32615209  0.10152066
   0.68079379  0.00320645  0.10151273
   0.00376000  0.67896695  0.10150623
   0.00004071  0.50001555  0.33985950
   0.16670379  0.33342323  0.33989795
   0.00003108  0.00001242  0.33985872
   0.16672197  0.83331202  0.33990256
   0.50003090  0.50002360  0.33986204
   0.66667244  0.33334312  0.33970907
   0.50002185  0.00000327  0.33985806
   0.66659215  0.83329089  0.33989795
Lattice                                 
           1
     4.195042    2.422108    0.000609
    -4.194992    2.422021    0.000257
     0.000613    0.002672   14.548279
   B    C 
     4    11
Direct configuration=    32
   0.00413058  0.00268362  0.10716023
   0.35906453  0.00319181  0.10093944
   0.00378710  0.35724315  0.10094355
   0.64965138  0.64790027  0.10092621
   0.32806756  0.32626916  0.10146658
   0.68067332  0.00319381  0.10144273
   0.00375354  0.67885017  0.10143181
  -0.00012288  0.49995871  0.33993983
   0.16675122  0.33349355  0.33994867
   0.00006376  0.00001973  0.33993809
   0.16669719  0.83323918  0.33995382
   0.50012254  0.49989555  0.33994307
   0.66664224  0.33333771  0.33972469
   0.50018774  0.00020734  0.33993860
   0.66649084  0.83328357  0.33994867
Lattice                                 
           1
     4.195297    2.422217    0.000570
    -4.195267    2.422165    0.000252
     0.000554    0.002539   14.552723
   B    C 
     4    11
Direct configuration=    33
   0.00413143  0.00268762  0.10740441
   0.35913234  0.00316035  0.10091641
   0.00380799  0.35733875  0.10091958
   0.64955942  0.64783144  0.10090632
   0.32800349  0.32619789  0.10149952
   0.68074666  0.00320150  0.10148536
   0.00375747  0.67892127  0.10147714
  -0.00002328  0.49999332  0.33989091
   0.16672235  0.33345074  0.33991778
   0.00004387  0.00001528  0.33988975
   0.16671228  0.83328353  0.33992260
   0.50006675  0.49997351  0.33989372
   0.66666063  0.33334100  0.33971518
   0.50008675  0.00008311  0.33988955
   0.66655252  0.83328803  0.33991778
Lattice                                 
           1
     4.195232    2.422159    0.000586
    -4.195212    2.422125    0.000255
     0.000576    0.002597   14.551014
   B    C 
     4    11
Direct configuration=    34
   0.00413487  0.00269477  0.10730337
   0.35910950  0.00316686  0.10091864
   0.00380402  0.35731019  0.10092204
   0.64958649  0.64785159  0.10090769
   0.32798823  0.32619535  0.10149086
   0.68074575  0.00318741  0.10147363
   0.00376541  0.67892976  0.10146457
  -0.00003289  0.49998262  0.33990792
   0.16672134  0.33344953  0.33993489
   0.00003563  0.00001428  0.33990472
   0.16672916  0.83329583  0.33993981
   0.50006786  0.49998053  0.33991093
   0.66667024  0.33334308  0.33972547
   0.50007018  0.00008299  0.33990659
   0.66656489  0.83328255  0.33993487
Lattice                                 
           1
     4.195036    2.421985    0.000634
    -4.195048    2.422005    0.000265
     0.000643    0.002771   14.545889
   B    C 
     4    11
Direct configuration=    35
   0.00414519  0.00271620  0.10700022
   0.35904098  0.00318638  0.10092532
   0.00379213  0.35722451  0.10092940
   0.64966768  0.64791205  0.10091183
   0.32794246  0.32618774  0.10146488
   0.68074301  0.00314514  0.10143843
   0.00378921  0.67895523  0.10142685
  -0.00006172  0.49995051  0.33995897
   0.16671831  0.33344589  0.33998624
   0.00001090  0.00001129  0.33994965
   0.16677979  0.83333275  0.33999143
   0.50007117  0.50000160  0.33996255
   0.66669908  0.33334931  0.33975636
   0.50002046  0.00008263  0.33995772
   0.66660203  0.83326612  0.33998616
Lattice                                 
           1
     4.194645    2.421636    0.000730
    -4.194719    2.421765    0.000284
     0.000777    0.003118   14.535638
   B    C 
     4    11
Direct configuration=    36
   0.00416586  0.00275908  0.10639369
   0.35890394  0.00322541  0.10093869
   0.00376835  0.35705314  0.10094412
   0.64983007  0.64803297  0.10092009
   0.32785090  0.32617252  0.10141291
   0.68073752  0.00306060  0.10136801
   0.00383683  0.67900617  0.10135138
  -0.00011939  0.49988629  0.34006111
   0.16671225  0.33343861  0.34008897
  -0.00003857  0.00000530  0.34003953
   0.16688106  0.83340659  0.34009472
   0.50007779  0.50004373  0.34006582
   0.66675675  0.33336176  0.33981816
   0.49992101  0.00008191  0.34006001
   0.66667629  0.83323326  0.34008879
Lattice                                 
           1
     4.194668    2.421660    0.000745
    -4.194736    2.421778    0.000286
     0.000797    0.003169   14.534138
   B    C 
     4    11
Direct configuration=    37
   0.00416760  0.00276354  0.10630384
   0.35890078  0.00322699  0.10093863
   0.00376614  0.35704868  0.10094419
   0.64983480  0.64803362  0.10091947
   0.32784375  0.32617498  0.10140612
   0.68073290  0.00304885  0.10135895
   0.00384344  0.67901063  0.10134172
  -0.00010292  0.49989443  0.34007520
   0.16670770  0.33343404  0.34010529
  -0.00003438  0.00000620  0.34005209
   0.16687455  0.83340722  0.34011107
   0.50007512  0.50004978  0.34008004
   0.66675360  0.33336151  0.33983022
   0.49992024  0.00007071  0.34007410
   0.66667735  0.83323617  0.34010508
Lattice                                 
           1
     4.194739    2.421730    0.000788
    -4.194789    2.421817    0.000294
     0.000858    0.003324   14.529637
   B    C 
     4    11
Direct configuration=    38
   0.00417282  0.00277692  0.10603427
   0.35889130  0.00323173  0.10093843
   0.00375951  0.35703531  0.10094439
   0.64984900  0.64803556  0.10091760
   0.32782231  0.32618235  0.10138575
   0.68071902  0.00301361  0.10133178
   0.00386325  0.67902401  0.10131273
  -0.00005349  0.49991884  0.34011746
   0.16669402  0.33342031  0.34015425
  -0.00002180  0.00000890  0.34008980
   0.16685503  0.83340908  0.34016012
   0.50006711  0.50006791  0.34012268
   0.66674413  0.33336077  0.33986638
   0.49991791  0.00003711  0.34011637