  16  16   0   4
  0.1949369E+02  0.4900000E-09  0.4900000E-09  0.1500000E-08  0.5000000E-15
  1.000000000000000E-004
  CAR 
 Lattice                                 
     10.32698899    -21.36468227  301     -0.22198063      1.00000000
    -21.365  0.0000E+00  0.0000E+00  0.0000E+00  0.0000E+00
    -21.259  0.0000E+00  0.0000E+00  0.0000E+00  0.0000E+00
    -21.153  0.0000E+00  0.0000E+00  0.0000E+00  0.0000E+00
    -21.048  0.0000E+00  0.0000E+00  0.0000E+00  0.0000E+00
    -20.942  0.0000E+00  0.0000E+00  0.0000E+00  0.0000E+00
    -20.836  0.0000E+00  0.0000E+00  0.0000E+00  0.0000E+00
    -20.731  0.0000E+00  0.0000E+00  0.0000E+00  0.0000E+00
    -20.625  0.0000E+00  0.0000E+00  0.0000E+00  0.0000E+00
    -20.520  0.0000E+00  0.0000E+00  0.0000E+00  0.0000E+00
    -20.414  0.1196E-14  0.1196E-14  0.1263E-15  0.1263E-15
    -20.308  0.1696E-10  0.1696E-10  0.1791E-11  0.1791E-11
    -20.203  0.3032E-07  0.3032E-07  0.3205E-08  0.3205E-08
    -20.097  0.7482E-05  0.7482E-05  0.7936E-06  0.7936E-06
    -19.991  0.2833E-03  0.2833E-03  0.3072E-04  0.3072E-04
    -19.886  0.2014E-02  0.2014E-02  0.2434E-03  0.2434E-03
    -19.780  0.4214E-02  0.4214E-02  0.6886E-03  0.6886E-03
    -19.674  0.4617E-02  0.4617E-02  0.1176E-02  0.1176E-02
    -19.569  0.4999E-02  0.4999E-02  0.1705E-02  0.1705E-02
    -19.463  0.4270E-02  0.4270E-02  0.2156E-02  0.2156E-02
    -19.358  0.5472E-02  0.5472E-02  0.2734E-02  0.2734E-02
    -19.252  0.4226E-02  0.4226E-02  0.3180E-02  0.3180E-02
    -19.146  0.4480E-02  0.4480E-02  0.3653E-02  0.3653E-02
    -19.041  0.6044E-02  0.6044E-02  0.4292E-02  0.4292E-02
    -18.935  0.3742E-02  0.3742E-02  0.4687E-02  0.4687E-02
    -18.829  0.4193E-02  0.4193E-02  0.5130E-02  0.5130E-02
    -18.724  0.6235E-02  0.6235E-02  0.5789E-02  0.5789E-02
    -18.618  0.5096E-02  0.5096E-02  0.6327E-02  0.6327E-02
    -18.512  0.2907E-02  0.2907E-02  0.6634E-02  0.6634E-02
    -18.407  0.4960E-02  0.4960E-02  0.7158E-02  0.7158E-02
    -18.301  0.6859E-02  0.6859E-02  0.7883E-02  0.7883E-02
    -18.196  0.4430E-02  0.4430E-02  0.8351E-02  0.8351E-02
    -18.090  0.3710E-02  0.3710E-02  0.8743E-02  0.8743E-02
    -17.984  0.3374E-02  0.3374E-02  0.9099E-02  0.9099E-02
    -17.879  0.7192E-02  0.7192E-02  0.9859E-02  0.9859E-02
    -17.773  0.6198E-02  0.6198E-02  0.1051E-01  0.1051E-01
    -17.667  0.3251E-02  0.3251E-02  0.1086E-01  0.1086E-01
    -17.562  0.3620E-02  0.3620E-02  0.1124E-01  0.1124E-01
    -17.456  0.4398E-02  0.4398E-02  0.1170E-01  0.1170E-01
    -17.350  0.6827E-02  0.6827E-02  0.1243E-01  0.1243E-01
    -17.245  0.6399E-02  0.6399E-02  0.1310E-01  0.1310E-01
    -17.139  0.4386E-02  0.4386E-02  0.1356E-01  0.1356E-01
    -17.033  0.2183E-02  0.2183E-02  0.1380E-01  0.1380E-01
    -16.928  0.4291E-02  0.4291E-02  0.1425E-01  0.1425E-01
    -16.822  0.7051E-02  0.7051E-02  0.1499E-01  0.1499E-01
    -16.717  0.6292E-02  0.6292E-02  0.1566E-01  0.1566E-01
    -16.611  0.5197E-02  0.5197E-02  0.1621E-01  0.1621E-01
    -16.505  0.4404E-02  0.4404E-02  0.1667E-01  0.1667E-01
    -16.400  0.2742E-02  0.2742E-02  0.1696E-01  0.1696E-01
    -16.294  0.3117E-02  0.3117E-02  0.1729E-01  0.1729E-01
    -16.188  0.8770E-02  0.8770E-02  0.1822E-01  0.1822E-01
    -16.083  0.6897E-02  0.6897E-02  0.1895E-01  0.1895E-01
    -15.977  0.6314E-02  0.6314E-02  0.1961E-01  0.1961E-01
    -15.871  0.8819E-02  0.8819E-02  0.2055E-01  0.2055E-01
    -15.766  0.1017E-01  0.1017E-01  0.2162E-01  0.2162E-01
    -15.660  0.9427E-02  0.9427E-02  0.2262E-01  0.2262E-01
    -15.555  0.1209E-01  0.1209E-01  0.2389E-01  0.2389E-01
    -15.449  0.1552E-01  0.1552E-01  0.2553E-01  0.2553E-01
    -15.343  0.1357E-01  0.1357E-01  0.2697E-01  0.2697E-01
    -15.238  0.1113E-01  0.1113E-01  0.2814E-01  0.2814E-01
    -15.132  0.1346E-01  0.1346E-01  0.2956E-01  0.2956E-01
    -15.026  0.1236E-01  0.1236E-01  0.3087E-01  0.3087E-01
    -14.921  0.1042E-01  0.1042E-01  0.3197E-01  0.3197E-01
    -14.815  0.1036E-01  0.1036E-01  0.3306E-01  0.3306E-01
    -14.709  0.1029E-01  0.1029E-01  0.3415E-01  0.3415E-01
    -14.604  0.8315E-02  0.8315E-02  0.3503E-01  0.3503E-01
    -14.498  0.7731E-02  0.7731E-02  0.3585E-01  0.3585E-01
    -14.393  0.8716E-02  0.8716E-02  0.3677E-01  0.3677E-01
    -14.287  0.7646E-02  0.7646E-02  0.3757E-01  0.3757E-01
    -14.181  0.1293E-01  0.1293E-01  0.3894E-01  0.3894E-01
    -14.076  0.1586E-01  0.1586E-01  0.4062E-01  0.4062E-01
    -13.970  0.7838E-02  0.7838E-02  0.4144E-01  0.4144E-01
    -13.864  0.5375E-02  0.5375E-02  0.4201E-01  0.4201E-01
    -13.759  0.4766E-02  0.4766E-02  0.4251E-01  0.4251E-01
    -13.653  0.4202E-02  0.4202E-02  0.4296E-01  0.4296E-01
    -13.547  0.6820E-02  0.6820E-02  0.4368E-01  0.4368E-01
    -13.442  0.1122E-01  0.1122E-01  0.4486E-01  0.4486E-01
    -13.336  0.8339E-02  0.8339E-02  0.4574E-01  0.4574E-01
    -13.230  0.5609E-02  0.5609E-02  0.4634E-01  0.4634E-01
    -13.125  0.7344E-02  0.7344E-02  0.4711E-01  0.4711E-01
    -13.019  0.6945E-02  0.6945E-02  0.4785E-01  0.4785E-01
    -12.914  0.7266E-02  0.7266E-02  0.4861E-01  0.4861E-01
    -12.808  0.8080E-02  0.8080E-02  0.4947E-01  0.4947E-01
    -12.702  0.7508E-02  0.7508E-02  0.5026E-01  0.5026E-01
    -12.597  0.8619E-02  0.8619E-02  0.5117E-01  0.5117E-01
    -12.491  0.1320E-01  0.1320E-01  0.5257E-01  0.5257E-01
    -12.385  0.1065E-01  0.1065E-01  0.5369E-01  0.5369E-01
    -12.280  0.1221E-01  0.1221E-01  0.5498E-01  0.5498E-01
    -12.174  0.1210E-01  0.1210E-01  0.5626E-01  0.5626E-01
    -12.068  0.1130E-01  0.1130E-01  0.5745E-01  0.5745E-01
    -11.963  0.1819E-01  0.1819E-01  0.5937E-01  0.5937E-01
    -11.857  0.1660E-01  0.1660E-01  0.6113E-01  0.6113E-01
    -11.752  0.1277E-01  0.1277E-01  0.6248E-01  0.6248E-01
    -11.646  0.1184E-01  0.1184E-01  0.6373E-01  0.6373E-01
    -11.540  0.1088E-01  0.1088E-01  0.6488E-01  0.6488E-01
    -11.435  0.1022E-01  0.1022E-01  0.6596E-01  0.6596E-01
    -11.329  0.5350E-02  0.5350E-02  0.6652E-01  0.6652E-01
    -11.223  0.2478E-02  0.2478E-02  0.6678E-01  0.6678E-01
    -11.118  0.4223E-02  0.4223E-02  0.6723E-01  0.6723E-01
    -11.012  0.6546E-02  0.6546E-02  0.6792E-01  0.6792E-01
    -10.906  0.6294E-02  0.6294E-02  0.6859E-01  0.6859E-01
    -10.801  0.6139E-02  0.6139E-02  0.6924E-01  0.6924E-01
    -10.695  0.1064E-01  0.1064E-01  0.7036E-01  0.7036E-01
    -10.590  0.1136E-01  0.1136E-01  0.7156E-01  0.7156E-01
    -10.484  0.1065E-01  0.1065E-01  0.7268E-01  0.7268E-01
    -10.378  0.1862E-01  0.1862E-01  0.7465E-01  0.7465E-01
    -10.273  0.1681E-01  0.1681E-01  0.7643E-01  0.7643E-01
    -10.167  0.6410E-02  0.6410E-02  0.7710E-01  0.7710E-01
    -10.061  0.5400E-02  0.5400E-02  0.7767E-01  0.7767E-01
     -9.956  0.1193E-01  0.1193E-01  0.7893E-01  0.7893E-01
     -9.850  0.1610E-01  0.1610E-01  0.8063E-01  0.8063E-01
     -9.744  0.1118E-01  0.1118E-01  0.8182E-01  0.8182E-01
     -9.639  0.4389E-02  0.4389E-02  0.8228E-01  0.8228E-01
     -9.533  0.3098E-02  0.3098E-02  0.8261E-01  0.8261E-01
     -9.427  0.1264E-01  0.1264E-01  0.8394E-01  0.8394E-01
     -9.322  0.2238E-01  0.2238E-01  0.8631E-01  0.8631E-01
     -9.216  0.1906E-01  0.1906E-01  0.8832E-01  0.8832E-01
     -9.111  0.1550E-01  0.1550E-01  0.8996E-01  0.8996E-01
     -9.005  0.1191E-01  0.1191E-01  0.9121E-01  0.9121E-01
     -8.899  0.1110E-01  0.1110E-01  0.9239E-01  0.9239E-01
     -8.794  0.1290E-01  0.1290E-01  0.9375E-01  0.9375E-01
     -8.688  0.1743E-01  0.1743E-01  0.9559E-01  0.9559E-01
     -8.582  0.1784E-01  0.1784E-01  0.9748E-01  0.9748E-01
     -8.477  0.1122E-01  0.1122E-01  0.9866E-01  0.9866E-01
     -8.371  0.1079E-01  0.1079E-01  0.9980E-01  0.9980E-01
     -8.265  0.1948E-01  0.1948E-01  0.1019E+00  0.1019E+00
     -8.160  0.1619E-01  0.1619E-01  0.1036E+00  0.1036E+00
     -8.054  0.1212E-01  0.1212E-01  0.1048E+00  0.1048E+00
     -7.949  0.1516E-01  0.1516E-01  0.1065E+00  0.1065E+00
     -7.843  0.1526E-01  0.1526E-01  0.1081E+00  0.1081E+00
     -7.737  0.2200E-01  0.2200E-01  0.1104E+00  0.1104E+00
     -7.632  0.2305E-01  0.2305E-01  0.1128E+00  0.1128E+00
     -7.526  0.1604E-01  0.1604E-01  0.1145E+00  0.1145E+00
     -7.420  0.1362E-01  0.1362E-01  0.1160E+00  0.1160E+00
     -7.315  0.1637E-01  0.1637E-01  0.1177E+00  0.1177E+00
     -7.209  0.2204E-01  0.2204E-01  0.1200E+00  0.1200E+00
     -7.103  0.1857E-01  0.1857E-01  0.1220E+00  0.1220E+00
     -6.998  0.1310E-01  0.1310E-01  0.1234E+00  0.1234E+00
     -6.892  0.1481E-01  0.1481E-01  0.1249E+00  0.1249E+00
     -6.787  0.2183E-01  0.2183E-01  0.1272E+00  0.1272E+00
     -6.681  0.2598E-01  0.2598E-01  0.1300E+00  0.1300E+00
     -6.575  0.2862E-01  0.2862E-01  0.1330E+00  0.1330E+00
     -6.470  0.2748E-01  0.2748E-01  0.1359E+00  0.1359E+00
     -6.364  0.2648E-01  0.2648E-01  0.1387E+00  0.1387E+00
     -6.258  0.2988E-01  0.2988E-01  0.1419E+00  0.1419E+00
     -6.153  0.1867E-01  0.1867E-01  0.1438E+00  0.1438E+00
     -6.047  0.1770E-01  0.1770E-01  0.1457E+00  0.1457E+00
     -5.941  0.1709E-01  0.1709E-01  0.1475E+00  0.1475E+00
     -5.836  0.1053E-01  0.1053E-01  0.1486E+00  0.1486E+00
     -5.730  0.2002E-01  0.2002E-01  0.1507E+00  0.1507E+00
     -5.624  0.2089E-01  0.2089E-01  0.1529E+00  0.1529E+00
     -5.519  0.9379E-02  0.9379E-02  0.1539E+00  0.1539E+00
     -5.413  0.6942E-02  0.6942E-02  0.1547E+00  0.1547E+00
     -5.308  0.1573E-01  0.1573E-01  0.1563E+00  0.1563E+00
     -5.202  0.2097E-01  0.2097E-01  0.1585E+00  0.1585E+00
     -5.096  0.1554E-01  0.1554E-01  0.1602E+00  0.1602E+00
     -4.991  0.1125E-01  0.1125E-01  0.1614E+00  0.1614E+00
     -4.885  0.1310E-01  0.1310E-01  0.1627E+00  0.1627E+00
     -4.779  0.1217E-01  0.1217E-01  0.1640E+00  0.1640E+00
     -4.674  0.1077E-01  0.1077E-01  0.1652E+00  0.1652E+00
     -4.568  0.1338E-01  0.1338E-01  0.1666E+00  0.1666E+00
     -4.462  0.1185E-01  0.1185E-01  0.1678E+00  0.1678E+00
     -4.357  0.1371E-01  0.1371E-01  0.1693E+00  0.1693E+00
     -4.251  0.2373E-01  0.2373E-01  0.1718E+00  0.1718E+00
     -4.146  0.2151E-01  0.2151E-01  0.1741E+00  0.1741E+00
     -4.040  0.1046E-01  0.1046E-01  0.1752E+00  0.1752E+00
     -3.934  0.1559E-01  0.1559E-01  0.1768E+00  0.1768E+00
     -3.829  0.2693E-01  0.2693E-01  0.1797E+00  0.1797E+00
     -3.723  0.2270E-01  0.2270E-01  0.1821E+00  0.1821E+00
     -3.617  0.2182E-01  0.2182E-01  0.1844E+00  0.1844E+00
     -3.512  0.2859E-01  0.2859E-01  0.1874E+00  0.1874E+00
     -3.406  0.2565E-01  0.2565E-01  0.1901E+00  0.1901E+00
     -3.300  0.1868E-01  0.1868E-01  0.1921E+00  0.1921E+00
     -3.195  0.1471E-01  0.1471E-01  0.1936E+00  0.1936E+00
     -3.089  0.1305E-01  0.1305E-01  0.1950E+00  0.1950E+00
     -2.984  0.1387E-01  0.1387E-01  0.1965E+00  0.1965E+00
     -2.878  0.1263E-01  0.1263E-01  0.1978E+00  0.1978E+00
     -2.772  0.1471E-01  0.1471E-01  0.1994E+00  0.1994E+00
     -2.667  0.1159E-01  0.1159E-01  0.2006E+00  0.2006E+00
     -2.561  0.6985E-02  0.6985E-02  0.2013E+00  0.2013E+00
     -2.455  0.1122E-01  0.1122E-01  0.2025E+00  0.2025E+00
     -2.350  0.1936E-01  0.1936E-01  0.2045E+00  0.2045E+00
     -2.244  0.1355E-01  0.1355E-01  0.2060E+00  0.2060E+00
     -2.138  0.7266E-02  0.7266E-02  0.2067E+00  0.2067E+00
     -2.033  0.1044E-01  0.1044E-01  0.2078E+00  0.2078E+00
     -1.927  0.6844E-02  0.6844E-02  0.2086E+00  0.2086E+00
     -1.821  0.5861E-02  0.5861E-02  0.2092E+00  0.2092E+00
     -1.716  0.8945E-02  0.8945E-02  0.2101E+00  0.2101E+00
     -1.610  0.1006E-01  0.1006E-01  0.2112E+00  0.2112E+00
     -1.505  0.8721E-02  0.8720E-02  0.2121E+00  0.2121E+00
     -1.399  0.8611E-02  0.8611E-02  0.2130E+00  0.2130E+00
     -1.293  0.8362E-02  0.8362E-02  0.2139E+00  0.2139E+00
     -1.188  0.5601E-02  0.5601E-02  0.2145E+00  0.2145E+00
     -1.082  0.5736E-02  0.5736E-02  0.2151E+00  0.2151E+00
     -0.976  0.5749E-02  0.5749E-02  0.2157E+00  0.2157E+00
     -0.871  0.7782E-02  0.7782E-02  0.2165E+00  0.2165E+00
     -0.765  0.6122E-02  0.6122E-02  0.2172E+00  0.2172E+00
     -0.659  0.2782E-02  0.2782E-02  0.2175E+00  0.2175E+00
     -0.554  0.1074E-02  0.1074E-02  0.2176E+00  0.2176E+00
     -0.448  0.2818E-02  0.2818E-02  0.2179E+00  0.2179E+00
     -0.343  0.4224E-02  0.4224E-02  0.2183E+00  0.2183E+00
     -0.237  0.3529E-02  0.3529E-02  0.2187E+00  0.2187E+00
     -0.131  0.2145E-02  0.2145E-02  0.2189E+00  0.2189E+00
     -0.026  0.2857E-02  0.2857E-02  0.2192E+00  0.2192E+00
      0.080  0.3285E-02  0.3285E-02  0.2196E+00  0.2196E+00
      0.186  0.2557E-02  0.2557E-02  0.2199E+00  0.2199E+00
      0.291  0.4135E-02  0.4135E-02  0.2203E+00  0.2203E+00
      0.397  0.9419E-02  0.9419E-02  0.2213E+00  0.2213E+00
      0.503  0.1203E-01  0.1203E-01  0.2226E+00  0.2226E+00
      0.608  0.1067E-01  0.1067E-01  0.2237E+00  0.2237E+00
      0.714  0.7122E-02  0.7122E-02  0.2244E+00  0.2244E+00
      0.819  0.2144E-02  0.2144E-02  0.2247E+00  0.2247E+00
      0.925  0.5567E-02  0.5567E-02  0.2253E+00  0.2253E+00
      1.031  0.1229E-01  0.1229E-01  0.2265E+00  0.2265E+00
      1.136  0.7995E-02  0.7995E-02  0.2274E+00  0.2274E+00
      1.242  0.5129E-02  0.5129E-02  0.2279E+00  0.2279E+00
      1.348  0.1153E-01  0.1153E-01  0.2292E+00  0.2292E+00
      1.453  0.1444E-01  0.1444E-01  0.2307E+00  0.2307E+00
      1.559  0.1315E-01  0.1315E-01  0.2321E+00  0.2321E+00
      1.665  0.1124E-01  0.1124E-01  0.2333E+00  0.2333E+00
      1.770  0.1005E-01  0.1005E-01  0.2343E+00  0.2343E+00
      1.876  0.1006E-01  0.1006E-01  0.2354E+00  0.2354E+00
      1.982  0.1038E-01  0.1038E-01  0.2365E+00  0.2365E+00
      2.087  0.8858E-02  0.8858E-02  0.2374E+00  0.2374E+00
      2.193  0.1163E-01  0.1163E-01  0.2386E+00  0.2386E+00
      2.298  0.9679E-02  0.9679E-02  0.2397E+00  0.2397E+00
      2.404  0.4502E-02  0.4502E-02  0.2401E+00  0.2401E+00
      2.510  0.8898E-02  0.8898E-02  0.2411E+00  0.2411E+00
      2.615  0.1456E-01  0.1456E-01  0.2426E+00  0.2426E+00
      2.721  0.1224E-01  0.1224E-01  0.2439E+00  0.2439E+00
      2.827  0.1033E-01  0.1033E-01  0.2450E+00  0.2450E+00
      2.932  0.8862E-02  0.8862E-02  0.2459E+00  0.2459E+00
      3.038  0.8617E-02  0.8618E-02  0.2468E+00  0.2468E+00
      3.144  0.1214E-01  0.1214E-01  0.2481E+00  0.2481E+00
      3.249  0.1274E-01  0.1274E-01  0.2495E+00  0.2495E+00
      3.355  0.1368E-01  0.1369E-01  0.2509E+00  0.2509E+00
      3.460  0.2295E-01  0.2295E-01  0.2533E+00  0.2533E+00
      3.566  0.1887E-01  0.1887E-01  0.2553E+00  0.2553E+00
      3.672  0.9457E-02  0.9458E-02  0.2563E+00  0.2563E+00
      3.777  0.1020E-01  0.1020E-01  0.2574E+00  0.2574E+00
      3.883  0.1567E-01  0.1567E-01  0.2591E+00  0.2591E+00
      3.989  0.2374E-01  0.2375E-01  0.2616E+00  0.2616E+00
      4.094  0.2527E-01  0.2527E-01  0.2643E+00  0.2643E+00
      4.200  0.1903E-01  0.1903E-01  0.2663E+00  0.2663E+00
      4.306  0.1895E-01  0.1895E-01  0.2683E+00  0.2683E+00
      4.411  0.1682E-01  0.1682E-01  0.2700E+00  0.2700E+00
      4.517  0.1539E-01  0.1539E-01  0.2717E+00  0.2717E+00
      4.622  0.2044E-01  0.2044E-01  0.2738E+00  0.2738E+00
      4.728  0.2265E-01  0.2265E-01  0.2762E+00  0.2762E+00
      4.834  0.2778E-01  0.2778E-01  0.2792E+00  0.2792E+00
      4.939  0.3003E-01  0.3004E-01  0.2823E+00  0.2823E+00
      5.045  0.2703E-01  0.2703E-01  0.2852E+00  0.2852E+00
      5.151  0.2742E-01  0.2742E-01  0.2881E+00  0.2881E+00
      5.256  0.2796E-01  0.2797E-01  0.2910E+00  0.2910E+00
      5.362  0.2619E-01  0.2619E-01  0.2938E+00  0.2938E+00
      5.468  0.2685E-01  0.2685E-01  0.2966E+00  0.2966E+00
      5.573  0.2312E-01  0.2313E-01  0.2991E+00  0.2991E+00
      5.679  0.2703E-01  0.2703E-01  0.3019E+00  0.3019E+00
      5.785  0.2858E-01  0.2857E-01  0.3050E+00  0.3050E+00
      5.890  0.2281E-01  0.2280E-01  0.3074E+00  0.3074E+00
      5.996  0.2025E-01  0.2025E-01  0.3095E+00  0.3095E+00
      6.101  0.2005E-01  0.2005E-01  0.3116E+00  0.3116E+00
      6.207  0.2317E-01  0.2318E-01  0.3141E+00  0.3141E+00
      6.313  0.2414E-01  0.2414E-01  0.3166E+00  0.3166E+00
      6.418  0.1511E-01  0.1510E-01  0.3182E+00  0.3182E+00
      6.524  0.1793E-01  0.1793E-01  0.3201E+00  0.3201E+00
      6.630  0.2056E-01  0.2057E-01  0.3223E+00  0.3223E+00
      6.735  0.1952E-01  0.1951E-01  0.3243E+00  0.3243E+00
      6.841  0.1506E-01  0.1505E-01  0.3259E+00  0.3259E+00
      6.947  0.2100E-01  0.2101E-01  0.3281E+00  0.3282E+00
      7.052  0.3079E-01  0.3081E-01  0.3314E+00  0.3314E+00
      7.158  0.3519E-01  0.3519E-01  0.3351E+00  0.3351E+00
      7.263  0.2662E-01  0.2661E-01  0.3379E+00  0.3379E+00
      7.369  0.2192E-01  0.2191E-01  0.3402E+00  0.3402E+00
      7.475  0.2712E-01  0.2712E-01  0.3431E+00  0.3431E+00
      7.580  0.3241E-01  0.3241E-01  0.3465E+00  0.3465E+00
      7.686  0.3581E-01  0.3581E-01  0.3503E+00  0.3503E+00
      7.792  0.3087E-01  0.3087E-01  0.3536E+00  0.3536E+00
      7.897  0.2959E-01  0.2960E-01  0.3567E+00  0.3567E+00
      8.003  0.3698E-01  0.3698E-01  0.3606E+00  0.3606E+00
      8.109  0.3956E-01  0.3957E-01  0.3648E+00  0.3648E+00
      8.214  0.3380E-01  0.3379E-01  0.3684E+00  0.3684E+00
      8.320  0.2747E-01  0.2746E-01  0.3713E+00  0.3713E+00
      8.425  0.2029E-01  0.2028E-01  0.3734E+00  0.3734E+00
      8.531  0.7939E-02  0.7931E-02  0.3742E+00  0.3742E+00
      8.637  0.2798E-02  0.2798E-02  0.3745E+00  0.3745E+00
      8.742  0.3026E-02  0.3026E-02  0.3749E+00  0.3749E+00
      8.848  0.9218E-03  0.9206E-03  0.3750E+00  0.3750E+00
      8.954  0.3085E-03  0.3084E-03  0.3750E+00  0.3750E+00
      9.059  0.8424E-04  0.8423E-04  0.3750E+00  0.3750E+00
      9.165  0.3702E-05  0.3701E-05  0.3750E+00  0.3750E+00
      9.271  0.2103E-07  0.2102E-07  0.3750E+00  0.3750E+00
      9.376  0.1426E-10  0.1425E-10  0.3750E+00  0.3750E+00
      9.482  0.1107E-14  0.1107E-14  0.3750E+00  0.3750E+00
      9.588  0.0000E+00  0.0000E+00  0.3750E+00  0.3750E+00
      9.693  0.0000E+00  0.0000E+00  0.3750E+00  0.3750E+00
      9.799  0.0000E+00  0.0000E+00  0.3750E+00  0.3750E+00
      9.904  0.0000E+00  0.0000E+00  0.3750E+00  0.3750E+00
     10.010  0.0000E+00  0.0000E+00  0.3750E+00  0.3750E+00
     10.116  0.0000E+00  0.0000E+00  0.3750E+00  0.3750E+00
     10.221  0.0000E+00  0.0000E+00  0.3750E+00  0.3750E+00
     10.327  0.0000E+00  0.0000E+00  0.3750E+00  0.3750E+00
